                         Program Version 3.0.3 - RELEASE   -
|  1> ! RI-MP2 RIJK def2-TZVP def2-TZVP/C def2-TZVP/JK TIGHTSCF
|  2> % maxcore 2000
|  3> % mp2 density relaxed end
|  4> *xyz 0 1
|  5>  C       -0.0022398759     1.5109309852     0.0818701048
|  6>  C        0.0124019639     0.0238238879     0.0187077235
|  7>  C       -0.0054498914    -0.7571307425    -1.0809728717
|  8>  N        0.0179435321    -2.1273198562    -0.7486754767
|  9>  C        0.0524568923    -2.3114816686     0.6228330658
| 10>  O        0.0776299818    -3.3704418100     1.1988889264
| 11>  C        0.0511604435    -0.8909437871     1.2157421188
| 12>  C       -0.0425547575    -0.3452908746    -2.4382796700
| 13>  N       -0.0727547587    -0.0195687071    -3.5494605108
| 14>  H        0.8866573617     1.8925383857     0.5993786347
| 15>  H       -0.0321301819     1.9530241634    -0.9170387438
| 16>  H       -0.8721478021     1.8732900414     0.6435655006
| 17>  H        0.0096713708    -2.8852752851    -1.4114363655
| 18>  H        0.9431927764    -0.7470957120     1.8368176025
| 19>  H       -0.8128688451    -0.7662897802     1.8791096413
| 20> *
| 21>
| 22>                          ****END OF INPUT****

CARTESIAN COORDINATES (ANGSTROEM)
---------------------------------
  C     -0.002240    1.510931    0.081870
  C      0.012402    0.023824    0.018708
  C     -0.005450   -0.757131   -1.080973
  N      0.017944   -2.127320   -0.748675
  C      0.052457   -2.311482    0.622833
  O      0.077630   -3.370442    1.198889
  C      0.051160   -0.890944    1.215742
  C     -0.042555   -0.345291   -2.438280
  N     -0.072755   -0.019569   -3.549461
  H      0.886657    1.892538    0.599379
  H     -0.032130    1.953024   -0.917039
  H     -0.872148    1.873290    0.643566
  H      0.009671   -2.885275   -1.411436
  H      0.943193   -0.747096    1.836818
  H     -0.812869   -0.766290    1.879110

 Total Charge           Charge          ....    0
 Multiplicity           Mult            ....    1
 Number of Electrons    NEL             ....   64
 Basis Dimension        Dim             ....  315

ORBITAL ENERGIES
----------------

  NO   OCC          E(Eh)            E(eV)
   0   2.0000     -20.543773      -559.0245
   1   2.0000     -15.619262      -425.0217
   2   2.0000     -15.597385      -424.4264
   3   2.0000     -11.376448      -309.5689
   4   2.0000     -11.330152      -308.3091
   5   2.0000     -11.298381      -307.4446
   6   2.0000     -11.287973      -307.1613
   7   2.0000     -11.273601      -306.7703
   8   2.0000     -11.258197      -306.3511
   9   2.0000      -1.409518       -38.3549
  10   2.0000      -1.301392       -35.4127
  11   2.0000      -1.237004       -33.6606
  12   2.0000      -1.121050       -30.5053
  13   2.0000      -1.032323       -28.0909
  14   2.0000      -0.986928       -26.8557
  15   2.0000      -0.855671       -23.2840
  16   2.0000      -0.813999       -22.1500
  17   2.0000      -0.761494       -20.7213
  18   2.0000      -0.675060       -18.3693
  19   2.0000      -0.670605       -18.2481
  20   2.0000      -0.643633       -17.5141
  21   2.0000      -0.610578       -16.6147
  22   2.0000      -0.596560       -16.2332
  23   2.0000      -0.592155       -16.1133
  24   2.0000      -0.580936       -15.8081
  25   2.0000      -0.568542       -15.4708
  26   2.0000      -0.548613       -14.9285
  27   2.0000      -0.532922       -14.5015
  28   2.0000      -0.492455       -13.4004
  29   2.0000      -0.472089       -12.8462
  30   2.0000      -0.441184       -12.0052
  31   2.0000      -0.343899        -9.3580
  32   0.0000       0.075620         2.0577
  33   0.0000       0.112176         3.0525
  34   0.0000       0.135387         3.6841
  35   0.0000       0.155015         4.2182
  36   0.0000       0.165152         4.4940

MULLIKEN ATOMIC CHARGES
-----------------------
   0 C :   -0.398211
   1 C :   -0.094086
   2 C :    0.290790
   3 N :   -0.298089
   4 C :    0.181291
   5 O :   -0.307295
   6 C :   -0.152762
   7 C :   -0.223146
   8 N :   -0.030285
   9 H :    0.150810
  10 H :    0.159005
  11 H :    0.150773
  12 H :    0.259783
  13 H :    0.155709
  14 H :    0.155712
Sum of atomic charges:   -0.0000000

LOEWDIN ATOMIC CHARGES
----------------------
   0 C :   -0.261897
   1 C :   -0.142469
   2 C :   -0.195651
   3 N :    0.181106
   4 C :   -0.407508
   5 O :    0.108937
   6 C :   -0.167127
   7 C :   -0.150400
   8 N :    0.090617
   9 H :    0.137550
  10 H :    0.140771
  11 H :    0.137538
  12 H :    0.197090
  13 H :    0.165725
  14 H :    0.165717

  Mayer bond orders larger than 0.1
B(  0-C ,  1-C ) :   0.8828 B(  0-C ,  9-H ) :   0.9309 B(  0-C , 10-H ) :   0.9397
B(  0-C , 11-H ) :   0.9310 B(  1-C ,  2-C ) :   1.5988 B(  1-C ,  6-C ) :   0.9635
B(  2-C ,  3-N ) :   0.9982 B(  2-C ,  7-C ) :   0.8840 B(  3-N ,  4-C ) :   1.1006
B(  3-N , 12-H ) :   0.8593 B(  4-C ,  5-O ) :   2.0401 B(  4-C ,  6-C ) :   0.9234
B(  6-C , 13-H ) :   0.8894 B(  6-C , 14-H ) :   0.8894 B(  7-C ,  8-N ) :   2.8417

MP2 TOTAL ENERGY:     -416.159600763 Eh
FINAL SINGLE POINT ENERGY      -416.159600763140

DIPOLE MOMENT
-------------
                                X             Y             Z
Electronic contribution:     -0.04347      -5.77655      -4.43027
Nuclear contribution   :      0.05140       6.54510       5.11733
                        -----------------------------------------
Total Dipole Moment    :      0.00794       0.76855       0.68706
                        -----------------------------------------
Magnitude (a.u.)       :      1.03092
Magnitude (Debye)      :      2.62038

                             ****ORCA TERMINATED NORMALLY****
TOTAL RUN TIME: 0 days 0 hours 14 minutes 29 seconds 921 msec
