                         Program Version 3.0.3 - RELEASE   -
|  1> ! RI-MP2 RIJK def2-TZVP def2-TZVP/C def2-TZVP/JK TIGHTSCF
|  2> % maxcore 2000
|  3> % mp2 density relaxed end
|  4> *xyz 0 1
|  5>  C        0.0285116735     1.5094699904     0.0487240162
|  6>  C        0.0234159476     0.0035541497     0.0291335402
|  7>  C       -0.0514164136    -0.7193423115    -1.1613060377
|  8>  N       -0.0608065429    -2.0494484228    -1.2589397213
|  9>  C        0.0078337086    -2.7304026985    -0.1102981714
| 10>  C        0.0860582009    -2.1359723243     1.1410992067
| 11>  C        0.0940872078    -0.7447985990     1.2130416931
| 12>  O        0.1708358684    -0.1710349399     2.4401802857
| 13>  H        0.9448243055     1.9155091122     0.4981545410
| 14>  H       -0.0341718102     1.9078348129    -0.9668284570
| 15>  H       -0.8224220042     1.9200233194     0.6089420477
| 16>  H       -0.1076462538    -0.1708171507    -2.1009418751
| 17>  H       -0.0000346022    -3.8146724829    -0.1931552414
| 18>  H        0.1402611601    -2.7229710749     2.0502005417
| 19>  H        0.1679388145     0.7875348598     2.3481358917
| 20> *
| 21>
| 22>                          ****END OF INPUT****

CARTESIAN COORDINATES (ANGSTROEM)
---------------------------------
  C      0.028512    1.509470    0.048724
  C      0.023416    0.003554    0.029134
  C     -0.051416   -0.719342   -1.161306
  N     -0.060807   -2.049448   -1.258940
  C      0.007834   -2.730403   -0.110298
  C      0.086058   -2.135972    1.141099
  C      0.094087   -0.744799    1.213042
  O      0.170836   -0.171035    2.440180
  H      0.944824    1.915509    0.498155
  H     -0.034172    1.907835   -0.966828
  H     -0.822422    1.920023    0.608942
  H     -0.107646   -0.170817   -2.100942
  H     -0.000035   -3.814672   -0.193155
  H      0.140261   -2.722971    2.050201
  H      0.167939    0.787535    2.348136

 Total Charge           Charge          ....    0
 Multiplicity           Mult            ....    1
 Number of Electrons    NEL             ....   58
 Basis Dimension        Dim             ....  290

ORBITAL ENERGIES
----------------

  NO   OCC          E(Eh)            E(eV)
   0   2.0000     -20.605836      -560.7133
   1   2.0000     -15.553127      -423.2221
   2   2.0000     -11.321006      -308.0602
   3   2.0000     -11.273383      -306.7644
   4   2.0000     -11.271747      -306.7198
   5   2.0000     -11.247323      -306.0552
   6   2.0000     -11.244845      -305.9878
   7   2.0000     -11.230595      -305.6000
   8   2.0000      -1.425784       -38.7976
   9   2.0000      -1.252737       -34.0887
  10   2.0000      -1.092324       -29.7236
  11   2.0000      -1.051878       -28.6230
  12   2.0000      -0.958668       -26.0867
  13   2.0000      -0.855000       -23.2657
  14   2.0000      -0.847381       -23.0584
  15   2.0000      -0.755242       -20.5512
  16   2.0000      -0.700362       -19.0578
  17   2.0000      -0.642897       -17.4941
  18   2.0000      -0.626079       -17.0365
  19   2.0000      -0.621848       -16.9213
  20   2.0000      -0.594468       -16.1763
  21   2.0000      -0.579110       -15.7584
  22   2.0000      -0.577518       -15.7151
  23   2.0000      -0.562057       -15.2943
  24   2.0000      -0.519825       -14.1452
  25   2.0000      -0.506722       -13.7886
  26   2.0000      -0.416717       -11.3394
  27   2.0000      -0.353060        -9.6073
  28   2.0000      -0.343076        -9.3356
  29   0.0000       0.118194         3.2162
  30   0.0000       0.121386         3.3031
  31   0.0000       0.124634         3.3915
  32   0.0000       0.169648         4.6164
  33   0.0000       0.177071         4.8183

MULLIKEN ATOMIC CHARGES
-----------------------
   0 C :   -0.507997
   1 C :    0.113615
   2 C :   -0.082825
   3 N :   -0.250058
   4 C :   -0.025189
   5 C :   -0.177968
   6 C :    0.146126
   7 O :   -0.408146
   8 H :    0.158905
   9 H :    0.153355
  10 H :    0.158762
  11 H :    0.118312
  12 H :    0.127327
  13 H :    0.137049
  14 H :    0.338732
Sum of atomic charges:    0.0000000

LOEWDIN ATOMIC CHARGES
----------------------
   0 C :   -0.276949
   1 C :   -0.170308
   2 C :   -0.201786
   3 N :    0.118946
   4 C :   -0.219975
   5 C :   -0.125256
   6 C :   -0.245732
   7 O :    0.093265
   8 H :    0.131335
   9 H :    0.138647
  10 H :    0.131302
  11 H :    0.140400
  12 H :    0.138843
  13 H :    0.154697
  14 H :    0.192572

  Mayer bond orders larger than 0.1
B(  0-C ,  1-C ) :   0.8391 B(  0-C ,  8-H ) :   0.9351 B(  0-C ,  9-H ) :   0.9341
B(  0-C , 10-H ) :   0.9351 B(  1-C ,  2-C ) :   1.2913 B(  1-C ,  6-C ) :   1.2518
B(  2-C ,  3-N ) :   1.4299 B(  2-C , 11-H ) :   0.9519 B(  3-N ,  4-C ) :   1.3768
B(  4-C ,  5-C ) :   1.3413 B(  4-C , 12-H ) :   0.9446 B(  5-C ,  6-C ) :   1.3532
B(  5-C , 13-H ) :   0.9171 B(  6-C ,  7-O ) :   1.1333 B(  7-O , 14-H ) :   0.8275

MP2 TOTAL ENERGY:     -362.100108047 Eh
FINAL SINGLE POINT ENERGY      -362.100108047174

DIPOLE MOMENT
-------------
                                X             Y             Z
Electronic contribution:      0.03163      -4.13228       0.68881
Nuclear contribution   :      0.00528       5.22137      -0.13522
                        -----------------------------------------
Total Dipole Moment    :      0.03691       1.08909       0.55360
                        -----------------------------------------
Magnitude (a.u.)       :      1.22227
Magnitude (Debye)      :      3.10677

                             ****ORCA TERMINATED NORMALLY****
TOTAL RUN TIME: 0 days 0 hours 11 minutes 34 seconds 327 msec
