                         Program Version 3.0.3 - RELEASE   -
|  1> ! RI-MP2 RIJK def2-TZVP def2-TZVP/C def2-TZVP/JK TIGHTSCF
|  2> % maxcore 2000
|  3> % mp2 density relaxed end
|  4> *xyz 0 1
|  5>  O       -0.0579811193    -0.0135741166    -0.1253122715
|  6>  C       -0.0220295097     1.1710433933     0.0335816778
|  7>  C       -1.0631667534     2.2960203883     0.0663866984
|  8>  C       -0.8186231172     3.0337106746     1.3935840932
|  9>  C       -0.9156969442     4.5258271788     1.0091982414
| 10>  N        0.3343843690     4.3365302068     0.2048493603
| 11>  C        0.7383012266     3.2130814680     1.1569554684
| 12>  C        1.0713073758     2.2364020983     0.0055092132
| 13>  C        0.0317515524     3.1783728759    -0.7059602622
| 14>  H       -2.0844675600     2.1528001180    -0.2776978540
| 15>  H       -1.2538662604     2.6117755275     2.2995749371
| 16>  H       -1.7907516320     4.8766728568     0.4526742326
| 17>  H       -0.7090526034     5.2001698320     1.8458019401
| 18>  H        1.4075697978     3.4405244531     1.9848816925
| 19>  H        2.0978521845     2.0670509423    -0.3043948236
| 20>  H       -0.0492079264     3.3347061228    -1.7781124937
| 21> *
| 22>
| 23>                          ****END OF INPUT****

CARTESIAN COORDINATES (ANGSTROEM)
---------------------------------
  O     -0.057981   -0.013574   -0.125312
  C     -0.022030    1.171043    0.033582
  C     -1.063167    2.296020    0.066387
  C     -0.818623    3.033711    1.393584
  C     -0.915697    4.525827    1.009198
  N      0.334384    4.336530    0.204849
  C      0.738301    3.213081    1.156955
  C      1.071307    2.236402    0.005509
  C      0.031752    3.178373   -0.705960
  H     -2.084468    2.152800   -0.277698
  H     -1.253866    2.611776    2.299575
  H     -1.790752    4.876673    0.452674
  H     -0.709053    5.200170    1.845802
  H      1.407570    3.440524    1.984882
  H      2.097852    2.067051   -0.304395
  H     -0.049208    3.334706   -1.778112

 Total Charge           Charge          ....    0
 Multiplicity           Mult            ....    1
 Number of Electrons    NEL             ....   64
 Basis Dimension        Dim             ....  321

ORBITAL ENERGIES
----------------

  NO   OCC          E(Eh)            E(eV)
   0   2.0000     -20.554254      -559.3097
   1   2.0000     -15.569998      -423.6812
   2   2.0000     -11.337888      -308.5196
   3   2.0000     -11.289278      -307.1969
   4   2.0000     -11.288673      -307.1804
   5   2.0000     -11.267649      -306.6083
   6   2.0000     -11.261462      -306.4400
   7   2.0000     -11.256563      -306.3066
   8   2.0000     -11.255145      -306.2681
   9   2.0000      -1.399403       -38.0797
  10   2.0000      -1.323269       -36.0080
  11   2.0000      -1.116181       -30.3728
  12   2.0000      -1.026767       -27.9398
  13   2.0000      -0.954945       -25.9854
  14   2.0000      -0.881811       -23.9953
  15   2.0000      -0.816432       -22.2163
  16   2.0000      -0.751611       -20.4524
  17   2.0000      -0.728603       -19.8263
  18   2.0000      -0.716253       -19.4902
  19   2.0000      -0.661629       -18.0038
  20   2.0000      -0.655627       -17.8405
  21   2.0000      -0.635253       -17.2861
  22   2.0000      -0.593999       -16.1635
  23   2.0000      -0.569585       -15.4992
  24   2.0000      -0.519463       -14.1353
  25   2.0000      -0.514348       -13.9961
  26   2.0000      -0.497200       -13.5295
  27   2.0000      -0.485160       -13.2019
  28   2.0000      -0.460146       -12.5212
  29   2.0000      -0.436990       -11.8911
  30   2.0000      -0.399813       -10.8795
  31   2.0000      -0.386016       -10.5040
  32   0.0000       0.132552         3.6069
  33   0.0000       0.142467         3.8767
  34   0.0000       0.154190         4.1957
  35   0.0000       0.165695         4.5088
  36   0.0000       0.169823         4.6211

MULLIKEN ATOMIC CHARGES
-----------------------
   0 O :   -0.251109
   1 C :    0.123783
   2 C :   -0.120679
   3 C :   -0.082961
   4 C :   -0.158769
   5 N :   -0.201193
   6 C :   -0.100234
   7 C :   -0.141049
   8 C :   -0.042603
   9 H :    0.146050
  10 H :    0.137255
  11 H :    0.123149
  12 H :    0.128885
  13 H :    0.143077
  14 H :    0.150048
  15 H :    0.146351
Sum of atomic charges:   -0.0000000

LOEWDIN ATOMIC CHARGES
----------------------
   0 O :    0.164415
   1 C :   -0.283720
   2 C :   -0.138701
   3 C :   -0.172616
   4 C :   -0.233374
   5 N :    0.119594
   6 C :   -0.145269
   7 C :   -0.123671
   8 C :   -0.145119
   9 H :    0.143255
  10 H :    0.138449
  11 H :    0.124814
  12 H :    0.136202
  13 H :    0.135799
  14 H :    0.144417
  15 H :    0.135526

  Mayer bond orders larger than 0.1
B(  0-O ,  1-C ) :   2.0523 B(  1-C ,  2-C ) :   0.8636 B(  1-C ,  7-C ) :   0.8929
B(  2-C ,  3-C ) :   0.8486 B(  2-C ,  7-C ) :  -0.1159 B(  2-C ,  8-C ) :   0.8612
B(  2-C ,  9-H ) :   0.9098 B(  3-C ,  4-C ) :   0.9101 B(  3-C ,  6-C ) :   0.9199
B(  3-C , 10-H ) :   0.9146 B(  4-C ,  5-N ) :   0.9233 B(  4-C , 11-H ) :   0.9222
B(  4-C , 12-H ) :   0.9270 B(  5-N ,  6-C ) :   0.9300 B(  5-N ,  8-C ) :   0.9276
B(  6-C ,  7-C ) :   0.8877 B(  6-C , 13-H ) :   0.8979 B(  7-C ,  8-C ) :   0.8894
B(  7-C , 14-H ) :   0.9049 B(  8-C , 15-H ) :   0.9080

MP2 TOTAL ENERGY:     -400.003932579 Eh
FINAL SINGLE POINT ENERGY      -400.003932579291

DIPOLE MOMENT
-------------
                                X             Y             Z
Electronic contribution:      1.32859      -4.08615      -1.34778
Nuclear contribution   :     -1.66848       4.81617       1.74960
                        -----------------------------------------
Total Dipole Moment    :     -0.33989       0.73002       0.40182
                        -----------------------------------------
Magnitude (a.u.)       :      0.89996
Magnitude (Debye)      :      2.28751

                             ****ORCA TERMINATED NORMALLY****
TOTAL RUN TIME: 0 days 0 hours 17 minutes 59 seconds 785 msec
