                         Program Version 3.0.3 - RELEASE   -
|  1> ! RI-MP2 RIJK def2-TZVP def2-TZVP/C def2-TZVP/JK TIGHTSCF
|  2> % maxcore 2000
|  3> % mp2 density relaxed end
|  4> *xyz 0 1
|  5>  C        0.0236085473     1.5079805716     0.0380446977
|  6>  C       -0.0681799089     0.0185993345    -0.0332661405
|  7>  C       -0.1050487514    -0.7699968714    -1.1214980888
|  8>  C       -0.0675788345    -2.1955479807    -0.6744876340
|  9>  C       -0.6802013498    -2.2319105331     0.7422666336
| 10>  C        0.5748566079    -3.0280414847     1.2200150506
| 11>  C        1.3047790743    -1.7461489964     1.2132632233
| 12>  C       -0.0043512886    -0.8879555876     1.1712856830
| 13>  N        1.2894375269    -2.5969314446    -0.0127656093
| 14>  H        0.9649166360     1.8243656949     0.5059002933
| 15>  H       -0.0283082001     1.9629662306    -0.9548505116
| 16>  H       -0.7837626814     1.9281737863     0.6509151724
| 17>  H       -0.0596816089    -0.4400397537    -2.1527104110
| 18>  H       -0.3468137271    -2.9722525879    -1.3847192571
| 19>  H       -1.7356680759    -2.4204777336     0.9345277951
| 20>  H        0.7305564468    -3.9769279970     1.7144579253
| 21>  H        2.2714327110    -1.4731324370     1.6157372383
| 22>  H       -0.2895139936    -0.4768986502     2.1402432497
| 23> *
| 24>
| 25>                          ****END OF INPUT****

CARTESIAN COORDINATES (ANGSTROEM)
---------------------------------
  C      0.023609    1.507981    0.038045
  C     -0.068180    0.018599   -0.033266
  C     -0.105049   -0.769997   -1.121498
  C     -0.067579   -2.195548   -0.674488
  C     -0.680201   -2.231911    0.742267
  C      0.574857   -3.028041    1.220015
  C      1.304779   -1.746149    1.213263
  C     -0.004351   -0.887956    1.171286
  N      1.289438   -2.596931   -0.012766
  H      0.964917    1.824366    0.505900
  H     -0.028308    1.962966   -0.954851
  H     -0.783763    1.928174    0.650915
  H     -0.059682   -0.440040   -2.152710
  H     -0.346814   -2.972253   -1.384719
  H     -1.735668   -2.420478    0.934528
  H      0.730556   -3.976928    1.714458
  H      2.271433   -1.473132    1.615737
  H     -0.289514   -0.476899    2.140243

 Total Charge           Charge          ....    0
 Multiplicity           Mult            ....    1
 Number of Electrons    NEL             ....   64
 Basis Dimension        Dim             ....  333

ORBITAL ENERGIES
----------------

  NO   OCC          E(Eh)            E(eV)
   0   2.0000     -15.556091      -423.3028
   1   2.0000     -11.258074      -306.3478
   2   2.0000     -11.257493      -306.3320
   3   2.0000     -11.255656      -306.2820
   4   2.0000     -11.240759      -305.8766
   5   2.0000     -11.240178      -305.8608
   6   2.0000     -11.236229      -305.7533
   7   2.0000     -11.227416      -305.5135
   8   2.0000     -11.214336      -305.1576
   9   2.0000      -1.313458       -35.7410
  10   2.0000      -1.113548       -30.3012
  11   2.0000      -1.002380       -27.2761
  12   2.0000      -0.998003       -27.1570
  13   2.0000      -0.924001       -25.1433
  14   2.0000      -0.850568       -23.1451
  15   2.0000      -0.792544       -21.5662
  16   2.0000      -0.737468       -20.0675
  17   2.0000      -0.701981       -19.1019
  18   2.0000      -0.689059       -18.7503
  19   2.0000      -0.645495       -17.5648
  20   2.0000      -0.605932       -16.4882
  21   2.0000      -0.582208       -15.8427
  22   2.0000      -0.565504       -15.3881
  23   2.0000      -0.543696       -14.7947
  24   2.0000      -0.523120       -14.2348
  25   2.0000      -0.516284       -14.0488
  26   2.0000      -0.486945       -13.2505
  27   2.0000      -0.453441       -12.3388
  28   2.0000      -0.426775       -11.6131
  29   2.0000      -0.410819       -11.1790
  30   2.0000      -0.362141        -9.8544
  31   2.0000      -0.336395        -9.1538
  32   0.0000       0.135518         3.6876
  33   0.0000       0.142589         3.8800
  34   0.0000       0.163047         4.4367
  35   0.0000       0.179089         4.8733
  36   0.0000       0.180831         4.9207

MULLIKEN ATOMIC CHARGES
-----------------------
   0 C :   -0.447376
   1 C :   -0.008783
   2 C :   -0.234112
   3 C :    0.040001
   4 C :    0.017956
   5 C :   -0.200471
   6 C :   -0.068990
   7 C :   -0.093749
   8 N :   -0.231210
   9 H :    0.142835
  10 H :    0.140715
  11 H :    0.142836
  12 H :    0.126555
  13 H :    0.120622
  14 H :    0.138181
  15 H :    0.143473
  16 H :    0.139858
  17 H :    0.131658
Sum of atomic charges:   -0.0000000

LOEWDIN ATOMIC CHARGES
----------------------
   0 C :   -0.272969
   1 C :   -0.153742
   2 C :   -0.118094
   3 C :   -0.187273
   4 C :   -0.121734
   5 C :   -0.182603
   6 C :   -0.186473
   7 C :   -0.141282
   8 N :    0.142754
   9 H :    0.133869
  10 H :    0.131383
  11 H :    0.131925
  12 H :    0.137389
  13 H :    0.141901
  14 H :    0.133504
  15 H :    0.127993
  16 H :    0.134003
  17 H :    0.149446

  Mayer bond orders larger than 0.1
B(  0-C ,  1-C ) :   0.8777 B(  0-C ,  9-H ) :   0.9235 B(  0-C , 10-H ) :   0.9514
B(  0-C , 11-H ) :   0.9407 B(  1-C ,  2-C ) :   1.7132 B(  1-C ,  7-C ) :   0.9705
B(  2-C ,  3-C ) :   0.9900 B(  2-C , 12-H ) :   0.9254 B(  3-C ,  4-C ) :   0.9467
B(  3-C ,  8-N ) :   0.8550 B(  3-C , 13-H ) :   0.9273 B(  4-C ,  5-C ) :   0.9225
B(  4-C ,  7-C ) :   0.9217 B(  4-C , 14-H ) :   0.9023 B(  5-C ,  6-C ) :   0.9030
B(  5-C ,  8-N ) :   0.9217 B(  5-C , 15-H ) :   0.9048 B(  6-C ,  7-C ) :   0.8345
B(  6-C ,  8-N ) :   0.9160 B(  6-C , 16-H ) :   0.9177 B(  7-C , 17-H ) :   0.9044

MP2 TOTAL ENERGY:     -364.089361153 Eh
FINAL SINGLE POINT ENERGY      -364.089361152807

DIPOLE MOMENT
-------------
                                X             Y             Z
Electronic contribution:      0.95829      -4.86083      -0.09392
Nuclear contribution   :     -1.47945       5.27413       0.49661
                        -----------------------------------------
Total Dipole Moment    :     -0.52116       0.41330       0.40270
                        -----------------------------------------
Magnitude (a.u.)       :      0.77756
Magnitude (Debye)      :      1.97639

                             ****ORCA TERMINATED NORMALLY****
TOTAL RUN TIME: 0 days 0 hours 19 minutes 10 seconds 501 msec
