                         Program Version 3.0.3 - RELEASE   -
|  1> ! RI-MP2 RIJK def2-TZVP def2-TZVP/C def2-TZVP/JK TIGHTSCF
|  2> % maxcore 2000
|  3> % mp2 density relaxed end
|  4> *xyz 0 1
|  5>  C       -0.2611962818     0.9693906388    -1.9047590552
|  6>  C       -0.0273292903    -0.1708897585    -0.9350473530
|  7>  C        1.3391973675    -0.5265608973    -0.3676208507
|  8>  C        2.5985114292     0.2287354033    -0.7255693307
|  9>  O        3.1984706027    -0.2709680400    -1.9153074388
| 10>  C        0.2577988409     0.0321235130     0.5400870646
| 11>  C        0.3609467847     1.4244485023     1.1401948431
| 12>  C       -0.3842498703    -0.9643966171     1.4825066234
| 13>  O       -1.7230597381    -0.5512841830     1.7339746622
| 14>  H        0.4094859756     1.8162520342    -1.7415815647
| 15>  H       -0.1222864453     0.6357560804    -2.9401116219
| 16>  H       -1.2864610406     1.3453269706    -1.8196103152
| 17>  H       -0.6594400747    -1.0303697747    -1.1472862585
| 18>  H        1.5320287606    -1.5926697220    -0.2633903772
| 19>  H        2.4137015056     1.3091292576    -0.8029950029
| 20>  H        3.3529409447     0.0926203465     0.0573693482
| 21>  H        2.5303529435    -0.2330812822    -2.6074299434
| 22>  H        0.7347754896     2.1702033389     0.4371217176
| 23>  H       -0.6253465018     1.7475586185     1.4842737387
| 24>  H        1.0319445536     1.4237984995     2.0077439866
| 25>  H       -0.3618226819    -1.9689556750     1.0314453020
| 26>  H        0.1934626427    -1.0112563948     2.4205948819
| 27>  H       -2.0767099059    -1.0952824089     2.4435439739
| 28> *
| 29>
| 30>                          ****END OF INPUT****

CARTESIAN COORDINATES (ANGSTROEM)
---------------------------------
  C     -0.261196    0.969391   -1.904759
  C     -0.027329   -0.170890   -0.935047
  C      1.339197   -0.526561   -0.367621
  C      2.598511    0.228735   -0.725569
  O      3.198471   -0.270968   -1.915307
  C      0.257799    0.032124    0.540087
  C      0.360947    1.424449    1.140195
  C     -0.384250   -0.964397    1.482507
  O     -1.723060   -0.551284    1.733975
  H      0.409486    1.816252   -1.741582
  H     -0.122286    0.635756   -2.940112
  H     -1.286461    1.345327   -1.819610
  H     -0.659440   -1.030370   -1.147286
  H      1.532029   -1.592670   -0.263390
  H      2.413702    1.309129   -0.802995
  H      3.352941    0.092620    0.057369
  H      2.530353   -0.233081   -2.607430
  H      0.734775    2.170203    0.437122
  H     -0.625347    1.747559    1.484274
  H      1.031945    1.423798    2.007744
  H     -0.361823   -1.968956    1.031445
  H      0.193463   -1.011256    2.420595
  H     -2.076710   -1.095282    2.443544

 Total Charge           Charge          ....    0
 Multiplicity           Mult            ....    1
 Number of Electrons    NEL             ....   72
 Basis Dimension        Dim             ....  363

ORBITAL ENERGIES
----------------

  NO   OCC          E(Eh)            E(eV)
   0   2.0000     -20.556839      -559.3800
   1   2.0000     -20.549651      -559.1844
   2   2.0000     -11.278526      -306.9043
   3   2.0000     -11.273084      -306.7562
   4   2.0000     -11.237227      -305.7805
   5   2.0000     -11.230953      -305.6098
   6   2.0000     -11.227317      -305.5108
   7   2.0000     -11.221532      -305.3534
   8   2.0000     -11.214159      -305.1528
   9   2.0000      -1.360938       -37.0330
  10   2.0000      -1.353502       -36.8306
  11   2.0000      -1.162006       -31.6198
  12   2.0000      -0.996798       -27.1242
  13   2.0000      -0.971360       -26.4321
  14   2.0000      -0.937137       -25.5008
  15   2.0000      -0.897346       -24.4180
  16   2.0000      -0.769595       -20.9417
  17   2.0000      -0.734708       -19.9924
  18   2.0000      -0.699164       -19.0252
  19   2.0000      -0.693128       -18.8610
  20   2.0000      -0.648218       -17.6389
  21   2.0000      -0.635298       -17.2873
  22   2.0000      -0.603701       -16.4275
  23   2.0000      -0.598494       -16.2859
  24   2.0000      -0.574029       -15.6201
  25   2.0000      -0.559068       -15.2130
  26   2.0000      -0.547502       -14.8983
  27   2.0000      -0.536617       -14.6021
  28   2.0000      -0.531924       -14.4744
  29   2.0000      -0.528057       -14.3692
  30   2.0000      -0.495528       -13.4840
  31   2.0000      -0.475102       -12.9282
  32   2.0000      -0.448592       -12.2068
  33   2.0000      -0.441884       -12.0243
  34   2.0000      -0.396588       -10.7917
  35   2.0000      -0.387243       -10.5374
  36   0.0000       0.126371         3.4387
  37   0.0000       0.137490         3.7413
  38   0.0000       0.160564         4.3692
  39   0.0000       0.163619         4.4523
  40   0.0000       0.183010         4.9800

MULLIKEN ATOMIC CHARGES
-----------------------
   0 C :   -0.427685
   1 C :   -0.107445
   2 C :   -0.230670
   3 C :   -0.015158
   4 O :   -0.469750
   5 C :    0.131593
   6 C :   -0.414256
   7 C :   -0.100821
   8 O :   -0.465012
   9 H :    0.126098
  10 H :    0.132753
  11 H :    0.148878
  12 H :    0.120533
  13 H :    0.119256
  14 H :    0.095506
  15 H :    0.116575
  16 H :    0.314144
  17 H :    0.121281
  18 H :    0.159752
  19 H :    0.128028
  20 H :    0.098154
  21 H :    0.103559
  22 H :    0.314687
Sum of atomic charges:   -0.0000000

LOEWDIN ATOMIC CHARGES
----------------------
   0 C :   -0.295141
   1 C :   -0.195440
   2 C :   -0.189008
   3 C :   -0.323528
   4 O :   -0.050459
   5 C :   -0.239206
   6 C :   -0.262700
   7 C :   -0.305188
   8 O :   -0.045423
   9 H :    0.122525
  10 H :    0.123825
  11 H :    0.131326
  12 H :    0.153256
  13 H :    0.152202
  14 H :    0.117346
  15 H :    0.132691
  16 H :    0.172813
  17 H :    0.122363
  18 H :    0.135346
  19 H :    0.127950
  20 H :    0.121971
  21 H :    0.120816
  22 H :    0.171661

  Mayer bond orders larger than 0.1
B(  0-C ,  1-C ) :   0.8982 B(  0-C ,  9-H ) :   0.9384 B(  0-C , 10-H ) :   0.9394
B(  0-C , 11-H ) :   0.9380 B(  1-C ,  2-C ) :   0.8972 B(  1-C ,  5-C ) :   0.8451
B(  1-C , 12-H ) :   0.9274 B(  2-C ,  3-C ) :   0.9320 B(  2-C ,  5-C ) :   0.8052
B(  2-C , 13-H ) :   0.9306 B(  3-C ,  4-O ) :   0.9074 B(  3-C , 14-H ) :   0.9391
B(  3-C , 15-H ) :   0.9284 B(  4-O , 16-H ) :   0.8484 B(  5-C ,  6-C ) :   0.9090
B(  5-C ,  7-C ) :   0.9076 B(  5-C ,  8-O ) :  -0.1018 B(  6-C , 17-H ) :   0.9341
B(  6-C , 18-H ) :   0.9369 B(  6-C , 19-H ) :   0.9337 B(  7-C ,  8-O ) :   1.0575
B(  7-C , 20-H ) :   0.9144 B(  7-C , 21-H ) :   0.9354 B(  8-O , 22-H ) :   0.8473

MP2 TOTAL ENERGY:     -424.709704000 Eh
FINAL SINGLE POINT ENERGY      -424.709703999508

DIPOLE MOMENT
-------------
                                X             Y             Z
Electronic contribution:      0.65286      -3.33398       0.40229
Nuclear contribution   :     -1.17234       3.13028       0.02163
                        -----------------------------------------
Total Dipole Moment    :     -0.51947      -0.20370       0.42392
                        -----------------------------------------
Magnitude (a.u.)       :      0.70075
Magnitude (Debye)      :      1.78117

                             ****ORCA TERMINATED NORMALLY****
TOTAL RUN TIME: 0 days 0 hours 18 minutes 53 seconds 464 msec
