                         Program Version 3.0.3 - RELEASE   -
|  1> ! RI-MP2 RIJK def2-TZVP def2-TZVP/C def2-TZVP/JK TIGHTSCF
|  2> % maxcore 2000
|  3> % mp2 density relaxed end
|  4> *xyz 0 1
|  5>  C        0.0071433561     1.5292032946    -0.0007912867
|  6>  C        1.4583561842     2.0541139415     0.0417400421
|  7>  N        2.2181589356     1.6244053916     1.2321794922
|  8>  C        1.8809318157     0.3298451281     1.5824983105
|  9>  C        0.9376101368    -0.4853610082     1.0496670423
| 10>  C       -0.0456677670    -0.0156755370     0.0278443024
| 11>  N        1.0552744744    -1.7429086614     1.6392237456
| 12>  C        2.0259434425    -1.6106692510     2.4793534349
| 13>  O        2.6007703833    -0.3698109045     2.5051826583
| 14>  H       -0.5394894824     1.9276397014     0.8626635950
| 15>  H       -0.4868139108     1.9133107343    -0.8989721008
| 16>  H        1.9984305923     1.6949395479    -0.8432789491
| 17>  H        1.4762440651     3.1463678191     0.0097327115
| 18>  H        2.1628281583     2.2825851846     2.0015530343
| 19>  H       -1.0577384998    -0.3574905161     0.2703218703
| 20>  H        0.1877052450    -0.4255915533    -0.9641527979
| 21>  H        2.4290755410    -2.3363125115     3.1671423350
| 22> *
| 23>
| 24>                          ****END OF INPUT****

CARTESIAN COORDINATES (ANGSTROEM)
---------------------------------
  C      0.007143    1.529203   -0.000791
  C      1.458356    2.054114    0.041740
  N      2.218159    1.624405    1.232179
  C      1.880932    0.329845    1.582498
  C      0.937610   -0.485361    1.049667
  C     -0.045668   -0.015676    0.027844
  N      1.055274   -1.742909    1.639224
  C      2.025943   -1.610669    2.479353
  O      2.600770   -0.369811    2.505183
  H     -0.539489    1.927640    0.862664
  H     -0.486814    1.913311   -0.898972
  H      1.998431    1.694940   -0.843279
  H      1.476244    3.146368    0.009733
  H      2.162828    2.282585    2.001553
  H     -1.057738   -0.357491    0.270322
  H      0.187705   -0.425592   -0.964153
  H      2.429076   -2.336313    3.167142

 Total Charge           Charge          ....    0
 Multiplicity           Mult            ....    1
 Number of Electrons    NEL             ....   66
 Basis Dimension        Dim             ....  327

ORBITAL ENERGIES
----------------

  NO   OCC          E(Eh)            E(eV)
   0   2.0000     -20.630064      -561.3726
   1   2.0000     -15.574921      -423.8152
   2   2.0000     -15.560636      -423.4264
   3   2.0000     -11.322752      -308.1077
   4   2.0000     -11.312935      -307.8406
   5   2.0000     -11.268231      -306.6241
   6   2.0000     -11.240782      -305.8772
   7   2.0000     -11.233373      -305.6756
   8   2.0000     -11.232437      -305.6502
   9   2.0000      -1.479354       -40.2553
  10   2.0000      -1.244527       -33.8653
  11   2.0000      -1.227258       -33.3954
  12   2.0000      -1.064635       -28.9702
  13   2.0000      -1.018183       -27.7062
  14   2.0000      -0.907549       -24.6957
  15   2.0000      -0.851961       -23.1830
  16   2.0000      -0.829179       -22.5631
  17   2.0000      -0.762919       -20.7601
  18   2.0000      -0.720754       -19.6127
  19   2.0000      -0.681529       -18.5453
  20   2.0000      -0.651758       -17.7352
  21   2.0000      -0.637166       -17.3382
  22   2.0000      -0.615207       -16.7406
  23   2.0000      -0.589378       -16.0378
  24   2.0000      -0.569795       -15.5049
  25   2.0000      -0.567931       -15.4542
  26   2.0000      -0.527131       -14.3440
  27   2.0000      -0.497950       -13.5499
  28   2.0000      -0.486868       -13.2484
  29   2.0000      -0.461839       -12.5673
  30   2.0000      -0.440362       -11.9828
  31   2.0000      -0.422878       -11.5071
  32   2.0000      -0.298198        -8.1144
  33   0.0000       0.125217         3.4073
  34   0.0000       0.151864         4.1324
  35   0.0000       0.157383         4.2826
  36   0.0000       0.174736         4.7548
  37   0.0000       0.180603         4.9145

MULLIKEN ATOMIC CHARGES
-----------------------
   0 C :   -0.218134
   1 C :   -0.154604
   2 N :   -0.325358
   3 C :    0.182697
   4 C :   -0.026104
   5 C :   -0.214421
   6 N :   -0.269453
   7 C :    0.082332
   8 O :   -0.208954
   9 H :    0.112264
  10 H :    0.128424
  11 H :    0.122730
  12 H :    0.140684
  13 H :    0.233849
  14 H :    0.134789
  15 H :    0.126950
  16 H :    0.152309
Sum of atomic charges:    0.0000000

LOEWDIN ATOMIC CHARGES
----------------------
   0 C :   -0.256682
   1 C :   -0.272340
   2 N :    0.052040
   3 C :   -0.325563
   4 C :   -0.254099
   5 C :   -0.227236
   6 N :    0.117943
   7 C :   -0.325987
   8 O :    0.336969
   9 H :    0.139086
  10 H :    0.139206
  11 H :    0.137910
  12 H :    0.133391
  13 H :    0.183142
  14 H :    0.148093
  15 H :    0.144086
  16 H :    0.130043

  Mayer bond orders larger than 0.1
B(  0-C ,  1-C ) :   0.9009 B(  0-C ,  5-C ) :   0.9302 B(  0-C ,  9-H ) :   0.9290
B(  0-C , 10-H ) :   0.9292 B(  1-C ,  2-N ) :   0.9256 B(  1-C , 11-H ) :   0.9369
B(  1-C , 12-H ) :   0.9345 B(  2-N ,  3-C ) :   1.0988 B(  2-N , 13-H ) :   0.8618
B(  3-C ,  4-C ) :   1.5399 B(  3-C ,  8-O ) :   1.0529 B(  4-C ,  5-C ) :   0.9139
B(  4-C ,  6-N ) :   1.1957 B(  5-C , 14-H ) :   0.9240 B(  5-C , 15-H ) :   0.9244
B(  6-N ,  7-C ) :   1.6664 B(  7-C ,  8-O ) :   1.0468 B(  7-C , 16-H ) :   0.9313

MP2 TOTAL ENERGY:     -417.340762207 Eh
FINAL SINGLE POINT ENERGY      -417.340762207286

DIPOLE MOMENT
-------------
                                X             Y             Z
Electronic contribution:      4.22316      -4.97236       5.37035
Nuclear contribution   :     -4.40244       6.02153      -5.43157
                        -----------------------------------------
Total Dipole Moment    :     -0.17928       1.04917      -0.06122
                        -----------------------------------------
Magnitude (a.u.)       :      1.06614
Magnitude (Debye)      :      2.70990

                             ****ORCA TERMINATED NORMALLY****
TOTAL RUN TIME: 0 days 0 hours 18 minutes 1 seconds 766 msec
