                         Program Version 3.0.3 - RELEASE   -
|  1> ! RI-MP2 RIJK def2-TZVP def2-TZVP/C def2-TZVP/JK TIGHTSCF
|  2> % maxcore 2000
|  3> % mp2 density relaxed end
|  4> *xyz 0 1
|  5>  C        0.0443124026     1.5031653236    -0.0119721890
|  6>  C       -0.0365769348    -0.0244534329    -0.0025941616
|  7>  C       -1.4697888536    -0.5783380637     0.1117703331
|  8>  C       -1.2722166703    -1.8678906556     0.9144947873
|  9>  O       -0.2318076963    -1.5742896508     1.8415810828
| 10>  C        0.6780233779    -0.6660264047     1.2303611070
| 11>  C        1.9273415928    -1.3526714142     0.6279690327
| 12>  O        2.0801069694    -0.8309268533    -0.6846717144
| 13>  C        0.7666155608    -0.6279023447    -1.1792539362
| 14>  H        1.0856191039     1.8334791970    -0.0857473182
| 15>  H       -0.5014395920     1.9223707688    -0.8645191944
| 16>  H       -0.3837865340     1.9274020396     0.9023965968
| 17>  H       -2.1009300339     0.1205840448     0.6701309732
| 18>  H       -1.9381504065    -0.7516258675    -0.8621241859
| 19>  H       -2.1528912020    -2.1764017025     1.4844323402
| 20>  H       -0.9862059228    -2.7032504051     0.2554451185
| 21>  H        0.9516222992     0.0719074269     1.9902262955
| 22>  H        2.8504193888    -1.1509780943     1.1768772701
| 23>  H        1.7578840439    -2.4412648910     0.6139093909
| 24>  H        0.3240174745    -1.5833958573    -1.5088187316
| 25>  H        0.8320829825     0.0360534769    -2.0456798468
| 26> *
| 27>
| 28>                          ****END OF INPUT****

CARTESIAN COORDINATES (ANGSTROEM)
---------------------------------
  C      0.044312    1.503165   -0.011972
  C     -0.036577   -0.024453   -0.002594
  C     -1.469789   -0.578338    0.111770
  C     -1.272217   -1.867891    0.914495
  O     -0.231808   -1.574290    1.841581
  C      0.678023   -0.666026    1.230361
  C      1.927342   -1.352671    0.627969
  O      2.080107   -0.830927   -0.684672
  C      0.766616   -0.627902   -1.179254
  H      1.085619    1.833479   -0.085747
  H     -0.501440    1.922371   -0.864519
  H     -0.383787    1.927402    0.902397
  H     -2.100930    0.120584    0.670131
  H     -1.938150   -0.751626   -0.862124
  H     -2.152891   -2.176402    1.484432
  H     -0.986206   -2.703250    0.255445
  H      0.951622    0.071907    1.990226
  H      2.850419   -1.150978    1.176877
  H      1.757884   -2.441265    0.613909
  H      0.324017   -1.583396   -1.508819
  H      0.832083    0.036053   -2.045680

 Total Charge           Charge          ....    0
 Multiplicity           Mult            ....    1
 Number of Electrons    NEL             ....   70
 Basis Dimension        Dim             ....  351

ORBITAL ENERGIES
----------------

  NO   OCC          E(Eh)            E(eV)
   0   2.0000     -20.554279      -559.3104
   1   2.0000     -20.553334      -559.2846
   2   2.0000     -11.277079      -306.8649
   3   2.0000     -11.276467      -306.8483
   4   2.0000     -11.274287      -306.7890
   5   2.0000     -11.269609      -306.6617
   6   2.0000     -11.241285      -305.8909
   7   2.0000     -11.229434      -305.5684
   8   2.0000     -11.221494      -305.3524
   9   2.0000      -1.389717       -37.8161
  10   2.0000      -1.369523       -37.2666
  11   2.0000      -1.096792       -29.8452
  12   2.0000      -1.020644       -27.7731
  13   2.0000      -0.974415       -26.5152
  14   2.0000      -0.929694       -25.2983
  15   2.0000      -0.854996       -23.2656
  16   2.0000      -0.803164       -21.8552
  17   2.0000      -0.761244       -20.7145
  18   2.0000      -0.695084       -18.9142
  19   2.0000      -0.664502       -18.0820
  20   2.0000      -0.655569       -17.8389
  21   2.0000      -0.634106       -17.2549
  22   2.0000      -0.622231       -16.9318
  23   2.0000      -0.593845       -16.1593
  24   2.0000      -0.572533       -15.5794
  25   2.0000      -0.555342       -15.1116
  26   2.0000      -0.546953       -14.8833
  27   2.0000      -0.523426       -14.2431
  28   2.0000      -0.520328       -14.1588
  29   2.0000      -0.492956       -13.4140
  30   2.0000      -0.469820       -12.7845
  31   2.0000      -0.456967       -12.4347
  32   2.0000      -0.449470       -12.2307
  33   2.0000      -0.431140       -11.7319
  34   2.0000      -0.402509       -10.9528
  35   0.0000       0.132182         3.5969
  36   0.0000       0.154563         4.2059
  37   0.0000       0.165930         4.5152
  38   0.0000       0.176426         4.8008
  39   0.0000       0.191888         5.2215

MULLIKEN ATOMIC CHARGES
-----------------------
   0 C :   -0.467511
   1 C :    0.156421
   2 C :   -0.301001
   3 C :   -0.041916
   4 O :   -0.319341
   5 C :    0.015828
   6 C :   -0.065690
   7 O :   -0.314102
   8 C :   -0.074346
   9 H :    0.150975
  10 H :    0.134842
  11 H :    0.135989
  12 H :    0.116442
  13 H :    0.129773
  14 H :    0.122742
  15 H :    0.092696
  16 H :    0.104554
  17 H :    0.117620
  18 H :    0.095348
  19 H :    0.090529
  20 H :    0.120148
Sum of atomic charges:   -0.0000000

LOEWDIN ATOMIC CHARGES
----------------------
   0 C :   -0.271689
   1 C :   -0.273180
   2 C :   -0.221319
   3 C :   -0.304567
   4 O :    0.166765
   5 C :   -0.256362
   6 C :   -0.284661
   7 O :    0.151136
   8 C :   -0.267364
   9 H :    0.132140
  10 H :    0.126197
  11 H :    0.126422
  12 H :    0.142769
  13 H :    0.141171
  14 H :    0.126608
  15 H :    0.117014
  16 H :    0.142692
  17 H :    0.126611
  18 H :    0.125539
  19 H :    0.122961
  20 H :    0.131115

  Mayer bond orders larger than 0.1
B(  0-C ,  1-C ) :   0.8708 B(  0-C ,  9-H ) :   0.9381 B(  0-C , 10-H ) :   0.9365
B(  0-C , 11-H ) :   0.9350 B(  1-C ,  2-C ) :   0.8833 B(  1-C ,  5-C ) :   0.9166
B(  1-C ,  8-C ) :   0.9421 B(  2-C ,  3-C ) :   0.9598 B(  2-C , 12-H ) :   0.9169
B(  2-C , 13-H ) :   0.9222 B(  3-C ,  4-O ) :   0.9193 B(  3-C , 14-H ) :   0.9279
B(  3-C , 15-H ) :   0.9266 B(  4-O ,  5-C ) :   0.9743 B(  5-C ,  6-C ) :   0.9099
B(  5-C , 16-H ) :   0.9257 B(  6-C ,  7-O ) :   0.9401 B(  6-C , 17-H ) :   0.9242
B(  6-C , 18-H ) :   0.9129 B(  7-O ,  8-C ) :   0.9229 B(  8-C , 19-H ) :   0.9103
B(  8-C , 20-H ) :   0.9234

MP2 TOTAL ENERGY:     -423.539915611 Eh
FINAL SINGLE POINT ENERGY      -423.539915610664

DIPOLE MOMENT
-------------
                                X             Y             Z
Electronic contribution:      2.84484      -2.77529       1.68628
Nuclear contribution   :     -3.47380       3.01836      -1.93491
                        -----------------------------------------
Total Dipole Moment    :     -0.62896       0.24307      -0.24863
                        -----------------------------------------
Magnitude (a.u.)       :      0.71867
Magnitude (Debye)      :      1.82671

                             ****ORCA TERMINATED NORMALLY****
TOTAL RUN TIME: 0 days 0 hours 19 minutes 34 seconds 314 msec
