                         Program Version 3.0.3 - RELEASE   -
|  1> ! RI-MP2 RIJK def2-TZVP def2-TZVP/C def2-TZVP/JK TIGHTSCF
|  2> % maxcore 2000
|  3> % mp2 density relaxed end
|  4> *xyz 0 1
|  5>  C        0.0687084708     1.4213560188    -0.0604590086
|  6>  N        0.1689591297    -0.0307920505    -0.0884035263
|  7>  C        0.4936582926    -0.6408051292     0.9667659229
|  8>  O        0.7930423494     0.0011893102     2.1390551781
|  9>  C        1.0117896884    -0.7876380248     3.3230846586
| 10>  C        1.0979774993    -2.2723614618     3.0063406065
| 11>  C        1.9548495796    -2.5023621174     1.7394292764
| 12>  C        0.6287214178    -2.1378348288     1.0215310539
| 13>  N       -0.1569024540    -2.5927615588     2.2354974826
| 14>  H        1.0515583832     1.8757711820    -0.2424007494
| 15>  H       -0.5958722815     1.7453313522    -0.8660488546
| 16>  H       -0.3045143327     1.8134103684     0.8928857083
| 17>  H        1.9394144623    -0.4241214750     3.7789998978
| 18>  H        0.1785241495    -0.6026989386     4.0097470580
| 19>  H        1.2800590216    -2.8554147553     3.9125901510
| 20>  H        2.8402131656    -1.8821485673     1.5696130866
| 21>  H        2.2050949037    -3.5574416401     1.6047038719
| 22>  H        0.3639912963    -2.5784523020     0.0625708191
| 23>  H       -0.2347882315    -3.6074261120     2.1751743472
| 24> *
| 25>
| 26>                          ****END OF INPUT****

CARTESIAN COORDINATES (ANGSTROEM)
---------------------------------
  C      0.068708    1.421356   -0.060459
  N      0.168959   -0.030792   -0.088404
  C      0.493658   -0.640805    0.966766
  O      0.793042    0.001189    2.139055
  C      1.011790   -0.787638    3.323085
  C      1.097977   -2.272361    3.006341
  C      1.954850   -2.502362    1.739429
  C      0.628721   -2.137835    1.021531
  N     -0.156902   -2.592762    2.235497
  H      1.051558    1.875771   -0.242401
  H     -0.595872    1.745331   -0.866049
  H     -0.304514    1.813410    0.892886
  H      1.939414   -0.424121    3.779000
  H      0.178524   -0.602699    4.009747
  H      1.280059   -2.855415    3.912590
  H      2.840213   -1.882149    1.569613
  H      2.205095   -3.557442    1.604704
  H      0.363991   -2.578452    0.062571
  H     -0.234788   -3.607426    2.175174

 Total Charge           Charge          ....    0
 Multiplicity           Mult            ....    1
 Number of Electrons    NEL             ....   68
 Basis Dimension        Dim             ....  339

ORBITAL ENERGIES
----------------

  NO   OCC          E(Eh)            E(eV)
   0   2.0000     -20.584714      -560.1385
   1   2.0000     -15.560899      -423.4336
   2   2.0000     -15.528969      -422.5647
   3   2.0000     -11.323075      -308.1165
   4   2.0000     -11.293578      -307.3139
   5   2.0000     -11.279426      -306.9288
   6   2.0000     -11.275842      -306.8313
   7   2.0000     -11.243876      -305.9614
   8   2.0000     -11.228787      -305.5508
   9   2.0000      -1.418497       -38.5993
  10   2.0000      -1.253043       -34.0970
  11   2.0000      -1.205165       -32.7942
  12   2.0000      -1.017002       -27.6740
  13   2.0000      -0.998288       -27.1648
  14   2.0000      -0.929922       -25.3045
  15   2.0000      -0.883120       -24.0309
  16   2.0000      -0.826206       -22.4822
  17   2.0000      -0.716479       -19.4964
  18   2.0000      -0.703870       -19.1533
  19   2.0000      -0.672891       -18.3103
  20   2.0000      -0.654171       -17.8009
  21   2.0000      -0.638066       -17.3627
  22   2.0000      -0.593499       -16.1499
  23   2.0000      -0.591360       -16.0917
  24   2.0000      -0.574322       -15.6281
  25   2.0000      -0.562641       -15.3102
  26   2.0000      -0.546953       -14.8833
  27   2.0000      -0.535053       -14.5595
  28   2.0000      -0.485007       -13.1977
  29   2.0000      -0.471276       -12.8241
  30   2.0000      -0.461511       -12.5584
  31   2.0000      -0.407428       -11.0867
  32   2.0000      -0.389092       -10.5877
  33   2.0000      -0.370421       -10.0797
  34   0.0000       0.123771         3.3680
  35   0.0000       0.153564         4.1787
  36   0.0000       0.156257         4.2520
  37   0.0000       0.168308         4.5799
  38   0.0000       0.185667         5.0523

MULLIKEN ATOMIC CHARGES
-----------------------
   0 C :   -0.281383
   1 N :   -0.232137
   2 C :    0.047012
   3 O :   -0.279730
   4 C :   -0.055604
   5 C :   -0.017214
   6 C :   -0.291860
   7 C :    0.120314
   8 N :   -0.363905
   9 H :    0.129580
  10 H :    0.137315
  11 H :    0.128087
  12 H :    0.116573
  13 H :    0.115195
  14 H :    0.127434
  15 H :    0.132027
  16 H :    0.128388
  17 H :    0.134531
  18 H :    0.205375
Sum of atomic charges:    0.0000000

LOEWDIN ATOMIC CHARGES
----------------------
   0 C :   -0.334007
   1 N :    0.077126
   2 C :   -0.363911
   3 O :    0.242440
   4 C :   -0.257808
   5 C :   -0.276112
   6 C :   -0.202099
   7 C :   -0.221410
   8 N :    0.006628
   9 H :    0.117203
  10 H :    0.113820
  11 H :    0.111121
  12 H :    0.131064
  13 H :    0.133853
  14 H :    0.138213
  15 H :    0.132420
  16 H :    0.137250
  17 H :    0.147041
  18 H :    0.167169

  Mayer bond orders larger than 0.1
B(  0-C ,  1-N ) :   0.8666 B(  0-C ,  9-H ) :   0.9303 B(  0-C , 10-H ) :   0.9438
B(  0-C , 11-H ) :   0.9292 B(  1-N ,  2-C ) :   2.0008 B(  2-C ,  3-O ) :   1.0684
B(  2-C ,  7-C ) :   0.8916 B(  3-O ,  4-C ) :   0.9032 B(  4-C ,  5-C ) :   0.9361
B(  4-C , 12-H ) :   0.9295 B(  4-C , 13-H ) :   0.9214 B(  5-C ,  6-C ) :   0.9333
B(  5-C ,  8-N ) :   0.9421 B(  5-C , 14-H ) :   0.9101 B(  6-C ,  7-C ) :   0.8898
B(  6-C , 15-H ) :   0.9208 B(  6-C , 16-H ) :   0.9252 B(  7-C ,  8-N ) :   0.9246
B(  7-C , 17-H ) :   0.9242 B(  8-N , 18-H ) :   0.8720

MP2 TOTAL ENERGY:     -418.478756911 Eh
FINAL SINGLE POINT ENERGY      -418.478756911221

DIPOLE MOMENT
-------------
                                X             Y             Z
Electronic contribution:     -1.08521      -0.96643      -0.04743
Nuclear contribution   :      1.87444       0.22873       0.87836
                        -----------------------------------------
Total Dipole Moment    :      0.78923      -0.73770       0.83093
                        -----------------------------------------
Magnitude (a.u.)       :      1.36291
Magnitude (Debye)      :      3.46424

                             ****ORCA TERMINATED NORMALLY****
TOTAL RUN TIME: 0 days 0 hours 17 minutes 47 seconds 142 msec
