                         Program Version 3.0.3 - RELEASE   -
|  1> ! RI-MP2 RIJK def2-TZVP def2-TZVP/C def2-TZVP/JK TIGHTSCF
|  2> % maxcore 2000
|  3> % mp2 density relaxed end
|  4> *xyz 0 1
|  5>  O       -0.1737150202    -0.0377740382     0.1743514486
|  6>  C       -0.0622141156     1.1583341150     0.1068254336
|  7>  N       -1.0907830785     2.0736174094    -0.1278914289
|  8>  C       -0.6863306215     3.4188949159     0.1214870780
|  9>  C        0.6439653757     3.4364924674     0.2291020828
| 10>  N        1.6717522646     4.1907311328     0.8036193698
| 11>  C        2.5358549497     3.2194417328     1.3435040912
| 12>  N        2.3342758079     1.9982762727     1.0118519508
| 13>  C        1.2065668246     2.0534299299     0.0725409488
| 14>  H       -2.0529150377     1.7754643036    -0.0929656896
| 15>  H       -1.4288525639     4.1878071107     0.2691771796
| 16>  H        1.4913191613     5.0443663677     1.3097464918
| 17>  H        3.3482234281     3.5445270325     1.9851990687
| 18>  H        1.6018519254     1.8766563077    -0.9431471052
| 19> *
| 20>
| 21>                          ****END OF INPUT****

CARTESIAN COORDINATES (ANGSTROEM)
---------------------------------
  O     -0.173715   -0.037774    0.174351
  C     -0.062214    1.158334    0.106825
  N     -1.090783    2.073617   -0.127891
  C     -0.686331    3.418895    0.121487
  C      0.643965    3.436492    0.229102
  N      1.671752    4.190731    0.803619
  C      2.535855    3.219442    1.343504
  N      2.334276    1.998276    1.011852
  C      1.206567    2.053430    0.072541
  H     -2.052915    1.775464   -0.092966
  H     -1.428853    4.187807    0.269177
  H      1.491319    5.044366    1.309746
  H      3.348223    3.544527    1.985199
  H      1.601852    1.876656   -0.943147

 Total Charge           Charge          ....    0
 Multiplicity           Mult            ....    1
 Number of Electrons    NEL             ....   64
 Basis Dimension        Dim             ....  309

ORBITAL ENERGIES
----------------

  NO   OCC          E(Eh)            E(eV)
   0   2.0000     -20.531174      -558.6817
   1   2.0000     -15.613590      -424.8674
   2   2.0000     -15.595805      -424.3834
   3   2.0000     -15.563475      -423.5037
   4   2.0000     -11.359353      -309.1037
   5   2.0000     -11.330932      -308.3303
   6   2.0000     -11.284146      -307.0572
   7   2.0000     -11.282172      -307.0035
   8   2.0000     -11.281287      -306.9794
   9   2.0000      -1.394329       -37.9416
  10   2.0000      -1.338196       -36.4142
  11   2.0000      -1.260694       -34.3052
  12   2.0000      -1.182417       -32.1752
  13   2.0000      -1.052861       -28.6498
  14   2.0000      -0.965940       -26.2846
  15   2.0000      -0.856554       -23.3080
  16   2.0000      -0.815144       -22.1812
  17   2.0000      -0.791769       -21.5451
  18   2.0000      -0.710106       -19.3230
  19   2.0000      -0.702556       -19.1175
  20   2.0000      -0.659479       -17.9453
  21   2.0000      -0.651772       -17.7356
  22   2.0000      -0.620675       -16.8894
  23   2.0000      -0.600177       -16.3316
  24   2.0000      -0.582083       -15.8393
  25   2.0000      -0.563638       -15.3374
  26   2.0000      -0.536304       -14.5936
  27   2.0000      -0.477283       -12.9875
  28   2.0000      -0.454770       -12.3749
  29   2.0000      -0.424181       -11.5426
  30   2.0000      -0.400349       -10.8940
  31   2.0000      -0.306854        -8.3499
  32   0.0000       0.114906         3.1267
  33   0.0000       0.122872         3.3435
  34   0.0000       0.139605         3.7988
  35   0.0000       0.157216         4.2781
  36   0.0000       0.165429         4.5016

MULLIKEN ATOMIC CHARGES
-----------------------
   0 O :   -0.296433
   1 C :    0.178397
   2 N :   -0.287198
   3 C :   -0.054515
   4 C :   -0.022596
   5 N :   -0.336968
   6 C :    0.066008
   7 N :   -0.280236
   8 C :    0.104815
   9 H :    0.244560
  10 H :    0.154183
  11 H :    0.246525
  12 H :    0.148615
  13 H :    0.134843
Sum of atomic charges:    0.0000000

LOEWDIN ATOMIC CHARGES
----------------------
   0 O :    0.121077
   1 C :   -0.387401
   2 N :    0.131450
   3 C :   -0.197709
   4 C :   -0.231109
   5 N :    0.113962
   6 C :   -0.279662
   7 N :    0.096597
   8 C :   -0.192216
   9 H :    0.186215
  10 H :    0.135747
  11 H :    0.187972
  12 H :    0.134677
  13 H :    0.180400

  Mayer bond orders larger than 0.1
B(  0-O ,  1-C ) :   2.0350 B(  1-C ,  2-N ) :   1.1042 B(  1-C ,  8-C ) :   0.8596
B(  2-N ,  3-C ) :   0.9507 B(  2-N ,  9-H ) :   0.8632 B(  3-C ,  4-C ) :   1.7000
B(  3-C , 10-H ) :   0.9020 B(  4-C ,  5-N ) :   1.0338 B(  4-C ,  8-C ) :   0.9313
B(  5-N ,  6-C ) :   1.0468 B(  5-N , 11-H ) :   0.8651 B(  6-C ,  7-N ) :   1.7821
B(  6-C , 12-H ) :   0.9194 B(  7-N ,  8-C ) :   0.9340 B(  8-C , 13-H ) :   0.8815

MP2 TOTAL ENERGY:     -432.162967029 Eh
FINAL SINGLE POINT ENERGY      -432.162967029098

DIPOLE MOMENT
-------------
                                X             Y             Z
Electronic contribution:     -0.13342      -2.07177      -0.13349
Nuclear contribution   :     -0.45984       4.28592       0.40911
                        -----------------------------------------
Total Dipole Moment    :     -0.59326       2.21415       0.27562
                        -----------------------------------------
Magnitude (a.u.)       :      2.30876
Magnitude (Debye)      :      5.86841

                             ****ORCA TERMINATED NORMALLY****
TOTAL RUN TIME: 0 days 0 hours 14 minutes 29 seconds 388 msec
