                         Program Version 3.0.3 - RELEASE   -
|  1> ! RI-MP2 RIJK def2-TZVP def2-TZVP/C def2-TZVP/JK TIGHTSCF
|  2> % maxcore 2000
|  3> % mp2 density relaxed end
|  4> *xyz 0 1
|  5>  N        0.1554680694     1.3032660234    -0.0143251449
|  6>  C        0.0782455962     0.0458608901    -0.1881500527
|  7>  C       -1.2054230666    -0.7148895596     0.0542215346
|  8>  C       -1.3521767094    -1.9061714630    -0.9056350177
|  9>  N       -0.1617036130    -2.7494757251    -0.9784196067
| 10>  C        0.9497543949    -2.1393927144    -0.8194865271
| 11>  N        1.1270087174    -0.7946603330    -0.5598525522
| 12>  C        2.2165761055    -2.9183343833    -0.9604395675
| 13>  O        3.3075915122    -2.4078271504    -0.8710806061
| 14>  H        1.1013997500     1.6514057755    -0.1888040206
| 15>  H       -1.1786668839    -1.0883701240     1.0863113130
| 16>  H       -2.0451002850    -0.0228558771    -0.0214036155
| 17>  H       -2.2032260504    -2.5280855512    -0.6145337185
| 18>  H       -1.5644795641    -1.5469503280    -1.9240439200
| 19>  H        2.0849402923    -0.4680506284    -0.5453500585
| 20>  H        2.0550356545    -3.9926782217    -1.1626928996
| 21> *
| 22>
| 23>                          ****END OF INPUT****

CARTESIAN COORDINATES (ANGSTROEM)
---------------------------------
  N      0.155468    1.303266   -0.014325
  C      0.078246    0.045861   -0.188150
  C     -1.205423   -0.714890    0.054222
  C     -1.352177   -1.906171   -0.905635
  N     -0.161704   -2.749476   -0.978420
  C      0.949754   -2.139393   -0.819487
  N      1.127009   -0.794660   -0.559853
  C      2.216576   -2.918334   -0.960440
  O      3.307592   -2.407827   -0.871081
  H      1.101400    1.651406   -0.188804
  H     -1.178667   -1.088370    1.086311
  H     -2.045100   -0.022856   -0.021404
  H     -2.203226   -2.528086   -0.614534
  H     -1.564480   -1.546950   -1.924044
  H      2.084940   -0.468051   -0.545350
  H      2.055036   -3.992678   -1.162693

 Total Charge           Charge          ....    0
 Multiplicity           Mult            ....    1
 Number of Electrons    NEL             ....   66
 Basis Dimension        Dim             ....  321

ORBITAL ENERGIES
----------------

  NO   OCC          E(Eh)            E(eV)
   0   2.0000     -20.592167      -560.3413
   1   2.0000     -15.615594      -424.9219
   2   2.0000     -15.578874      -423.9227
   3   2.0000     -15.543287      -422.9544
   4   2.0000     -11.360847      -309.1444
   5   2.0000     -11.342365      -308.6414
   6   2.0000     -11.335872      -308.4648
   7   2.0000     -11.275432      -306.8201
   8   2.0000     -11.249723      -306.1205
   9   2.0000      -1.430703       -38.9314
  10   2.0000      -1.332941       -36.2712
  11   2.0000      -1.239730       -33.7348
  12   2.0000      -1.174225       -31.9523
  13   2.0000      -1.061560       -28.8865
  14   2.0000      -0.953603       -25.9489
  15   2.0000      -0.896732       -24.4013
  16   2.0000      -0.832274       -22.6473
  17   2.0000      -0.769368       -20.9356
  18   2.0000      -0.728748       -19.8302
  19   2.0000      -0.700515       -19.0620
  20   2.0000      -0.684574       -18.6282
  21   2.0000      -0.664061       -18.0700
  22   2.0000      -0.627362       -17.0714
  23   2.0000      -0.601405       -16.3651
  24   2.0000      -0.587867       -15.9967
  25   2.0000      -0.569675       -15.5017
  26   2.0000      -0.546603       -14.8738
  27   2.0000      -0.530101       -14.4248
  28   2.0000      -0.476810       -12.9747
  29   2.0000      -0.443218       -12.0606
  30   2.0000      -0.438570       -11.9341
  31   2.0000      -0.431810       -11.7501
  32   2.0000      -0.369086       -10.0433
  33   0.0000       0.061668         1.6781
  34   0.0000       0.124132         3.3778
  35   0.0000       0.148887         4.0514
  36   0.0000       0.163509         4.4493
  37   0.0000       0.175826         4.7845

MULLIKEN ATOMIC CHARGES
-----------------------
   0 N :   -0.336980
   1 C :    0.073878
   2 C :   -0.178599
   3 C :   -0.131720
   4 N :   -0.229191
   5 C :    0.147418
   6 N :   -0.305559
   7 C :    0.112877
   8 O :   -0.286512
   9 H :    0.201211
  10 H :    0.136859
  11 H :    0.148791
  12 H :    0.144867
  13 H :    0.131114
  14 H :    0.252243
  15 H :    0.119303
Sum of atomic charges:    0.0000000

LOEWDIN ATOMIC CHARGES
----------------------
   0 N :   -0.053666
   1 C :   -0.360899
   2 C :   -0.217359
   3 C :   -0.279345
   4 N :    0.118462
   5 C :   -0.347157
   6 N :    0.165337
   7 C :   -0.245155
   8 O :    0.136472
   9 H :    0.158966
  10 H :    0.156545
  11 H :    0.156183
  12 H :    0.138022
  13 H :    0.143803
  14 H :    0.200367
  15 H :    0.129426

  Mayer bond orders larger than 0.1
B(  0-N ,  1-C ) :   2.0766 B(  0-N ,  9-H ) :   0.8597 B(  1-C ,  2-C ) :   0.9094
B(  1-C ,  6-N ) :   1.0291 B(  2-C ,  3-C ) :   0.9101 B(  2-C , 10-H ) :   0.9170
B(  2-C , 11-H ) :   0.9199 B(  3-C ,  4-N ) :   0.8978 B(  3-C , 12-H ) :   0.9308
B(  3-C , 13-H ) :   0.9201 B(  4-N ,  5-C ) :   1.8209 B(  5-C ,  6-N ) :   1.0751
B(  5-C ,  7-C ) :   0.8715 B(  6-N , 14-H ) :   0.8425 B(  7-C ,  8-O ) :   1.9217
B(  7-C , 15-H ) :   0.9445

MP2 TOTAL ENERGY:     -433.378801509 Eh
FINAL SINGLE POINT ENERGY      -433.378801508625

DIPOLE MOMENT
-------------
                                X             Y             Z
Electronic contribution:      5.35387      -1.59569      -0.73818
Nuclear contribution   :     -5.54728       1.39691       0.66310
                        -----------------------------------------
Total Dipole Moment    :     -0.19341      -0.19878      -0.07508
                        -----------------------------------------
Magnitude (a.u.)       :      0.28732
Magnitude (Debye)      :      0.73032

                             ****ORCA TERMINATED NORMALLY****
TOTAL RUN TIME: 0 days 0 hours 16 minutes 1 seconds 284 msec
