                         Program Version 3.0.3 - RELEASE   -
|  1> ! RI-MP2 RIJK def2-TZVP def2-TZVP/C def2-TZVP/JK TIGHTSCF
|  2> % maxcore 2000
|  3> % mp2 density relaxed end
|  4> *xyz 0 1
|  5>  C       -0.0038652059     1.4735635288     0.1166548837
|  6>  C        1.3050342837     0.7203543312     0.0189992828
|  7>  N        2.0667122838     0.3216036429     1.2079825547
|  8>  C        1.1647569818    -0.4597165908     1.9474219963
|  9>  C        0.0423597525    -0.7552759524     1.2630176239
| 10>  O       -0.7252787600    -1.5718715690     2.0428708506
| 11>  C        0.0230036443    -1.7015186219     3.1764493915
| 12>  N        1.1568042908    -1.0570491501     3.1856761901
| 13>  C       -0.0402193396    -0.0411820830    -0.0197717228
| 14>  H       -0.3052261561     1.9027866503     1.0657893232
| 15>  H       -0.2765951315     2.0553011629    -0.7574524658
| 16>  H        1.8991087470     0.8405202415    -0.8794062528
| 17>  H        2.5075652506     1.0862512015     1.7047124302
| 18>  H       -0.3845501903    -2.3362066911     3.9466755929
| 19>  H       -0.4099592012    -0.5022133209    -0.9279797287
| 20> *
| 21>
| 22>                          ****END OF INPUT****

CARTESIAN COORDINATES (ANGSTROEM)
---------------------------------
  C     -0.003865    1.473564    0.116655
  C      1.305034    0.720354    0.018999
  N      2.066712    0.321604    1.207983
  C      1.164757   -0.459717    1.947422
  C      0.042360   -0.755276    1.263018
  O     -0.725279   -1.571872    2.042871
  C      0.023004   -1.701519    3.176449
  N      1.156804   -1.057049    3.185676
  C     -0.040219   -0.041182   -0.019772
  H     -0.305226    1.902787    1.065789
  H     -0.276595    2.055301   -0.757452
  H      1.899109    0.840520   -0.879406
  H      2.507565    1.086251    1.704712
  H     -0.384550   -2.336207    3.946676
  H     -0.409959   -0.502213   -0.927980

 Total Charge           Charge          ....    0
 Multiplicity           Mult            ....    1
 Number of Electrons    NEL             ....   64
 Basis Dimension        Dim             ....  315

ORBITAL ENERGIES
----------------

  NO   OCC          E(Eh)            E(eV)
   0   2.0000     -20.638847      -561.6116
   1   2.0000     -15.572989      -423.7626
   2   2.0000     -15.571462      -423.7210
   3   2.0000     -11.337557      -308.5106
   4   2.0000     -11.279617      -306.9340
   5   2.0000     -11.277737      -306.8828
   6   2.0000     -11.270007      -306.6725
   7   2.0000     -11.259798      -306.3947
   8   2.0000     -11.239760      -305.8494
   9   2.0000      -1.480881       -40.2968
  10   2.0000      -1.278411       -34.7873
  11   2.0000      -1.223212       -33.2853
  12   2.0000      -1.114057       -30.3150
  13   2.0000      -1.017460       -27.6865
  14   2.0000      -0.872375       -23.7385
  15   2.0000      -0.835093       -22.7240
  16   2.0000      -0.820773       -22.3344
  17   2.0000      -0.781926       -21.2773
  18   2.0000      -0.720707       -19.6114
  19   2.0000      -0.685021       -18.6404
  20   2.0000      -0.657104       -17.8807
  21   2.0000      -0.643989       -17.5238
  22   2.0000      -0.639499       -17.4016
  23   2.0000      -0.578708       -15.7474
  24   2.0000      -0.555351       -15.1119
  25   2.0000      -0.537766       -14.6333
  26   2.0000      -0.517734       -14.0883
  27   2.0000      -0.465276       -12.6608
  28   2.0000      -0.462925       -12.5968
  29   2.0000      -0.445179       -12.1139
  30   2.0000      -0.394717       -10.7408
  31   2.0000      -0.288566        -7.8523
  32   0.0000       0.133253         3.6260
  33   0.0000       0.149678         4.0730
  34   0.0000       0.161184         4.3860
  35   0.0000       0.172433         4.6921
  36   0.0000       0.178847         4.8667

MULLIKEN ATOMIC CHARGES
-----------------------
   0 C :   -0.264292
   1 C :   -0.026149
   2 N :   -0.327222
   3 C :    0.096707
   4 C :    0.084831
   5 O :   -0.215274
   6 C :    0.096199
   7 N :   -0.273615
   8 C :   -0.129285
   9 H :    0.150309
  10 H :    0.136140
  11 H :    0.134406
  12 H :    0.237324
  13 H :    0.153640
  14 H :    0.146282
Sum of atomic charges:   -0.0000000

LOEWDIN ATOMIC CHARGES
----------------------
   0 C :   -0.206907
   1 C :   -0.199865
   2 N :    0.078760
   3 C :   -0.308465
   4 C :   -0.237753
   5 O :    0.347038
   6 C :   -0.315310
   7 N :    0.119221
   8 C :   -0.157067
   9 H :    0.139346
  10 H :    0.137829
  11 H :    0.140549
  12 H :    0.183617
  13 H :    0.131032
  14 H :    0.147976

  Mayer bond orders larger than 0.1
B(  0-C ,  1-C ) :   0.8737 B(  0-C ,  8-C ) :   0.8615 B(  0-C ,  9-H ) :   0.9231
B(  0-C , 10-H ) :   0.9260 B(  1-C ,  2-N ) :   0.9573 B(  1-C ,  8-C ) :   0.8879
B(  1-C , 11-H ) :   0.9351 B(  2-N ,  3-C ) :   1.0701 B(  2-N , 12-H ) :   0.8603
B(  3-C ,  4-C ) :   1.4897 B(  3-C ,  7-N ) :   1.2556 B(  4-C ,  5-O ) :   1.0287
B(  4-C ,  8-C ) :   0.9830 B(  5-O ,  6-C ) :   1.0840 B(  6-C ,  7-N ) :   1.5928
B(  6-C , 13-H ) :   0.9323 B(  8-C , 14-H ) :   0.9127

MP2 TOTAL ENERGY:     -416.089969853 Eh
FINAL SINGLE POINT ENERGY      -416.089969853453

DIPOLE MOMENT
-------------
                                X             Y             Z
Electronic contribution:     -0.16815      -4.15782       3.62195
Nuclear contribution   :     -0.23020       4.75482      -4.22322
                        -----------------------------------------
Total Dipole Moment    :     -0.39835       0.59700      -0.60127
                        -----------------------------------------
Magnitude (a.u.)       :      0.93628
Magnitude (Debye)      :      2.37982

                             ****ORCA TERMINATED NORMALLY****
TOTAL RUN TIME: 0 days 0 hours 16 minutes 51 seconds 901 msec
