                         Program Version 3.0.3 - RELEASE   -
|  1> ! RI-MP2 RIJK def2-TZVP def2-TZVP/C def2-TZVP/JK TIGHTSCF
|  2> % maxcore 2000
|  3> % mp2 density relaxed end
|  4> *xyz 0 1
|  5>  O        0.8465312212    -0.6367615804    -1.0353200068
|  6>  C        0.1530861604    -0.0022885587     0.0241535707
|  7>  C       -1.3103235237    -0.4014175083     0.0231595746
|  8>  C       -2.3543578590     0.3003354751     0.9332113388
|  9>  C       -3.0972298828     0.6483408045    -0.3561098325
| 10>  C       -2.2361562291     1.4282437140    -1.2587712585
| 11>  N       -2.0718679272    -0.0435545092    -1.2424969186
| 12>  H        0.3030174749    -0.5308457417    -1.8252774257
| 13>  H        0.6258353161    -0.3299540739     0.9574943629
| 14>  H        0.2645265842     1.0931589659    -0.0230578906
| 15>  H       -1.3674799263    -1.4891216727     0.1177283370
| 16>  H       -2.8840874908    -0.3944047322     1.5862968211
| 17>  H       -2.0173484250     1.1548330412     1.5289024987
| 18>  H       -4.1621854993     0.5244043389    -0.5232704966
| 19>  H       -2.6637578640     1.7776510479    -2.1932879730
| 20>  H       -1.4630919094     2.0738666199    -0.8493248716
| 21> *
| 22>
| 23>                          ****END OF INPUT****

CARTESIAN COORDINATES (ANGSTROEM)
---------------------------------
  O      0.846531   -0.636762   -1.035320
  C      0.153086   -0.002289    0.024154
  C     -1.310324   -0.401418    0.023160
  C     -2.354358    0.300335    0.933211
  C     -3.097230    0.648341   -0.356110
  C     -2.236156    1.428244   -1.258771
  N     -2.071868   -0.043555   -1.242497
  H      0.303017   -0.530846   -1.825277
  H      0.625835   -0.329954    0.957494
  H      0.264527    1.093159   -0.023058
  H     -1.367480   -1.489122    0.117728
  H     -2.884087   -0.394405    1.586297
  H     -2.017348    1.154833    1.528902
  H     -4.162185    0.524404   -0.523270
  H     -2.663758    1.777651   -2.193288
  H     -1.463092    2.073867   -0.849325

 Total Charge           Charge          ....    0
 Multiplicity           Mult            ....    1
 Number of Electrons    NEL             ....   54
 Basis Dimension        Dim             ....  271

ORBITAL ENERGIES
----------------

  NO   OCC          E(Eh)            E(eV)
   0   2.0000     -20.550957      -559.2200
   1   2.0000     -15.565238      -423.5517
   2   2.0000     -11.275354      -306.8180
   3   2.0000     -11.270785      -306.6936
   4   2.0000     -11.264316      -306.5176
   5   2.0000     -11.261273      -306.4348
   6   2.0000     -11.240302      -305.8642
   7   2.0000      -1.358297       -36.9611
   8   2.0000      -1.291751       -35.1503
   9   2.0000      -1.032691       -28.1009
  10   2.0000      -0.962947       -26.2031
  11   2.0000      -0.905400       -24.6372
  12   2.0000      -0.815069       -22.1791
  13   2.0000      -0.751586       -20.4517
  14   2.0000      -0.702233       -19.1087
  15   2.0000      -0.678279       -18.4569
  16   2.0000      -0.642325       -17.4786
  17   2.0000      -0.620998       -16.8982
  18   2.0000      -0.583284       -15.8720
  19   2.0000      -0.564459       -15.3597
  20   2.0000      -0.547004       -14.8847
  21   2.0000      -0.528344       -14.3770
  22   2.0000      -0.479131       -13.0378
  23   2.0000      -0.464591       -12.6422
  24   2.0000      -0.447907       -12.1882
  25   2.0000      -0.415999       -11.3199
  26   2.0000      -0.379383       -10.3235
  27   0.0000       0.144572         3.9340
  28   0.0000       0.155722         4.2374
  29   0.0000       0.159244         4.3332
  30   0.0000       0.171266         4.6604
  31   0.0000       0.193049         5.2531

MULLIKEN ATOMIC CHARGES
-----------------------
   0 O :   -0.475143
   1 C :   -0.001709
   2 C :   -0.036132
   3 C :   -0.255094
   4 C :   -0.067082
   5 C :   -0.156740
   6 N :   -0.290834
   7 H :    0.327592
   8 H :    0.114639
   9 H :    0.078134
  10 H :    0.113179
  11 H :    0.133574
  12 H :    0.121093
  13 H :    0.131672
  14 H :    0.135702
  15 H :    0.127150
Sum of atomic charges:    0.0000000

LOEWDIN ATOMIC CHARGES
----------------------
   0 O :   -0.043294
   1 C :   -0.337722
   2 C :   -0.263821
   3 C :   -0.212551
   4 C :   -0.217074
   5 C :   -0.256407
   6 N :    0.093454
   7 H :    0.179583
   8 H :    0.132545
   9 H :    0.114603
  10 H :    0.149975
  11 H :    0.137175
  12 H :    0.132908
  13 H :    0.132015
  14 H :    0.133810
  15 H :    0.124800

  Mayer bond orders larger than 0.1
B(  0-O ,  1-C ) :   0.9270 B(  0-O ,  7-H ) :   0.8345 B(  1-C ,  2-C ) :   0.9786
B(  1-C ,  8-H ) :   0.9312 B(  1-C ,  9-H ) :   0.9002 B(  2-C ,  3-C ) :   0.9399
B(  2-C ,  6-N ) :   0.8825 B(  2-C , 10-H ) :   0.9200 B(  3-C ,  4-C ) :   0.9327
B(  3-C , 11-H ) :   0.9344 B(  3-C , 12-H ) :   0.9125 B(  4-C ,  5-C ) :   0.9448
B(  4-C ,  6-N ) :   0.8976 B(  4-C , 13-H ) :   0.9084 B(  5-C ,  6-N ) :   0.8487
B(  5-C , 14-H ) :   0.9327 B(  5-C , 15-H ) :   0.9101

MP2 TOTAL ENERGY:     -325.175700877 Eh
FINAL SINGLE POINT ENERGY      -325.175700876550

DIPOLE MOMENT
-------------
                                X             Y             Z
Electronic contribution:      0.33626      -1.56006      -1.93967
Nuclear contribution   :     -0.99520       2.19458       2.48569
                        -----------------------------------------
Total Dipole Moment    :     -0.65894       0.63452       0.54602
                        -----------------------------------------
Magnitude (a.u.)       :      1.06534
Magnitude (Debye)      :      2.70788

                             ****ORCA TERMINATED NORMALLY****
TOTAL RUN TIME: 0 days 0 hours 8 minutes 31 seconds 17 msec
