                         Program Version 3.0.3 - RELEASE   -
|  1> ! RI-MP2 RIJK def2-TZVP def2-TZVP/C def2-TZVP/JK TIGHTSCF
|  2> % maxcore 2000
|  3> % mp2 density relaxed end
|  4> *xyz 0 1
|  5>  C       -0.0683041638     1.6400578248    -0.3475611887
|  6>  C       -0.0986122401     0.1639511203    -0.6863925568
|  7>  C       -0.5358578624    -0.8512370592     0.2804172609
|  8>  O       -1.3888271214    -0.4373384879    -0.7888334327
|  9>  C        1.2852868014     2.0825050851     0.1176968722
| 10>  C        1.9928403397     1.8028532312     1.4595987847
| 11>  C        2.7841211977     3.1448424436     1.2695024661
| 12>  C        2.0430299216     3.3353481317    -0.0603279228
| 13>  O        2.3290159865     2.1852409733    -0.8679358343
| 14>  H       -0.3436710390     2.2188774921    -1.2366212428
| 15>  H       -0.8183396177     1.8435224595     0.4253925025
| 16>  H        0.6016270720    -0.1420192670    -1.4642979625
| 17>  H       -0.1566871801    -1.8696286847     0.2102778067
| 18>  H       -0.8535842419    -0.5424840200     1.2759527540
| 19>  H        1.3184883522     1.8338645981     2.3191316257
| 20>  H        2.5801442653     0.8824029153     1.4889417813
| 21>  H        2.5243031743     3.8940870406     2.0209204684
| 22>  H        3.8707010553     3.0716987373     1.1853801118
| 23>  H        1.7888275204     4.2514029261    -0.5825473335
| 24> *
| 25>
| 26>                          ****END OF INPUT****

CARTESIAN COORDINATES (ANGSTROEM)
---------------------------------
  C     -0.068304    1.640058   -0.347561
  C     -0.098612    0.163951   -0.686393
  C     -0.535858   -0.851237    0.280417
  O     -1.388827   -0.437338   -0.788833
  C      1.285287    2.082505    0.117697
  C      1.992840    1.802853    1.459599
  C      2.784121    3.144842    1.269502
  C      2.043030    3.335348   -0.060328
  O      2.329016    2.185241   -0.867936
  H     -0.343671    2.218877   -1.236621
  H     -0.818340    1.843522    0.425393
  H      0.601627   -0.142019   -1.464298
  H     -0.156687   -1.869629    0.210278
  H     -0.853584   -0.542484    1.275953
  H      1.318488    1.833865    2.319132
  H      2.580144    0.882403    1.488942
  H      2.524303    3.894087    2.020920
  H      3.870701    3.071699    1.185380
  H      1.788828    4.251403   -0.582547

 Total Charge           Charge          ....    0
 Multiplicity           Mult            ....    1
 Number of Electrons    NEL             ....   68
 Basis Dimension        Dim             ....  339

ORBITAL ENERGIES
----------------

  NO   OCC          E(Eh)            E(eV)
   0   2.0000     -20.568272      -559.6911
   1   2.0000     -20.566926      -559.6545
   2   2.0000     -11.294363      -307.3353
   3   2.0000     -11.289266      -307.1965
   4   2.0000     -11.287667      -307.1530
   5   2.0000     -11.283556      -307.0412
   6   2.0000     -11.241322      -305.8919
   7   2.0000     -11.238026      -305.8022
   8   2.0000     -11.237469      -305.7871
   9   2.0000      -1.419256       -38.6199
  10   2.0000      -1.411953       -38.4212
  11   2.0000      -1.088234       -29.6124
  12   2.0000      -1.043320       -28.3902
  13   2.0000      -0.918097       -24.9827
  14   2.0000      -0.902771       -24.5657
  15   2.0000      -0.866002       -23.5651
  16   2.0000      -0.813134       -22.1265
  17   2.0000      -0.753902       -20.5147
  18   2.0000      -0.713247       -19.4084
  19   2.0000      -0.672835       -18.3088
  20   2.0000      -0.649772       -17.6812
  21   2.0000      -0.635384       -17.2897
  22   2.0000      -0.629098       -17.1186
  23   2.0000      -0.580932       -15.8080
  24   2.0000      -0.558380       -15.1943
  25   2.0000      -0.543647       -14.7934
  26   2.0000      -0.524887       -14.2829
  27   2.0000      -0.515674       -14.0322
  28   2.0000      -0.492949       -13.4138
  29   2.0000      -0.477091       -12.9823
  30   2.0000      -0.455810       -12.4032
  31   2.0000      -0.445817       -12.1313
  32   2.0000      -0.432712       -11.7747
  33   2.0000      -0.395637       -10.7658
  34   0.0000       0.132637         3.6092
  35   0.0000       0.155282         4.2254
  36   0.0000       0.163588         4.4515
  37   0.0000       0.172061         4.6820
  38   0.0000       0.185260         5.0412

MULLIKEN ATOMIC CHARGES
-----------------------
   0 C :   -0.216126
   1 C :    0.055485
   2 C :   -0.093323
   3 O :   -0.330210
   4 C :    0.130702
   5 C :   -0.247669
   6 C :   -0.155865
   7 C :   -0.056886
   8 O :   -0.330184
   9 H :    0.135687
  10 H :    0.136720
  11 H :    0.139304
  12 H :    0.119076
  13 H :    0.111552
  14 H :    0.118203
  15 H :    0.119076
  16 H :    0.114319
  17 H :    0.117164
  18 H :    0.132976
Sum of atomic charges:    0.0000000

LOEWDIN ATOMIC CHARGES
----------------------
   0 C :   -0.214976
   1 C :   -0.283502
   2 C :   -0.267757
   3 O :    0.145807
   4 C :   -0.280006
   5 C :   -0.194176
   6 C :   -0.217056
   7 C :   -0.228470
   8 O :    0.184561
   9 H :    0.157305
  10 H :    0.154844
  11 H :    0.142634
  12 H :    0.119493
  13 H :    0.119015
  14 H :    0.135269
  15 H :    0.131828
  16 H :    0.134680
  17 H :    0.130912
  18 H :    0.129595

  Mayer bond orders larger than 0.1
B(  0-C ,  1-C ) :   0.8908 B(  0-C ,  4-C ) :   0.8906 B(  0-C ,  9-H ) :   0.9184
B(  0-C , 10-H ) :   0.9326 B(  1-C ,  2-C ) :   0.9804 B(  1-C ,  3-O ) :   0.8837
B(  1-C , 11-H ) :   0.9201 B(  2-C ,  3-O ) :   0.9193 B(  2-C , 12-H ) :   0.9199
B(  2-C , 13-H ) :   0.9088 B(  4-C ,  5-C ) :   0.9351 B(  4-C ,  7-C ) :   0.8763
B(  4-C ,  8-O ) :   0.8589 B(  5-C ,  6-C ) :   0.9865 B(  5-C , 14-H ) :   0.9256
B(  5-C , 15-H ) :   0.9070 B(  6-C ,  7-C ) :   0.9110 B(  6-C , 16-H ) :   0.9104
B(  6-C , 17-H ) :   0.9114 B(  7-C ,  8-O ) :   0.9207 B(  7-C , 18-H ) :   0.9250

MP2 TOTAL ENERGY:     -422.253893557 Eh
FINAL SINGLE POINT ENERGY      -422.253893556874

DIPOLE MOMENT
-------------
                                X             Y             Z
Electronic contribution:     -1.10308      -0.71224      -4.10058
Nuclear contribution   :      1.33028       1.12387       5.00073
                        -----------------------------------------
Total Dipole Moment    :      0.22720       0.41163       0.90015
                        -----------------------------------------
Magnitude (a.u.)       :      1.01554
Magnitude (Debye)      :      2.58131

                             ****ORCA TERMINATED NORMALLY****
TOTAL RUN TIME: 0 days 0 hours 14 minutes 44 seconds 955 msec
