                         Program Version 3.0.3 - RELEASE   -
|  1> ! RI-MP2 RIJK def2-TZVP def2-TZVP/C def2-TZVP/JK TIGHTSCF
|  2> % maxcore 2000
|  3> % mp2 density relaxed end
|  4> *xyz 0 1
|  5>  O       -0.0379607586     1.4963739953     0.2664687231
|  6>  C       -0.0342314469     0.0791446392     0.3423708589
|  7>  C       -1.3256904719    -0.5305493131    -0.2186657858
|  8>  C       -1.3822638040    -2.0415342425    -0.1013669110
|  9>  C       -1.6646104319    -2.6925902675     1.2513421017
| 10>  C       -2.7121380609    -2.7368862075     0.1943871176
| 11>  C       -0.4873863237    -2.8127104404    -0.9985967994
| 12>  O        0.2528490447    -2.3296658510    -1.8213735136
| 13>  H        0.0270871545     1.7378625667    -0.6629042550
| 14>  H        0.8344767694    -0.3509969709    -0.1725879542
| 15>  H        0.0589476286    -0.1611924415     1.4072427482
| 16>  H       -2.1766607065    -0.0815540287     0.3050523705
| 17>  H       -1.4155278750    -0.2575513960    -1.2774955133
| 18>  H       -1.1365475336    -3.6084168667     1.4959507168
| 19>  H       -1.7970488310    -2.0150745574     2.0872483065
| 20>  H       -3.5760995008    -2.0885963868     0.2846035941
| 21>  H       -2.9099576077    -3.6833568162    -0.2978399997
| 22>  H       -0.5531394146    -3.9191198951    -0.8663625052
| 23> *
| 24>
| 25>                          ****END OF INPUT****

CARTESIAN COORDINATES (ANGSTROEM)
---------------------------------
  O     -0.037961    1.496374    0.266469
  C     -0.034231    0.079145    0.342371
  C     -1.325690   -0.530549   -0.218666
  C     -1.382264   -2.041534   -0.101367
  C     -1.664610   -2.692590    1.251342
  C     -2.712138   -2.736886    0.194387
  C     -0.487386   -2.812710   -0.998597
  O      0.252849   -2.329666   -1.821374
  H      0.027087    1.737863   -0.662904
  H      0.834477   -0.350997   -0.172588
  H      0.058948   -0.161192    1.407243
  H     -2.176661   -0.081554    0.305052
  H     -1.415528   -0.257551   -1.277496
  H     -1.136548   -3.608417    1.495951
  H     -1.797049   -2.015075    2.087248
  H     -3.576100   -2.088596    0.284604
  H     -2.909958   -3.683357   -0.297840
  H     -0.553139   -3.919120   -0.866363

 Total Charge           Charge          ....    0
 Multiplicity           Mult            ....    1
 Number of Electrons    NEL             ....   62
 Basis Dimension        Dim             ....  308

ORBITAL ENERGIES
----------------

  NO   OCC          E(Eh)            E(eV)
   0   2.0000     -20.555150      -559.3341
   1   2.0000     -20.552181      -559.2533
   2   2.0000     -11.335520      -308.4552
   3   2.0000     -11.271001      -306.6995
   4   2.0000     -11.261071      -306.4293
   5   2.0000     -11.255740      -306.2843
   6   2.0000     -11.254984      -306.2637
   7   2.0000     -11.232129      -305.6418
   8   2.0000      -1.395944       -37.9856
   9   2.0000      -1.356119       -36.9019
  10   2.0000      -1.180932       -32.1348
  11   2.0000      -1.022291       -27.8180
  12   2.0000      -0.914143       -24.8751
  13   2.0000      -0.861075       -23.4310
  14   2.0000      -0.846282       -23.0285
  15   2.0000      -0.754046       -20.5186
  16   2.0000      -0.703620       -19.1465
  17   2.0000      -0.678350       -18.4588
  18   2.0000      -0.675519       -18.3818
  19   2.0000      -0.629343       -17.1253
  20   2.0000      -0.615860       -16.7584
  21   2.0000      -0.592384       -16.1196
  22   2.0000      -0.555874       -15.1261
  23   2.0000      -0.547592       -14.9007
  24   2.0000      -0.546390       -14.8680
  25   2.0000      -0.533643       -14.5212
  26   2.0000      -0.484873       -13.1941
  27   2.0000      -0.465966       -12.6796
  28   2.0000      -0.446928       -12.1615
  29   2.0000      -0.420412       -11.4400
  30   2.0000      -0.408276       -11.1098
  31   0.0000       0.125799         3.4232
  32   0.0000       0.137369         3.7380
  33   0.0000       0.148838         4.0501
  34   0.0000       0.157865         4.2957
  35   0.0000       0.164858         4.4860

MULLIKEN ATOMIC CHARGES
-----------------------
   0 O :   -0.471746
   1 C :   -0.074819
   2 C :   -0.208330
   3 C :    0.105437
   4 C :   -0.297555
   5 C :   -0.278801
   6 C :    0.054725
   7 O :   -0.287042
   8 H :    0.316468
   9 H :    0.131003
  10 H :    0.107785
  11 H :    0.117423
  12 H :    0.118617
  13 H :    0.146757
  14 H :    0.149569
  15 H :    0.147730
  16 H :    0.144945
  17 H :    0.077833
Sum of atomic charges:   -0.0000000

LOEWDIN ATOMIC CHARGES
----------------------
   0 O :   -0.051374
   1 C :   -0.340227
   2 C :   -0.233090
   3 C :   -0.240981
   4 C :   -0.193269
   5 C :   -0.190934
   6 C :   -0.270512
   7 O :    0.126432
   8 H :    0.174344
   9 H :    0.122095
  10 H :    0.126353
  11 H :    0.145905
  12 H :    0.146762
  13 H :    0.138057
  14 H :    0.142209
  15 H :    0.140579
  16 H :    0.137813
  17 H :    0.119838

  Mayer bond orders larger than 0.1
B(  0-O ,  1-C ) :   0.9397 B(  0-O ,  8-H ) :   0.8480 B(  1-C ,  2-C ) :   0.9186
B(  1-C ,  9-H ) :   0.9407 B(  1-C , 10-H ) :   0.9252 B(  2-C ,  3-C ) :   0.8840
B(  2-C , 11-H ) :   0.9266 B(  2-C , 12-H ) :   0.9071 B(  3-C ,  4-C ) :   0.8258
B(  3-C ,  5-C ) :   0.8172 B(  3-C ,  6-C ) :   0.8910 B(  4-C ,  5-C ) :   0.9115
B(  4-C , 13-H ) :   0.9241 B(  4-C , 14-H ) :   0.9245 B(  5-C , 15-H ) :   0.9231
B(  5-C , 16-H ) :   0.9268 B(  6-C ,  7-O ) :   1.9760 B(  6-C , 17-H ) :   0.9543

MP2 TOTAL ENERGY:     -384.301904278 Eh
FINAL SINGLE POINT ENERGY      -384.301904277650

DIPOLE MOMENT
-------------
                                X             Y             Z
Electronic contribution:      2.77314       0.00204      -3.21867
Nuclear contribution   :     -3.55941      -0.61871       3.53235
                        -----------------------------------------
Total Dipole Moment    :     -0.78627      -0.61667       0.31368
                        -----------------------------------------
Magnitude (a.u.)       :      1.04733
Magnitude (Debye)      :      2.66209

                             ****ORCA TERMINATED NORMALLY****
TOTAL RUN TIME: 0 days 0 hours 13 minutes 28 seconds 332 msec
