                         Program Version 3.0.3 - RELEASE   -
|  1> ! RI-MP2 RIJK def2-TZVP def2-TZVP/C def2-TZVP/JK TIGHTSCF
|  2> % maxcore 2000
|  3> % mp2 density relaxed end
|  4> *xyz 0 1
|  5>  O       -0.1316314780     1.3791833130     0.0114496690
|  6>  C        0.0009161958    -0.0227494244     0.0174340173
|  7>  C        0.5778103415    -0.6177275712     1.3363161490
|  8>  C       -0.6656695825    -1.3782032370     1.7678859978
|  9>  N       -1.7802719539    -0.3179991246     1.4766579150
| 10>  C       -1.3958641723    -0.7054847279     0.0144942936
| 11>  C       -1.7230600997    -1.3407462800    -1.3638023757
| 12>  O       -0.8588666021    -2.4773368553    -0.9386238200
| 13>  C       -1.2114496004    -2.0847797301     0.4555454248
| 14>  H       -0.7487134881     1.5799545806     0.7289778765
| 15>  H        0.5926355163    -0.2879211061    -0.8585987987
| 16>  H        1.4337075856    -1.2783515649     1.1778118925
| 17>  H        0.8570809670     0.1711586654     2.0374737938
| 18>  H       -0.7036336210    -1.8550370352     2.7484843326
| 19>  H       -2.6794113437    -0.7453722864     1.7032512935
| 20>  H       -2.7552261451    -1.6773599335    -1.5079373176
| 21>  H       -1.3356428378    -0.8490736106    -2.2592535464
| 22>  H       -2.1365792216    -2.6179055317     0.7087715432
| 23> *
| 24>
| 25>                          ****END OF INPUT****

CARTESIAN COORDINATES (ANGSTROEM)
---------------------------------
  O     -0.131631    1.379183    0.011450
  C      0.000916   -0.022749    0.017434
  C      0.577810   -0.617728    1.336316
  C     -0.665670   -1.378203    1.767886
  N     -1.780272   -0.317999    1.476658
  C     -1.395864   -0.705485    0.014494
  C     -1.723060   -1.340746   -1.363802
  O     -0.858867   -2.477337   -0.938624
  C     -1.211450   -2.084780    0.455545
  H     -0.748713    1.579955    0.728978
  H      0.592636   -0.287921   -0.858599
  H      1.433708   -1.278352    1.177812
  H      0.857081    0.171159    2.037474
  H     -0.703634   -1.855037    2.748484
  H     -2.679411   -0.745372    1.703251
  H     -2.755226   -1.677360   -1.507937
  H     -1.335643   -0.849074   -2.259254
  H     -2.136579   -2.617906    0.708772

 Total Charge           Charge          ....    0
 Multiplicity           Mult            ....    1
 Number of Electrons    NEL             ....   68
 Basis Dimension        Dim             ....  333

ORBITAL ENERGIES
----------------

  NO   OCC          E(Eh)            E(eV)
   0   2.0000     -20.568516      -559.6978
   1   2.0000     -20.548395      -559.1503
   2   2.0000     -15.585626      -424.1064
   3   2.0000     -11.307606      -307.6956
   4   2.0000     -11.297080      -307.4092
   5   2.0000     -11.289828      -307.2118
   6   2.0000     -11.282012      -306.9992
   7   2.0000     -11.269717      -306.6646
   8   2.0000     -11.229055      -305.5581
   9   2.0000      -1.385310       -37.6962
  10   2.0000      -1.359234       -36.9866
  11   2.0000      -1.251259       -34.0485
  12   2.0000      -1.037684       -28.2368
  13   2.0000      -0.993781       -27.0422
  14   2.0000      -0.941540       -25.6206
  15   2.0000      -0.892961       -24.2987
  16   2.0000      -0.796709       -21.6795
  17   2.0000      -0.781220       -21.2581
  18   2.0000      -0.701090       -19.0776
  19   2.0000      -0.669868       -18.2280
  20   2.0000      -0.650174       -17.6921
  21   2.0000      -0.624146       -16.9839
  22   2.0000      -0.610638       -16.6163
  23   2.0000      -0.596304       -16.2263
  24   2.0000      -0.570715       -15.5299
  25   2.0000      -0.558107       -15.1869
  26   2.0000      -0.525217       -14.2919
  27   2.0000      -0.520283       -14.1576
  28   2.0000      -0.485292       -13.2055
  29   2.0000      -0.477091       -12.9823
  30   2.0000      -0.459830       -12.5126
  31   2.0000      -0.436975       -11.8907
  32   2.0000      -0.405626       -11.0376
  33   2.0000      -0.384109       -10.4521
  34   0.0000       0.127431         3.4676
  35   0.0000       0.140812         3.8317
  36   0.0000       0.164028         4.4634
  37   0.0000       0.166114         4.5202
  38   0.0000       0.188168         5.1203

MULLIKEN ATOMIC CHARGES
-----------------------
   0 O :   -0.466036
   1 C :    0.039332
   2 C :   -0.224685
   3 C :   -0.023041
   4 N :   -0.370872
   5 C :    0.064335
   6 C :   -0.062029
   7 O :   -0.318739
   8 C :   -0.041182
   9 H :    0.331118
  10 H :    0.119433
  11 H :    0.126102
  12 H :    0.126291
  13 H :    0.139035
  14 H :    0.212262
  15 H :    0.111917
  16 H :    0.136541
  17 H :    0.100216
Sum of atomic charges:   -0.0000000

LOEWDIN ATOMIC CHARGES
----------------------
   0 O :   -0.008778
   1 C :   -0.292111
   2 C :   -0.217012
   3 C :   -0.197797
   4 N :    0.011949
   5 C :   -0.259530
   6 C :   -0.208644
   7 O :    0.098630
   8 C :   -0.228092
   9 H :    0.179013
  10 H :    0.147279
  11 H :    0.141996
  12 H :    0.142833
  13 H :    0.131036
  14 H :    0.163311
  15 H :    0.124376
  16 H :    0.127437
  17 H :    0.144105

  Mayer bond orders larger than 0.1
B(  0-O ,  1-C ) :   0.9525 B(  0-O ,  9-H ) :   0.8187 B(  1-C ,  2-C ) :   0.9714
B(  1-C ,  5-C ) :   0.9192 B(  1-C , 10-H ) :   0.9036 B(  2-C ,  3-C ) :   0.9326
B(  2-C , 11-H ) :   0.9201 B(  2-C , 12-H ) :   0.9082 B(  3-C ,  4-N ) :   0.9410
B(  3-C ,  8-C ) :   0.8570 B(  3-C , 13-H ) :   0.9071 B(  4-N ,  5-C ) :   0.9095
B(  4-N , 14-H ) :   0.8749 B(  5-C ,  6-C ) :   0.8846 B(  5-C ,  8-C ) :   0.9753
B(  6-C ,  7-O ) :   0.8919 B(  6-C , 15-H ) :   0.9136 B(  6-C , 16-H ) :   0.9118
B(  7-O ,  8-C ) :   0.9483 B(  8-C , 17-H ) :   0.9509

MP2 TOTAL ENERGY:     -438.237989398 Eh
FINAL SINGLE POINT ENERGY      -438.237989397798

DIPOLE MOMENT
-------------
                                X             Y             Z
Electronic contribution:     -0.39388      -0.25195      -1.13068
Nuclear contribution   :     -0.27773      -0.20798       1.72087
                        -----------------------------------------
Total Dipole Moment    :     -0.67162      -0.45993       0.59019
                        -----------------------------------------
Magnitude (a.u.)       :      1.00545
Magnitude (Debye)      :      2.55565

                             ****ORCA TERMINATED NORMALLY****
TOTAL RUN TIME: 0 days 0 hours 18 minutes 42 seconds 6 msec
