                         Program Version 3.0.3 - RELEASE   -
|  1> ! RI-MP2 RIJK def2-TZVP def2-TZVP/C def2-TZVP/JK TIGHTSCF
|  2> % maxcore 2000
|  3> % mp2 density relaxed end
|  4> *xyz 0 1
|  5>  C        0.0892416892     1.4986706212    -0.0470739958
|  6>  C       -0.0581389835    -0.0056539134    -0.0660056194
|  7>  C        0.7263870778    -0.7717787799    -1.1643540279
|  8>  C        0.1573594261    -2.1752277555    -0.9934055622
|  9>  C       -1.0190582218    -2.1229953374    -0.3586033378
| 10>  C       -1.3431957371    -2.6230438990     1.0416029582
| 11>  C       -1.1486119181    -1.0994357968     1.4202609154
| 12>  O        0.1993386132    -0.5740832581     1.2844910386
| 13>  C       -1.4346018425    -0.6852969801    -0.0327552066
| 14>  H        1.1246403810     1.7759064634     0.1781042721
| 15>  H       -0.1736954474     1.9261856507    -1.0207962901
| 16>  H       -0.5532134949     1.9466856912     0.7159163837
| 17>  H        0.5779763585    -0.3052667000    -2.1485080375
| 18>  H        1.8044017062    -0.7676975958    -0.9660286459
| 19>  H        0.7869256415    -3.0572742789    -1.0448008425
| 20>  H       -2.3902996431    -2.8878951913     1.2310892054
| 21>  H       -0.6791564826    -3.3735848506     1.4753878820
| 22>  H       -1.6489586612    -0.7280956805     2.3195899657
| 23>  H       -2.3570344712    -0.2500009992    -0.4128527055
| 24> *
| 25>
| 26>                          ****END OF INPUT****

CARTESIAN COORDINATES (ANGSTROEM)
---------------------------------
  C      0.089242    1.498671   -0.047074
  C     -0.058139   -0.005654   -0.066006
  C      0.726387   -0.771779   -1.164354
  C      0.157359   -2.175228   -0.993406
  C     -1.019058   -2.122995   -0.358603
  C     -1.343196   -2.623044    1.041603
  C     -1.148612   -1.099436    1.420261
  O      0.199339   -0.574083    1.284491
  C     -1.434602   -0.685297   -0.032755
  H      1.124640    1.775906    0.178104
  H     -0.173695    1.926186   -1.020796
  H     -0.553213    1.946686    0.715916
  H      0.577976   -0.305267   -2.148508
  H      1.804402   -0.767698   -0.966029
  H      0.786926   -3.057274   -1.044801
  H     -2.390300   -2.887895    1.231089
  H     -0.679156   -3.373585    1.475388
  H     -1.648959   -0.728096    2.319590
  H     -2.357034   -0.250001   -0.412853

 Total Charge           Charge          ....    0
 Multiplicity           Mult            ....    1
 Number of Electrons    NEL             ....   66
 Basis Dimension        Dim             ....  339

ORBITAL ENERGIES
----------------

  NO   OCC          E(Eh)            E(eV)
   0   2.0000     -20.545268      -559.0652
   1   2.0000     -11.289692      -307.2081
   2   2.0000     -11.288552      -307.1771
   3   2.0000     -11.241909      -305.9079
   4   2.0000     -11.231053      -305.6125
   5   2.0000     -11.230416      -305.5952
   6   2.0000     -11.228079      -305.5316
   7   2.0000     -11.224485      -305.4338
   8   2.0000     -11.218374      -305.2675
   9   2.0000      -1.374251       -37.3953
  10   2.0000      -1.143172       -31.1073
  11   2.0000      -1.064640       -28.9703
  12   2.0000      -0.995415       -27.0866
  13   2.0000      -0.927080       -25.2271
  14   2.0000      -0.889948       -24.2167
  15   2.0000      -0.826518       -22.4907
  16   2.0000      -0.732752       -19.9392
  17   2.0000      -0.709322       -19.3016
  18   2.0000      -0.670509       -18.2455
  19   2.0000      -0.651250       -17.7214
  20   2.0000      -0.620330       -16.8800
  21   2.0000      -0.606503       -16.5038
  22   2.0000      -0.580044       -15.7838
  23   2.0000      -0.556516       -15.1436
  24   2.0000      -0.546082       -14.8597
  25   2.0000      -0.520584       -14.1658
  26   2.0000      -0.506618       -13.7858
  27   2.0000      -0.494799       -13.4642
  28   2.0000      -0.470387       -12.7999
  29   2.0000      -0.442518       -12.0415
  30   2.0000      -0.426967       -11.6184
  31   2.0000      -0.408707       -11.1215
  32   2.0000      -0.324522        -8.8307
  33   0.0000       0.122222         3.3258
  34   0.0000       0.139911         3.8072
  35   0.0000       0.157122         4.2755
  36   0.0000       0.170267         4.6332
  37   0.0000       0.186219         5.0673

MULLIKEN ATOMIC CHARGES
-----------------------
   0 C :   -0.409998
   1 C :    0.123555
   2 C :   -0.177297
   3 C :   -0.237719
   4 C :   -0.013530
   5 C :   -0.194856
   6 C :   -0.002180
   7 O :   -0.328438
   8 C :   -0.025494
   9 H :    0.140245
  10 H :    0.127506
  11 H :    0.137769
  12 H :    0.123083
  13 H :    0.118185
  14 H :    0.125381
  15 H :    0.117597
  16 H :    0.125994
  17 H :    0.113011
  18 H :    0.137186
Sum of atomic charges:    0.0000000

LOEWDIN ATOMIC CHARGES
----------------------
   0 C :   -0.271573
   1 C :   -0.280877
   2 C :   -0.197671
   3 C :   -0.123873
   4 C :   -0.142522
   5 C :   -0.176480
   6 C :   -0.213336
   7 O :    0.168196
   8 C :   -0.118315
   9 H :    0.132624
  10 H :    0.129944
  11 H :    0.130084
  12 H :    0.141999
  13 H :    0.146065
  14 H :    0.136181
  15 H :    0.141058
  16 H :    0.131817
  17 H :    0.125631
  18 H :    0.141049

  Mayer bond orders larger than 0.1
B(  0-C ,  1-C ) :   0.8957 B(  0-C ,  9-H ) :   0.9375 B(  0-C , 10-H ) :   0.9302
B(  0-C , 11-H ) :   0.9391 B(  1-C ,  2-C ) :   0.9753 B(  1-C ,  7-O ) :   0.9101
B(  1-C ,  8-C ) :   0.8837 B(  2-C ,  3-C ) :   0.9352 B(  2-C , 12-H ) :   0.8972
B(  2-C , 13-H ) :   0.9072 B(  3-C ,  4-C ) :   1.7821 B(  3-C , 14-H ) :   0.9173
B(  4-C ,  5-C ) :   0.9290 B(  4-C ,  8-C ) :   0.8997 B(  5-C ,  6-C ) :   0.8822
B(  5-C , 15-H ) :   0.9045 B(  5-C , 16-H ) :   0.9123 B(  6-C ,  7-O ) :   0.9776
B(  6-C ,  8-C ) :   0.9233 B(  6-C , 17-H ) :   0.9154 B(  8-C , 18-H ) :   0.8941

MP2 TOTAL ENERGY:     -385.152608693 Eh
FINAL SINGLE POINT ENERGY      -385.152608693234

DIPOLE MOMENT
-------------
                                X             Y             Z
Electronic contribution:     -0.79149      -2.94558       0.94481
Nuclear contribution   :      0.46177       3.15077      -1.09507
                        -----------------------------------------
Total Dipole Moment    :     -0.32972       0.20518      -0.15026
                        -----------------------------------------
Magnitude (a.u.)       :      0.41641
Magnitude (Debye)      :      1.05842

                             ****ORCA TERMINATED NORMALLY****
TOTAL RUN TIME: 0 days 0 hours 20 minutes 45 seconds 929 msec
