                         Program Version 3.0.3 - RELEASE   -
|  1> ! RI-MP2 RIJK def2-TZVP def2-TZVP/C def2-TZVP/JK TIGHTSCF
|  2> % maxcore 2000
|  3> % mp2 density relaxed end
|  4> *xyz 0 1
|  5>  C       -0.0020844026     1.5026126267     0.0770171711
|  6>  C        0.0139027676     0.0151938735    -0.0202854344
|  7>  C       -0.0005615071    -0.8118508506    -1.1375746547
|  8>  C        0.0281424056    -2.1670215353    -0.6675475714
|  9>  C        0.0581405731    -2.1249015594     0.6997801607
| 10>  N        0.0491143837    -0.8006399324     1.0781828886
| 11>  C       -0.0367937467    -0.3774738368    -2.4825439209
| 12>  C       -0.0674370933    -0.0113170746    -3.6309995078
| 13>  H        0.8950925510     1.8939516604     0.5726561308
| 14>  H       -0.0421866656     1.9274938256    -0.9279278042
| 15>  H       -0.8727496699     1.8706340968     0.6338634412
| 16>  H        0.0257843726    -3.0504268697    -1.2855914269
| 17>  H        0.0846881799    -2.9125379264     1.4349279517
| 18>  H        0.0660757497    -0.4730020701     2.0284991577
| 19>  H       -0.0938958578     0.3081967224    -4.6425386814
| 20> *
| 21>
| 22>                          ****END OF INPUT****

CARTESIAN COORDINATES (ANGSTROEM)
---------------------------------
  C     -0.002084    1.502613    0.077017
  C      0.013903    0.015194   -0.020285
  C     -0.000562   -0.811851   -1.137575
  C      0.028142   -2.167022   -0.667548
  C      0.058141   -2.124902    0.699780
  N      0.049114   -0.800640    1.078183
  C     -0.036794   -0.377474   -2.482544
  C     -0.067437   -0.011317   -3.631000
  H      0.895093    1.893952    0.572656
  H     -0.042187    1.927494   -0.927928
  H     -0.872750    1.870634    0.633863
  H      0.025784   -3.050427   -1.285591
  H      0.084688   -2.912538    1.434928
  H      0.066076   -0.473002    2.028499
  H     -0.093896    0.308197   -4.642539

 Total Charge           Charge          ....    0
 Multiplicity           Mult            ....    1
 Number of Electrons    NEL             ....   56
 Basis Dimension        Dim             ....  290

ORBITAL ENERGIES
----------------

  NO   OCC          E(Eh)            E(eV)
   0   2.0000     -15.610358      -424.7794
   1   2.0000     -11.273897      -306.7783
   2   2.0000     -11.256272      -306.2987
   3   2.0000     -11.235496      -305.7334
   4   2.0000     -11.230240      -305.5904
   5   2.0000     -11.227076      -305.5043
   6   2.0000     -11.217374      -305.2403
   7   2.0000     -11.210960      -305.0657
   8   2.0000      -1.301112       -35.4050
   9   2.0000      -1.079187       -29.3662
  10   2.0000      -1.037976       -28.2448
  11   2.0000      -1.000337       -27.2206
  12   2.0000      -0.925752       -25.1910
  13   2.0000      -0.823174       -22.3997
  14   2.0000      -0.793052       -21.5800
  15   2.0000      -0.707376       -19.2487
  16   2.0000      -0.699353       -19.0304
  17   2.0000      -0.631052       -17.1718
  18   2.0000      -0.607926       -16.5425
  19   2.0000      -0.589550       -16.0425
  20   2.0000      -0.574131       -15.6229
  21   2.0000      -0.554082       -15.0773
  22   2.0000      -0.545087       -14.8326
  23   2.0000      -0.526327       -14.3221
  24   2.0000      -0.435943       -11.8626
  25   2.0000      -0.381723       -10.3872
  26   2.0000      -0.334114        -9.0917
  27   2.0000      -0.287583        -7.8255
  28   0.0000       0.124799         3.3959
  29   0.0000       0.144095         3.9210
  30   0.0000       0.158990         4.3263
  31   0.0000       0.170162         4.6303
  32   0.0000       0.175242         4.7686

MULLIKEN ATOMIC CHARGES
-----------------------
   0 C :   -0.443647
   1 C :    0.042880
   2 C :   -0.037426
   3 C :   -0.292369
   4 C :   -0.044467
   5 N :   -0.273804
   6 C :    0.080373
   7 C :   -0.191935
   8 H :    0.143464
   9 H :    0.164630
  10 H :    0.142873
  11 H :    0.134207
  12 H :    0.148541
  13 H :    0.242052
  14 H :    0.184629
Sum of atomic charges:    0.0000000

LOEWDIN ATOMIC CHARGES
----------------------
   0 C :   -0.274121
   1 C :   -0.210910
   2 C :   -0.164049
   3 C :   -0.150657
   4 C :   -0.228273
   5 N :    0.203143
   6 C :   -0.075436
   7 C :   -0.101454
   8 H :    0.130590
   9 H :    0.145038
  10 H :    0.130471
  11 H :    0.144111
  12 H :    0.133340
  13 H :    0.193520
  14 H :    0.124688

  Mayer bond orders larger than 0.1
B(  0-C ,  1-C ) :   0.8396 B(  0-C ,  8-H ) :   0.9379 B(  0-C ,  9-H ) :   0.9480
B(  0-C , 10-H ) :   0.9382 B(  1-C ,  2-C ) :   1.4306 B(  1-C ,  5-N ) :   1.1898
B(  2-C ,  3-C ) :   1.2256 B(  2-C ,  6-C ) :   1.1530 B(  2-C ,  7-C ) :  -0.1374
B(  3-C ,  4-C ) :   1.5203 B(  3-C , 11-H ) :   0.9324 B(  4-C ,  5-N ) :   1.1010
B(  4-C , 12-H ) :   0.9172 B(  5-N , 13-H ) :   0.8764 B(  6-C ,  7-C ) :   2.6089
B(  7-C , 14-H ) :   0.8817

MP2 TOTAL ENERGY:     -324.936680640 Eh
FINAL SINGLE POINT ENERGY      -324.936680640336

DIPOLE MOMENT
-------------
                                X             Y             Z
Electronic contribution:      0.00380      -3.01227      -1.44860
Nuclear contribution   :      0.01726       3.29984       2.52640
                        -----------------------------------------
Total Dipole Moment    :      0.02106       0.28757       1.07780
                        -----------------------------------------
Magnitude (a.u.)       :      1.11570
Magnitude (Debye)      :      2.83588

                             ****ORCA TERMINATED NORMALLY****
TOTAL RUN TIME: 0 days 0 hours 12 minutes 24 seconds 300 msec
