                         Program Version 3.0.3 - RELEASE   -
|  1> ! RI-MP2 RIJK def2-TZVP def2-TZVP/C def2-TZVP/JK TIGHTSCF
|  2> % maxcore 2000
|  3> % mp2 density relaxed end
|  4> *xyz 0 1
|  5>  C       -0.3051876645     1.7160937994    -0.2715270831
|  6>  C        0.1534192847     0.2683055908    -0.0527254815
|  7>  C       -1.0310700295    -0.6365064607     0.3440243757
|  8>  C        0.8641830274    -0.2990381896    -1.2552259562
|  9>  N        0.6303175746     0.1630234854    -2.4606988190
| 10>  O        1.4183922059    -0.5918443826    -3.3238656057
| 11>  C        2.1075071397    -1.4856818405    -2.5989802327
| 12>  C        1.8180603209    -1.3727346790    -1.2780483063
| 13>  C        2.3662003233    -2.1574089694    -0.1282502186
| 14>  H        0.5373052463     2.3657564314    -0.5230362768
| 15>  H       -1.0249811068     1.7768980945    -1.0920281841
| 16>  H       -0.7814402414     2.1012121693     0.6355090930
| 17>  H        0.8729200854     0.2547102269     0.7773651274
| 18>  H       -1.7834617117    -0.6487258182    -0.4509131879
| 19>  H       -0.7141074109    -1.6685664500     0.5221277504
| 20>  H       -1.5047091866    -0.2659956066     1.2587001286
| 21>  H        2.7685093659    -2.1337106915    -3.1547302886
| 22>  H        2.8121484341    -1.5031081493     0.6292917775
| 23>  H        1.5899004392    -2.7463696542     0.3729460277
| 24>  H        3.1415394340    -2.8516448360    -0.4629296600
| 25> *
| 26>
| 27>                          ****END OF INPUT****

CARTESIAN COORDINATES (ANGSTROEM)
---------------------------------
  C     -0.305188    1.716094   -0.271527
  C      0.153419    0.268306   -0.052725
  C     -1.031070   -0.636506    0.344024
  C      0.864183   -0.299038   -1.255226
  N      0.630318    0.163023   -2.460699
  O      1.418392   -0.591844   -3.323866
  C      2.107507   -1.485682   -2.598980
  C      1.818060   -1.372735   -1.278048
  C      2.366200   -2.157409   -0.128250
  H      0.537305    2.365756   -0.523036
  H     -1.024981    1.776898   -1.092028
  H     -0.781440    2.101212    0.635509
  H      0.872920    0.254710    0.777365
  H     -1.783462   -0.648726   -0.450913
  H     -0.714107   -1.668566    0.522128
  H     -1.504709   -0.265996    1.258700
  H      2.768509   -2.133711   -3.154730
  H      2.812148   -1.503108    0.629292
  H      1.589900   -2.746370    0.372946
  H      3.141539   -2.851645   -0.462930

 Total Charge           Charge          ....    0
 Multiplicity           Mult            ....    1
 Number of Electrons    NEL             ....   68
 Basis Dimension        Dim             ....  345

ORBITAL ENERGIES
----------------

  NO   OCC          E(Eh)            E(eV)
   0   2.0000     -20.632179      -561.4301
   1   2.0000     -15.607460      -424.7006
   2   2.0000     -11.301695      -307.5348
   3   2.0000     -11.273140      -306.7577
   4   2.0000     -11.247427      -306.0580
   5   2.0000     -11.241037      -305.8842
   6   2.0000     -11.238376      -305.8118
   7   2.0000     -11.223996      -305.4205
   8   2.0000     -11.213839      -305.1441
   9   2.0000      -1.482362       -40.3371
  10   2.0000      -1.171558       -31.8797
  11   2.0000      -1.087705       -29.5980
  12   2.0000      -1.060729       -28.8639
  13   2.0000      -0.958692       -26.0873
  14   2.0000      -0.934589       -25.4315
  15   2.0000      -0.857459       -23.3326
  16   2.0000      -0.804602       -21.8943
  17   2.0000      -0.751247       -20.4425
  18   2.0000      -0.694698       -18.9037
  19   2.0000      -0.653882       -17.7930
  20   2.0000      -0.631551       -17.1854
  21   2.0000      -0.602429       -16.3929
  22   2.0000      -0.591652       -16.0997
  23   2.0000      -0.580674       -15.8009
  24   2.0000      -0.568661       -15.4741
  25   2.0000      -0.559047       -15.2124
  26   2.0000      -0.543102       -14.7785
  27   2.0000      -0.534181       -14.5358
  28   2.0000      -0.495860       -13.4930
  29   2.0000      -0.490693       -13.3524
  30   2.0000      -0.486940       -13.2503
  31   2.0000      -0.456839       -12.4312
  32   2.0000      -0.398125       -10.8335
  33   2.0000      -0.352354        -9.5880
  34   0.0000       0.125754         3.4220
  35   0.0000       0.129867         3.5339
  36   0.0000       0.154980         4.2172
  37   0.0000       0.171103         4.6559
  38   0.0000       0.172667         4.6985

MULLIKEN ATOMIC CHARGES
-----------------------
   0 C :   -0.381480
   1 C :   -0.028320
   2 C :   -0.406419
   3 C :    0.082360
   4 N :   -0.125424
   5 O :   -0.113524
   6 C :   -0.014782
   7 C :   -0.098491
   8 C :   -0.401271
   9 H :    0.134836
  10 H :    0.143355
  11 H :    0.127841
  12 H :    0.091332
  13 H :    0.138345
  14 H :    0.126017
  15 H :    0.132095
  16 H :    0.155064
  17 H :    0.148964
  18 H :    0.145614
  19 H :    0.143888
Sum of atomic charges:    0.0000000

LOEWDIN ATOMIC CHARGES
----------------------
   0 C :   -0.284756
   1 C :   -0.267297
   2 C :   -0.280058
   3 C :   -0.236560
   4 N :    0.062244
   5 O :    0.271379
   6 C :   -0.247395
   7 C :   -0.198874
   8 C :   -0.266913
   9 H :    0.126751
  10 H :    0.129680
  11 H :    0.122286
  12 H :    0.158567
  13 H :    0.128788
  14 H :    0.121342
  15 H :    0.123855
  16 H :    0.137923
  17 H :    0.133442
  18 H :    0.131357
  19 H :    0.134240

  Mayer bond orders larger than 0.1
B(  0-C ,  1-C ) :   0.9291 B(  0-C ,  9-H ) :   0.9375 B(  0-C , 10-H ) :   0.9283
B(  0-C , 11-H ) :   0.9369 B(  1-C ,  2-C ) :   0.9015 B(  1-C ,  3-C ) :   0.9201
B(  1-C , 12-H ) :   0.9291 B(  2-C , 13-H ) :   0.9336 B(  2-C , 14-H ) :   0.9369
B(  2-C , 15-H ) :   0.9360 B(  3-C ,  4-N ) :   1.5882 B(  3-C ,  7-C ) :   1.1666
B(  4-N ,  5-O ) :   0.8708 B(  4-N ,  6-C ) :   0.1053 B(  5-O ,  6-C ) :   1.1176
B(  6-C ,  7-C ) :   1.5535 B(  6-C , 16-H ) :   0.9210 B(  7-C ,  8-C ) :   0.8740
B(  8-C , 17-H ) :   0.9376 B(  8-C , 18-H ) :   0.9325 B(  8-C , 19-H ) :   0.9391

MP2 TOTAL ENERGY:     -402.461039978 Eh
FINAL SINGLE POINT ENERGY      -402.461039977944

DIPOLE MOMENT
-------------
                                X             Y             Z
Electronic contribution:      3.91004      -0.66220     -10.18235
Nuclear contribution   :     -3.45054      -0.02590      11.10568
                        -----------------------------------------
Total Dipole Moment    :      0.45950      -0.68809       0.92333
                        -----------------------------------------
Magnitude (a.u.)       :      1.23982
Magnitude (Debye)      :      3.15137

                             ****ORCA TERMINATED NORMALLY****
TOTAL RUN TIME: 0 days 0 hours 20 minutes 12 seconds 866 msec
