                         Program Version 3.0.3 - RELEASE   -
|  1> ! RI-MP2 RIJK def2-TZVP def2-TZVP/C def2-TZVP/JK TIGHTSCF
|  2> % maxcore 2000
|  3> % mp2 density relaxed end
|  4> *xyz 0 1
|  5>  O       -0.6204240274     1.1798957097     0.8759037926
|  6>  C       -0.1473757217     0.1023984826     0.0663750460
|  7>  C        0.8298313276    -0.8331448649     0.8195728400
|  8>  N        0.0659135641    -1.9250273644     1.4520364295
|  9>  C       -1.0904235709    -1.4921249115     2.2271338095
| 10>  C       -1.2799493751    -1.9077952881     0.7983931829
| 11>  C       -1.3462782447    -0.8087826284    -0.2483642183
| 12>  C       -1.8574128513    -3.2427159945     0.4993867031
| 13>  O       -2.5322599023    -3.4869239514    -0.4704858214
| 14>  H        0.1326729604     1.7351403455     1.1027238781
| 15>  H        0.3102720476     0.4995136359    -0.8494321992
| 16>  H        1.5307294285    -1.2934297293     0.1143016596
| 17>  H        1.4156570883    -0.2952382672     1.5729546875
| 18>  H       -1.3745742046    -2.1764272381     3.0230201253
| 19>  H       -1.2265495077    -0.4363822582     2.4387303991
| 20>  H       -2.2766261219    -0.2376605621    -0.2224201684
| 21>  H       -1.2575707736    -1.2567808774    -1.2417616516
| 22>  H       -1.6077175853    -4.0209880984     1.2539474657
| 23> *
| 24>
| 25>                          ****END OF INPUT****

CARTESIAN COORDINATES (ANGSTROEM)
---------------------------------
  O     -0.620424    1.179896    0.875904
  C     -0.147376    0.102398    0.066375
  C      0.829831   -0.833145    0.819573
  N      0.065914   -1.925027    1.452036
  C     -1.090424   -1.492125    2.227134
  C     -1.279949   -1.907795    0.798393
  C     -1.346278   -0.808783   -0.248364
  C     -1.857413   -3.242716    0.499387
  O     -2.532260   -3.486924   -0.470486
  H      0.132673    1.735140    1.102724
  H      0.310272    0.499514   -0.849432
  H      1.530729   -1.293430    0.114302
  H      1.415657   -0.295238    1.572955
  H     -1.374574   -2.176427    3.023020
  H     -1.226550   -0.436382    2.438730
  H     -2.276626   -0.237661   -0.222420
  H     -1.257571   -1.256781   -1.241762
  H     -1.607718   -4.020988    1.253947

 Total Charge           Charge          ....    0
 Multiplicity           Mult            ....    1
 Number of Electrons    NEL             ....   68
 Basis Dimension        Dim             ....  333

ORBITAL ENERGIES
----------------

  NO   OCC          E(Eh)            E(eV)
   0   2.0000     -20.571093      -559.7679
   1   2.0000     -20.555400      -559.3409
   2   2.0000     -15.580166      -423.9579
   3   2.0000     -11.330858      -308.3283
   4   2.0000     -11.297155      -307.4112
   5   2.0000     -11.276403      -306.8465
   6   2.0000     -11.269441      -306.6571
   7   2.0000     -11.267190      -306.5958
   8   2.0000     -11.235622      -305.7368
   9   2.0000      -1.394900       -37.9572
  10   2.0000      -1.378680       -37.5158
  11   2.0000      -1.297340       -35.3024
  12   2.0000      -1.052489       -28.6397
  13   2.0000      -1.024832       -27.8871
  14   2.0000      -0.903427       -24.5835
  15   2.0000      -0.866259       -23.5721
  16   2.0000      -0.808659       -22.0047
  17   2.0000      -0.753160       -20.4945
  18   2.0000      -0.723117       -19.6770
  19   2.0000      -0.693403       -18.8685
  20   2.0000      -0.662722       -18.0336
  21   2.0000      -0.643313       -17.5054
  22   2.0000      -0.623363       -16.9626
  23   2.0000      -0.605027       -16.4636
  24   2.0000      -0.575071       -15.6485
  25   2.0000      -0.563042       -15.3211
  26   2.0000      -0.543611       -14.7924
  27   2.0000      -0.528245       -14.3743
  28   2.0000      -0.493071       -13.4171
  29   2.0000      -0.485894       -13.2218
  30   2.0000      -0.475759       -12.9461
  31   2.0000      -0.447597       -12.1797
  32   2.0000      -0.421515       -11.4700
  33   2.0000      -0.384277       -10.4567
  34   0.0000       0.121244         3.2992
  35   0.0000       0.130885         3.5616
  36   0.0000       0.160882         4.3778
  37   0.0000       0.172115         4.6835
  38   0.0000       0.177267         4.8237

MULLIKEN ATOMIC CHARGES
-----------------------
   0 O :   -0.470405
   1 C :    0.070870
   2 C :   -0.186317
   3 N :   -0.240974
   4 C :   -0.186779
   5 C :    0.173937
   6 C :   -0.225436
   7 C :    0.000691
   8 O :   -0.271545
   9 H :    0.315072
  10 H :    0.106693
  11 H :    0.129935
  12 H :    0.120434
  13 H :    0.134308
  14 H :    0.154831
  15 H :    0.137566
  16 H :    0.145160
  17 H :    0.091959
Sum of atomic charges:    0.0000000

LOEWDIN ATOMIC CHARGES
----------------------
   0 O :   -0.026659
   1 C :   -0.329955
   2 C :   -0.259444
   3 N :    0.132170
   4 C :   -0.212343
   5 C :   -0.266660
   6 C :   -0.187306
   7 C :   -0.261795
   8 O :    0.134261
   9 H :    0.173145
  10 H :    0.133798
  11 H :    0.139048
  12 H :    0.133367
  13 H :    0.129945
  14 H :    0.138452
  15 H :    0.154291
  16 H :    0.154020
  17 H :    0.121667

  Mayer bond orders larger than 0.1
B(  0-O ,  1-C ) :   0.9753 B(  0-O ,  9-H ) :   0.8443 B(  1-C ,  2-C ) :   0.9343
B(  1-C ,  6-C ) :   0.8879 B(  1-C , 10-H ) :   0.9316 B(  2-C ,  3-N ) :   0.9281
B(  2-C , 11-H ) :   0.9250 B(  2-C , 12-H ) :   0.9302 B(  3-N ,  4-C ) :   0.8999
B(  3-N ,  5-C ) :   0.7481 B(  4-C ,  5-C ) :   0.8842 B(  4-C , 13-H ) :   0.9157
B(  4-C , 14-H ) :   0.8945 B(  5-C ,  6-C ) :   0.9669 B(  5-C ,  7-C ) :   0.8389
B(  6-C , 15-H ) :   0.9150 B(  6-C , 16-H ) :   0.9138 B(  7-C ,  8-O ) :   2.0066
B(  7-C , 17-H ) :   0.9676

MP2 TOTAL ENERGY:     -438.358850946 Eh
FINAL SINGLE POINT ENERGY      -438.358850945886

DIPOLE MOMENT
-------------
                                X             Y             Z
Electronic contribution:     -2.43080      -3.26089      -0.73477
Nuclear contribution   :      3.38193       4.25171       1.15509
                        -----------------------------------------
Total Dipole Moment    :      0.95113       0.99083       0.42032
                        -----------------------------------------
Magnitude (a.u.)       :      1.43633
Magnitude (Debye)      :      3.65087

                             ****ORCA TERMINATED NORMALLY****
TOTAL RUN TIME: 0 days 0 hours 17 minutes 6 seconds 939 msec
