                         Program Version 3.0.3 - RELEASE   -
|  1> ! RI-MP2 RIJK def2-TZVP def2-TZVP/C def2-TZVP/JK TIGHTSCF
|  2> % maxcore 2000
|  3> % mp2 density relaxed end
|  4> *xyz 0 1
|  5>  C        0.2526738547     1.4711073486     0.1069532356
|  6>  C        0.3303152407    -0.0573134570     0.0629975208
|  7>  C        0.4699589955    -0.5915449122    -1.3603941174
|  8>  O        1.6817187947    -0.0923079865    -1.9728977560
|  9>  C        2.6644225348    -1.0343901825    -1.9952221439
| 10>  O        3.7593812103    -0.8065004071    -2.4174395101
| 11>  C        2.1165385435    -2.3362544848    -1.4230519633
| 12>  C        0.5992355063    -2.1306137141    -1.4711789910
| 13>  O       -0.1416363606    -2.7503126117    -0.4410498828
| 14>  H        1.1458438122     1.9218869078    -0.3337156982
| 15>  H       -0.6167817687     1.8381017261    -0.4500455021
| 16>  H        0.1624118367     1.8267838900     1.1372684728
| 17>  H        1.1742643806    -0.4100480211     0.6680276341
| 18>  H       -0.5685366762    -0.5038217100     0.4985543938
| 19>  H       -0.3548943959    -0.2181365220    -1.9748311535
| 20>  H        2.4926256351    -3.1899060080    -1.9887848512
| 21>  H        2.4534540394    -2.4371596395    -0.3852829196
| 22>  H        0.2223872922    -2.4390916722    -2.4571960510
| 23>  H       -0.1230670754    -3.7013260739    -0.5838802169
| 24> *
| 25>
| 26>                          ****END OF INPUT****

CARTESIAN COORDINATES (ANGSTROEM)
---------------------------------
  C      0.252674    1.471107    0.106953
  C      0.330315   -0.057313    0.062998
  C      0.469959   -0.591545   -1.360394
  O      1.681719   -0.092308   -1.972898
  C      2.664423   -1.034390   -1.995222
  O      3.759381   -0.806500   -2.417440
  C      2.116539   -2.336254   -1.423052
  C      0.599236   -2.130614   -1.471179
  O     -0.141636   -2.750313   -0.441050
  H      1.145844    1.921887   -0.333716
  H     -0.616782    1.838102   -0.450046
  H      0.162412    1.826784    1.137268
  H      1.174264   -0.410048    0.668028
  H     -0.568537   -0.503822    0.498554
  H     -0.354894   -0.218137   -1.974831
  H      2.492626   -3.189906   -1.988785
  H      2.453454   -2.437160   -0.385283
  H      0.222387   -2.439092   -2.457196
  H     -0.123067   -3.701326   -0.583880

 Total Charge           Charge          ....    0
 Multiplicity           Mult            ....    1
 Number of Electrons    NEL             ....   70
 Basis Dimension        Dim             ....  339

ORBITAL ENERGIES
----------------

  NO   OCC          E(Eh)            E(eV)
   0   2.0000     -20.599411      -560.5385
   1   2.0000     -20.585573      -560.1619
   2   2.0000     -20.541127      -558.9525
   3   2.0000     -11.380578      -309.6813
   4   2.0000     -11.312259      -307.8222
   5   2.0000     -11.303685      -307.5889
   6   2.0000     -11.256487      -306.3046
   7   2.0000     -11.230746      -305.6041
   8   2.0000     -11.217051      -305.2315
   9   2.0000      -1.458572       -39.6898
  10   2.0000      -1.394125       -37.9361
  11   2.0000      -1.366510       -37.1846
  12   2.0000      -1.086745       -29.5718
  13   2.0000      -1.058358       -28.7994
  14   2.0000      -0.965376       -26.2692
  15   2.0000      -0.865092       -23.5403
  16   2.0000      -0.831446       -22.6248
  17   2.0000      -0.768641       -20.9158
  18   2.0000      -0.731109       -19.8945
  19   2.0000      -0.707374       -19.2486
  20   2.0000      -0.666725       -18.1425
  21   2.0000      -0.663013       -18.0415
  22   2.0000      -0.627757       -17.0821
  23   2.0000      -0.605120       -16.4662
  24   2.0000      -0.602594       -16.3974
  25   2.0000      -0.582885       -15.8611
  26   2.0000      -0.559450       -15.2234
  27   2.0000      -0.543734       -14.7957
  28   2.0000      -0.538793       -14.6613
  29   2.0000      -0.507257       -13.8032
  30   2.0000      -0.492133       -13.3916
  31   2.0000      -0.480713       -13.0809
  32   2.0000      -0.477119       -12.9831
  33   2.0000      -0.445773       -12.1301
  34   2.0000      -0.432173       -11.7600
  35   0.0000       0.114251         3.1089
  36   0.0000       0.140115         3.8127
  37   0.0000       0.149279         4.0621
  38   0.0000       0.159982         4.3533
  39   0.0000       0.164305         4.4710

MULLIKEN ATOMIC CHARGES
-----------------------
   0 C :   -0.394405
   1 C :   -0.226998
   2 C :    0.089547
   3 O :   -0.227861
   4 C :    0.233672
   5 O :   -0.279707
   6 C :   -0.272205
   7 C :    0.046957
   8 O :   -0.453917
   9 H :    0.150261
  10 H :    0.119882
  11 H :    0.136777
  12 H :    0.109364
  13 H :    0.135275
  14 H :    0.110125
  15 H :    0.148137
  16 H :    0.147786
  17 H :    0.104086
  18 H :    0.323224
Sum of atomic charges:   -0.0000000

LOEWDIN ATOMIC CHARGES
----------------------
   0 C :   -0.314696
   1 C :   -0.270791
   2 C :   -0.254962
   3 O :    0.277551
   4 C :   -0.466234
   5 O :    0.140117
   6 C :   -0.217228
   7 C :   -0.326782
   8 O :   -0.004164
   9 H :    0.126854
  10 H :    0.121734
  11 H :    0.122488
  12 H :    0.141487
  13 H :    0.148269
  14 H :    0.147283
  15 H :    0.149156
  16 H :    0.159801
  17 H :    0.140089
  18 H :    0.180026

  Mayer bond orders larger than 0.1
B(  0-C ,  1-C ) :   0.9180 B(  0-C ,  9-H ) :   0.9363 B(  0-C , 10-H ) :   0.9351
B(  0-C , 11-H ) :   0.9418 B(  1-C ,  2-C ) :   0.9536 B(  1-C , 12-H ) :   0.9137
B(  1-C , 13-H ) :   0.9248 B(  2-C ,  3-O ) :   0.8503 B(  2-C ,  7-C ) :   0.8896
B(  2-C , 14-H ) :   0.9212 B(  3-O ,  4-C ) :   1.1096 B(  4-C ,  5-O ) :   2.0411
B(  4-C ,  6-C ) :   0.9198 B(  6-C ,  7-C ) :   0.9207 B(  6-C , 15-H ) :   0.9145
B(  6-C , 16-H ) :   0.8971 B(  7-C ,  8-O ) :   1.0222 B(  7-C , 17-H ) :   0.9404
B(  8-O , 18-H ) :   0.8419

MP2 TOTAL ENERGY:     -459.481591787 Eh
FINAL SINGLE POINT ENERGY      -459.481591787328

DIPOLE MOMENT
-------------
                                X             Y             Z
Electronic contribution:      5.32721      -3.00903      -5.33940
Nuclear contribution   :     -6.47871       1.91836       5.73786
                        -----------------------------------------
Total Dipole Moment    :     -1.15150      -1.09067       0.39846
                        -----------------------------------------
Magnitude (a.u.)       :      1.63532
Magnitude (Debye)      :      4.15666

                             ****ORCA TERMINATED NORMALLY****
TOTAL RUN TIME: 0 days 0 hours 27 minutes 14 seconds 744 msec
