                         Program Version 3.0.3 - RELEASE   -
|  1> ! RI-MP2 RIJK def2-TZVP def2-TZVP/C def2-TZVP/JK TIGHTSCF
|  2> % maxcore 2000
|  3> % mp2 density relaxed end
|  4> *xyz 0 1
|  5>  C       -0.0473248664     1.4952172142    -0.0626094164
|  6>  C        0.1034854477    -0.0027116673    -0.0142634563
|  7>  C        0.3201037958    -0.7526011378    -1.3185811457
|  8>  C        0.7247126310    -2.1777734415    -0.9003670955
|  9>  O        1.5743830529    -2.7302970971    -1.8965805733
| 10>  C        1.4010045087    -2.0103119885     0.4832937509
| 11>  C        0.7626386397    -0.7685990270     1.0856685210
| 12>  C        1.3808765293    -0.1637719592     2.3189760565
| 13>  N       -0.7187644913    -0.8017693663     0.9365903488
| 14>  H        0.7938494756     1.9585570423    -0.5902609012
| 15>  H       -0.9635630649     1.7745525162    -0.5960734718
| 16>  H       -0.1006068048     1.9352151604     0.9379368720
| 17>  H       -0.5613202235    -0.7453397875    -1.9672791914
| 18>  H        1.1512037969    -0.3009712119    -1.8741228445
| 19>  H       -0.1783797763    -2.7883102937    -0.7867703866
| 20>  H        1.7096150415    -3.6596445178    -1.6880646000
| 21>  H        1.2851212656    -2.8957512176     1.1188395526
| 22>  H        2.4738710423    -1.8381763533     0.3310870907
| 23>  H        2.4473740782     0.0368269750     2.1669479809
| 24>  H        0.8984579373     0.7773165725     2.6005255555
| 25>  H        1.2934019930    -0.8480387146     3.1712719356
| 26>  H       -1.1239759883    -0.1660072294     1.6223396581
| 27> *
| 28>
| 29>                          ****END OF INPUT****

CARTESIAN COORDINATES (ANGSTROEM)
---------------------------------
  C     -0.047325    1.495217   -0.062609
  C      0.103485   -0.002712   -0.014263
  C      0.320104   -0.752601   -1.318581
  C      0.724713   -2.177773   -0.900367
  O      1.574383   -2.730297   -1.896581
  C      1.401005   -2.010312    0.483294
  C      0.762639   -0.768599    1.085669
  C      1.380877   -0.163772    2.318976
  N     -0.718764   -0.801769    0.936590
  H      0.793849    1.958557   -0.590261
  H     -0.963563    1.774553   -0.596073
  H     -0.100607    1.935215    0.937937
  H     -0.561320   -0.745340   -1.967279
  H      1.151204   -0.300971   -1.874123
  H     -0.178380   -2.788310   -0.786770
  H      1.709615   -3.659645   -1.688065
  H      1.285121   -2.895751    1.118840
  H      2.473871   -1.838176    0.331087
  H      2.447374    0.036827    2.166948
  H      0.898458    0.777317    2.600526
  H      1.293402   -0.848039    3.171272
  H     -1.123976   -0.166007    1.622340

 Total Charge           Charge          ....    0
 Multiplicity           Mult            ....    1
 Number of Electrons    NEL             ....   70
 Basis Dimension        Dim             ....  357

ORBITAL ENERGIES
----------------

  NO   OCC          E(Eh)            E(eV)
   0   2.0000     -20.549188      -559.1718
   1   2.0000     -15.546146      -423.0321
   2   2.0000     -11.270582      -306.6881
   3   2.0000     -11.259083      -306.3752
   4   2.0000     -11.257784      -306.3399
   5   2.0000     -11.225893      -305.4721
   6   2.0000     -11.224736      -305.4406
   7   2.0000     -11.216085      -305.2052
   8   2.0000     -11.212916      -305.1190
   9   2.0000      -1.354737       -36.8643
  10   2.0000      -1.266049       -34.4509
  11   2.0000      -1.050376       -28.5822
  12   2.0000      -1.017828       -27.6965
  13   2.0000      -0.985614       -26.8199
  14   2.0000      -0.922952       -25.1148
  15   2.0000      -0.852461       -23.1967
  16   2.0000      -0.773692       -21.0532
  17   2.0000      -0.721700       -19.6385
  18   2.0000      -0.696957       -18.9652
  19   2.0000      -0.647531       -17.6202
  20   2.0000      -0.628835       -17.1115
  21   2.0000      -0.606817       -16.5123
  22   2.0000      -0.596315       -16.2266
  23   2.0000      -0.572628       -15.5820
  24   2.0000      -0.567784       -15.4502
  25   2.0000      -0.548300       -14.9200
  26   2.0000      -0.539768       -14.6878
  27   2.0000      -0.526011       -14.3135
  28   2.0000      -0.515994       -14.0409
  29   2.0000      -0.491383       -13.3712
  30   2.0000      -0.465060       -12.6549
  31   2.0000      -0.451263       -12.2795
  32   2.0000      -0.434582       -11.8256
  33   2.0000      -0.421850       -11.4791
  34   2.0000      -0.358007        -9.7419
  35   0.0000       0.128435         3.4949
  36   0.0000       0.143801         3.9130
  37   0.0000       0.163908         4.4602
  38   0.0000       0.178741         4.8638
  39   0.0000       0.189799         5.1647

MULLIKEN ATOMIC CHARGES
-----------------------
   0 C :   -0.383884
   1 C :    0.037752
   2 C :   -0.173444
   3 C :    0.075723
   4 O :   -0.464887
   5 C :   -0.218256
   6 C :    0.062774
   7 C :   -0.385996
   8 N :   -0.388555
   9 H :    0.135521
  10 H :    0.143327
  11 H :    0.119250
  12 H :    0.111807
  13 H :    0.111448
  14 H :    0.087650
  15 H :    0.314608
  16 H :    0.107135
  17 H :    0.104995
  18 H :    0.135308
  19 H :    0.120230
  20 H :    0.142178
  21 H :    0.205316
Sum of atomic charges:   -0.0000000

LOEWDIN ATOMIC CHARGES
----------------------
   0 C :   -0.273867
   1 C :   -0.284001
   2 C :   -0.187500
   3 C :   -0.322666
   4 O :   -0.027097
   5 C :   -0.200983
   6 C :   -0.285598
   7 C :   -0.274417
   8 N :    0.038180
   9 H :    0.132264
  10 H :    0.131029
  11 H :    0.123996
  12 H :    0.140191
  13 H :    0.149034
  14 H :    0.135813
  15 H :    0.173180
  16 H :    0.135681
  17 H :    0.145145
  18 H :    0.131992
  19 H :    0.124351
  20 H :    0.130481
  21 H :    0.164791

  Mayer bond orders larger than 0.1
B(  0-C ,  1-C ) :   0.9022 B(  0-C ,  9-H ) :   0.9281 B(  0-C , 10-H ) :   0.9419
B(  0-C , 11-H ) :   0.9318 B(  1-C ,  2-C ) :   0.9448 B(  1-C ,  6-C ) :   0.8724
B(  1-C ,  8-N ) :   0.9548 B(  2-C ,  3-C ) :   0.9485 B(  2-C , 12-H ) :   0.9083
B(  2-C , 13-H ) :   0.9221 B(  3-C ,  4-O ) :   1.0307 B(  3-C ,  5-C ) :   0.9564
B(  3-C , 14-H ) :   0.9333 B(  4-O , 15-H ) :   0.8491 B(  5-C ,  6-C ) :   0.9154
B(  5-C , 16-H ) :   0.9009 B(  5-C , 17-H ) :   0.9178 B(  6-C ,  7-C ) :   0.8932
B(  6-C ,  8-N ) :   0.9505 B(  7-C , 18-H ) :   0.9282 B(  7-C , 19-H ) :   0.9324
B(  7-C , 20-H ) :   0.9428 B(  8-N , 21-H ) :   0.8710

MP2 TOTAL ENERGY:     -403.667920221 Eh
FINAL SINGLE POINT ENERGY      -403.667920220795

DIPOLE MOMENT
-------------
                                X             Y             Z
Electronic contribution:     -0.70087      -4.33781      -2.91782
Nuclear contribution   :      0.88492       4.59606       3.53575
                        -----------------------------------------
Total Dipole Moment    :      0.18405       0.25824       0.61793
                        -----------------------------------------
Magnitude (a.u.)       :      0.69455
Magnitude (Debye)      :      1.76541

                             ****ORCA TERMINATED NORMALLY****
TOTAL RUN TIME: 0 days 0 hours 19 minutes 51 seconds 658 msec
