                         Program Version 3.0.3 - RELEASE   -
|  1> ! RI-MP2 RIJK def2-TZVP def2-TZVP/C def2-TZVP/JK TIGHTSCF
|  2> % maxcore 2000
|  3> % mp2 density relaxed end
|  4> *xyz 0 1
|  5>  O       -2.9380907211     0.2779913216     1.5584756004
|  6>  C       -1.4325738227     0.1741889399     1.4039563876
|  7>  C       -1.0436995729    -0.5970538986     0.2179730657
|  8>  N       -0.7905688681     0.0834209726    -0.8993469297
|  9>  O       -0.7308140399    -0.6276687949    -1.9634915023
| 10>  C       -1.3110401935    -2.0714605647     0.0537294384
| 11>  C       -2.0052479345    -2.7406264656     1.2635667145
| 12>  N       -3.3328199268    -2.2779278207     0.6876867829
| 13>  H       -4.1604297616    -2.8529167222     0.8299293346
| 14>  H       -3.4621848323    -1.2835356752     1.0251737682
| 15>  C       -2.6593588143    -2.2459237700    -0.7004645187
| 16>  H       -3.2062741143     0.8651258284     0.8396824244
| 17>  H       -1.0447646744     1.1915615105     1.3152580405
| 18>  H       -1.1380163962    -0.2427242381     2.3719576690
| 19>  H       -0.4750517270    -2.6038251009    -0.3995994427
| 20>  H       -1.9734491266    -3.8321647344     1.2363659498
| 21>  H       -1.8341766736    -2.3787853293     2.2768202871
| 22>  H       -2.9873182528    -1.4284033265    -1.3342401807
| 23>  H       -2.8149500375    -3.2193796818    -1.1721248189
| 24> *
| 25>
| 26>                          ****END OF INPUT****

CARTESIAN COORDINATES (ANGSTROEM)
---------------------------------
  O     -2.938091    0.277991    1.558476
  C     -1.432574    0.174189    1.403956
  C     -1.043700   -0.597054    0.217973
  N     -0.790569    0.083421   -0.899347
  O     -0.730814   -0.627669   -1.963492
  C     -1.311040   -2.071461    0.053729
  C     -2.005248   -2.740626    1.263567
  N     -3.332820   -2.277928    0.687687
  H     -4.160430   -2.852917    0.829929
  H     -3.462185   -1.283536    1.025174
  C     -2.659359   -2.245924   -0.700465
  H     -3.206274    0.865126    0.839682
  H     -1.044765    1.191562    1.315258
  H     -1.138016   -0.242724    2.371958
  H     -0.475052   -2.603825   -0.399599
  H     -1.973449   -3.832165    1.236366
  H     -1.834177   -2.378785    2.276820
  H     -2.987318   -1.428403   -1.334240
  H     -2.814950   -3.219380   -1.172125

 Total Charge           Charge          ....    0
 Multiplicity           Mult            ....    1
 Number of Electrons    NEL             ....   70
 Basis Dimension        Dim             ....  339

ORBITAL ENERGIES
----------------

  NO   OCC          E(Eh)            E(eV)
   0   2.0000     -20.570543      -559.7529
   1   2.0000     -20.454821      -556.6040
   2   2.0000     -15.689164      -426.9239
   3   2.0000     -15.586455      -424.1290
   4   2.0000     -11.317757      -307.9718
   5   2.0000     -11.303971      -307.5967
   6   2.0000     -11.278550      -306.9049
   7   2.0000     -11.255722      -306.2838
   8   2.0000     -11.191877      -304.5464
   9   2.0000      -1.362227       -37.0681
  10   2.0000      -1.341505       -36.5042
  11   2.0000      -1.332704       -36.2647
  12   2.0000      -1.088645       -29.6235
  13   2.0000      -1.023605       -27.8537
  14   2.0000      -0.974584       -26.5198
  15   2.0000      -0.909374       -24.7453
  16   2.0000      -0.851486       -23.1701
  17   2.0000      -0.799922       -21.7670
  18   2.0000      -0.744368       -20.2553
  19   2.0000      -0.705206       -19.1896
  20   2.0000      -0.674021       -18.3410
  21   2.0000      -0.634761       -17.2727
  22   2.0000      -0.626497       -17.0479
  23   2.0000      -0.623273       -16.9601
  24   2.0000      -0.601083       -16.3563
  25   2.0000      -0.578802       -15.7500
  26   2.0000      -0.557503       -15.1704
  27   2.0000      -0.533401       -14.5146
  28   2.0000      -0.521620       -14.1940
  29   2.0000      -0.504635       -13.7318
  30   2.0000      -0.486490       -13.2381
  31   2.0000      -0.474175       -12.9030
  32   2.0000      -0.445476       -12.1220
  33   2.0000      -0.305352        -8.3091
  34   2.0000      -0.265491        -7.2244
  35   0.0000       0.082905         2.2560
  36   0.0000       0.128677         3.5015
  37   0.0000       0.137932         3.7533
  38   0.0000       0.150952         4.1076
  39   0.0000       0.177606         4.8329

MULLIKEN ATOMIC CHARGES
-----------------------
   0 O :   -0.533879
   1 C :   -0.081108
   2 C :   -0.186619
   3 N :   -0.063148
   4 O :   -0.473171
   5 C :   -0.004632
   6 C :   -0.221716
   7 N :   -0.198851
   8 H :    0.269777
   9 H :    0.310422
  10 C :   -0.251754
  11 H :    0.329462
  12 H :    0.151572
  13 H :    0.115651
  14 H :    0.142308
  15 H :    0.163377
  16 H :    0.171024
  17 H :    0.205577
  18 H :    0.155707
Sum of atomic charges:   -0.0000000

LOEWDIN ATOMIC CHARGES
----------------------
   0 O :   -0.121586
   1 C :   -0.306656
   2 C :   -0.391636
   3 N :   -0.075445
   4 O :   -0.216024
   5 C :   -0.234503
   6 C :   -0.190156
   7 N :    0.191700
   8 H :    0.186298
   9 H :    0.201479
  10 C :   -0.181132
  11 H :    0.167259
  12 H :    0.138816
  13 H :    0.122921
  14 H :    0.155998
  15 H :    0.138358
  16 H :    0.135171
  17 H :    0.144488
  18 H :    0.134651

  Mayer bond orders larger than 0.1
B(  0-O ,  1-C ) :   0.7317 B(  0-O ,  9-H ) :   0.1699 B(  0-O , 11-H ) :   0.8332
B(  1-C ,  2-C ) :   1.0249 B(  1-C , 12-H ) :   0.9233 B(  1-C , 13-H ) :   0.9468
B(  2-C ,  3-N ) :   1.5238 B(  2-C ,  4-O ) :   0.1095 B(  2-C ,  5-C ) :   1.0142
B(  3-N ,  4-O ) :   1.2229 B(  5-C ,  6-C ) :   0.8475 B(  5-C , 10-C ) :   0.8303
B(  5-C , 14-H ) :   0.9110 B(  6-C ,  7-N ) :   0.8439 B(  6-C , 15-H ) :   0.9372
B(  6-C , 16-H ) :   0.9235 B(  7-N ,  8-H ) :   0.8529 B(  7-N ,  9-H ) :   0.7374
B(  7-N , 10-C ) :   0.8119 B( 10-C , 17-H ) :   0.9259 B( 10-C , 18-H ) :   0.9255

MP2 TOTAL ENERGY:     -455.477023822 Eh
FINAL SINGLE POINT ENERGY      -455.477023822012

DIPOLE MOMENT
-------------
                                X             Y             Z
Electronic contribution:      1.79214       2.19576      -2.73575
Nuclear contribution   :     -4.27952      -4.53890       4.77692
                        -----------------------------------------
Total Dipole Moment    :     -2.48738      -2.34314       2.04117
                        -----------------------------------------
Magnitude (a.u.)       :      3.98042
Magnitude (Debye)      :     10.11742

                             ****ORCA TERMINATED NORMALLY****
TOTAL RUN TIME: 0 days 0 hours 20 minutes 14 seconds 817 msec
