                         Program Version 3.0.3 - RELEASE   -
|  1> ! RI-MP2 RIJK def2-TZVP def2-TZVP/C def2-TZVP/JK TIGHTSCF
|  2> % maxcore 2000
|  3> % mp2 density relaxed end
|  4> *xyz 0 1
|  5>  O       -0.0511873122     1.3143743166     0.0441966972
|  6>  C        0.0542235138    -0.0606335152     0.0572364103
|  7>  C        0.7683269403    -0.9733233781     1.0808633588
|  8>  C        0.0797849099    -1.9200035172     0.0706830746
|  9>  O        0.1265418017    -3.2964324278    -0.0013225580
| 10>  C       -1.1875629809    -0.9899920003    -0.0802292073
| 11>  C       -1.0948354253    -1.0184639876    -1.6206672151
| 12>  C        0.3782040305    -1.0135062814    -1.1597018458
| 13>  H        0.8322965239     1.6872690836    -0.0469585795
| 14>  H        1.8639394330    -0.9676730676     1.0774213528
| 15>  H        0.3757418552    -0.9619357394     2.1036824589
| 16>  H       -0.2668988531    -3.6574514060     0.8004086683
| 17>  H       -2.0625239355    -0.9765458124     0.5721947164
| 18>  H       -1.4464174290    -1.9278901637    -2.1144779375
| 19>  H       -1.4455611219    -0.1260522378    -2.1451752205
| 20>  H        1.2991559695    -1.0258410359    -1.7454403637
| 21> *
| 22>
| 23>                          ****END OF INPUT****

CARTESIAN COORDINATES (ANGSTROEM)
---------------------------------
  O     -0.051187    1.314374    0.044197
  C      0.054224   -0.060634    0.057236
  C      0.768327   -0.973323    1.080863
  C      0.079785   -1.920004    0.070683
  O      0.126542   -3.296432   -0.001323
  C     -1.187563   -0.989992   -0.080229
  C     -1.094835   -1.018464   -1.620667
  C      0.378204   -1.013506   -1.159702
  H      0.832297    1.687269   -0.046959
  H      1.863939   -0.967673    1.077421
  H      0.375742   -0.961936    2.103682
  H     -0.266899   -3.657451    0.800409
  H     -2.062524   -0.976546    0.572195
  H     -1.446417   -1.927890   -2.114478
  H     -1.445561   -0.126052   -2.145175
  H      1.299156   -1.025841   -1.745440

 Total Charge           Charge          ....    0
 Multiplicity           Mult            ....    1
 Number of Electrons    NEL             ....   60
 Basis Dimension        Dim             ....  296

ORBITAL ENERGIES
----------------

  NO   OCC          E(Eh)            E(eV)
   0   2.0000     -20.570994      -559.7652
   1   2.0000     -20.570992      -559.7652
   2   2.0000     -11.298794      -307.4558
   3   2.0000     -11.298730      -307.4541
   4   2.0000     -11.236954      -305.7731
   5   2.0000     -11.236914      -305.7720
   6   2.0000     -11.228488      -305.5427
   7   2.0000     -11.221674      -305.3573
   8   2.0000      -1.388157       -37.7737
   9   2.0000      -1.379109       -37.5275
  10   2.0000      -1.230400       -33.4809
  11   2.0000      -1.007568       -27.4173
  12   2.0000      -0.876069       -23.8391
  13   2.0000      -0.841075       -22.8868
  14   2.0000      -0.840716       -22.8770
  15   2.0000      -0.748633       -20.3713
  16   2.0000      -0.688327       -18.7303
  17   2.0000      -0.650063       -17.6891
  18   2.0000      -0.647067       -17.6076
  19   2.0000      -0.629130       -17.1195
  20   2.0000      -0.614386       -16.7183
  21   2.0000      -0.593688       -16.1551
  22   2.0000      -0.549004       -14.9392
  23   2.0000      -0.544901       -14.8275
  24   2.0000      -0.488477       -13.2921
  25   2.0000      -0.456293       -12.4164
  26   2.0000      -0.436253       -11.8710
  27   2.0000      -0.422508       -11.4970
  28   2.0000      -0.406390       -11.0584
  29   2.0000      -0.388951       -10.5839
  30   0.0000       0.129944         3.5359
  31   0.0000       0.144243         3.9250
  32   0.0000       0.168110         4.5745
  33   0.0000       0.182635         4.9698
  34   0.0000       0.185987         5.0610

MULLIKEN ATOMIC CHARGES
-----------------------
   0 O :   -0.446860
   1 C :    0.067191
   2 C :   -0.185220
   3 C :    0.067189
   4 O :   -0.446860
   5 C :   -0.079842
   6 C :   -0.257617
   7 C :   -0.079842
   8 H :    0.327602
   9 H :    0.107527
  10 H :    0.107527
  11 H :    0.327602
  12 H :    0.126874
  13 H :    0.118926
  14 H :    0.118928
  15 H :    0.126875
Sum of atomic charges:   -0.0000000

LOEWDIN ATOMIC CHARGES
----------------------
   0 O :    0.034027
   1 C :   -0.303566
   2 C :   -0.178317
   3 C :   -0.303566
   4 O :    0.034027
   5 C :   -0.115146
   6 C :   -0.200112
   7 C :   -0.115145
   8 H :    0.187323
   9 H :    0.128081
  10 H :    0.128081
  11 H :    0.187323
  12 H :    0.128379
  13 H :    0.130117
  14 H :    0.130117
  15 H :    0.128379

  Mayer bond orders larger than 0.1
B(  0-O ,  1-C ) :   1.0926 B(  0-O ,  8-H ) :   0.8341 B(  1-C ,  2-C ) :   0.9548
B(  1-C ,  5-C ) :   0.8638 B(  1-C ,  7-C ) :   0.8378 B(  2-C ,  3-C ) :   0.9548
B(  2-C ,  9-H ) :   0.9119 B(  2-C , 10-H ) :   0.9119 B(  3-C ,  4-O ) :   1.0926
B(  3-C ,  5-C ) :   0.8378 B(  3-C ,  7-C ) :   0.8638 B(  4-O , 11-H ) :   0.8341
B(  5-C ,  6-C ) :   0.9154 B(  5-C , 12-H ) :   0.8822 B(  6-C ,  7-C ) :   0.9154
B(  6-C , 13-H ) :   0.9141 B(  6-C , 14-H ) :   0.9141 B(  7-C , 15-H ) :   0.8822

MP2 TOTAL ENERGY:     -383.033716459 Eh
FINAL SINGLE POINT ENERGY      -383.033716459215

DIPOLE MOMENT
-------------
                                X             Y             Z
Electronic contribution:      0.31219       0.00756       0.45264
Nuclear contribution   :     -0.01137      -0.00026      -0.01644
                        -----------------------------------------
Total Dipole Moment    :      0.30082       0.00729       0.43620
                        -----------------------------------------
Magnitude (a.u.)       :      0.52993
Magnitude (Debye)      :      1.34697

                             ****ORCA TERMINATED NORMALLY****
TOTAL RUN TIME: 0 days 0 hours 11 minutes 48 seconds 818 msec
