                         Program Version 3.0.3 - RELEASE   -
|  1> ! RI-MP2 RIJK def2-TZVP def2-TZVP/C def2-TZVP/JK TIGHTSCF
|  2> % maxcore 2000
|  3> % mp2 density relaxed end
|  4> *xyz 0 1
|  5>  C        0.0198253075     1.5042949258     0.2498751232
|  6>  C       -0.0207318928     0.0020683804    -0.0905534096
|  7>  C       -1.4110051259    -0.5412488224    -0.1201002112
|  8>  C       -2.1708836708    -0.9884805755    -1.1290239524
|  9>  C       -3.4747565350    -1.4006898273    -0.5994895183
| 10>  N       -4.4500489339    -1.8717498181    -1.2461017656
| 11>  O       -3.4667376733    -1.1848460030     0.7714445305
| 12>  C       -2.2293952407    -0.6620938235     1.1238072603
| 13>  O       -1.9495380067    -0.3885365671     2.2530419155
| 14>  H        1.0547164641     1.8558864456     0.2795744787
| 15>  H       -0.5191252623     2.0911299557    -0.4999191850
| 16>  H       -0.4341202830     1.6896238217     1.2262269094
| 17>  H        0.4602287071    -0.1815372421    -1.0562691777
| 18>  H        0.5500856806    -0.5468465428     0.6679337259
| 19>  H       -1.9281081300    -1.0647858539    -2.1791944389
| 20>  H       -5.2360267750    -2.0734692836    -0.6252305646
| 21> *
| 22>
| 23>                          ****END OF INPUT****

CARTESIAN COORDINATES (ANGSTROEM)
---------------------------------
  C      0.019825    1.504295    0.249875
  C     -0.020732    0.002068   -0.090553
  C     -1.411005   -0.541249   -0.120100
  C     -2.170884   -0.988481   -1.129024
  C     -3.474757   -1.400690   -0.599490
  N     -4.450049   -1.871750   -1.246102
  O     -3.466738   -1.184846    0.771445
  C     -2.229395   -0.662094    1.123807
  O     -1.949538   -0.388537    2.253042
  H      1.054716    1.855886    0.279574
  H     -0.519125    2.091130   -0.499919
  H     -0.434120    1.689624    1.226227
  H      0.460229   -0.181537   -1.056269
  H      0.550086   -0.546847    0.667934
  H     -1.928108   -1.064786   -2.179194
  H     -5.236027   -2.073469   -0.625231

 Total Charge           Charge          ....    0
 Multiplicity           Mult            ....    1
 Number of Electrons    NEL             ....   66
 Basis Dimension        Dim             ....  321

ORBITAL ENERGIES
----------------

  NO   OCC          E(Eh)            E(eV)
   0   2.0000     -20.633597      -561.4687
   1   2.0000     -20.571862      -559.7888
   2   2.0000     -15.569211      -423.6598
   3   2.0000     -11.405356      -310.3555
   4   2.0000     -11.366473      -309.2975
   5   2.0000     -11.290394      -307.2272
   6   2.0000     -11.283724      -307.0457
   7   2.0000     -11.259380      -306.3833
   8   2.0000     -11.234593      -305.7088
   9   2.0000      -1.494696       -40.6727
  10   2.0000      -1.404008       -38.2050
  11   2.0000      -1.226218       -33.3671
  12   2.0000      -1.149757       -31.2865
  13   2.0000      -1.047243       -28.4969
  14   2.0000      -0.931286       -25.3416
  15   2.0000      -0.881506       -23.9870
  16   2.0000      -0.828924       -22.5562
  17   2.0000      -0.791621       -21.5411
  18   2.0000      -0.714132       -19.4325
  19   2.0000      -0.684492       -18.6260
  20   2.0000      -0.679632       -18.4937
  21   2.0000      -0.658252       -17.9119
  22   2.0000      -0.622834       -16.9482
  23   2.0000      -0.606684       -16.5087
  24   2.0000      -0.582488       -15.8503
  25   2.0000      -0.553216       -15.0538
  26   2.0000      -0.540921       -14.7192
  27   2.0000      -0.530352       -14.4316
  28   2.0000      -0.518644       -14.1130
  29   2.0000      -0.485019       -13.1980
  30   2.0000      -0.460821       -12.5396
  31   2.0000      -0.455853       -12.4044
  32   2.0000      -0.392422       -10.6783
  33   0.0000       0.048118         1.3094
  34   0.0000       0.128913         3.5079
  35   0.0000       0.158190         4.3046
  36   0.0000       0.162124         4.4116
  37   0.0000       0.172666         4.6985

MULLIKEN ATOMIC CHARGES
-----------------------
   0 C :   -0.408512
   1 C :   -0.196123
   2 C :    0.020241
   3 C :   -0.186743
   4 C :    0.197594
   5 N :   -0.327330
   6 O :   -0.220061
   7 C :    0.281558
   8 O :   -0.259101
   9 H :    0.138744
  10 H :    0.130989
  11 H :    0.158959
  12 H :    0.131881
  13 H :    0.137389
  14 H :    0.160479
  15 H :    0.240035
Sum of atomic charges:    0.0000000

LOEWDIN ATOMIC CHARGES
----------------------
   0 C :   -0.298750
   1 C :   -0.239578
   2 C :   -0.120470
   3 C :   -0.057953
   4 C :   -0.366696
   5 N :   -0.010708
   6 O :    0.295742
   7 C :   -0.388882
   8 O :    0.171207
   9 H :    0.124943
  10 H :    0.123382
  11 H :    0.129989
  12 H :    0.147351
  13 H :    0.156909
  14 H :    0.156341
  15 H :    0.177173

  Mayer bond orders larger than 0.1
B(  0-C ,  1-C ) :   0.9057 B(  0-C ,  9-H ) :   0.9344 B(  0-C , 10-H ) :   0.9342
B(  0-C , 11-H ) :   0.9347 B(  1-C ,  2-C ) :   0.8946 B(  1-C , 12-H ) :   0.9461
B(  1-C , 13-H ) :   0.9174 B(  2-C ,  3-C ) :   1.6396 B(  2-C ,  7-C ) :   0.9266
B(  3-C ,  4-C ) :   1.0138 B(  3-C , 14-H ) :   0.9200 B(  4-C ,  5-N ) :   2.0224
B(  4-C ,  6-O ) :   0.9899 B(  5-N , 15-H ) :   0.8522 B(  6-O ,  7-C ) :   1.0269
B(  7-C ,  8-O ) :   2.0283

MP2 TOTAL ENERGY:     -437.221192335 Eh
FINAL SINGLE POINT ENERGY      -437.221192334559

DIPOLE MOMENT
-------------
                                X             Y             Z
Electronic contribution:     -7.54477      -5.33421       2.47975
Nuclear contribution   :      8.28610       5.56657      -3.17138
                        -----------------------------------------
Total Dipole Moment    :      0.74134       0.23236      -0.69162
                        -----------------------------------------
Magnitude (a.u.)       :      1.04015
Magnitude (Debye)      :      2.64386

                             ****ORCA TERMINATED NORMALLY****
TOTAL RUN TIME: 0 days 0 hours 14 minutes 20 seconds 9 msec
