                         Program Version 3.0.3 - RELEASE   -
|  1> ! RI-MP2 RIJK def2-TZVP def2-TZVP/C def2-TZVP/JK TIGHTSCF
|  2> % maxcore 2000
|  3> % mp2 density relaxed end
|  4> *xyz 0 1
|  5>  O       -0.0098510235     0.0455129191     0.2733438694
|  6>  C       -0.0485757041     1.2272932616     0.0584308236
|  7>  C       -1.3184097636     2.0723582324    -0.1398962189
|  8>  C       -0.8331859805     3.3892093640    -0.7143471176
|  9>  C        0.0786105854     4.2572494569     0.1272302255
| 10>  O        0.3852383332     3.8202867458     1.4303959206
| 11>  C        1.3989939509     2.8164533374     1.3258558689
| 12>  C        1.1714726874     2.1588996139    -0.0568357928
| 13>  C        0.6883079826     3.3473336668    -0.8936182840
| 14>  H       -2.0018358683     1.5499889740    -0.8150803888
| 15>  H       -1.8262711199     2.1760640215     0.8258976145
| 16>  H       -1.4435673206     3.8923306161    -1.4557697649
| 17>  H        0.0503824859     5.3357881935     0.0161592883
| 18>  H        2.3993616727     3.2712436038     1.3694342326
| 19>  H        1.2847630940     2.1259883632     2.1663484618
| 20>  H        2.0499283415     1.6306345317    -0.4266165509
| 21>  H        1.2047335970     3.6767197883    -1.7850408273
| 22> *
| 23>
| 24>                          ****END OF INPUT****

CARTESIAN COORDINATES (ANGSTROEM)
---------------------------------
  O     -0.009851    0.045513    0.273344
  C     -0.048576    1.227293    0.058431
  C     -1.318410    2.072358   -0.139896
  C     -0.833186    3.389209   -0.714347
  C      0.078611    4.257249    0.127230
  O      0.385238    3.820287    1.430396
  C      1.398994    2.816453    1.325856
  C      1.171473    2.158900   -0.056836
  C      0.688308    3.347334   -0.893618
  H     -2.001836    1.549989   -0.815080
  H     -1.826271    2.176064    0.825898
  H     -1.443567    3.892331   -1.455770
  H      0.050382    5.335788    0.016159
  H      2.399362    3.271244    1.369434
  H      1.284763    2.125988    2.166348
  H      2.049928    1.630635   -0.426617
  H      1.204734    3.676720   -1.785041

 Total Charge           Charge          ....    0
 Multiplicity           Mult            ....    1
 Number of Electrons    NEL             ....   66
 Basis Dimension        Dim             ....  327

ORBITAL ENERGIES
----------------

  NO   OCC          E(Eh)            E(eV)
   0   2.0000     -20.570385      -559.7486
   1   2.0000     -20.549150      -559.1708
   2   2.0000     -11.332066      -308.3612
   3   2.0000     -11.294446      -307.3375
   4   2.0000     -11.293372      -307.3083
   5   2.0000     -11.252225      -306.1886
   6   2.0000     -11.249840      -306.1237
   7   2.0000     -11.247930      -306.0717
   8   2.0000     -11.241605      -305.8996
   9   2.0000      -1.402707       -38.1696
  10   2.0000      -1.391825       -37.8735
  11   2.0000      -1.175853       -31.9966
  12   2.0000      -1.051538       -28.6138
  13   2.0000      -1.005920       -27.3725
  14   2.0000      -0.889271       -24.1983
  15   2.0000      -0.806495       -21.9458
  16   2.0000      -0.789868       -21.4934
  17   2.0000      -0.752110       -20.4660
  18   2.0000      -0.727809       -19.8047
  19   2.0000      -0.661708       -18.0060
  20   2.0000      -0.644990       -17.5511
  21   2.0000      -0.621533       -16.9128
  22   2.0000      -0.608053       -16.5460
  23   2.0000      -0.602407       -16.3923
  24   2.0000      -0.591718       -16.1015
  25   2.0000      -0.546583       -14.8733
  26   2.0000      -0.532272       -14.4839
  27   2.0000      -0.513289       -13.9673
  28   2.0000      -0.498839       -13.5741
  29   2.0000      -0.469401       -12.7731
  30   2.0000      -0.424759       -11.5583
  31   2.0000      -0.410712       -11.1761
  32   2.0000      -0.384611       -10.4658
  33   0.0000       0.126176         3.4334
  34   0.0000       0.145941         3.9712
  35   0.0000       0.158319         4.3081
  36   0.0000       0.165828         4.5124
  37   0.0000       0.177221         4.8224

MULLIKEN ATOMIC CHARGES
-----------------------
   0 O :   -0.256205
   1 C :    0.060681
   2 C :   -0.194585
   3 C :   -0.163246
   4 C :    0.048804
   5 O :   -0.321446
   6 C :   -0.067827
   7 C :    0.031490
   8 C :   -0.209946
   9 H :    0.145558
  10 H :    0.143020
  11 H :    0.134914
  12 H :    0.127671
  13 H :    0.102037
  14 H :    0.132128
  15 H :    0.139866
  16 H :    0.147086
Sum of atomic charges:    0.0000000

LOEWDIN ATOMIC CHARGES
----------------------
   0 O :    0.160407
   1 C :   -0.281850
   2 C :   -0.200566
   3 C :   -0.173490
   4 C :   -0.252423
   5 O :    0.179907
   6 C :   -0.252605
   7 C :   -0.186393
   8 C :   -0.154690
   9 H :    0.154117
  10 H :    0.158156
  11 H :    0.148235
  12 H :    0.139839
  13 H :    0.124840
  14 H :    0.133531
  15 H :    0.160513
  16 H :    0.142474

  Mayer bond orders larger than 0.1
B(  0-O ,  1-C ) :   2.0607 B(  1-C ,  2-C ) :   0.9391 B(  1-C ,  7-C ) :   0.8464
B(  2-C ,  3-C ) :   0.9150 B(  2-C ,  7-C ) :  -0.1046 B(  2-C ,  9-H ) :   0.9081
B(  2-C , 10-H ) :   0.8967 B(  3-C ,  4-C ) :   0.8638 B(  3-C ,  8-C ) :   0.8439
B(  3-C , 11-H ) :   0.9154 B(  4-C ,  5-O ) :   0.9770 B(  4-C ,  8-C ) :   0.8935
B(  4-C , 12-H ) :   0.9400 B(  5-O ,  6-C ) :   0.9279 B(  6-C ,  7-C ) :   0.9132
B(  6-C , 13-H ) :   0.9205 B(  6-C , 14-H ) :   0.9179 B(  7-C ,  8-C ) :   0.8749
B(  7-C , 15-H ) :   0.9022 B(  8-C , 16-H ) :   0.9089

MP2 TOTAL ENERGY:     -421.132755592 Eh
FINAL SINGLE POINT ENERGY      -421.132755592387

DIPOLE MOMENT
-------------
                                X             Y             Z
Electronic contribution:     -0.08804      -2.16513       0.84896
Nuclear contribution   :      0.31816       3.00383      -1.50737
                        -----------------------------------------
Total Dipole Moment    :      0.23012       0.83870      -0.65841
                        -----------------------------------------
Magnitude (a.u.)       :      1.09081
Magnitude (Debye)      :      2.77263

                             ****ORCA TERMINATED NORMALLY****
TOTAL RUN TIME: 0 days 0 hours 17 minutes 49 seconds 510 msec
