                         Program Version 3.0.3 - RELEASE   -
|  1> ! RI-MP2 RIJK def2-TZVP def2-TZVP/C def2-TZVP/JK TIGHTSCF
|  2> % maxcore 2000
|  3> % mp2 density relaxed end
|  4> *xyz 0 1
|  5>  C        0.1176199633     1.3338169055    -0.0147469532
|  6>  O       -0.0101704281    -0.0786660348    -0.0399513562
|  7>  C       -1.2621447912    -0.6120586086    -0.0095870677
|  8>  C       -2.4614674344     0.0852724058     0.0433138950
|  9>  C       -3.6491493805    -0.6498665609     0.0674912627
| 10>  N       -3.7017866766    -1.9790200215     0.0427391080
| 11>  C       -2.5400447352    -2.6410089994    -0.0083788113
| 12>  C       -1.3006402477    -2.0165075979    -0.0362502455
| 13>  O       -0.1576774397    -2.7463388465    -0.0878271731
| 14>  H        1.1873873895     1.5443693033    -0.0444618218
| 15>  H       -0.3682249811     1.7919506055    -0.8844550583
| 16>  H       -0.3112521840     1.7548955316     0.9023523349
| 17>  H       -2.4905404253     1.1670954048     0.0655866810
| 18>  H       -4.6011471511    -0.1267838273     0.1089166954
| 19>  H       -2.5791968646    -3.7269986801    -0.0286486387
| 20>  H        0.5806650569    -2.1236422096    -0.1000339612
| 21> *
| 22>
| 23>                          ****END OF INPUT****

CARTESIAN COORDINATES (ANGSTROEM)
---------------------------------
  C      0.117620    1.333817   -0.014747
  O     -0.010170   -0.078666   -0.039951
  C     -1.262145   -0.612059   -0.009587
  C     -2.461467    0.085272    0.043314
  C     -3.649149   -0.649867    0.067491
  N     -3.701787   -1.979020    0.042739
  C     -2.540045   -2.641009   -0.008379
  C     -1.300640   -2.016508   -0.036250
  O     -0.157677   -2.746339   -0.087827
  H      1.187387    1.544369   -0.044462
  H     -0.368225    1.791951   -0.884455
  H     -0.311252    1.754896    0.902352
  H     -2.490540    1.167095    0.065587
  H     -4.601147   -0.126784    0.108917
  H     -2.579197   -3.726999   -0.028649
  H      0.580665   -2.123642   -0.100034

 Total Charge           Charge          ....    0
 Multiplicity           Mult            ....    1
 Number of Electrons    NEL             ....   66
 Basis Dimension        Dim             ....  321

ORBITAL ENERGIES
----------------

  NO   OCC          E(Eh)            E(eV)
   0   2.0000     -20.612938      -560.9066
   1   2.0000     -20.587102      -560.2035
   2   2.0000     -15.558935      -423.3801
   3   2.0000     -11.321033      -308.0610
   4   2.0000     -11.305477      -307.6377
   5   2.0000     -11.298324      -307.4430
   6   2.0000     -11.269074      -306.6471
   7   2.0000     -11.265010      -306.5365
   8   2.0000     -11.243693      -305.9564
   9   2.0000      -1.444783       -39.3145
  10   2.0000      -1.401573       -38.1387
  11   2.0000      -1.252157       -34.0729
  12   2.0000      -1.082681       -29.4612
  13   2.0000      -1.028367       -27.9833
  14   2.0000      -0.977100       -26.5883
  15   2.0000      -0.857185       -23.3252
  16   2.0000      -0.849426       -23.1141
  17   2.0000      -0.758204       -20.6318
  18   2.0000      -0.729113       -19.8402
  19   2.0000      -0.691998       -18.8302
  20   2.0000      -0.681769       -18.5519
  21   2.0000      -0.638259       -17.3679
  22   2.0000      -0.631284       -17.1781
  23   2.0000      -0.619338       -16.8530
  24   2.0000      -0.599300       -16.3078
  25   2.0000      -0.584245       -15.8981
  26   2.0000      -0.543311       -14.7843
  27   2.0000      -0.529775       -14.4159
  28   2.0000      -0.513739       -13.9795
  29   2.0000      -0.507165       -13.8007
  30   2.0000      -0.419285       -11.4093
  31   2.0000      -0.362260        -9.8576
  32   2.0000      -0.321116        -8.7380
  33   0.0000       0.120343         3.2747
  34   0.0000       0.130805         3.5594
  35   0.0000       0.132380         3.6023
  36   0.0000       0.149838         4.0773
  37   0.0000       0.179814         4.8930

MULLIKEN ATOMIC CHARGES
-----------------------
   0 C :   -0.250821
   1 O :   -0.325963
   2 C :    0.267555
   3 C :   -0.211498
   4 C :   -0.063193
   5 N :   -0.247015
   6 C :   -0.080882
   7 C :    0.150992
   8 O :   -0.422291
   9 H :    0.156221
  10 H :    0.142661
  11 H :    0.142668
  12 H :    0.135843
  13 H :    0.126189
  14 H :    0.134378
  15 H :    0.345154
Sum of atomic charges:   -0.0000000

LOEWDIN ATOMIC CHARGES
----------------------
   0 C :   -0.319835
   1 O :    0.215819
   2 C :   -0.240334
   3 C :   -0.152473
   4 C :   -0.234265
   5 N :    0.122814
   6 C :   -0.197557
   7 C :   -0.255880
   8 O :    0.084404
   9 H :    0.119478
  10 H :    0.113314
  11 H :    0.113328
  12 H :    0.151860
  13 H :    0.138061
  14 H :    0.144676
  15 H :    0.196592

  Mayer bond orders larger than 0.1
B(  0-C ,  1-O ) :   0.8723 B(  0-C ,  9-H ) :   0.9367 B(  0-C , 10-H ) :   0.9339
B(  0-C , 11-H ) :   0.9339 B(  1-O ,  2-C ) :   0.9904 B(  2-C ,  3-C ) :   1.3001
B(  2-C ,  7-C ) :   1.2061 B(  3-C ,  4-C ) :   1.2957 B(  3-C , 12-H ) :   0.9164
B(  4-C ,  5-N ) :   1.4299 B(  4-C , 13-H ) :   0.9465 B(  5-N ,  6-C ) :   1.3761
B(  6-C ,  7-C ) :   1.3225 B(  6-C , 14-H ) :   0.9467 B(  7-C ,  8-O ) :   1.1551
B(  8-O , 15-H ) :   0.8133

MP2 TOTAL ENERGY:     -437.204409897 Eh
FINAL SINGLE POINT ENERGY      -437.204409896601

DIPOLE MOMENT
-------------
                                X             Y             Z
Electronic contribution:     -1.21344      -5.34388      -0.06916
Nuclear contribution   :      2.29158       6.89553       0.06515
                        -----------------------------------------
Total Dipole Moment    :      1.07814       1.55165      -0.00401
                        -----------------------------------------
Magnitude (a.u.)       :      1.88945
Magnitude (Debye)      :      4.80260

                             ****ORCA TERMINATED NORMALLY****
TOTAL RUN TIME: 0 days 0 hours 15 minutes 10 seconds 47 msec
