                         Program Version 3.0.3 - RELEASE   -
|  1> ! RI-MP2 RIJK def2-TZVP def2-TZVP/C def2-TZVP/JK TIGHTSCF
|  2> % maxcore 2000
|  3> % mp2 density relaxed end
|  4> *xyz 0 1
|  5>  C        0.2653952060     1.5546917083    -0.2561628032
|  6>  C       -0.4003790221     0.3392811304     0.3837538623
|  7>  N        0.2429591367     0.0215437802     1.6514010499
|  8>  C       -0.1928283132    -0.9636064889     2.3096265010
|  9>  N        0.2749624172    -1.4265440576     3.5244247820
| 10>  C       -0.4634745391    -2.5382438315     3.9354196617
| 11>  C       -0.1934332510    -3.2576969069     5.2082422286
| 12>  C       -1.3731925713    -2.7475543907     2.9750535644
| 13>  O       -1.2363732426    -1.8041790706     1.9667531406
| 14>  H        1.3270974792     1.3605847751    -0.4371074567
| 15>  H       -0.2095809514     1.8037045070    -1.2108831825
| 16>  H        0.1937232823     2.4244033648     0.4042059712
| 17>  H       -1.4735048307     0.5405314250     0.5279900508
| 18>  H       -0.3479394896    -0.5160285863    -0.3080361543
| 19>  H        1.0402771434    -0.9912675529     4.0061477233
| 20>  H       -0.3062413129    -2.5959071098     6.0752412020
| 21>  H       -0.8895915616    -4.0907616569     5.3257543109
| 22>  H        0.8259982755    -3.6608367470     5.2331510251
| 23>  H       -2.1511072448    -3.4800147917     2.8531878930
| 24> *
| 25>
| 26>                          ****END OF INPUT****

CARTESIAN COORDINATES (ANGSTROEM)
---------------------------------
  C      0.265395    1.554692   -0.256163
  C     -0.400379    0.339281    0.383754
  N      0.242959    0.021544    1.651401
  C     -0.192828   -0.963606    2.309627
  N      0.274962   -1.426544    3.524425
  C     -0.463475   -2.538244    3.935420
  C     -0.193433   -3.257697    5.208242
  C     -1.373193   -2.747554    2.975054
  O     -1.236373   -1.804179    1.966753
  H      1.327097    1.360585   -0.437107
  H     -0.209581    1.803705   -1.210883
  H      0.193723    2.424403    0.404206
  H     -1.473505    0.540531    0.527990
  H     -0.347939   -0.516029   -0.308036
  H      1.040277   -0.991268    4.006148
  H     -0.306241   -2.595907    6.075241
  H     -0.889592   -4.090762    5.325754
  H      0.825998   -3.660837    5.233151
  H     -2.151107   -3.480015    2.853188

 Total Charge           Charge          ....    0
 Multiplicity           Mult            ....    1
 Number of Electrons    NEL             ....   68
 Basis Dimension        Dim             ....  339

ORBITAL ENERGIES
----------------

  NO   OCC          E(Eh)            E(eV)
   0   2.0000     -20.610548      -560.8415
   1   2.0000     -15.598831      -424.4658
   2   2.0000     -15.510401      -422.0595
   3   2.0000     -11.362839      -309.1986
   4   2.0000     -11.288984      -307.1889
   5   2.0000     -11.282789      -307.0203
   6   2.0000     -11.253539      -306.2244
   7   2.0000     -11.233487      -305.6787
   8   2.0000     -11.193840      -304.5999
   9   2.0000      -1.462014       -39.7834
  10   2.0000      -1.260400       -34.2972
  11   2.0000      -1.202205       -32.7137
  12   2.0000      -1.059721       -28.8365
  13   2.0000      -0.992646       -27.0113
  14   2.0000      -0.954743       -25.9799
  15   2.0000      -0.854753       -23.2590
  16   2.0000      -0.836867       -22.7723
  17   2.0000      -0.778094       -21.1730
  18   2.0000      -0.715180       -19.4610
  19   2.0000      -0.667166       -18.1545
  20   2.0000      -0.648258       -17.6400
  21   2.0000      -0.626503       -17.0480
  22   2.0000      -0.608162       -16.5489
  23   2.0000      -0.602909       -16.4060
  24   2.0000      -0.587704       -15.9922
  25   2.0000      -0.580477       -15.7956
  26   2.0000      -0.549012       -14.9394
  27   2.0000      -0.508916       -13.8483
  28   2.0000      -0.501749       -13.6533
  29   2.0000      -0.500579       -13.6214
  30   2.0000      -0.486294       -13.2327
  31   2.0000      -0.404564       -11.0088
  32   2.0000      -0.399173       -10.8621
  33   2.0000      -0.293759        -7.9936
  34   0.0000       0.125031         3.4023
  35   0.0000       0.156907         4.2697
  36   0.0000       0.165553         4.5049
  37   0.0000       0.167531         4.5587
  38   0.0000       0.175342         4.7713

MULLIKEN ATOMIC CHARGES
-----------------------
   0 C :   -0.334350
   1 C :   -0.097783
   2 N :   -0.295597
   3 C :    0.256273
   4 N :   -0.309013
   5 C :    0.107371
   6 C :   -0.420790
   7 C :   -0.067035
   8 O :   -0.242688
   9 H :    0.115863
  10 H :    0.112412
  11 H :    0.115851
  12 H :    0.100112
  13 H :    0.100109
  14 H :    0.255004
  15 H :    0.150523
  16 H :    0.148551
  17 H :    0.150569
  18 H :    0.154621
Sum of atomic charges:   -0.0000000

LOEWDIN ATOMIC CHARGES
----------------------
   0 C :   -0.323807
   1 C :   -0.326433
   2 N :    0.045457
   3 C :   -0.423767
   4 N :    0.172734
   5 C :   -0.272423
   6 C :   -0.268606
   7 C :   -0.236583
   8 O :    0.290436
   9 H :    0.119170
  10 H :    0.116779
  11 H :    0.119163
  12 H :    0.123358
  13 H :    0.123358
  14 H :    0.196074
  15 H :    0.134044
  16 H :    0.140498
  17 H :    0.134052
  18 H :    0.136497

  Mayer bond orders larger than 0.1
B(  0-C ,  1-C ) :   0.9398 B(  0-C ,  9-H ) :   0.9370 B(  0-C , 10-H ) :   0.9376
B(  0-C , 11-H ) :   0.9370 B(  1-C ,  2-N ) :   0.8846 B(  1-C , 12-H ) :   0.9255
B(  1-C , 13-H ) :   0.9255 B(  2-N ,  3-C ) :   1.9375 B(  3-C ,  4-N ) :   1.0954
B(  3-C ,  8-O ) :   1.0043 B(  4-N ,  5-C ) :   1.0414 B(  4-N , 14-H ) :   0.8653
B(  5-C ,  6-C ) :   0.8670 B(  5-C ,  7-C ) :   1.6819 B(  6-C , 15-H ) :   0.9306
B(  6-C , 16-H ) :   0.9477 B(  6-C , 17-H ) :   0.9306 B(  7-C ,  8-O ) :   0.9777
B(  7-C , 18-H ) :   0.9352

MP2 TOTAL ENERGY:     -418.516564707 Eh
FINAL SINGLE POINT ENERGY      -418.516564707347

DIPOLE MOMENT
-------------
                                X             Y             Z
Electronic contribution:     -1.37909      -3.39336       2.43126
Nuclear contribution   :      1.31236       2.45970      -1.34038
                        -----------------------------------------
Total Dipole Moment    :     -0.06673      -0.93366       1.09088
                        -----------------------------------------
Magnitude (a.u.)       :      1.43743
Magnitude (Debye)      :      3.65365

                             ****ORCA TERMINATED NORMALLY****
TOTAL RUN TIME: 0 days 0 hours 16 minutes 23 seconds 912 msec
