                         Program Version 3.0.3 - RELEASE   -
|  1> ! RI-MP2 RIJK def2-TZVP def2-TZVP/C def2-TZVP/JK TIGHTSCF
|  2> % maxcore 2000
|  3> % mp2 density relaxed end
|  4> *xyz 0 1
|  5>  O        0.0681280311     1.4103775198     0.0585524556
|  6>  C        0.0059842455     0.0004265889     0.0016519403
|  7>  C       -1.4185724368    -0.5513729575     0.1058853561
|  8>  C       -1.4071419917    -2.0827673267    -0.0201096785
|  9>  C       -0.6615147674    -2.4999516211    -1.2869874895
| 10>  O        0.6594407091    -1.9639481758    -1.3182396444
| 11>  C        0.7037494844    -0.5448279614    -1.2752167233
| 12>  C        0.1409467958     0.0830312978    -2.4821656710
| 13>  C       -0.3390713993     0.6202150554    -3.4462451108
| 14>  H       -0.3590492493     1.7493201896    -0.7383883306
| 15>  H        0.5958618749    -0.3568275870     0.8529841271
| 16>  H       -1.8637728664    -0.2285073879     1.0519243523
| 17>  H       -2.0245474550    -0.1187042828    -0.7016787646
| 18>  H       -0.9070175658    -2.5250833382     0.8501503793
| 19>  H       -2.4281832494    -2.4799623332    -0.0442903441
| 20>  H       -0.5335890875    -3.5843248787    -1.3397629577
| 21>  H       -1.2178673134    -2.1777767392    -2.1803561631
| 22>  H        1.7670344125    -0.2891273130    -1.2198467409
| 23>  H       -0.7401384313     1.0825697111    -4.3148684322
| 24> *
| 25>
| 26>                          ****END OF INPUT****

CARTESIAN COORDINATES (ANGSTROEM)
---------------------------------
  O      0.068128    1.410378    0.058552
  C      0.005984    0.000427    0.001652
  C     -1.418572   -0.551373    0.105885
  C     -1.407142   -2.082767   -0.020110
  C     -0.661515   -2.499952   -1.286987
  O      0.659441   -1.963948   -1.318240
  C      0.703749   -0.544828   -1.275217
  C      0.140947    0.083031   -2.482166
  C     -0.339071    0.620215   -3.446245
  H     -0.359049    1.749320   -0.738388
  H      0.595862   -0.356828    0.852984
  H     -1.863773   -0.228507    1.051924
  H     -2.024547   -0.118704   -0.701679
  H     -0.907018   -2.525083    0.850150
  H     -2.428183   -2.479962   -0.044290
  H     -0.533589   -3.584325   -1.339763
  H     -1.217867   -2.177777   -2.180356
  H      1.767034   -0.289127   -1.219847
  H     -0.740138    1.082570   -4.314868

 Total Charge           Charge          ....    0
 Multiplicity           Mult            ....    1
 Number of Electrons    NEL             ....   68
 Basis Dimension        Dim             ....  339

ORBITAL ENERGIES
----------------

  NO   OCC          E(Eh)            E(eV)
   0   2.0000     -20.566857      -559.6526
   1   2.0000     -20.559835      -559.4616
   2   2.0000     -11.310644      -307.7783
   3   2.0000     -11.288679      -307.1806
   4   2.0000     -11.278008      -306.8902
   5   2.0000     -11.245577      -306.0077
   6   2.0000     -11.239437      -305.8406
   7   2.0000     -11.230527      -305.5982
   8   2.0000     -11.228048      -305.5307
   9   2.0000      -1.390039       -37.8249
  10   2.0000      -1.366794       -37.1924
  11   2.0000      -1.078720       -29.3535
  12   2.0000      -1.068608       -29.0783
  13   2.0000      -1.009278       -27.4639
  14   2.0000      -0.904979       -24.6257
  15   2.0000      -0.867649       -23.6099
  16   2.0000      -0.808577       -22.0025
  17   2.0000      -0.729761       -19.8578
  18   2.0000      -0.709218       -19.2988
  19   2.0000      -0.677556       -18.4372
  20   2.0000      -0.669644       -18.2219
  21   2.0000      -0.636031       -17.3073
  22   2.0000      -0.621232       -16.9046
  23   2.0000      -0.602101       -16.3840
  24   2.0000      -0.560734       -15.2583
  25   2.0000      -0.556496       -15.1430
  26   2.0000      -0.532621       -14.4933
  27   2.0000      -0.508334       -13.8325
  28   2.0000      -0.494168       -13.4470
  29   2.0000      -0.472918       -12.8688
  30   2.0000      -0.455554       -12.3963
  31   2.0000      -0.421247       -11.4627
  32   2.0000      -0.410445       -11.1688
  33   2.0000      -0.392646       -10.6844
  34   0.0000       0.137463         3.7406
  35   0.0000       0.143319         3.8999
  36   0.0000       0.153101         4.1661
  37   0.0000       0.159266         4.3339
  38   0.0000       0.166795         4.5387

MULLIKEN ATOMIC CHARGES
-----------------------
   0 O :   -0.461713
   1 C :    0.027660
   2 C :   -0.215247
   3 C :   -0.233308
   4 C :   -0.091793
   5 O :   -0.308658
   6 C :    0.194336
   7 C :   -0.199307
   8 C :   -0.188915
   9 H :    0.324554
  10 H :    0.106005
  11 H :    0.133525
  12 H :    0.113505
  13 H :    0.113519
  14 H :    0.121843
  15 H :    0.133904
  16 H :    0.111286
  17 H :    0.125068
  18 H :    0.193737
Sum of atomic charges:   -0.0000000

LOEWDIN ATOMIC CHARGES
----------------------
   0 O :   -0.001514
   1 C :   -0.325046
   2 C :   -0.249569
   3 C :   -0.266748
   4 C :   -0.306859
   5 O :    0.186360
   6 C :   -0.297789
   7 C :   -0.096889
   8 C :   -0.092138
   9 H :    0.179580
  10 H :    0.151129
  11 H :    0.141243
  12 H :    0.142555
  13 H :    0.140600
  14 H :    0.140692
  15 H :    0.131246
  16 H :    0.126942
  17 H :    0.166911
  18 H :    0.129293

  Mayer bond orders larger than 0.1
B(  0-O ,  1-C ) :   0.9491 B(  0-O ,  9-H ) :   0.8293 B(  1-C ,  2-C ) :   0.9417
B(  1-C ,  6-C ) :   0.8966 B(  1-C , 10-H ) :   0.9202 B(  2-C ,  3-C ) :   0.9100
B(  2-C , 11-H ) :   0.9317 B(  2-C , 12-H ) :   0.9160 B(  3-C ,  4-C ) :   0.9333
B(  3-C , 13-H ) :   0.9251 B(  3-C , 14-H ) :   0.9192 B(  4-C ,  5-O ) :   0.9142
B(  4-C , 15-H ) :   0.9311 B(  4-C , 16-H ) :   0.9351 B(  5-O ,  6-C ) :   0.9347
B(  6-C ,  7-C ) :   1.0366 B(  6-C , 17-H ) :   0.8922 B(  7-C ,  8-C ) :   2.5888
B(  8-C , 18-H ) :   0.9054

MP2 TOTAL ENERGY:     -422.291833434 Eh
FINAL SINGLE POINT ENERGY      -422.291833434375

DIPOLE MOMENT
-------------
                                X             Y             Z
Electronic contribution:      4.07531       2.44131      -2.61283
Nuclear contribution   :     -4.84602      -2.59450       2.29690
                        -----------------------------------------
Total Dipole Moment    :     -0.77071      -0.15319      -0.31592
                        -----------------------------------------
Magnitude (a.u.)       :      0.84691
Magnitude (Debye)      :      2.15268

                             ****ORCA TERMINATED NORMALLY****
TOTAL RUN TIME: 0 days 0 hours 19 minutes 33 seconds 252 msec
