                         Program Version 3.0.3 - RELEASE   -
|  1> ! RI-MP2 RIJK def2-TZVP def2-TZVP/C def2-TZVP/JK TIGHTSCF
|  2> % maxcore 2000
|  3> % mp2 density relaxed end
|  4> *xyz 0 1
|  5>  C       -0.0025509620     1.4752408771     0.0628758561
|  6>  C        0.0077277611    -0.0158267886    -0.0277475961
|  7>  C       -0.0806604487    -0.7979373235    -1.1585182111
|  8>  N       -0.0255961934    -2.0955579685    -0.6976792761
|  9>  C       -0.0474169250    -3.4308403362    -1.1360139958
| 10>  C        0.0534583104    -4.2508258870    -0.0809640228
| 11>  C        0.1535666171    -3.4381691986     1.2005124229
| 12>  C        0.0910129555    -2.0348556062     0.6669479897
| 13>  N        0.1150374522    -0.8045049291     1.1113811642
| 14>  H        0.9161731049     1.8487721577     0.5283362912
| 15>  H       -0.0920214380     1.9290864218    -0.9280205079
| 16>  H       -0.8386528271     1.8276162968     0.6769204700
| 17>  H       -0.1722981429    -0.5510210094    -2.2027070825
| 18>  H       -0.1353117487    -3.6600219558    -2.1876039927
| 19>  H        0.0628606205    -5.3293412198    -0.1213522855
| 20>  H       -0.6664283035    -3.6574259299     1.8951066461
| 21>  H        1.0850898776    -3.6360884810     1.7445981102
| 22> *
| 23>
| 24>                          ****END OF INPUT****

CARTESIAN COORDINATES (ANGSTROEM)
---------------------------------
  C     -0.002551    1.475241    0.062876
  C      0.007728   -0.015827   -0.027748
  C     -0.080660   -0.797937   -1.158518
  N     -0.025596   -2.095558   -0.697679
  C     -0.047417   -3.430840   -1.136014
  C      0.053458   -4.250826   -0.080964
  C      0.153567   -3.438169    1.200512
  C      0.091013   -2.034856    0.666948
  N      0.115037   -0.804505    1.111381
  H      0.916173    1.848772    0.528336
  H     -0.092021    1.929086   -0.928021
  H     -0.838653    1.827616    0.676920
  H     -0.172298   -0.551021   -2.202707
  H     -0.135312   -3.660022   -2.187604
  H      0.062861   -5.329341   -0.121352
  H     -0.666428   -3.657426    1.895107
  H      1.085090   -3.636088    1.744598

 Total Charge           Charge          ....    0
 Multiplicity           Mult            ....    1
 Number of Electrons    NEL             ....   64
 Basis Dimension        Dim             ....  327

ORBITAL ENERGIES
----------------

  NO   OCC          E(Eh)            E(eV)
   0   2.0000     -15.613608      -424.8679
   1   2.0000     -15.535674      -422.7472
   2   2.0000     -11.292329      -307.2799
   3   2.0000     -11.290271      -307.2239
   4   2.0000     -11.253354      -306.2193
   5   2.0000     -11.249831      -306.1235
   6   2.0000     -11.246970      -306.0456
   7   2.0000     -11.243249      -305.9444
   8   2.0000     -11.213835      -305.1440
   9   2.0000      -1.354460       -36.8567
  10   2.0000      -1.198460       -32.6117
  11   2.0000      -1.096653       -29.8415
  12   2.0000      -1.015919       -27.6446
  13   2.0000      -0.968742       -26.3608
  14   2.0000      -0.923176       -25.1209
  15   2.0000      -0.811475       -22.0814
  16   2.0000      -0.773534       -21.0489
  17   2.0000      -0.750079       -20.4107
  18   2.0000      -0.692940       -18.8559
  19   2.0000      -0.645870       -17.5750
  20   2.0000      -0.616105       -16.7651
  21   2.0000      -0.604874       -16.4595
  22   2.0000      -0.574665       -15.6374
  23   2.0000      -0.566287       -15.4094
  24   2.0000      -0.547976       -14.9112
  25   2.0000      -0.544416       -14.8143
  26   2.0000      -0.528595       -14.3838
  27   2.0000      -0.512769       -13.9532
  28   2.0000      -0.442661       -12.0454
  29   2.0000      -0.427943       -11.6449
  30   2.0000      -0.336677        -9.1614
  31   2.0000      -0.296100        -8.0573
  32   0.0000       0.123617         3.3638
  33   0.0000       0.144644         3.9360
  34   0.0000       0.154465         4.2032
  35   0.0000       0.161903         4.4056
  36   0.0000       0.179358         4.8806

MULLIKEN ATOMIC CHARGES
-----------------------
   0 C :   -0.427352
   1 C :    0.120237
   2 C :   -0.171528
   3 N :    0.002917
   4 C :   -0.104420
   5 C :   -0.200791
   6 C :   -0.145926
   7 C :    0.047073
   8 N :   -0.273619
   9 H :    0.141318
  10 H :    0.127160
  11 H :    0.141257
  12 H :    0.145426
  13 H :    0.154092
  14 H :    0.148526
  15 H :    0.147834
  16 H :    0.147796
Sum of atomic charges:    0.0000000

LOEWDIN ATOMIC CHARGES
----------------------
   0 C :   -0.277661
   1 C :   -0.277518
   2 C :   -0.203004
   3 N :    0.293208
   4 C :   -0.163372
   5 C :   -0.156707
   6 C :   -0.197986
   7 C :   -0.274061
   8 N :    0.125986
   9 H :    0.131770
  10 H :    0.128049
  11 H :    0.131769
  12 H :    0.136690
  13 H :    0.142082
  14 H :    0.140982
  15 H :    0.159877
  16 H :    0.159896

  Mayer bond orders larger than 0.1
B(  0-C ,  1-C ) :   0.8750 B(  0-C ,  9-H ) :   0.9365 B(  0-C , 10-H ) :   0.9526
B(  0-C , 11-H ) :   0.9363 B(  1-C ,  2-C ) :   1.5093 B(  1-C ,  8-N ) :   1.2120
B(  2-C ,  3-N ) :   1.1101 B(  2-C , 12-H ) :   0.9063 B(  3-N ,  4-C ) :   0.9762
B(  3-N ,  7-C ) :   1.1056 B(  4-C ,  5-C ) :   1.7328 B(  4-C , 13-H ) :   0.9165
B(  5-C ,  6-C ) :   0.9701 B(  5-C , 14-H ) :   0.9254 B(  6-C ,  7-C ) :   0.9957
B(  6-C , 15-H ) :   0.8980 B(  6-C , 16-H ) :   0.8980 B(  7-C ,  8-N ) :   1.6683

MP2 TOTAL ENERGY:     -380.235478331 Eh
FINAL SINGLE POINT ENERGY      -380.235478330531

DIPOLE MOMENT
-------------
                                X             Y             Z
Electronic contribution:      0.00621      -2.95293      -0.33546
Nuclear contribution   :     -0.06997       2.08583      -0.52535
                        -----------------------------------------
Total Dipole Moment    :     -0.06375      -0.86710      -0.86081
                        -----------------------------------------
Magnitude (a.u.)       :      1.22348
Magnitude (Debye)      :      3.10985

                             ****ORCA TERMINATED NORMALLY****
TOTAL RUN TIME: 0 days 0 hours 17 minutes 36 seconds 332 msec
