                         Program Version 3.0.3 - RELEASE   -
|  1> ! RI-MP2 RIJK def2-TZVP def2-TZVP/C def2-TZVP/JK TIGHTSCF
|  2> % maxcore 2000
|  3> % mp2 density relaxed end
|  4> *xyz 0 1
|  5>  O       -0.0381200144     1.4301480707    -0.0227243358
|  6>  C        0.0542259043     0.0154032130     0.0107524054
|  7>  C       -1.3620265090    -0.5494983215    -0.0179671505
|  8>  C       -1.3832447482    -2.0779954381    -0.0366226685
|  9>  C       -2.8232427077    -2.5586122876    -0.1340456982
| 10>  O       -3.6892334722    -2.0220782316     0.8784641602
| 11>  C       -3.5221775698    -0.7765215085     1.3944675334
| 12>  O       -4.4013166897    -0.3068458550     2.0635860169
| 13>  C       -2.1886106922    -0.0727650063     1.1822474811
| 14>  H        0.8472082825     1.7969242308     0.0539754535
| 15>  H        0.6200176068    -0.3691735272    -0.8533695675
| 16>  H        0.5692386291    -0.3317268545     0.9225916133
| 17>  H       -1.8357769628    -0.1839918843    -0.9398885478
| 18>  H       -0.8233103142    -2.4788983766    -0.8893662945
| 19>  H       -0.9175544830    -2.4739462763     0.8752544562
| 20>  H       -3.2430852660    -2.2917456661    -1.1131454932
| 21>  H       -2.8942015929    -3.6439140874    -0.0253379638
| 22>  H       -1.6179273852    -0.2470568667     2.1061599107
| 23>  H       -2.3843874455     0.9991125131     1.1450717893
| 24> *
| 25>
| 26>                          ****END OF INPUT****

CARTESIAN COORDINATES (ANGSTROEM)
---------------------------------
  O     -0.038120    1.430148   -0.022724
  C      0.054226    0.015403    0.010752
  C     -1.362027   -0.549498   -0.017967
  C     -1.383245   -2.077995   -0.036623
  C     -2.823243   -2.558612   -0.134046
  O     -3.689233   -2.022078    0.878464
  C     -3.522178   -0.776522    1.394468
  O     -4.401317   -0.306846    2.063586
  C     -2.188611   -0.072765    1.182247
  H      0.847208    1.796924    0.053975
  H      0.620018   -0.369174   -0.853370
  H      0.569239   -0.331727    0.922592
  H     -1.835777   -0.183992   -0.939889
  H     -0.823310   -2.478898   -0.889366
  H     -0.917554   -2.473946    0.875254
  H     -3.243085   -2.291746   -1.113145
  H     -2.894202   -3.643914   -0.025338
  H     -1.617927   -0.247057    2.106160
  H     -2.384387    0.999113    1.145072

 Total Charge           Charge          ....    0
 Multiplicity           Mult            ....    1
 Number of Electrons    NEL             ....   70
 Basis Dimension        Dim             ....  339

ORBITAL ENERGIES
----------------

  NO   OCC          E(Eh)            E(eV)
   0   2.0000     -20.592173      -560.3415
   1   2.0000     -20.572067      -559.7944
   2   2.0000     -20.526930      -558.5662
   3   2.0000     -11.372115      -309.4510
   4   2.0000     -11.301348      -307.5253
   5   2.0000     -11.294593      -307.3415
   6   2.0000     -11.251220      -306.1612
   7   2.0000     -11.247892      -306.0707
   8   2.0000     -11.244330      -305.9738
   9   2.0000      -1.445942       -39.3461
  10   2.0000      -1.377502       -37.4837
  11   2.0000      -1.351409       -36.7737
  12   2.0000      -1.120943       -30.5024
  13   2.0000      -1.030120       -28.0310
  14   2.0000      -0.964526       -26.2461
  15   2.0000      -0.893825       -24.3222
  16   2.0000      -0.821015       -22.3410
  17   2.0000      -0.756545       -20.5866
  18   2.0000      -0.718071       -19.5397
  19   2.0000      -0.689164       -18.7531
  20   2.0000      -0.680626       -18.5208
  21   2.0000      -0.660681       -17.9780
  22   2.0000      -0.645681       -17.5699
  23   2.0000      -0.615615       -16.7517
  24   2.0000      -0.601946       -16.3798
  25   2.0000      -0.596849       -16.2411
  26   2.0000      -0.573406       -15.6032
  27   2.0000      -0.531421       -14.4607
  28   2.0000      -0.517649       -14.0860
  29   2.0000      -0.500198       -13.6111
  30   2.0000      -0.495346       -13.4791
  31   2.0000      -0.484384       -13.1808
  32   2.0000      -0.460943       -12.5429
  33   2.0000      -0.442687       -12.0461
  34   2.0000      -0.425285       -11.5726
  35   0.0000       0.119255         3.2451
  36   0.0000       0.131116         3.5679
  37   0.0000       0.147248         4.0068
  38   0.0000       0.160811         4.3759
  39   0.0000       0.170452         4.6382

MULLIKEN ATOMIC CHARGES
-----------------------
   0 O :   -0.464167
   1 C :   -0.072067
   2 C :   -0.044491
   3 C :   -0.268822
   4 C :   -0.057516
   5 O :   -0.214461
   6 C :    0.246189
   7 O :   -0.288000
   8 C :   -0.266167
   9 H :    0.319596
  10 H :    0.103397
  11 H :    0.099263
  12 H :    0.101576
  13 H :    0.130782
  14 H :    0.121661
  15 H :    0.115975
  16 H :    0.138068
  17 H :    0.129753
  18 H :    0.169430
Sum of atomic charges:    0.0000000

LOEWDIN ATOMIC CHARGES
----------------------
   0 O :   -0.039869
   1 C :   -0.329190
   2 C :   -0.266119
   3 C :   -0.246875
   4 C :   -0.280698
   5 O :    0.252346
   6 C :   -0.471825
   7 O :    0.134263
   8 C :   -0.206353
   9 H :    0.174999
  10 H :    0.119104
  11 H :    0.118705
  12 H :    0.161145
  13 H :    0.147342
  14 H :    0.145020
  15 H :    0.130103
  16 H :    0.133418
  17 H :    0.162905
  18 H :    0.161579

  Mayer bond orders larger than 0.1
B(  0-O ,  1-C ) :   1.0294 B(  0-O ,  9-H ) :   0.8458 B(  1-C ,  2-C ) :   0.9270
B(  1-C , 10-H ) :   0.9334 B(  1-C , 11-H ) :   0.9180 B(  2-C ,  3-C ) :   0.8927
B(  2-C ,  8-C ) :   0.9046 B(  2-C , 12-H ) :   0.9156 B(  3-C ,  4-C ) :   0.9502
B(  3-C , 13-H ) :   0.9201 B(  3-C , 14-H ) :   0.9167 B(  4-C ,  5-O ) :   0.8674
B(  4-C , 15-H ) :   0.9313 B(  4-C , 16-H ) :   0.9367 B(  5-O ,  6-C ) :   1.1226
B(  6-C ,  7-O ) :   2.0306 B(  6-C ,  8-C ) :   0.9354 B(  8-C , 17-H ) :   0.9019
B(  8-C , 18-H ) :   0.9119

MP2 TOTAL ENERGY:     -459.472364121 Eh
FINAL SINGLE POINT ENERGY      -459.472364121353

DIPOLE MOMENT
-------------
                                X             Y             Z
Electronic contribution:     -6.88718       1.18871       3.35863
Nuclear contribution   :      8.95945      -1.71541      -4.31747
                        -----------------------------------------
Total Dipole Moment    :      2.07227      -0.52670      -0.95884
                        -----------------------------------------
Magnitude (a.u.)       :      2.34331
Magnitude (Debye)      :      5.95623

                             ****ORCA TERMINATED NORMALLY****
TOTAL RUN TIME: 0 days 0 hours 17 minutes 35 seconds 205 msec
