                         Program Version 3.0.3 - RELEASE   -
|  1> ! RI-MP2 RIJK def2-TZVP def2-TZVP/C def2-TZVP/JK TIGHTSCF
|  2> % maxcore 2000
|  3> % mp2 density relaxed end
|  4> *xyz 0 1
|  5>  C       -0.1824453704     1.6367440709     0.2377422423
|  6>  C        1.3409500773     1.6562595187    -0.0574733320
|  7>  C        2.4252499949     2.0185878249     0.9835191666
|  8>  C        2.3443350595     1.4187742862     2.4317955175
|  9>  C        1.7690257712     0.0485470643     2.2582207567
| 10>  C        0.4485222650    -0.1474041177     2.3211018718
| 11>  C       -0.2456332630    -0.8554113286     1.1990895090
| 12>  C       -0.0893688711     0.1085941071    -0.0226790826
| 13>  O        1.2984184556     0.2438580292    -0.4062138153
| 14>  H       -0.5014953642     1.9540744861     1.2286821037
| 15>  H       -0.7672369682     2.1716640410    -0.5128028103
| 16>  H        1.5815342641     2.2420909164    -0.9551779840
| 17>  H        3.3692051287     1.6894398263     0.5303288151
| 18>  H        2.4845224488     3.1135479863     1.0414497497
| 19>  H        3.3464381551     1.4524980598     2.8750778144
| 20>  H        1.6841973642     2.0315435028     3.0557959353
| 21>  H        2.3730023769    -0.6471799641     1.6793966990
| 22>  H       -0.1547521604     0.5686494481     2.8782672048
| 23>  H        0.2335982297    -1.8013741904     0.9229743032
| 24>  H       -1.3072372244    -1.0526220435     1.3843187484
| 25>  H       -0.6884531093    -0.2561306837    -0.8661858133
| 26> *
| 27>
| 28>                          ****END OF INPUT****

CARTESIAN COORDINATES (ANGSTROEM)
---------------------------------
  C     -0.182445    1.636744    0.237742
  C      1.340950    1.656260   -0.057473
  C      2.425250    2.018588    0.983519
  C      2.344335    1.418774    2.431796
  C      1.769026    0.048547    2.258221
  C      0.448522   -0.147404    2.321102
  C     -0.245633   -0.855411    1.199090
  C     -0.089369    0.108594   -0.022679
  O      1.298418    0.243858   -0.406214
  H     -0.501495    1.954074    1.228682
  H     -0.767237    2.171664   -0.512803
  H      1.581534    2.242091   -0.955178
  H      3.369205    1.689440    0.530329
  H      2.484522    3.113548    1.041450
  H      3.346438    1.452498    2.875078
  H      1.684197    2.031544    3.055796
  H      2.373002   -0.647180    1.679397
  H     -0.154752    0.568649    2.878267
  H      0.233598   -1.801374    0.922974
  H     -1.307237   -1.052622    1.384319
  H     -0.688453   -0.256131   -0.866186

 Total Charge           Charge          ....    0
 Multiplicity           Mult            ....    1
 Number of Electrons    NEL             ....   68
 Basis Dimension        Dim             ....  351

ORBITAL ENERGIES
----------------

  NO   OCC          E(Eh)            E(eV)
   0   2.0000     -20.540743      -558.9420
   1   2.0000     -11.284127      -307.0567
   2   2.0000     -11.282936      -307.0243
   3   2.0000     -11.230465      -305.5965
   4   2.0000     -11.229576      -305.5723
   5   2.0000     -11.227458      -305.5147
   6   2.0000     -11.226994      -305.5020
   7   2.0000     -11.217794      -305.2517
   8   2.0000     -11.212349      -305.1035
   9   2.0000      -1.372692       -37.3529
  10   2.0000      -1.098663       -29.8961
  11   2.0000      -1.051571       -28.6147
  12   2.0000      -1.009341       -27.4656
  13   2.0000      -0.928274       -25.2596
  14   2.0000      -0.914377       -24.8815
  15   2.0000      -0.789480       -21.4829
  16   2.0000      -0.759318       -20.6621
  17   2.0000      -0.728284       -19.8176
  18   2.0000      -0.686635       -18.6843
  19   2.0000      -0.646616       -17.5953
  20   2.0000      -0.642581       -17.4855
  21   2.0000      -0.599415       -16.3109
  22   2.0000      -0.580215       -15.7885
  23   2.0000      -0.566348       -15.4111
  24   2.0000      -0.549844       -14.9620
  25   2.0000      -0.537430       -14.6242
  26   2.0000      -0.519783       -14.1440
  27   2.0000      -0.501091       -13.6354
  28   2.0000      -0.496160       -13.5012
  29   2.0000      -0.474923       -12.9233
  30   2.0000      -0.448225       -12.1968
  31   2.0000      -0.437233       -11.8977
  32   2.0000      -0.399170       -10.8620
  33   2.0000      -0.325085        -8.8460
  34   0.0000       0.136213         3.7066
  35   0.0000       0.139380         3.7927
  36   0.0000       0.153817         4.1856
  37   0.0000       0.159110         4.3296
  38   0.0000       0.172940         4.7059

MULLIKEN ATOMIC CHARGES
-----------------------
   0 C :   -0.328553
   1 C :    0.154219
   2 C :   -0.261265
   3 C :   -0.222583
   4 C :   -0.091802
   5 C :   -0.200526
   6 C :   -0.216284
   7 C :    0.110934
   8 O :   -0.345059
   9 H :    0.128804
  10 H :    0.132718
  11 H :    0.096298
  12 H :    0.121925
  13 H :    0.119887
  14 H :    0.125665
  15 H :    0.110902
  16 H :    0.114895
  17 H :    0.110217
  18 H :    0.123879
  19 H :    0.117070
  20 H :    0.098659
Sum of atomic charges:    0.0000000

LOEWDIN ATOMIC CHARGES
----------------------
   0 C :   -0.206600
   1 C :   -0.269002
   2 C :   -0.238694
   3 C :   -0.252820
   4 C :   -0.166290
   5 C :   -0.190313
   6 C :   -0.242250
   7 C :   -0.262796
   8 O :    0.159186
   9 H :    0.132598
  10 H :    0.132816
  11 H :    0.137255
  12 H :    0.147718
  13 H :    0.141425
  14 H :    0.135491
  15 H :    0.139720
  16 H :    0.146915
  17 H :    0.136681
  18 H :    0.150022
  19 H :    0.138357
  20 H :    0.130581

  Mayer bond orders larger than 0.1
B(  0-C ,  1-C ) :   0.9379 B(  0-C ,  7-C ) :   0.9500 B(  0-C ,  9-H ) :   0.9210
B(  0-C , 10-H ) :   0.9246 B(  1-C ,  2-C ) :   0.9128 B(  1-C ,  8-O ) :   0.8849
B(  1-C , 11-H ) :   0.9192 B(  2-C ,  3-C ) :   0.9104 B(  2-C , 12-H ) :   0.9241
B(  2-C , 13-H ) :   0.9223 B(  3-C ,  4-C ) :   0.9459 B(  3-C , 14-H ) :   0.9344
B(  3-C , 15-H ) :   0.9277 B(  4-C ,  5-C ) :   1.7815 B(  4-C , 16-H ) :   0.9039
B(  5-C ,  6-C ) :   0.9374 B(  5-C , 17-H ) :   0.9469 B(  6-C ,  7-C ) :   0.8961
B(  6-C , 18-H ) :   0.9118 B(  6-C , 19-H ) :   0.9217 B(  7-C ,  8-O ) :   0.9408
B(  7-C , 20-H ) :   0.9183

MP2 TOTAL ENERGY:     -386.377717456 Eh
FINAL SINGLE POINT ENERGY      -386.377717456164

DIPOLE MOMENT
-------------
                                X             Y             Z
Electronic contribution:      0.15201      -2.31001      -1.67129
Nuclear contribution   :     -0.51604       2.94139       1.61674
                        -----------------------------------------
Total Dipole Moment    :     -0.36403       0.63138      -0.05455
                        -----------------------------------------
Magnitude (a.u.)       :      0.73085
Magnitude (Debye)      :      1.85767

                             ****ORCA TERMINATED NORMALLY****
TOTAL RUN TIME: 0 days 0 hours 22 minutes 13 seconds 33 msec
