                         Program Version 3.0.3 - RELEASE   -
|  1> ! RI-MP2 RIJK def2-TZVP def2-TZVP/C def2-TZVP/JK TIGHTSCF
|  2> % maxcore 2000
|  3> % mp2 density relaxed end
|  4> *xyz 0 1
|  5>  C       -0.1013977551     1.5644129630     0.0195757016
|  6>  C        0.0404749349     0.0624032231     0.0353463798
|  7>  O       -1.0798748449    -0.6243144330    -0.4692210778
|  8>  C        1.3340134909    -0.6729774704    -0.2405076483
|  9>  O        2.5553721171     0.0412544699    -0.0866022846
| 10>  C        2.5863859097     0.3909328044     1.2265987690
| 11>  N        1.6341363304     0.0294189921     1.9859062333
| 12>  C        0.7063422382    -0.7266967948     1.1575741881
| 13>  C        0.0447758150    -1.9062548756     1.8194566494
| 14>  H        0.7210744607     2.0685738417     0.5275904994
| 15>  H       -0.1389515934     1.9357514153    -1.0117611212
| 16>  H       -1.0344334321     1.8444494703     0.5175936546
| 17>  H       -1.1406843133    -0.4322161855    -1.4122855816
| 18>  H        1.3871428565    -1.4749389136    -0.9669603044
| 19>  H        3.4542723177     0.9683559550     1.5213623042
| 20>  H       -0.5313748697    -1.5720322484     2.6879227915
| 21>  H       -0.6317482566    -2.4082884111     1.1272989774
| 22>  H        0.7974149940    -2.6194400423     2.1694142694
| 23> *
| 24>
| 25>                          ****END OF INPUT****

CARTESIAN COORDINATES (ANGSTROEM)
---------------------------------
  C     -0.101398    1.564413    0.019576
  C      0.040475    0.062403    0.035346
  O     -1.079875   -0.624314   -0.469221
  C      1.334013   -0.672977   -0.240508
  O      2.555372    0.041254   -0.086602
  C      2.586386    0.390933    1.226599
  N      1.634136    0.029419    1.985906
  C      0.706342   -0.726697    1.157574
  C      0.044776   -1.906255    1.819457
  H      0.721074    2.068574    0.527590
  H     -0.138952    1.935751   -1.011761
  H     -1.034433    1.844449    0.517594
  H     -1.140684   -0.432216   -1.412286
  H      1.387143   -1.474939   -0.966960
  H      3.454272    0.968356    1.521362
  H     -0.531375   -1.572032    2.687923
  H     -0.631748   -2.408288    1.127299
  H      0.797415   -2.619440    2.169414

 Total Charge           Charge          ....    0
 Multiplicity           Mult            ....    1
 Number of Electrons    NEL             ....   68
 Basis Dimension        Dim             ....  333

ORBITAL ENERGIES
----------------

  NO   OCC          E(Eh)            E(eV)
   0   2.0000     -20.608193      -560.7775
   1   2.0000     -20.573727      -559.8396
   2   2.0000     -15.555360      -423.2829
   3   2.0000     -11.336863      -308.4917
   4   2.0000     -11.299733      -307.4814
   5   2.0000     -11.292036      -307.2719
   6   2.0000     -11.273250      -306.7607
   7   2.0000     -11.225601      -305.4641
   8   2.0000     -11.214023      -305.1491
   9   2.0000      -1.454238       -39.5718
  10   2.0000      -1.384616       -37.6773
  11   2.0000      -1.228821       -33.4379
  12   2.0000      -1.116128       -30.3714
  13   2.0000      -0.997362       -27.1396
  14   2.0000      -0.955571       -26.0024
  15   2.0000      -0.868352       -23.6291
  16   2.0000      -0.812806       -22.1176
  17   2.0000      -0.756292       -20.5797
  18   2.0000      -0.712226       -19.3807
  19   2.0000      -0.694597       -18.9009
  20   2.0000      -0.663541       -18.0559
  21   2.0000      -0.626177       -17.0391
  22   2.0000      -0.598987       -16.2993
  23   2.0000      -0.589013       -16.0278
  24   2.0000      -0.566306       -15.4100
  25   2.0000      -0.561866       -15.2892
  26   2.0000      -0.553158       -15.0522
  27   2.0000      -0.548035       -14.9128
  28   2.0000      -0.525586       -14.3019
  29   2.0000      -0.502425       -13.6717
  30   2.0000      -0.466589       -12.6965
  31   2.0000      -0.458932       -12.4882
  32   2.0000      -0.385866       -10.4999
  33   2.0000      -0.361944        -9.8490
  34   0.0000       0.126124         3.4320
  35   0.0000       0.155736         4.2378
  36   0.0000       0.168434         4.5833
  37   0.0000       0.172309         4.6888
  38   0.0000       0.179216         4.8767

MULLIKEN ATOMIC CHARGES
-----------------------
   0 C :   -0.398990
   1 C :    0.146813
   2 O :   -0.464775
   3 C :   -0.029958
   4 O :   -0.260255
   5 C :    0.074504
   6 N :   -0.275393
   7 C :    0.170110
   8 C :   -0.419558
   9 H :    0.141282
  10 H :    0.124679
  11 H :    0.149165
  12 H :    0.323265
  13 H :    0.149677
  14 H :    0.146725
  15 H :    0.139508
  16 H :    0.151862
  17 H :    0.131339
Sum of atomic charges:    0.0000000

LOEWDIN ATOMIC CHARGES
----------------------
   0 C :   -0.268548
   1 C :   -0.339326
   2 O :    0.033188
   3 C :   -0.204975
   4 O :    0.254789
   5 C :   -0.337264
   6 N :    0.122071
   7 C :   -0.252009
   8 C :   -0.263034
   9 H :    0.135608
  10 H :    0.127109
  11 H :    0.135434
  12 H :    0.183581
  13 H :    0.141491
  14 H :    0.134277
  15 H :    0.134139
  16 H :    0.134449
  17 H :    0.129019

  Mayer bond orders larger than 0.1
B(  0-C ,  1-C ) :   0.9211 B(  0-C ,  9-H ) :   0.9227 B(  0-C , 10-H ) :   0.9238
B(  0-C , 11-H ) :   0.9414 B(  1-C ,  2-O ) :   0.9559 B(  1-C ,  3-C ) :   0.8569
B(  1-C ,  7-C ) :   0.8504 B(  2-O , 12-H ) :   0.8367 B(  3-C ,  4-O ) :   0.8991
B(  3-C ,  7-C ) :   0.8518 B(  3-C , 13-H ) :   0.9227 B(  4-O ,  5-C ) :   1.0684
B(  5-C ,  6-N ) :   1.7960 B(  5-C , 14-H ) :   0.9285 B(  6-N ,  7-C ) :   0.9254
B(  7-C ,  8-C ) :   0.8936 B(  8-C , 15-H ) :   0.9372 B(  8-C , 16-H ) :   0.9292
B(  8-C , 17-H ) :   0.9347

MP2 TOTAL ENERGY:     -438.361287118 Eh
FINAL SINGLE POINT ENERGY      -438.361287117690

DIPOLE MOMENT
-------------
                                X             Y             Z
Electronic contribution:      4.28358      -0.00772      -0.84303
Nuclear contribution   :     -4.25202       0.14619       0.01672
                        -----------------------------------------
Total Dipole Moment    :      0.03156       0.13847      -0.82631
                        -----------------------------------------
Magnitude (a.u.)       :      0.83842
Magnitude (Debye)      :      2.13111

                             ****ORCA TERMINATED NORMALLY****
TOTAL RUN TIME: 0 days 0 hours 19 minutes 29 seconds 672 msec
