                         Program Version 3.0.3 - RELEASE   -
|  1> ! RI-MP2 RIJK def2-TZVP def2-TZVP/C def2-TZVP/JK TIGHTSCF
|  2> % maxcore 2000
|  3> % mp2 density relaxed end
|  4> *xyz 0 1
|  5>  C        0.0720023069     1.5156906274     0.1348730074
|  6>  C       -0.0591703911    -0.0050712661    -0.0613854657
|  7>  C        0.6954520374    -0.5127654075    -1.2520671289
|  8>  N        0.0752170392    -0.7973583444    -2.3737203009
|  9>  O        1.0461674788    -1.2287529985    -3.2591436829
| 10>  C        2.2485323903    -1.1818105290    -2.6449704539
| 11>  C        2.1060763706    -0.7405396970    -1.3665375462
| 12>  N        3.0462351680    -0.6265899397    -0.3327406808
| 13>  H        1.1149173294     1.8237392291     0.2700523946
| 14>  H       -0.3192118778     2.0517602883    -0.7343522228
| 15>  H       -0.4852952325     1.8400306388     1.0186449553
| 16>  H        0.3004210840    -0.5266032990     0.8339009028
| 17>  H       -1.1129207108    -0.2684651301    -0.1880029425
| 18>  H        3.0950199041    -1.5009540585    -3.2320118392
| 19>  H        4.0015202717    -0.6747606902    -0.6622241756
| 20>  H        2.9285349819     0.2165957764     0.2146439393
| 21> *
| 22>
| 23>                          ****END OF INPUT****

CARTESIAN COORDINATES (ANGSTROEM)
---------------------------------
  C      0.072002    1.515691    0.134873
  C     -0.059170   -0.005071   -0.061385
  C      0.695452   -0.512765   -1.252067
  N      0.075217   -0.797358   -2.373720
  O      1.046167   -1.228753   -3.259144
  C      2.248532   -1.181811   -2.644970
  C      2.106076   -0.740540   -1.366538
  N      3.046235   -0.626590   -0.332741
  H      1.114917    1.823739    0.270052
  H     -0.319212    2.051760   -0.734352
  H     -0.485295    1.840031    1.018645
  H      0.300421   -0.526603    0.833901
  H     -1.112921   -0.268465   -0.188003
  H      3.095020   -1.500954   -3.232012
  H      4.001520   -0.674761   -0.662224
  H      2.928535    0.216596    0.214644

 Total Charge           Charge          ....    0
 Multiplicity           Mult            ....    1
 Number of Electrons    NEL             ....   60
 Basis Dimension        Dim             ....  296

ORBITAL ENERGIES
----------------

  NO   OCC          E(Eh)            E(eV)
   0   2.0000     -20.629653      -561.3614
   1   2.0000     -15.612038      -424.8251
   2   2.0000     -15.577285      -423.8795
   3   2.0000     -11.292218      -307.2769
   4   2.0000     -11.274962      -306.8073
   5   2.0000     -11.272532      -306.7412
   6   2.0000     -11.243180      -305.9425
   7   2.0000     -11.231383      -305.6215
   8   2.0000      -1.480799       -40.2946
   9   2.0000      -1.226720       -33.3807
  10   2.0000      -1.160107       -31.5681
  11   2.0000      -1.047034       -28.4912
  12   2.0000      -1.026719       -27.9384
  13   2.0000      -0.885416       -24.0934
  14   2.0000      -0.822326       -22.3766
  15   2.0000      -0.776094       -21.1186
  16   2.0000      -0.713714       -19.4211
  17   2.0000      -0.676128       -18.3984
  18   2.0000      -0.655494       -17.8369
  19   2.0000      -0.642957       -17.4958
  20   2.0000      -0.613951       -16.7065
  21   2.0000      -0.588649       -16.0180
  22   2.0000      -0.563567       -15.3354
  23   2.0000      -0.539475       -14.6798
  24   2.0000      -0.511507       -13.9188
  25   2.0000      -0.505228       -13.7480
  26   2.0000      -0.498772       -13.5723
  27   2.0000      -0.466384       -12.6909
  28   2.0000      -0.391777       -10.6608
  29   2.0000      -0.326042        -8.8720
  30   0.0000       0.116232         3.1628
  31   0.0000       0.128419         3.4945
  32   0.0000       0.152646         4.1537
  33   0.0000       0.174303         4.7430
  34   0.0000       0.180513         4.9120

MULLIKEN ATOMIC CHARGES
-----------------------
   0 C :   -0.384961
   1 C :   -0.274892
   2 C :    0.110973
   3 N :   -0.125692
   4 O :   -0.113347
   5 C :   -0.059267
   6 C :    0.056715
   7 N :   -0.529516
   8 H :    0.105399
   9 H :    0.144141
  10 H :    0.136691
  11 H :    0.141120
  12 H :    0.143245
  13 H :    0.151409
  14 H :    0.244916
  15 H :    0.253067
Sum of atomic charges:   -0.0000000

LOEWDIN ATOMIC CHARGES
----------------------
   0 C :   -0.306578
   1 C :   -0.251719
   2 C :   -0.265820
   3 N :    0.050986
   4 O :    0.263472
   5 C :   -0.265914
   6 C :   -0.274387
   7 N :   -0.086267
   8 H :    0.114184
   9 H :    0.127167
  10 H :    0.123013
  11 H :    0.148180
  12 H :    0.152293
  13 H :    0.134213
  14 H :    0.169391
  15 H :    0.167788

  Mayer bond orders larger than 0.1
B(  0-C ,  1-C ) :   0.9116 B(  0-C ,  8-H ) :   0.9369 B(  0-C ,  9-H ) :   0.9368
B(  0-C , 10-H ) :   0.9368 B(  1-C ,  2-C ) :   0.8778 B(  1-C , 11-H ) :   0.9413
B(  1-C , 12-H ) :   0.9379 B(  2-C ,  3-N ) :   1.5894 B(  2-C ,  6-C ) :   1.1810
B(  3-N ,  4-O ) :   0.8947 B(  3-N ,  5-C ) :   0.1067 B(  4-O ,  5-C ) :   1.0863
B(  5-C ,  6-C ) :   1.5192 B(  5-C , 13-H ) :   0.9279 B(  6-C ,  7-N ) :   0.9917
B(  7-N , 14-H ) :   0.8826 B(  7-N , 15-H ) :   0.8735

MP2 TOTAL ENERGY:     -379.275630944 Eh
FINAL SINGLE POINT ENERGY      -379.275630944452

DIPOLE MOMENT
-------------
                                X             Y             Z
Electronic contribution:      0.95432      -5.36985      -7.24333
Nuclear contribution   :      0.17721       5.95752       8.01382
                        -----------------------------------------
Total Dipole Moment    :      1.13153       0.58767       0.77049
                        -----------------------------------------
Magnitude (a.u.)       :      1.48976
Magnitude (Debye)      :      3.78666

                             ****ORCA TERMINATED NORMALLY****
TOTAL RUN TIME: 0 days 0 hours 11 minutes 31 seconds 710 msec
