                         Program Version 3.0.3 - RELEASE   -
|  1> ! RI-MP2 RIJK def2-TZVP def2-TZVP/C def2-TZVP/JK TIGHTSCF
|  2> % maxcore 2000
|  3> % mp2 density relaxed end
|  4> *xyz 0 1
|  5>  O        0.0772157939     1.4313546285     0.1915976264
|  6>  C        0.0650031603     0.0175387123     0.1517753230
|  7>  C       -1.3555221263    -0.5435818019    -0.0574273104
|  8>  C       -1.3700440268    -2.0353196121    -0.0896062271
|  9>  N       -0.8149121343    -2.8084775898    -1.0107456243
| 10>  C       -1.0807014320    -4.0657686302    -0.5613585458
| 11>  N       -1.7596069428    -4.1304619019     0.5714391447
| 12>  N       -1.9323138083    -2.8171987718     0.8588961499
| 13>  H       -0.0922014120     1.7565574698    -0.6983273834
| 14>  H        0.7288043142    -0.3841275621    -0.6253207664
| 15>  H        0.4535077762    -0.3164759291     1.1193877898
| 16>  H       -2.0095408446    -0.1677866586     0.7361989705
| 17>  H       -1.7491229586    -0.1677631214    -1.0092317182
| 18>  H       -0.7678953229    -4.9571976956    -1.0842877869
| 19>  H       -2.4375097857    -2.5485688061     1.6876198082
| 20> *
| 21>
| 22>                          ****END OF INPUT****

CARTESIAN COORDINATES (ANGSTROEM)
---------------------------------
  O      0.077216    1.431355    0.191598
  C      0.065003    0.017539    0.151775
  C     -1.355522   -0.543582   -0.057427
  C     -1.370044   -2.035320   -0.089606
  N     -0.814912   -2.808478   -1.010746
  C     -1.080701   -4.065769   -0.561359
  N     -1.759607   -4.130462    0.571439
  N     -1.932314   -2.817199    0.858896
  H     -0.092201    1.756557   -0.698327
  H      0.728804   -0.384128   -0.625321
  H      0.453508   -0.316476    1.119388
  H     -2.009541   -0.167787    0.736199
  H     -1.749123   -0.167763   -1.009232
  H     -0.767895   -4.957198   -1.084288
  H     -2.437510   -2.548569    1.687620

 Total Charge           Charge          ....    0
 Multiplicity           Mult            ....    1
 Number of Electrons    NEL             ....   60
 Basis Dimension        Dim             ....  290

ORBITAL ENERGIES
----------------

  NO   OCC          E(Eh)            E(eV)
   0   2.0000     -20.569517      -559.7250
   1   2.0000     -15.650211      -425.8639
   2   2.0000     -15.593240      -424.3136
   3   2.0000     -15.554851      -423.2690
   4   2.0000     -11.324766      -308.1626
   5   2.0000     -11.292866      -307.2945
   6   2.0000     -11.287032      -307.1358
   7   2.0000     -11.258280      -306.3534
   8   2.0000      -1.412663       -38.4405
   9   2.0000      -1.374778       -37.4096
  10   2.0000      -1.198389       -32.6098
  11   2.0000      -1.131023       -30.7767
  12   2.0000      -1.035057       -28.1653
  13   2.0000      -0.890672       -24.2364
  14   2.0000      -0.845596       -23.0098
  15   2.0000      -0.825069       -22.4513
  16   2.0000      -0.735294       -20.0084
  17   2.0000      -0.706963       -19.2375
  18   2.0000      -0.656584       -17.8666
  19   2.0000      -0.635315       -17.2878
  20   2.0000      -0.621619       -16.9151
  21   2.0000      -0.602540       -16.3959
  22   2.0000      -0.571851       -15.5609
  23   2.0000      -0.559129       -15.2147
  24   2.0000      -0.504736       -13.7346
  25   2.0000      -0.501471       -13.6457
  26   2.0000      -0.461824       -12.5669
  27   2.0000      -0.449186       -12.2230
  28   2.0000      -0.418240       -11.3809
  29   2.0000      -0.366759        -9.9800
  30   0.0000       0.117702         3.2028
  31   0.0000       0.133806         3.6411
  32   0.0000       0.152010         4.1364
  33   0.0000       0.175239         4.7685
  34   0.0000       0.182090         4.9549

MULLIKEN ATOMIC CHARGES
-----------------------
   0 O :   -0.466643
   1 C :   -0.042981
   2 C :   -0.251613
   3 C :    0.185231
   4 N :   -0.326515
   5 C :    0.035332
   6 N :   -0.217846
   7 N :   -0.138042
   8 H :    0.318866
   9 H :    0.133835
  10 H :    0.113630
  11 H :    0.122649
  12 H :    0.130664
  13 H :    0.140345
  14 H :    0.263086
Sum of atomic charges:   -0.0000000

LOEWDIN ATOMIC CHARGES
----------------------
   0 O :   -0.044717
   1 C :   -0.339045
   2 C :   -0.244266
   3 C :   -0.332583
   4 N :    0.095608
   5 C :   -0.344692
   6 N :    0.015088
   7 N :    0.144149
   8 H :    0.175650
   9 H :    0.124410
  10 H :    0.130005
  11 H :    0.145634
  12 H :    0.151269
  13 H :    0.130682
  14 H :    0.192807

  Mayer bond orders larger than 0.1
B(  0-O ,  1-C ) :   0.9460 B(  0-O ,  8-H ) :   0.8460 B(  1-C ,  2-C ) :   0.8980
B(  1-C ,  9-H ) :   0.9415 B(  1-C , 10-H ) :   0.9227 B(  2-C ,  3-C ) :   0.8601
B(  2-C , 11-H ) :   0.9445 B(  2-C , 12-H ) :   0.9220 B(  3-C ,  4-N ) :   1.4676
B(  3-C ,  7-N ) :   1.2264 B(  4-N ,  5-C ) :   1.2912 B(  5-C ,  6-N ) :   1.5194
B(  5-C , 13-H ) :   0.9388 B(  6-N ,  7-N ) :   1.0705 B(  7-N , 14-H ) :   0.8608

MP2 TOTAL ENERGY:     -395.359612210 Eh
FINAL SINGLE POINT ENERGY      -395.359612209766

DIPOLE MOMENT
-------------
                                X             Y             Z
Electronic contribution:     -1.54260      -4.71682       0.18390
Nuclear contribution   :      1.04242       5.27923      -0.01568
                        -----------------------------------------
Total Dipole Moment    :     -0.50017       0.56242       0.16822
                        -----------------------------------------
Magnitude (a.u.)       :      0.77122
Magnitude (Debye)      :      1.96029

                             ****ORCA TERMINATED NORMALLY****
TOTAL RUN TIME: 0 days 0 hours 10 minutes 2 seconds 945 msec
