                         Program Version 3.0.3 - RELEASE   -
|  1> ! RI-MP2 RIJK def2-TZVP def2-TZVP/C def2-TZVP/JK TIGHTSCF
|  2> % maxcore 2000
|  3> % mp2 density relaxed end
|  4> *xyz 0 1
|  5>  C        0.0086617017     1.4435417893     0.0271408123
|  6>  N        0.0061313931    -0.0041188821     0.0118883097
|  7>  C       -0.0250541597    -0.7852253187    -1.1242024769
|  8>  C       -0.0174483764    -2.1005933591    -0.7471027689
|  9>  C        0.0200587398    -2.1292586769     0.6837300024
| 10>  C        0.0398922447    -3.2728455130     1.5143766827
| 11>  C        0.0567602590    -4.2500282194     2.2210213471
| 12>  C        0.0338769072    -0.8089461370     1.1230117502
| 13>  C        0.0713586810    -0.2721435289     2.5129373058
| 14>  H        0.9107479363     1.8341718153     0.5098087387
| 15>  H       -0.0183097396     1.8078065266    -1.0008906980
| 16>  H       -0.8652020680     1.8367285953     0.5573033047
| 17>  H       -0.0498299665    -0.3268285546    -2.0999736915
| 18>  H       -0.0360059135    -2.9590115318    -1.3991140427
| 19>  H        0.0715360033    -5.1118349529     2.8399714867
| 20>  H        0.9609567116     0.3427422580     2.6999681126
| 21>  H       -0.8047891959     0.3462221838     2.7462562478
| 22>  H        0.0881224920    -1.1078971139     3.2152549273
| 23> *
| 24>
| 25>                          ****END OF INPUT****

CARTESIAN COORDINATES (ANGSTROEM)
---------------------------------
  C      0.008662    1.443542    0.027141
  N      0.006131   -0.004119    0.011888
  C     -0.025054   -0.785225   -1.124202
  C     -0.017448   -2.100593   -0.747103
  C      0.020059   -2.129259    0.683730
  C      0.039892   -3.272846    1.514377
  C      0.056760   -4.250028    2.221021
  C      0.033877   -0.808946    1.123012
  C      0.071359   -0.272144    2.512937
  H      0.910748    1.834172    0.509809
  H     -0.018310    1.807807   -1.000891
  H     -0.865202    1.836729    0.557303
  H     -0.049830   -0.326829   -2.099974
  H     -0.036006   -2.959012   -1.399114
  H      0.071536   -5.111835    2.839971
  H      0.960957    0.342742    2.699968
  H     -0.804789    0.346222    2.746256
  H      0.088122   -1.107897    3.215255

 Total Charge           Charge          ....    0
 Multiplicity           Mult            ....    1
 Number of Electrons    NEL             ....   64
 Basis Dimension        Dim             ....  333

ORBITAL ENERGIES
----------------

  NO   OCC          E(Eh)            E(eV)
   0   2.0000     -15.611202      -424.8024
   1   2.0000     -11.279072      -306.9192
   2   2.0000     -11.268446      -306.6300
   3   2.0000     -11.251460      -306.1678
   4   2.0000     -11.233378      -305.6757
   5   2.0000     -11.227155      -305.5064
   6   2.0000     -11.225302      -305.4560
   7   2.0000     -11.213808      -305.1432
   8   2.0000     -11.209036      -305.0134
   9   2.0000      -1.308611       -35.6091
  10   2.0000      -1.096981       -29.8504
  11   2.0000      -1.039193       -28.2779
  12   2.0000      -1.012634       -27.5552
  13   2.0000      -0.939782       -25.5728
  14   2.0000      -0.922484       -25.1021
  15   2.0000      -0.809660       -22.0320
  16   2.0000      -0.757287       -20.6068
  17   2.0000      -0.705784       -19.2054
  18   2.0000      -0.688016       -18.7219
  19   2.0000      -0.647773       -17.6268
  20   2.0000      -0.631174       -17.1751
  21   2.0000      -0.589053       -16.0289
  22   2.0000      -0.577567       -15.7164
  23   2.0000      -0.574293       -15.6273
  24   2.0000      -0.557718       -15.1763
  25   2.0000      -0.541844       -14.7443
  26   2.0000      -0.525122       -14.2893
  27   2.0000      -0.522921       -14.2294
  28   2.0000      -0.427436       -11.6311
  29   2.0000      -0.379770       -10.3341
  30   2.0000      -0.324972        -8.8429
  31   2.0000      -0.284317        -7.7366
  32   0.0000       0.125560         3.4167
  33   0.0000       0.145871         3.9694
  34   0.0000       0.159598         4.3429
  35   0.0000       0.170284         4.6337
  36   0.0000       0.174560         4.7500

MULLIKEN ATOMIC CHARGES
-----------------------
   0 C :   -0.332344
   1 N :   -0.014102
   2 C :   -0.104206
   3 C :   -0.283831
   4 C :   -0.050356
   5 C :    0.064316
   6 C :   -0.193098
   7 C :   -0.021719
   8 C :   -0.429905
   9 H :    0.151461
  10 H :    0.152346
  11 H :    0.151456
  12 H :    0.144941
  13 H :    0.133928
  14 H :    0.183562
  15 H :    0.139879
  16 H :    0.139856
  17 H :    0.167817
Sum of atomic charges:   -0.0000000

LOEWDIN ATOMIC CHARGES
----------------------
   0 C :   -0.267076
   1 N :    0.250000
   2 C :   -0.214101
   3 C :   -0.149605
   4 C :   -0.162089
   5 C :   -0.075718
   6 C :   -0.104052
   7 C :   -0.192702
   8 C :   -0.270682
   9 H :    0.124248
  10 H :    0.129010
  11 H :    0.124255
  12 H :    0.134563
  13 H :    0.143946
  14 H :    0.124327
  15 H :    0.130203
  16 H :    0.130194
  17 H :    0.145281

  Mayer bond orders larger than 0.1
B(  0-C ,  1-N ) :   0.8694 B(  0-C ,  9-H ) :   0.9300 B(  0-C , 10-H ) :   0.9313
B(  0-C , 11-H ) :   0.9300 B(  1-N ,  2-C ) :   1.1166 B(  1-N ,  7-C ) :   1.2040
B(  2-C ,  3-C ) :   1.4857 B(  2-C , 12-H ) :   0.9120 B(  3-C ,  4-C ) :   1.2322
B(  3-C , 13-H ) :   0.9307 B(  4-C ,  5-C ) :   1.1650 B(  4-C ,  6-C ) :  -0.1363
B(  4-C ,  7-C ) :   1.4040 B(  5-C ,  6-C ) :   2.6098 B(  6-C , 14-H ) :   0.8805
B(  7-C ,  8-C ) :   0.8563 B(  8-C , 15-H ) :   0.9384 B(  8-C , 16-H ) :   0.9384
B(  8-C , 17-H ) :   0.9422

MP2 TOTAL ENERGY:     -364.149318874 Eh
FINAL SINGLE POINT ENERGY      -364.149318873971

DIPOLE MOMENT
-------------
                                X             Y             Z
Electronic contribution:     -0.05681      -6.21326      -1.77567
Nuclear contribution   :      0.05669       7.47968       1.69218
                        -----------------------------------------
Total Dipole Moment    :     -0.00011       1.26642      -0.08349
                        -----------------------------------------
Magnitude (a.u.)       :      1.26917
Magnitude (Debye)      :      3.22598

                             ****ORCA TERMINATED NORMALLY****
TOTAL RUN TIME: 0 days 0 hours 18 minutes 39 seconds 560 msec
