                         Program Version 3.0.3 - RELEASE   -
|  1> ! RI-MP2 RIJK def2-TZVP def2-TZVP/C def2-TZVP/JK TIGHTSCF
|  2> % maxcore 2000
|  3> % mp2 density relaxed end
|  4> *xyz 0 1
|  5>  C       -0.4012099804     1.3928312474    -0.0756315449
|  6>  C       -0.0390068089    -0.0658238568    -0.0162139388
|  7>  N        0.1199521124    -0.7358952856     1.0584806586
|  8>  O       -0.0532378735     0.0582780540     2.2035359326
|  9>  C        0.1668913691    -0.8040957311    -1.3259162047
| 10>  C        1.4466167031    -0.3468880383    -2.0173092133
| 11>  C       -0.0996014276    -2.3283641903    -1.2982175058
| 12>  C       -1.3637545931    -1.9855414345    -2.1062521724
| 13>  O       -0.9944230403    -0.5904545663    -2.1859027991
| 14>  H        0.4673356558     2.0181520274     0.1606383925
| 15>  H       -0.7717222173     1.6537011222    -1.0677208688
| 16>  H       -1.1663131404     1.6187774843     0.6707492911
| 17>  H        0.0563821230    -0.5839390862     2.9126723028
| 18>  H        2.3187676740    -0.6024450719    -1.4066531857
| 19>  H        1.5396394389    -0.8341612131    -2.9918684975
| 20>  H        1.4412414949     0.7357669974    -2.1767400815
| 21>  H        0.6439210177    -2.9117501399    -1.8439014655
| 22>  H       -0.2496309178    -2.7523354626    -0.3078237026
| 23>  H       -1.4477080300    -2.4381106489    -3.1005998159
| 24>  H       -2.3116185894    -2.1246159470    -1.5718340812
| 25> *
| 26>
| 27>                          ****END OF INPUT****

CARTESIAN COORDINATES (ANGSTROEM)
---------------------------------
  C     -0.401210    1.392831   -0.075632
  C     -0.039007   -0.065824   -0.016214
  N      0.119952   -0.735895    1.058481
  O     -0.053238    0.058278    2.203536
  C      0.166891   -0.804096   -1.325916
  C      1.446617   -0.346888   -2.017309
  C     -0.099601   -2.328364   -1.298218
  C     -1.363755   -1.985541   -2.106252
  O     -0.994423   -0.590455   -2.185903
  H      0.467336    2.018152    0.160638
  H     -0.771722    1.653701   -1.067721
  H     -1.166313    1.618777    0.670749
  H      0.056382   -0.583939    2.912672
  H      2.318768   -0.602445   -1.406653
  H      1.539639   -0.834161   -2.991868
  H      1.441241    0.735767   -2.176740
  H      0.643921   -2.911750   -1.843901
  H     -0.249631   -2.752335   -0.307824
  H     -1.447708   -2.438111   -3.100600
  H     -2.311619   -2.124616   -1.571834

 Total Charge           Charge          ....    0
 Multiplicity           Mult            ....    1
 Number of Electrons    NEL             ....   70
 Basis Dimension        Dim             ....  345

ORBITAL ENERGIES
----------------

  NO   OCC          E(Eh)            E(eV)
   0   2.0000     -20.590075      -560.2844
   1   2.0000     -20.548708      -559.1588
   2   2.0000     -15.612461      -424.8367
   3   2.0000     -11.299219      -307.4674
   4   2.0000     -11.277969      -306.8892
   5   2.0000     -11.276542      -306.8503
   6   2.0000     -11.226441      -305.4870
   7   2.0000     -11.223533      -305.4079
   8   2.0000     -11.223430      -305.4051
   9   2.0000      -1.417749       -38.5789
  10   2.0000      -1.379577       -37.5402
  11   2.0000      -1.167524       -31.7699
  12   2.0000      -1.032897       -28.1065
  13   2.0000      -1.003494       -27.3065
  14   2.0000      -0.969051       -26.3692
  15   2.0000      -0.884247       -24.0616
  16   2.0000      -0.804518       -21.8920
  17   2.0000      -0.709911       -19.3177
  18   2.0000      -0.696210       -18.9448
  19   2.0000      -0.671918       -18.2838
  20   2.0000      -0.664259       -18.0754
  21   2.0000      -0.625137       -17.0108
  22   2.0000      -0.611246       -16.6329
  23   2.0000      -0.600421       -16.3383
  24   2.0000      -0.575467       -15.6593
  25   2.0000      -0.560012       -15.2387
  26   2.0000      -0.545223       -14.8363
  27   2.0000      -0.541195       -14.7267
  28   2.0000      -0.532369       -14.4865
  29   2.0000      -0.520301       -14.1581
  30   2.0000      -0.462914       -12.5965
  31   2.0000      -0.461764       -12.5652
  32   2.0000      -0.434468       -11.8225
  33   2.0000      -0.413563       -11.2536
  34   2.0000      -0.382843       -10.4177
  35   0.0000       0.135733         3.6935
  36   0.0000       0.153928         4.1886
  37   0.0000       0.157840         4.2950
  38   0.0000       0.163442         4.4475
  39   0.0000       0.177271         4.8238

MULLIKEN ATOMIC CHARGES
-----------------------
   0 C :   -0.461075
   1 C :    0.034761
   2 N :   -0.114980
   3 O :   -0.370482
   4 C :    0.328019
   5 C :   -0.422208
   6 C :   -0.309101
   7 C :   -0.022148
   8 O :   -0.355035
   9 H :    0.149469
  10 H :    0.165817
  11 H :    0.159709
  12 H :    0.334905
  13 H :    0.140322
  14 H :    0.134190
  15 H :    0.140435
  16 H :    0.122337
  17 H :    0.150354
  18 H :    0.099816
  19 H :    0.094896
Sum of atomic charges:   -0.0000000

LOEWDIN ATOMIC CHARGES
----------------------
   0 C :   -0.279911
   1 C :   -0.264506
   2 N :    0.026805
   3 O :   -0.070830
   4 C :   -0.309785
   5 C :   -0.259999
   6 C :   -0.203052
   7 C :   -0.269611
   8 O :    0.149686
   9 H :    0.138435
  10 H :    0.137893
  11 H :    0.138887
  12 H :    0.169090
  13 H :    0.133424
  14 H :    0.129613
  15 H :    0.131038
  16 H :    0.133712
  17 H :    0.136007
  18 H :    0.115763
  19 H :    0.117342

  Mayer bond orders larger than 0.1
B(  0-C ,  1-C ) :   0.9172 B(  0-C ,  9-H ) :   0.9180 B(  0-C , 10-H ) :   0.9295
B(  0-C , 11-H ) :   0.9219 B(  1-C ,  2-N ) :   1.8181 B(  1-C ,  4-C ) :   0.9382
B(  2-N ,  3-O ) :   0.8195 B(  3-O , 12-H ) :   0.8456 B(  4-C ,  5-C ) :   0.8956
B(  4-C ,  6-C ) :   0.8752 B(  4-C ,  8-O ) :   0.8610 B(  5-C , 13-H ) :   0.9331
B(  5-C , 14-H ) :   0.9298 B(  5-C , 15-H ) :   0.9318 B(  6-C ,  7-C ) :   0.9892
B(  6-C , 16-H ) :   0.9319 B(  6-C , 17-H ) :   0.9183 B(  7-C ,  8-O ) :   0.9513
B(  7-C , 18-H ) :   0.9163 B(  7-C , 19-H ) :   0.9153

MP2 TOTAL ENERGY:     -439.510028504 Eh
FINAL SINGLE POINT ENERGY      -439.510028504085

DIPOLE MOMENT
-------------
                                X             Y             Z
Electronic contribution:     -1.66027      -0.56647       3.96970
Nuclear contribution   :      1.91968       0.14806      -3.81258
                        -----------------------------------------
Total Dipole Moment    :      0.25941      -0.41841       0.15712
                        -----------------------------------------
Magnitude (a.u.)       :      0.51677
Magnitude (Debye)      :      1.31352

                             ****ORCA TERMINATED NORMALLY****
TOTAL RUN TIME: 0 days 0 hours 17 minutes 49 seconds 847 msec
