                         Program Version 3.0.3 - RELEASE   -
|  1> ! RI-MP2 RIJK def2-TZVP def2-TZVP/C def2-TZVP/JK TIGHTSCF
|  2> % maxcore 2000
|  3> % mp2 density relaxed end
|  4> *xyz 0 1
|  5>  C       -0.1156943582    -1.2326987070    -0.2118988163
|  6>  C       -0.0362200939    -0.0423171147    -0.0610677403
|  7>  C        0.0560023786     1.3888954601     0.0895207421
|  8>  C       -0.3650471408     2.2697507615    -1.1192883346
|  9>  O        0.8503243017     3.0454247019    -1.0480862034
| 10>  C        1.3508130371     2.2755524661     0.0528293730
| 11>  C        0.9208299964     2.8474384438     1.4165901512
| 12>  N       -0.2520184053     1.9283879810     1.4341220725
| 13>  H       -0.1822594316    -2.2858019319    -0.3320621363
| 14>  H       -0.4407344069     1.7291101506    -2.0697285171
| 15>  H       -1.2683212295     2.8742747182    -0.9657349991
| 16>  H        2.3694691593     1.9165802941    -0.0999490643
| 17>  H        1.6021878544     2.6573604847     2.2533678585
| 18>  H        0.7010826311     3.9189410704     1.3638209572
| 19>  H       -1.1644394924     2.3640396211     1.5217929469
| 20> *
| 21>
| 22>                          ****END OF INPUT****

CARTESIAN COORDINATES (ANGSTROEM)
---------------------------------
  C     -0.115694   -1.232699   -0.211899
  C     -0.036220   -0.042317   -0.061068
  C      0.056002    1.388895    0.089521
  C     -0.365047    2.269751   -1.119288
  O      0.850324    3.045425   -1.048086
  C      1.350813    2.275552    0.052829
  C      0.920830    2.847438    1.416590
  N     -0.252018    1.928388    1.434122
  H     -0.182259   -2.285802   -0.332062
  H     -0.440734    1.729110   -2.069729
  H     -1.268321    2.874275   -0.965735
  H      2.369469    1.916580   -0.099949
  H      1.602188    2.657360    2.253368
  H      0.701083    3.918941    1.363821
  H     -1.164439    2.364040    1.521793

 Total Charge           Charge          ....    0
 Multiplicity           Mult            ....    1
 Number of Electrons    NEL             ....   58
 Basis Dimension        Dim             ....  290

ORBITAL ENERGIES
----------------

  NO   OCC          E(Eh)            E(eV)
   0   2.0000     -20.561988      -559.5201
   1   2.0000     -15.558967      -423.3810
   2   2.0000     -11.299063      -307.4631
   3   2.0000     -11.296488      -307.3931
   4   2.0000     -11.293499      -307.3117
   5   2.0000     -11.261500      -306.4410
   6   2.0000     -11.238307      -305.8099
   7   2.0000     -11.231554      -305.6261
   8   2.0000      -1.400626       -38.1130
   9   2.0000      -1.234213       -33.5846
  10   2.0000      -1.053535       -28.6681
  11   2.0000      -0.983734       -26.7688
  12   2.0000      -0.961415       -26.1614
  13   2.0000      -0.885197       -24.0874
  14   2.0000      -0.787678       -21.4338
  15   2.0000      -0.735195       -20.0057
  16   2.0000      -0.701377       -19.0854
  17   2.0000      -0.693345       -18.8669
  18   2.0000      -0.669763       -18.2252
  19   2.0000      -0.599610       -16.3162
  20   2.0000      -0.575362       -15.6564
  21   2.0000      -0.557286       -15.1645
  22   2.0000      -0.531606       -14.4657
  23   2.0000      -0.522238       -14.2108
  24   2.0000      -0.474477       -12.9112
  25   2.0000      -0.438071       -11.9205
  26   2.0000      -0.395727       -10.7683
  27   2.0000      -0.386538       -10.5182
  28   2.0000      -0.375745       -10.2245
  29   0.0000       0.130931         3.5628
  30   0.0000       0.149329         4.0635
  31   0.0000       0.160818         4.3761
  32   0.0000       0.167025         4.5450
  33   0.0000       0.176917         4.8141

MULLIKEN ATOMIC CHARGES
-----------------------
   0 C :   -0.096829
   1 C :    0.024031
   2 C :   -0.209357
   3 C :    0.018290
   4 O :   -0.323701
   5 C :    0.088653
   6 C :   -0.160210
   7 N :   -0.301575
   8 H :    0.195828
   9 H :    0.107795
  10 H :    0.090901
  11 H :    0.124163
  12 H :    0.111029
  13 H :    0.123282
  14 H :    0.207700
Sum of atomic charges:   -0.0000000

LOEWDIN ATOMIC CHARGES
----------------------
   0 C :   -0.077034
   1 C :   -0.070540
   2 C :   -0.271410
   3 C :   -0.213472
   4 O :    0.141167
   5 C :   -0.210414
   6 C :   -0.245954
   7 N :    0.034295
   8 H :    0.128352
   9 H :    0.126444
  10 H :    0.118945
  11 H :    0.130922
  12 H :    0.124197
  13 H :    0.125878
  14 H :    0.158623

  Mayer bond orders larger than 0.1
B(  0-C ,  1-C ) :   2.6139 B(  0-C ,  2-C ) :  -0.1669 B(  0-C ,  8-H ) :   0.8795
B(  1-C ,  2-C ) :   1.1620 B(  2-C ,  3-C ) :   1.0099 B(  2-C ,  5-C ) :   0.8966
B(  2-C ,  7-N ) :   1.0504 B(  3-C ,  4-O ) :   0.9504 B(  3-C ,  9-H ) :   0.9046
B(  3-C , 10-H ) :   0.8939 B(  4-O ,  5-C ) :   0.9796 B(  5-C ,  6-C ) :   0.8757
B(  5-C , 11-H ) :   0.9167 B(  6-C ,  7-N ) :   0.9726 B(  6-C , 12-H ) :   0.9127
B(  6-C , 13-H ) :   0.9139 B(  7-N , 14-H ) :   0.8695

MP2 TOTAL ENERGY:     -361.941735642 Eh
FINAL SINGLE POINT ENERGY      -361.941735641586

DIPOLE MOMENT
-------------
                                X             Y             Z
Electronic contribution:      0.23825      -1.61726      -1.09271
Nuclear contribution   :     -0.49115       1.59964       1.13763
                        -----------------------------------------
Total Dipole Moment    :     -0.25291      -0.01762       0.04492
                        -----------------------------------------
Magnitude (a.u.)       :      0.25747
Magnitude (Debye)      :      0.65443

                             ****ORCA TERMINATED NORMALLY****
TOTAL RUN TIME: 0 days 0 hours 12 minutes 17 seconds 41 msec
