                         Program Version 3.0.3 - RELEASE   -
|  1> ! RI-MP2 RIJK def2-TZVP def2-TZVP/C def2-TZVP/JK TIGHTSCF
|  2> % maxcore 2000
|  3> % mp2 density relaxed end
|  4> *xyz 0 1
|  5>  N        0.0001715237    -1.2228414953    -0.0598874727
|  6>  C       -0.0153864372    -0.0672096929    -0.0340018910
|  7>  C       -0.0328031935     1.3866516381     0.0297774332
|  8>  C       -0.2688787723     2.0994103747     1.3849643208
|  9>  C        0.9138665496     1.6734380186     2.2832862114
| 10>  C        1.7267550082     2.9261199567     1.9848346451
| 11>  C        2.0143373886     1.6674327766     1.2215967452
| 12>  N        1.3098442099     2.0947905646    -0.0307388415
| 13>  C        0.7068335696     3.2050413065     0.8612001918
| 14>  H       -0.6685313953     1.7891155569    -0.7645996078
| 15>  H       -1.2536068525     2.2670732823     1.8168928820
| 16>  H        0.9178747746     1.0370385145     3.1560943016
| 17>  H        2.3513180045     3.5559017720     2.6014175218
| 18>  H        2.8720427999     1.0097319974     1.2198796314
| 19>  H        0.4285160820     4.1485326394     0.3977315186
| 20> *
| 21>
| 22>                          ****END OF INPUT****

CARTESIAN COORDINATES (ANGSTROEM)
---------------------------------
  N      0.000172   -1.222841   -0.059887
  C     -0.015386   -0.067210   -0.034002
  C     -0.032803    1.386652    0.029777
  C     -0.268879    2.099410    1.384964
  C      0.913867    1.673438    2.283286
  C      1.726755    2.926120    1.984835
  C      2.014337    1.667433    1.221597
  N      1.309844    2.094791   -0.030739
  C      0.706834    3.205041    0.861200
  H     -0.668531    1.789116   -0.764600
  H     -1.253607    2.267073    1.816893
  H      0.917875    1.037039    3.156094
  H      2.351318    3.555902    2.601418
  H      2.872043    1.009732    1.219880
  H      0.428516    4.148533    0.397732

 Total Charge           Charge          ....    0
 Multiplicity           Mult            ....    1
 Number of Electrons    NEL             ....   62
 Basis Dimension        Dim             ....  315

ORBITAL ENERGIES
----------------

  NO   OCC          E(Eh)            E(eV)
   0   2.0000     -15.586096      -424.1192
   1   2.0000     -15.573249      -423.7697
   2   2.0000     -11.309728      -307.7534
   3   2.0000     -11.293301      -307.3064
   4   2.0000     -11.280388      -306.9550
   5   2.0000     -11.272354      -306.7363
   6   2.0000     -11.271244      -306.7061
   7   2.0000     -11.260210      -306.4059
   8   2.0000     -11.258935      -306.3712
   9   2.0000      -1.342981       -36.5444
  10   2.0000      -1.218748       -33.1638
  11   2.0000      -1.118158       -30.4266
  12   2.0000      -1.027393       -27.9568
  13   2.0000      -0.963376       -26.2148
  14   2.0000      -0.879630       -23.9360
  15   2.0000      -0.776157       -21.1203
  16   2.0000      -0.743483       -20.2312
  17   2.0000      -0.736648       -20.0452
  18   2.0000      -0.714530       -19.4434
  19   2.0000      -0.655989       -17.8504
  20   2.0000      -0.617130       -16.7930
  21   2.0000      -0.584657       -15.9093
  22   2.0000      -0.568012       -15.4564
  23   2.0000      -0.524699       -14.2778
  24   2.0000      -0.506220       -13.7750
  25   2.0000      -0.490396       -13.3443
  26   2.0000      -0.484119       -13.1736
  27   2.0000      -0.452530       -12.3140
  28   2.0000      -0.434734       -11.8297
  29   2.0000      -0.405158       -11.0249
  30   2.0000      -0.379428       -10.3248
  31   0.0000       0.133636         3.6364
  32   0.0000       0.144923         3.9436
  33   0.0000       0.151273         4.1164
  34   0.0000       0.155352         4.2273
  35   0.0000       0.180627         4.9151

MULLIKEN ATOMIC CHARGES
-----------------------
   0 N :   -0.042977
   1 C :   -0.212767
   2 C :    0.030705
   3 C :   -0.009205
   4 C :   -0.217647
   5 C :   -0.226350
   6 C :   -0.006719
   7 N :   -0.189123
   8 C :   -0.034476
   9 H :    0.144044
  10 H :    0.143973
  11 H :    0.157089
  12 H :    0.158261
  13 H :    0.153318
  14 H :    0.151874
Sum of atomic charges:    0.0000000

LOEWDIN ATOMIC CHARGES
----------------------
   0 N :    0.073168
   1 C :   -0.163589
   2 C :   -0.230236
   3 C :   -0.132405
   4 C :   -0.139144
   5 C :   -0.131885
   6 C :   -0.177170
   7 N :    0.155836
   8 C :   -0.119029
   9 H :    0.171080
  10 H :    0.141017
  11 H :    0.142499
  12 H :    0.136391
  13 H :    0.140145
  14 H :    0.133322

  Mayer bond orders larger than 0.1
B(  0-N ,  1-C ) :   2.8578 B(  1-C ,  2-C ) :   0.9594 B(  2-C ,  3-C ) :   0.9279
B(  2-C ,  7-N ) :   0.9533 B(  2-C ,  9-H ) :   0.8930 B(  3-C ,  4-C ) :   0.8859
B(  3-C ,  8-C ) :   0.9384 B(  3-C , 10-H ) :   0.9106 B(  4-C ,  5-C ) :   0.8545
B(  4-C ,  6-C ) :   0.8673 B(  4-C , 11-H ) :   0.9181 B(  5-C ,  6-C ) :   0.8544
B(  5-C ,  8-C ) :   0.9546 B(  5-C , 12-H ) :   0.9110 B(  6-C ,  7-N ) :   0.8791
B(  6-C , 13-H ) :   0.9301 B(  7-N ,  8-C ) :   0.9271 B(  8-C , 14-H ) :   0.8936

MP2 TOTAL ENERGY:     -378.905635124 Eh
FINAL SINGLE POINT ENERGY      -378.905635123710

DIPOLE MOMENT
-------------
                                X             Y             Z
Electronic contribution:     -0.56761      -2.83523      -2.27381
Nuclear contribution   :      0.37509       4.31919       3.12749
                        -----------------------------------------
Total Dipole Moment    :     -0.19252       1.48396       0.85368
                        -----------------------------------------
Magnitude (a.u.)       :      1.72278
Magnitude (Debye)      :      4.37897

                             ****ORCA TERMINATED NORMALLY****
TOTAL RUN TIME: 0 days 0 hours 17 minutes 22 seconds 280 msec
