                         Program Version 3.0.3 - RELEASE   -
|  1> ! RI-MP2 RIJK def2-TZVP def2-TZVP/C def2-TZVP/JK TIGHTSCF
|  2> % maxcore 2000
|  3> % mp2 density relaxed end
|  4> *xyz 0 1
|  5>  C       -0.0391629039     1.4832828674    -0.3243708809
|  6>  C       -0.1168676746    -0.0283679361    -0.1710434243
|  7>  C       -0.1780860009    -0.6496764534     1.1997317659
|  8>  C       -1.3933943414    -0.6725469808     0.3050571369
|  9>  C        1.3443286063     2.0252374346    -0.2270459844
| 10>  C        2.2053799607     2.6213805880    -1.0887331171
| 11>  N        3.4000757118     2.9123969402    -0.4371931764
| 12>  C        3.2066990923     2.4853408417     0.7656267616
| 13>  O        1.9901940509     1.9334492112     0.9828875892
| 14>  H       -0.4461789634     1.7845668712    -1.2962792365
| 15>  H       -0.6723944011     1.9537604633     0.4396830666
| 16>  H        0.4494948418    -0.5750479653    -0.9199794175
| 17>  H        0.3566697023    -1.5772959410     1.3698033201
| 18>  H       -0.1884423249     0.0181750240     2.0543456506
| 19>  H       -2.2236467344    -0.0219751031     0.5609254017
| 20>  H       -1.6917560973    -1.6150046473    -0.1402242486
| 21>  H        2.0529858726     2.8645601355    -2.1284642443
| 22>  H        3.8825639732     2.5144079701     1.6059155575
| 23> *
| 24>
| 25>                          ****END OF INPUT****

CARTESIAN COORDINATES (ANGSTROEM)
---------------------------------
  C     -0.039163    1.483283   -0.324371
  C     -0.116868   -0.028368   -0.171043
  C     -0.178086   -0.649676    1.199732
  C     -1.393394   -0.672547    0.305057
  C      1.344329    2.025237   -0.227046
  C      2.205380    2.621381   -1.088733
  N      3.400076    2.912397   -0.437193
  C      3.206699    2.485341    0.765627
  O      1.990194    1.933449    0.982888
  H     -0.446179    1.784567   -1.296279
  H     -0.672394    1.953760    0.439683
  H      0.449495   -0.575048   -0.919979
  H      0.356670   -1.577296    1.369803
  H     -0.188442    0.018175    2.054346
  H     -2.223647   -0.021975    0.560925
  H     -1.691756   -1.615005   -0.140224
  H      2.052986    2.864560   -2.128464
  H      3.882564    2.514408    1.605916

 Total Charge           Charge          ....    0
 Multiplicity           Mult            ....    1
 Number of Electrons    NEL             ....   66
 Basis Dimension        Dim             ....  333

ORBITAL ENERGIES
----------------

  NO   OCC          E(Eh)            E(eV)
   0   2.0000     -20.632599      -561.4415
   1   2.0000     -15.562150      -423.4676
   2   2.0000     -11.328125      -308.2540
   3   2.0000     -11.294120      -307.3286
   4   2.0000     -11.252389      -306.1931
   5   2.0000     -11.248600      -306.0900
   6   2.0000     -11.239191      -305.8339
   7   2.0000     -11.229169      -305.5612
   8   2.0000     -11.227346      -305.5116
   9   2.0000      -1.481656       -40.3179
  10   2.0000      -1.227976       -33.4149
  11   2.0000      -1.153016       -31.3752
  12   2.0000      -1.063167       -28.9303
  13   2.0000      -0.962088       -26.1797
  14   2.0000      -0.839218       -22.8363
  15   2.0000      -0.825482       -22.4625
  16   2.0000      -0.809959       -22.0401
  17   2.0000      -0.780859       -21.2483
  18   2.0000      -0.725667       -19.7464
  19   2.0000      -0.673614       -18.3300
  20   2.0000      -0.662152       -18.0181
  21   2.0000      -0.623106       -16.9556
  22   2.0000      -0.598434       -16.2842
  23   2.0000      -0.590814       -16.0769
  24   2.0000      -0.578249       -15.7349
  25   2.0000      -0.553284       -15.0556
  26   2.0000      -0.517724       -14.0880
  27   2.0000      -0.510248       -13.8846
  28   2.0000      -0.458583       -12.4787
  29   2.0000      -0.450739       -12.2652
  30   2.0000      -0.423808       -11.5324
  31   2.0000      -0.415953       -11.3187
  32   2.0000      -0.331520        -9.0211
  33   0.0000       0.134278         3.6539
  34   0.0000       0.149205         4.0601
  35   0.0000       0.158680         4.3179
  36   0.0000       0.168232         4.5778
  37   0.0000       0.173583         4.7234

MULLIKEN ATOMIC CHARGES
-----------------------
   0 C :   -0.260867
   1 C :   -0.067379
   2 C :   -0.271491
   3 C :   -0.261827
   4 C :    0.166914
   5 C :   -0.154476
   6 N :   -0.266493
   7 C :    0.102815
   8 O :   -0.213453
   9 H :    0.141082
  10 H :    0.140831
  11 H :    0.123780
  12 H :    0.131984
  13 H :    0.131607
  14 H :    0.127603
  15 H :    0.133064
  16 H :    0.141280
  17 H :    0.155025
Sum of atomic charges:   -0.0000000

LOEWDIN ATOMIC CHARGES
----------------------
   0 C :   -0.215931
   1 C :   -0.225789
   2 C :   -0.228077
   3 C :   -0.230041
   4 C :   -0.248819
   5 C :   -0.230197
   6 N :    0.094680
   7 C :   -0.330955
   8 O :    0.351305
   9 H :    0.158250
  10 H :    0.156499
  11 H :    0.149279
  12 H :    0.131819
  13 H :    0.133986
  14 H :    0.132216
  15 H :    0.131611
  16 H :    0.138490
  17 H :    0.131675

  Mayer bond orders larger than 0.1
B(  0-C ,  1-C ) :   0.8900 B(  0-C ,  4-C ) :   0.9044 B(  0-C ,  9-H ) :   0.9351
B(  0-C , 10-H ) :   0.9279 B(  1-C ,  2-C ) :   0.9000 B(  1-C ,  3-C ) :   0.8829
B(  1-C , 11-H ) :   0.9257 B(  2-C ,  3-C ) :   0.9011 B(  2-C , 12-H ) :   0.9308
B(  2-C , 13-H ) :   0.9273 B(  3-C , 14-H ) :   0.9283 B(  3-C , 15-H ) :   0.9309
B(  4-C ,  5-C ) :   1.5841 B(  4-C ,  8-O ) :   0.9969 B(  5-C ,  6-N ) :   1.2015
B(  5-C , 16-H ) :   0.9343 B(  6-N ,  7-C ) :   1.6506 B(  7-C ,  8-O ) :   1.0840
B(  7-C , 17-H ) :   0.9271

MP2 TOTAL ENERGY:     -401.268640672 Eh
FINAL SINGLE POINT ENERGY      -401.268640671501

DIPOLE MOMENT
-------------
                                X             Y             Z
Electronic contribution:      7.50110       5.82011      -0.16265
Nuclear contribution   :     -8.24422      -6.23627       0.31628
                        -----------------------------------------
Total Dipole Moment    :     -0.74312      -0.41616       0.15363
                        -----------------------------------------
Magnitude (a.u.)       :      0.86546
Magnitude (Debye)      :      2.19982

                             ****ORCA TERMINATED NORMALLY****
TOTAL RUN TIME: 0 days 0 hours 16 minutes 6 seconds 308 msec
