                         Program Version 3.0.3 - RELEASE   -
|  1> ! RI-MP2 RIJK def2-TZVP def2-TZVP/C def2-TZVP/JK TIGHTSCF
|  2> % maxcore 2000
|  3> % mp2 density relaxed end
|  4> *xyz 0 1
|  5>  O       -0.7006835476     0.7464341143     0.7644937173
|  6>  C        0.0822690962     0.9294412327    -0.1161123281
|  7>  C        1.3037530836     1.8934110052     0.0026463684
|  8>  C        2.6147874856     1.0313650498    -0.0984231637
|  9>  O        2.5935540917    -0.1504132491    -0.2684529310
| 10>  C        1.3100053860     2.8134621425    -1.1296946895
| 11>  C        1.3294078992     3.5069239644    -2.1101026708
| 12>  C        1.3232503752     2.5968194530     1.2879285174
| 13>  N        1.3944417170     3.1355011882     2.3065319962
| 14>  H        0.0227532054     0.4466339263    -1.1085218660
| 15>  H        3.5412126112     1.6302927149    -0.0169818741
| 16>  H        1.3356229563     4.1435121979    -2.9617229461
| 17> *
| 18>
| 19>                          ****END OF INPUT****

CARTESIAN COORDINATES (ANGSTROEM)
---------------------------------
  O     -0.700684    0.746434    0.764494
  C      0.082269    0.929441   -0.116112
  C      1.303753    1.893411    0.002646
  C      2.614787    1.031365   -0.098423
  O      2.593554   -0.150413   -0.268453
  C      1.310005    2.813462   -1.129695
  C      1.329408    3.506924   -2.110103
  C      1.323250    2.596819    1.287929
  N      1.394442    3.135501    2.306532
  H      0.022753    0.446634   -1.108522
  H      3.541213    1.630293   -0.016982
  H      1.335623    4.143512   -2.961723

 Total Charge           Charge          ....    0
 Multiplicity           Mult            ....    1
 Number of Electrons    NEL             ....   62
 Basis Dimension        Dim             ....  297

ORBITAL ENERGIES
----------------

  NO   OCC          E(Eh)            E(eV)
   0   2.0000     -20.617442      -561.0291
   1   2.0000     -20.602747      -560.6292
   2   2.0000     -15.604489      -424.6197
   3   2.0000     -11.396975      -310.1275
   4   2.0000     -11.382048      -309.7213
   5   2.0000     -11.364442      -309.2422
   6   2.0000     -11.305206      -307.6303
   7   2.0000     -11.292723      -307.2906
   8   2.0000     -11.287081      -307.1371
   9   2.0000      -1.461954       -39.7818
  10   2.0000      -1.445271       -39.3278
  11   2.0000      -1.252677       -34.0871
  12   2.0000      -1.166163       -31.7329
  13   2.0000      -1.053978       -28.6802
  14   2.0000      -0.907467       -24.6934
  15   2.0000      -0.862702       -23.4753
  16   2.0000      -0.809290       -22.0219
  17   2.0000      -0.750633       -20.4258
  18   2.0000      -0.737211       -20.0605
  19   2.0000      -0.718682       -19.5563
  20   2.0000      -0.691021       -18.8036
  21   2.0000      -0.675231       -18.3740
  22   2.0000      -0.593079       -16.1385
  23   2.0000      -0.578099       -15.7309
  24   2.0000      -0.566872       -15.4254
  25   2.0000      -0.523627       -14.2486
  26   2.0000      -0.505281       -13.7494
  27   2.0000      -0.482413       -13.1271
  28   2.0000      -0.479851       -13.0574
  29   2.0000      -0.447859       -12.1869
  30   2.0000      -0.427870       -11.6429
  31   0.0000       0.076225         2.0742
  32   0.0000       0.092207         2.5091
  33   0.0000       0.118268         3.2182
  34   0.0000       0.126503         3.4423
  35   0.0000       0.134524         3.6606

MULLIKEN ATOMIC CHARGES
-----------------------
   0 O :   -0.201244
   1 C :    0.065222
   2 C :    0.242985
   3 C :    0.082568
   4 O :   -0.214062
   5 C :   -0.105945
   6 C :   -0.109075
   7 C :   -0.204648
   8 N :   -0.027701
   9 H :    0.124056
  10 H :    0.134233
  11 H :    0.213612
Sum of atomic charges:   -0.0000000

LOEWDIN ATOMIC CHARGES
----------------------
   0 O :    0.196617
   1 C :   -0.214105
   2 C :   -0.251382
   3 C :   -0.203854
   4 O :    0.190450
   5 C :   -0.061323
   6 C :   -0.035373
   7 C :   -0.130434
   8 N :    0.103649
   9 H :    0.133241
  10 H :    0.135463
  11 H :    0.137051

  Mayer bond orders larger than 0.1
B(  0-O ,  1-C ) :   2.0411 B(  1-C ,  2-C ) :   0.7470 B(  1-C ,  9-H ) :   0.9299
B(  2-C ,  3-C ) :   0.7629 B(  2-C ,  5-C ) :   1.0854 B(  2-C ,  7-C ) :   0.8794
B(  3-C ,  4-O ) :   2.0086 B(  3-C , 10-H ) :   0.9271 B(  5-C ,  6-C ) :   2.5770
B(  6-C , 11-H ) :   0.8793 B(  7-C ,  8-N ) :   2.8298

MP2 TOTAL ENERGY:     -434.721082192 Eh
FINAL SINGLE POINT ENERGY      -434.721082192029

DIPOLE MOMENT
-------------
                                X             Y             Z
Electronic contribution:     -0.57094      -0.51066       2.29945
Nuclear contribution   :      1.09303       0.84674      -4.05300
                        -----------------------------------------
Total Dipole Moment    :      0.52210       0.33608      -1.75355
                        -----------------------------------------
Magnitude (a.u.)       :      1.86024
Magnitude (Debye)      :      4.72834

                             ****ORCA TERMINATED NORMALLY****
TOTAL RUN TIME: 0 days 0 hours 11 minutes 34 seconds 578 msec
