                         Program Version 3.0.3 - RELEASE   -
|  1> ! RI-MP2 RIJK def2-TZVP def2-TZVP/C def2-TZVP/JK TIGHTSCF
|  2> % maxcore 2000
|  3> % mp2 density relaxed end
|  4> *xyz 0 1
|  5>  C       -0.2234588852     1.6308591767     0.0133359526
|  6>  C       -0.0279452280     0.1181523264     0.0272494023
|  7>  C        0.9326194504    -0.5707514728    -1.0830992480
|  8>  C        1.4466582304     0.2410952329    -2.2617358956
|  9>  C        1.8798096690    -0.8808297694     0.1072028254
| 10>  C        2.5877346685    -1.7689239771     1.1863773330
| 11>  N        2.0923810130    -0.5411435278     2.0194588343
| 12>  C        2.6108221688     0.2776487882     0.8361796790
| 13>  C        0.7906282403    -0.7068892269     1.1193176638
| 14>  H        0.7021313757     2.2001475819    -0.0880212819
| 15>  H       -0.8692000135     1.9164102600    -0.8250095648
| 16>  H       -0.7166873691     1.9576660525     0.9345724860
| 17>  H       -1.0256420224    -0.3309291556    -0.0086393429
| 18>  H        0.4378355026    -1.4798434382    -1.4410433778
| 19>  H        1.9884027407     1.1336540479    -1.9330293962
| 20>  H        2.1322681324    -0.3561704628    -2.8725454973
| 21>  H        0.6257491824     0.5683968282    -2.9093597330
| 22>  H        2.1033089072    -2.7102291692     1.4578953483
| 23>  H        3.6791239198    -1.8558716278     1.1938684996
| 24>  H        3.7028920359     0.3029392360     0.7670258261
| 25>  H        2.2047102537     1.2865306759     0.8052592392
| 26>  H        0.2213775873    -1.5760763990     1.4582367279
| 27> *
| 28>
| 29>                          ****END OF INPUT****

CARTESIAN COORDINATES (ANGSTROEM)
---------------------------------
  C     -0.223459    1.630859    0.013336
  C     -0.027945    0.118152    0.027249
  C      0.932619   -0.570751   -1.083099
  C      1.446658    0.241095   -2.261736
  C      1.879810   -0.880830    0.107203
  C      2.587735   -1.768924    1.186377
  N      2.092381   -0.541144    2.019459
  C      2.610822    0.277649    0.836180
  C      0.790628   -0.706889    1.119318
  H      0.702131    2.200148   -0.088021
  H     -0.869200    1.916410   -0.825010
  H     -0.716687    1.957666    0.934572
  H     -1.025642   -0.330929   -0.008639
  H      0.437836   -1.479843   -1.441043
  H      1.988403    1.133654   -1.933029
  H      2.132268   -0.356170   -2.872545
  H      0.625749    0.568397   -2.909360
  H      2.103309   -2.710229    1.457895
  H      3.679124   -1.855872    1.193868
  H      3.702892    0.302939    0.767026
  H      2.204710    1.286531    0.805259
  H      0.221378   -1.576076    1.458237

 Total Charge           Charge          ....    0
 Multiplicity           Mult            ....    1
 Number of Electrons    NEL             ....   68
 Basis Dimension        Dim             ....  357

ORBITAL ENERGIES
----------------

  NO   OCC          E(Eh)            E(eV)
   0   2.0000     -15.569900      -423.6785
   1   2.0000     -11.266938      -306.5890
   2   2.0000     -11.247961      -306.0726
   3   2.0000     -11.247820      -306.0687
   4   2.0000     -11.245469      -306.0048
   5   2.0000     -11.244346      -305.9742
   6   2.0000     -11.238057      -305.8031
   7   2.0000     -11.220432      -305.3235
   8   2.0000     -11.219142      -305.2884
   9   2.0000      -1.285073       -34.9686
  10   2.0000      -1.100704       -29.9517
  11   2.0000      -0.994349       -27.0576
  12   2.0000      -0.956366       -26.0241
  13   2.0000      -0.914988       -24.8981
  14   2.0000      -0.893974       -24.3263
  15   2.0000      -0.817676       -22.2501
  16   2.0000      -0.789068       -21.4716
  17   2.0000      -0.710630       -19.3372
  18   2.0000      -0.665796       -18.1172
  19   2.0000      -0.616504       -16.7759
  20   2.0000      -0.601498       -16.3676
  21   2.0000      -0.594502       -16.1772
  22   2.0000      -0.576413       -15.6850
  23   2.0000      -0.555006       -15.1025
  24   2.0000      -0.544600       -14.8193
  25   2.0000      -0.533294       -14.5117
  26   2.0000      -0.508372       -13.8335
  27   2.0000      -0.493091       -13.4177
  28   2.0000      -0.481001       -13.0887
  29   2.0000      -0.464841       -12.6490
  30   2.0000      -0.438622       -11.9355
  31   2.0000      -0.424900       -11.5621
  32   2.0000      -0.397196       -10.8082
  33   2.0000      -0.333215        -9.0672
  34   0.0000       0.128810         3.5051
  35   0.0000       0.151848         4.1320
  36   0.0000       0.152468         4.1489
  37   0.0000       0.170214         4.6318
  38   0.0000       0.187879         5.1124

MULLIKEN ATOMIC CHARGES
-----------------------
   0 C :   -0.399878
   1 C :   -0.117350
   2 C :   -0.026066
   3 C :   -0.421842
   4 C :   -0.051513
   5 C :   -0.097909
   6 N :   -0.186931
   7 C :   -0.177554
   8 C :   -0.069484
   9 H :    0.116380
  10 H :    0.133836
  11 H :    0.147634
  12 H :    0.109833
  13 H :    0.099289
  14 H :    0.125878
  15 H :    0.138103
  16 H :    0.135031
  17 H :    0.113623
  18 H :    0.112969
  19 H :    0.108115
  20 H :    0.112547
  21 H :    0.095286
Sum of atomic charges:    0.0000000

LOEWDIN ATOMIC CHARGES
----------------------
   0 C :   -0.302489
   1 C :   -0.187094
   2 C :   -0.194968
   3 C :   -0.297978
   4 C :   -0.209518
   5 C :   -0.197921
   6 N :    0.091100
   7 C :   -0.212282
   8 C :   -0.167561
   9 H :    0.117163
  10 H :    0.126294
  11 H :    0.130374
  12 H :    0.149436
  13 H :    0.149750
  14 H :    0.123739
  15 H :    0.127525
  16 H :    0.125196
  17 H :    0.123703
  18 H :    0.121436
  19 H :    0.122681
  20 H :    0.124663
  21 H :    0.136752

  Mayer bond orders larger than 0.1
B(  0-C ,  1-C ) :   0.9216 B(  0-C ,  9-H ) :   0.9345 B(  0-C , 10-H ) :   0.9344
B(  0-C , 11-H ) :   0.9346 B(  1-C ,  2-C ) :   0.8857 B(  1-C ,  8-C ) :   0.8659
B(  1-C , 12-H ) :   0.9175 B(  2-C ,  3-C ) :   0.8941 B(  2-C ,  4-C ) :   0.9188
B(  2-C , 13-H ) :   0.9094 B(  3-C , 14-H ) :   0.9379 B(  3-C , 15-H ) :   0.9357
B(  3-C , 16-H ) :   0.9407 B(  4-C ,  5-C ) :   0.8930 B(  4-C ,  7-C ) :   0.9363
B(  4-C ,  8-C ) :   0.8914 B(  5-C ,  6-N ) :   0.9033 B(  5-C , 17-H ) :   0.9172
B(  5-C , 18-H ) :   0.9178 B(  6-N ,  7-C ) :   0.9231 B(  6-N ,  8-C ) :   0.8952
B(  7-C , 19-H ) :   0.9253 B(  7-C , 20-H ) :   0.9116 B(  8-C , 21-H ) :   0.9378

MP2 TOTAL ENERGY:     -366.399428875 Eh
FINAL SINGLE POINT ENERGY      -366.399428875356

DIPOLE MOMENT
-------------
                                X             Y             Z
Electronic contribution:      1.80980      -3.68125       4.74106
Nuclear contribution   :     -2.05202       3.60783      -5.62612
                        -----------------------------------------
Total Dipole Moment    :     -0.24222      -0.07342      -0.88505
                        -----------------------------------------
Magnitude (a.u.)       :      0.92053
Magnitude (Debye)      :      2.33980

                             ****ORCA TERMINATED NORMALLY****
TOTAL RUN TIME: 0 days 0 hours 22 minutes 51 seconds 562 msec
