                         Program Version 3.0.3 - RELEASE   -
|  1> ! RI-MP2 RIJK def2-TZVP def2-TZVP/C def2-TZVP/JK TIGHTSCF
|  2> % maxcore 2000
|  3> % mp2 density relaxed end
|  4> *xyz 0 1
|  5>  O       -0.2929365119     1.5980595868     0.0073684164
|  6>  C       -0.0239523687     0.2151723341     0.2005725682
|  7>  C       -1.3359838547    -0.5246657442    -0.0140654380
|  8>  C       -1.9266022007    -0.3579200087    -1.4230552439
|  9>  O       -2.8761665170    -1.4005450794    -1.5380787317
| 10>  C       -2.2908664388    -2.5564180137    -0.9536720916
| 11>  C       -1.3151866674    -2.0718326558     0.1585868334
| 12>  C        0.0509566411    -2.7381629546     0.0221182584
| 13>  O       -0.1579829030    -4.1340209606     0.1918727355
| 14>  H        0.5290312827     2.0847201056     0.1178242727
| 15>  H        0.7382396346    -0.1375245192    -0.5126672504
| 16>  H        0.3603240554     0.0252519452     1.2152348847
| 17>  H       -2.0593154102    -0.1096784001     0.6957567414
| 18>  H       -2.4379028901     0.5939466889    -1.5740306394
| 19>  H       -1.1339288576    -0.4514319791    -2.1881876075
| 20>  H       -3.0991289611    -3.1871630585    -0.5762722234
| 21>  H       -1.7380476113    -3.1349874781    -1.7097940097
| 22>  H       -1.7009093744    -2.3451505317     1.1449127208
| 23>  H        0.4826887633    -2.5230215852    -0.9689642760
| 24>  H        0.7494510736    -2.3520857916     0.7804795937
| 25>  H        0.6764056662    -4.5869420702     0.0394871364
| 26> *
| 27>
| 28>                          ****END OF INPUT****

CARTESIAN COORDINATES (ANGSTROEM)
---------------------------------
  O     -0.292937    1.598060    0.007368
  C     -0.023952    0.215172    0.200573
  C     -1.335984   -0.524666   -0.014065
  C     -1.926602   -0.357920   -1.423055
  O     -2.876167   -1.400545   -1.538079
  C     -2.290866   -2.556418   -0.953672
  C     -1.315187   -2.071833    0.158587
  C      0.050957   -2.738163    0.022118
  O     -0.157983   -4.134021    0.191873
  H      0.529031    2.084720    0.117824
  H      0.738240   -0.137525   -0.512667
  H      0.360324    0.025252    1.215235
  H     -2.059315   -0.109678    0.695757
  H     -2.437903    0.593947   -1.574031
  H     -1.133929   -0.451432   -2.188188
  H     -3.099129   -3.187163   -0.576272
  H     -1.738048   -3.134987   -1.709794
  H     -1.700909   -2.345151    1.144913
  H      0.482689   -2.523022   -0.968964
  H      0.749451   -2.352086    0.780480
  H      0.676406   -4.586942    0.039487

 Total Charge           Charge          ....    0
 Multiplicity           Mult            ....    1
 Number of Electrons    NEL             ....   72
 Basis Dimension        Dim             ....  351

ORBITAL ENERGIES
----------------

  NO   OCC          E(Eh)            E(eV)
   0   2.0000     -20.563020      -559.5482
   1   2.0000     -20.562868      -559.5441
   2   2.0000     -20.543069      -559.0053
   3   2.0000     -11.284451      -307.0655
   4   2.0000     -11.283496      -307.0395
   5   2.0000     -11.263498      -306.4954
   6   2.0000     -11.263474      -306.4947
   7   2.0000     -11.230854      -305.6071
   8   2.0000     -11.228564      -305.5448
   9   2.0000      -1.372824       -37.3564
  10   2.0000      -1.366903       -37.1953
  11   2.0000      -1.365281       -37.1512
  12   2.0000      -1.086160       -29.5559
  13   2.0000      -1.008666       -27.4472
  14   2.0000      -0.922838       -25.1117
  15   2.0000      -0.901442       -24.5295
  16   2.0000      -0.809439       -22.0260
  17   2.0000      -0.762227       -20.7412
  18   2.0000      -0.723900       -19.6983
  19   2.0000      -0.684157       -18.6169
  20   2.0000      -0.677216       -18.4280
  21   2.0000      -0.653452       -17.7813
  22   2.0000      -0.648771       -17.6540
  23   2.0000      -0.632201       -17.2031
  24   2.0000      -0.588065       -16.0021
  25   2.0000      -0.578860       -15.7516
  26   2.0000      -0.561846       -15.2886
  27   2.0000      -0.533657       -14.5215
  28   2.0000      -0.528197       -14.3730
  29   2.0000      -0.491105       -13.3636
  30   2.0000      -0.480239       -13.0680
  31   2.0000      -0.470297       -12.7974
  32   2.0000      -0.457468       -12.4483
  33   2.0000      -0.445328       -12.1180
  34   2.0000      -0.439380       -11.9561
  35   2.0000      -0.410112       -11.1597
  36   0.0000       0.123408         3.3581
  37   0.0000       0.134745         3.6666
  38   0.0000       0.151546         4.1238
  39   0.0000       0.163730         4.4553
  40   0.0000       0.170716         4.6454

MULLIKEN ATOMIC CHARGES
-----------------------
   0 O :   -0.463106
   1 C :   -0.111207
   2 C :   -0.059095
   3 C :   -0.047223
   4 O :   -0.311680
   5 C :   -0.043435
   6 C :   -0.025268
   7 C :   -0.144316
   8 O :   -0.465266
   9 H :    0.315883
  10 H :    0.095746
  11 H :    0.110556
  12 H :    0.100812
  13 H :    0.131423
  14 H :    0.073867
  15 H :    0.116093
  16 H :    0.091963
  17 H :    0.106014
  18 H :    0.109528
  19 H :    0.101681
  20 H :    0.317031
Sum of atomic charges:    0.0000000

LOEWDIN ATOMIC CHARGES
----------------------
   0 O :   -0.041841
   1 C :   -0.334758
   2 C :   -0.234980
   3 C :   -0.288263
   4 O :    0.149787
   5 C :   -0.276082
   6 C :   -0.225937
   7 C :   -0.338505
   8 O :   -0.040762
   9 H :    0.172565
  10 H :    0.117575
  11 H :    0.118453
  12 H :    0.160249
  13 H :    0.131183
  14 H :    0.119501
  15 H :    0.126753
  16 H :    0.123809
  17 H :    0.155156
  18 H :    0.116858
  19 H :    0.116608
  20 H :    0.172630

  Mayer bond orders larger than 0.1
B(  0-O ,  1-C ) :   1.0299 B(  0-O ,  9-H ) :   0.8480 B(  1-C ,  2-C ) :   0.9070
B(  1-C , 10-H ) :   0.9073 B(  1-C , 11-H ) :   0.9469 B(  2-C ,  3-C ) :   0.9481
B(  2-C ,  6-C ) :   0.8907 B(  2-C , 12-H ) :   0.9171 B(  3-C ,  4-O ) :   0.9303
B(  3-C , 13-H ) :   0.9215 B(  3-C , 14-H ) :   0.9219 B(  4-O ,  5-C ) :   0.9494
B(  5-C ,  6-C ) :   0.9356 B(  5-C , 15-H ) :   0.9193 B(  5-C , 16-H ) :   0.9252
B(  6-C ,  7-C ) :   0.9141 B(  6-C , 17-H ) :   0.9116 B(  7-C ,  8-O ) :   1.0140
B(  7-C , 18-H ) :   0.9338 B(  7-C , 19-H ) :   0.9269 B(  8-O , 20-H ) :   0.8477

MP2 TOTAL ENERGY:     -460.627037912 Eh
FINAL SINGLE POINT ENERGY      -460.627037912023

DIPOLE MOMENT
-------------
                                X             Y             Z
Electronic contribution:     -2.55293       0.17643      -0.51661
Nuclear contribution   :      4.17574      -0.15689       0.86351
                        -----------------------------------------
Total Dipole Moment    :      1.62281       0.01954       0.34690
                        -----------------------------------------
Magnitude (a.u.)       :      1.65959
Magnitude (Debye)      :      4.21834

                             ****ORCA TERMINATED NORMALLY****
TOTAL RUN TIME: 0 days 0 hours 17 minutes 0 seconds 864 msec
