                         Program Version 3.0.3 - RELEASE   -
|  1> ! RI-MP2 RIJK def2-TZVP def2-TZVP/C def2-TZVP/JK TIGHTSCF
|  2> % maxcore 2000
|  3> % mp2 density relaxed end
|  4> *xyz 0 1
|  5>  C        0.2076889944     1.0853885214    -0.4852057541
|  6>  O       -0.3864614790     0.0547601785     0.2930197309
|  7>  C        0.4530257769    -0.5217287477     1.2079984096
|  8>  C        0.7715356773    -1.8463059178     1.2292487634
|  9>  N        0.5013877857    -2.8965141015     0.3574718849
| 10>  O        1.5556364188    -2.1170804297     2.3036797288
| 11>  C        1.7488873601    -0.9362602341     2.9879433702
| 12>  C        2.5766918735    -1.0141955299     4.2181206786
| 13>  C        1.0996551758     0.0707921972     2.3503814340
| 14>  H        1.0739669930     0.7121971038    -1.0473089197
| 15>  H       -0.5572498454     1.4354040731    -1.1823319722
| 16>  H        0.5320192461     1.9274157157     0.1401543493
| 17>  H       -0.1633868797    -2.5925201725    -0.3442412440
| 18>  H        0.1362037298    -3.7146904030     0.8344768210
| 19>  H        3.5916378900    -1.3714155028     4.0057209569
| 20>  H        2.6534795637    -0.0235029151     4.6722055204
| 21>  H        2.1412042522    -1.6951553500     4.9594228496
| 22>  H        1.0633308469     1.1035882345     2.6602872725
| 23> *
| 24>
| 25>                          ****END OF INPUT****

CARTESIAN COORDINATES (ANGSTROEM)
---------------------------------
  C      0.207689    1.085389   -0.485206
  O     -0.386461    0.054760    0.293020
  C      0.453026   -0.521729    1.207998
  C      0.771536   -1.846306    1.229249
  N      0.501388   -2.896514    0.357472
  O      1.555636   -2.117080    2.303680
  C      1.748887   -0.936260    2.987943
  C      2.576692   -1.014196    4.218121
  C      1.099655    0.070792    2.350381
  H      1.073967    0.712197   -1.047309
  H     -0.557250    1.435404   -1.182332
  H      0.532019    1.927416    0.140154
  H     -0.163387   -2.592520   -0.344241
  H      0.136204   -3.714690    0.834477
  H      3.591638   -1.371416    4.005721
  H      2.653480   -0.023503    4.672206
  H      2.141204   -1.695155    4.959423
  H      1.063331    1.103588    2.660287

 Total Charge           Charge          ....    0
 Multiplicity           Mult            ....    1
 Number of Electrons    NEL             ....   68
 Basis Dimension        Dim             ....  333

ORBITAL ENERGIES
----------------

  NO   OCC          E(Eh)            E(eV)
   0   2.0000     -20.608934      -560.7976
   1   2.0000     -20.571337      -559.7745
   2   2.0000     -15.566386      -423.5829
   3   2.0000     -11.307777      -307.7002
   4   2.0000     -11.282441      -307.0108
   5   2.0000     -11.276731      -306.8554
   6   2.0000     -11.261341      -306.4367
   7   2.0000     -11.230640      -305.6013
   8   2.0000     -11.219568      -305.3000
   9   2.0000      -1.452271       -39.5183
  10   2.0000      -1.390038       -37.8249
  11   2.0000      -1.206053       -32.8184
  12   2.0000      -1.072973       -29.1971
  13   2.0000      -1.026441       -27.9309
  14   2.0000      -0.944583       -25.7034
  15   2.0000      -0.899441       -24.4750
  16   2.0000      -0.800790       -21.7906
  17   2.0000      -0.760222       -20.6867
  18   2.0000      -0.708809       -19.2877
  19   2.0000      -0.671900       -18.2833
  20   2.0000      -0.653026       -17.7697
  21   2.0000      -0.646432       -17.5903
  22   2.0000      -0.628367       -17.0987
  23   2.0000      -0.618326       -16.8255
  24   2.0000      -0.585382       -15.9291
  25   2.0000      -0.569104       -15.4861
  26   2.0000      -0.559978       -15.2378
  27   2.0000      -0.550670       -14.9845
  28   2.0000      -0.532788       -14.4979
  29   2.0000      -0.508873       -13.8471
  30   2.0000      -0.472694       -12.8627
  31   2.0000      -0.446197       -12.1416
  32   2.0000      -0.376895       -10.2558
  33   2.0000      -0.272063        -7.4032
  34   0.0000       0.136755         3.7213
  35   0.0000       0.148512         4.0412
  36   0.0000       0.156160         4.2493
  37   0.0000       0.166944         4.5428
  38   0.0000       0.188174         5.1205

MULLIKEN ATOMIC CHARGES
-----------------------
   0 C :   -0.181876
   1 O :   -0.343602
   2 C :    0.137457
   3 C :    0.188147
   4 N :   -0.505148
   5 O :   -0.238381
   6 C :    0.196269
   7 C :   -0.434823
   8 C :   -0.275694
   9 H :    0.119944
  10 H :    0.137702
  11 H :    0.117402
  12 H :    0.258179
  13 H :    0.256288
  14 H :    0.146791
  15 H :    0.143731
  16 H :    0.144163
  17 H :    0.133450
Sum of atomic charges:   -0.0000000

LOEWDIN ATOMIC CHARGES
----------------------
   0 C :   -0.330112
   1 O :    0.191931
   2 C :   -0.302260
   3 C :   -0.343255
   4 N :   -0.087555
   5 O :    0.357463
   6 C :   -0.272474
   7 C :   -0.278535
   8 C :   -0.156162
   9 H :    0.106182
  10 H :    0.112527
  11 H :    0.104931
  12 H :    0.178141
  13 H :    0.171715
  14 H :    0.132916
  15 H :    0.137472
  16 H :    0.132604
  17 H :    0.144471

  Mayer bond orders larger than 0.1
B(  0-C ,  1-O ) :   0.8717 B(  0-C ,  9-H ) :   0.9301 B(  0-C , 10-H ) :   0.9387
B(  0-C , 11-H ) :   0.9376 B(  1-O ,  2-C ) :   0.9671 B(  2-C ,  3-C ) :   1.4860
B(  2-C ,  8-C ) :   1.1673 B(  3-C ,  4-N ) :   1.0979 B(  3-C ,  5-O ) :   1.0520
B(  4-N , 12-H ) :   0.8715 B(  4-N , 13-H ) :   0.8679 B(  5-O ,  6-C ) :   0.9914
B(  6-C ,  7-C ) :   0.8680 B(  6-C ,  8-C ) :   1.5517 B(  7-C , 14-H ) :   0.9316
B(  7-C , 15-H ) :   0.9530 B(  7-C , 16-H ) :   0.9332 B(  8-C , 17-H ) :   0.9181

MP2 TOTAL ENERGY:     -438.370503904 Eh
FINAL SINGLE POINT ENERGY      -438.370503903531

DIPOLE MOMENT
-------------
                                X             Y             Z
Electronic contribution:     -2.02802      -3.45449      -0.52606
Nuclear contribution   :      1.93166       3.71803       0.51976
                        -----------------------------------------
Total Dipole Moment    :     -0.09636       0.26354      -0.00630
                        -----------------------------------------
Magnitude (a.u.)       :      0.28068
Magnitude (Debye)      :      0.71342

                             ****ORCA TERMINATED NORMALLY****
TOTAL RUN TIME: 0 days 0 hours 14 minutes 59 seconds 136 msec
