                         Program Version 3.0.3 - RELEASE   -
|  1> ! RI-MP2 RIJK def2-TZVP def2-TZVP/C def2-TZVP/JK TIGHTSCF
|  2> % maxcore 2000
|  3> % mp2 density relaxed end
|  4> *xyz 0 1
|  5>  C       -0.1607012126     1.6489241700    -0.0368827682
|  6>  C       -0.0913001126     0.1182736990     0.0040972987
|  7>  C        0.7416363422    -0.4831031197    -1.1390525285
|  8>  C        2.2314033416    -0.2171945819    -1.0788866023
|  9>  C        2.9568814128    -1.2462545027    -1.5213087627
| 10>  C        4.4440980969    -1.3223320808    -1.6626661658
| 11>  C        2.0538414255    -2.3881667633    -1.9431959825
| 12>  C        0.6885845195    -2.0399132286    -1.2920100327
| 13>  C        0.5253473579    -2.7895629250     0.0375820282
| 14>  H        0.8306411714     2.1029742096     0.0625888315
| 15>  H       -0.5901176747     1.9997967890    -0.9822279164
| 16>  H       -0.7828108011     2.0379054543     0.7754291244
| 17>  H        0.3141508238    -0.2025792795     0.9707689218
| 18>  H       -1.1116924664    -0.2829377073    -0.0508892357
| 19>  H        0.3513874253    -0.0421990706    -2.0724872621
| 20>  H        2.6480145955     0.7314879298    -0.7554974201
| 21>  H        4.9311944404    -0.4022149246    -1.3277593345
| 22>  H        4.8565647972    -2.1582462715    -1.0828126831
| 23>  H        4.7345176590    -1.4992113069    -2.7066909091
| 24>  H        1.9835972003    -2.4304478512    -3.0404434129
| 25>  H        2.4302379412    -3.3686514401    -1.6238939333
| 26>  H       -0.1418498932    -2.3237546765    -1.9475793403
| 27>  H        1.3435763576    -2.5559239653     0.7276291839
| 28>  H       -0.4164399905    -2.5453829716     0.5369846448
| 29>  H        0.5359130231    -3.8707524447    -0.1362638932
| 30> *
| 31>
| 32>                          ****END OF INPUT****

CARTESIAN COORDINATES (ANGSTROEM)
---------------------------------
  C     -0.160701    1.648924   -0.036883
  C     -0.091300    0.118274    0.004097
  C      0.741636   -0.483103   -1.139053
  C      2.231403   -0.217195   -1.078887
  C      2.956881   -1.246255   -1.521309
  C      4.444098   -1.322332   -1.662666
  C      2.053841   -2.388167   -1.943196
  C      0.688585   -2.039913   -1.292010
  C      0.525347   -2.789563    0.037582
  H      0.830641    2.102974    0.062589
  H     -0.590118    1.999797   -0.982228
  H     -0.782811    2.037905    0.775429
  H      0.314151   -0.202579    0.970769
  H     -1.111692   -0.282938   -0.050889
  H      0.351387   -0.042199   -2.072487
  H      2.648015    0.731488   -0.755497
  H      4.931194   -0.402215   -1.327759
  H      4.856565   -2.158246   -1.082813
  H      4.734518   -1.499211   -2.706691
  H      1.983597   -2.430448   -3.040443
  H      2.430238   -3.368651   -1.623894
  H     -0.141850   -2.323755   -1.947579
  H      1.343576   -2.555924    0.727629
  H     -0.416440   -2.545383    0.536985
  H      0.535913   -3.870752   -0.136264

 Total Charge           Charge          ....    0
 Multiplicity           Mult            ....    1
 Number of Electrons    NEL             ....   70
 Basis Dimension        Dim             ....  375

ORBITAL ENERGIES
----------------

  NO   OCC          E(Eh)            E(eV)
   0   2.0000     -11.222386      -305.3766
   1   2.0000     -11.221657      -305.3568
   2   2.0000     -11.220067      -305.3135
   3   2.0000     -11.218253      -305.2642
   4   2.0000     -11.215820      -305.1980
   5   2.0000     -11.214093      -305.1510
   6   2.0000     -11.209459      -305.0249
   7   2.0000     -11.205878      -304.9274
   8   2.0000     -11.205647      -304.9212
   9   2.0000      -1.140038       -31.0220
  10   2.0000      -1.045413       -28.4471
  11   2.0000      -1.015314       -27.6281
  12   2.0000      -0.955705       -26.0061
  13   2.0000      -0.922441       -25.1009
  14   2.0000      -0.880832       -23.9687
  15   2.0000      -0.817749       -22.2521
  16   2.0000      -0.740844       -20.1594
  17   2.0000      -0.702856       -19.1257
  18   2.0000      -0.654213       -17.8020
  19   2.0000      -0.613847       -16.7036
  20   2.0000      -0.602874       -16.4050
  21   2.0000      -0.577409       -15.7121
  22   2.0000      -0.569552       -15.4983
  23   2.0000      -0.561111       -15.2686
  24   2.0000      -0.553544       -15.0627
  25   2.0000      -0.536914       -14.6102
  26   2.0000      -0.512223       -13.9383
  27   2.0000      -0.506020       -13.7695
  28   2.0000      -0.495654       -13.4874
  29   2.0000      -0.485177       -13.2023
  30   2.0000      -0.458834       -12.4855
  31   2.0000      -0.455198       -12.3866
  32   2.0000      -0.446863       -12.1598
  33   2.0000      -0.432027       -11.7560
  34   2.0000      -0.326402        -8.8818
  35   0.0000       0.133995         3.6462
  36   0.0000       0.147576         4.0157
  37   0.0000       0.159132         4.3302
  38   0.0000       0.162332         4.4173
  39   0.0000       0.174250         4.7416

MULLIKEN ATOMIC CHARGES
-----------------------
   0 C :   -0.398832
   1 C :   -0.216980
   2 C :    0.022579
   3 C :   -0.310440
   4 C :    0.042482
   5 C :   -0.437928
   6 C :   -0.203355
   7 C :    0.034892
   8 C :   -0.483023
   9 H :    0.124384
  10 H :    0.124083
  11 H :    0.133147
  12 H :    0.117488
  13 H :    0.112123
  14 H :    0.086850
  15 H :    0.112642
  16 H :    0.135342
  17 H :    0.136802
  18 H :    0.135484
  19 H :    0.113536
  20 H :    0.116808
  21 H :    0.092818
  22 H :    0.141417
  23 H :    0.134227
  24 H :    0.133455
Sum of atomic charges:   -0.0000000

LOEWDIN ATOMIC CHARGES
----------------------
   0 C :   -0.318143
   1 C :   -0.273199
   2 C :   -0.215363
   3 C :   -0.126352
   4 C :   -0.190094
   5 C :   -0.276685
   6 C :   -0.193877
   7 C :   -0.225246
   8 C :   -0.295694
   9 H :    0.118808
  10 H :    0.120498
  11 H :    0.120280
  12 H :    0.138584
  13 H :    0.137596
  14 H :    0.157557
  15 H :    0.136976
  16 H :    0.129232
  17 H :    0.129875
  18 H :    0.130526
  19 H :    0.141514
  20 H :    0.138514
  21 H :    0.144168
  22 H :    0.126886
  23 H :    0.121271
  24 H :    0.122367

  Mayer bond orders larger than 0.1
B(  0-C ,  1-C ) :   0.9153 B(  0-C ,  9-H ) :   0.9411 B(  0-C , 10-H ) :   0.9403
B(  0-C , 11-H ) :   0.9425 B(  1-C ,  2-C ) :   0.8948 B(  1-C , 12-H ) :   0.9284
B(  1-C , 13-H ) :   0.9417 B(  2-C ,  3-C ) :   0.9219 B(  2-C ,  7-C ) :   0.9147
B(  2-C , 14-H ) :   0.9121 B(  3-C ,  4-C ) :   1.7514 B(  3-C , 15-H ) :   0.9216
B(  4-C ,  5-C ) :   0.8896 B(  4-C ,  6-C ) :   0.9544 B(  5-C , 16-H ) :   0.9497
B(  5-C , 17-H ) :   0.9375 B(  5-C , 18-H ) :   0.9266 B(  6-C ,  7-C ) :   0.9205
B(  6-C , 19-H ) :   0.8930 B(  6-C , 20-H ) :   0.9313 B(  7-C ,  8-C ) :   0.8755
B(  7-C , 21-H ) :   0.9272 B(  8-C , 22-H ) :   0.9419 B(  8-C , 23-H ) :   0.9398
B(  8-C , 24-H ) :   0.9372

MP2 TOTAL ENERGY:     -351.732227892 Eh
FINAL SINGLE POINT ENERGY      -351.732227891845

DIPOLE MOMENT
-------------
                                X             Y             Z
Electronic contribution:      1.55774      -0.62412      -2.26763
Nuclear contribution   :     -1.54066       0.56403       2.19867
                        -----------------------------------------
Total Dipole Moment    :      0.01708      -0.06009      -0.06896
                        -----------------------------------------
Magnitude (a.u.)       :      0.09305
Magnitude (Debye)      :      0.23651

                             ****ORCA TERMINATED NORMALLY****
TOTAL RUN TIME: 0 days 0 hours 35 minutes 18 seconds 46 msec
