                         Program Version 3.0.3 - RELEASE   -
|  1> ! RI-MP2 RIJK def2-TZVP def2-TZVP/C def2-TZVP/JK TIGHTSCF
|  2> % maxcore 2000
|  3> % mp2 density relaxed end
|  4> *xyz 0 1
|  5>  C       -0.6751333491     1.2081722344    -0.0042364659
|  6>  C        0.1476490669    -0.0666178303    -0.1038578491
|  7>  C        1.5577491414    -0.0498659537    -0.7590451750
|  8>  C        2.0176491623    -1.1009756045     0.2876818487
|  9>  C        0.7987970394    -0.7108354438     1.1585106583
| 10>  C        1.0880022343     0.1981606042     2.3641848299
| 11>  O        0.0213600751    -0.0885214525     3.2566858068
| 12>  C       -0.1834195151    -1.4685464172     3.1024628792
| 13>  O        0.0491035613    -1.7743667218     1.7409054595
| 14>  H       -0.0802309020     2.0500832485     0.3667938770
| 15>  H       -1.0680870252     1.4973183649    -0.9848912535
| 16>  H       -1.5258516189     1.0754754565     0.6726178241
| 17>  H       -0.4515525851    -0.8580188691    -0.5677100672
| 18>  H        1.6266001568    -0.3247730168    -1.8132100627
| 19>  H        2.0581090159     0.9137192823    -0.6182374623
| 20>  H        1.9079086358    -2.1239491221    -0.0802007109
| 21>  H        3.0103989665    -0.9884199084     0.7329240607
| 22>  H        2.0584592017    -0.0648291946     2.8162783645
| 23>  H        1.0768816082     1.2663577790     2.1441775347
| 24>  H        0.5137074039    -2.0438126630     3.7389727549
| 25>  H       -1.2179927341    -1.7061926720     3.3705032683
| 26> *
| 27>
| 28>                          ****END OF INPUT****

CARTESIAN COORDINATES (ANGSTROEM)
---------------------------------
  C     -0.675133    1.208172   -0.004236
  C      0.147649   -0.066618   -0.103858
  C      1.557749   -0.049866   -0.759045
  C      2.017649   -1.100976    0.287682
  C      0.798797   -0.710835    1.158511
  C      1.088002    0.198161    2.364185
  O      0.021360   -0.088521    3.256686
  C     -0.183420   -1.468546    3.102463
  O      0.049104   -1.774367    1.740905
  H     -0.080231    2.050083    0.366794
  H     -1.068087    1.497318   -0.984891
  H     -1.525852    1.075475    0.672618
  H     -0.451553   -0.858019   -0.567710
  H      1.626600   -0.324773   -1.813210
  H      2.058109    0.913719   -0.618237
  H      1.907909   -2.123949   -0.080201
  H      3.010399   -0.988420    0.732924
  H      2.058459   -0.064829    2.816278
  H      1.076882    1.266358    2.144178
  H      0.513707   -2.043813    3.738973
  H     -1.217993   -1.706193    3.370503

 Total Charge           Charge          ....    0
 Multiplicity           Mult            ....    1
 Number of Electrons    NEL             ....   70
 Basis Dimension        Dim             ....  351

ORBITAL ENERGIES
----------------

  NO   OCC          E(Eh)            E(eV)
   0   2.0000     -20.566776      -559.6504
   1   2.0000     -20.557693      -559.4033
   2   2.0000     -11.326253      -308.2030
   3   2.0000     -11.286065      -307.1094
   4   2.0000     -11.281739      -306.9917
   5   2.0000     -11.226439      -305.4869
   6   2.0000     -11.223790      -305.4149
   7   2.0000     -11.223217      -305.3992
   8   2.0000     -11.214047      -305.1497
   9   2.0000      -1.438955       -39.1560
  10   2.0000      -1.332350       -36.2551
  11   2.0000      -1.138167       -30.9711
  12   2.0000      -0.997216       -27.1356
  13   2.0000      -0.981054       -26.6958
  14   2.0000      -0.872287       -23.7361
  15   2.0000      -0.857219       -23.3261
  16   2.0000      -0.843337       -22.9484
  17   2.0000      -0.748556       -20.3693
  18   2.0000      -0.707220       -19.2444
  19   2.0000      -0.684427       -18.6242
  20   2.0000      -0.653944       -17.7947
  21   2.0000      -0.624607       -16.9964
  22   2.0000      -0.608072       -16.5465
  23   2.0000      -0.580928       -15.8079
  24   2.0000      -0.577701       -15.7200
  25   2.0000      -0.562665       -15.3109
  26   2.0000      -0.540850       -14.7173
  27   2.0000      -0.516976       -14.0676
  28   2.0000      -0.510803       -13.8996
  29   2.0000      -0.502609       -13.6767
  30   2.0000      -0.471432       -12.8283
  31   2.0000      -0.453988       -12.3536
  32   2.0000      -0.441343       -12.0096
  33   2.0000      -0.428257       -11.6535
  34   2.0000      -0.398120       -10.8334
  35   0.0000       0.138054         3.7566
  36   0.0000       0.157779         4.2934
  37   0.0000       0.159522         4.3408
  38   0.0000       0.168354         4.5811
  39   0.0000       0.194392         5.2897

MULLIKEN ATOMIC CHARGES
-----------------------
   0 C :   -0.406695
   1 C :   -0.075962
   2 C :   -0.254415
   3 C :   -0.250896
   4 C :    0.207574
   5 C :   -0.073380
   6 O :   -0.328590
   7 C :    0.117218
   8 O :   -0.322585
   9 H :    0.110628
  10 H :    0.137594
  11 H :    0.143801
  12 H :    0.099677
  13 H :    0.121439
  14 H :    0.112388
  15 H :    0.124997
  16 H :    0.116261
  17 H :    0.105586
  18 H :    0.122244
  19 H :    0.076328
  20 H :    0.116788
Sum of atomic charges:    0.0000000

LOEWDIN ATOMIC CHARGES
----------------------
   0 C :   -0.299909
   1 C :   -0.222357
   2 C :   -0.219204
   3 C :   -0.201125
   4 C :   -0.304493
   5 C :   -0.264133
   6 O :    0.157981
   7 C :   -0.374421
   8 O :    0.185229
   9 H :    0.119622
  10 H :    0.125834
  11 H :    0.129899
  12 H :    0.158855
  13 H :    0.124840
  14 H :    0.133354
  15 H :    0.142725
  16 H :    0.125290
  17 H :    0.125915
  18 H :    0.133758
  19 H :    0.104987
  20 H :    0.117353

  Mayer bond orders larger than 0.1
B(  0-C ,  1-C ) :   0.9214 B(  0-C ,  9-H ) :   0.9302 B(  0-C , 10-H ) :   0.9378
B(  0-C , 11-H ) :   0.9368 B(  1-C ,  2-C ) :   0.9297 B(  1-C ,  4-C ) :   0.8992
B(  1-C , 12-H ) :   0.9182 B(  2-C ,  3-C ) :   0.9365 B(  2-C , 13-H ) :   0.9295
B(  2-C , 14-H ) :   0.9186 B(  3-C ,  4-C ) :   0.8959 B(  3-C , 15-H ) :   0.9167
B(  3-C , 16-H ) :   0.9254 B(  4-C ,  5-C ) :   0.9365 B(  4-C ,  8-O ) :   0.9592
B(  5-C ,  6-O ) :   0.9084 B(  5-C , 17-H ) :   0.9276 B(  5-C , 18-H ) :   0.9141
B(  6-O ,  7-C ) :   0.9641 B(  7-C ,  8-O ) :   0.9663 B(  7-C , 19-H ) :   0.9200
B(  7-C , 20-H ) :   0.9251

MP2 TOTAL ENERGY:     -423.515323450 Eh
FINAL SINGLE POINT ENERGY      -423.515323450116

DIPOLE MOMENT
-------------
                                X             Y             Z
Electronic contribution:     -1.21552      -3.45017       4.85493
Nuclear contribution   :      1.59333       3.59255      -5.05717
                        -----------------------------------------
Total Dipole Moment    :      0.37781       0.14239      -0.20224
                        -----------------------------------------
Magnitude (a.u.)       :      0.45157
Magnitude (Debye)      :      1.14780

                             ****ORCA TERMINATED NORMALLY****
TOTAL RUN TIME: 0 days 0 hours 18 minutes 10 seconds 223 msec
