                         Program Version 3.0.3 - RELEASE   -
|  1> ! RI-MP2 RIJK def2-TZVP def2-TZVP/C def2-TZVP/JK TIGHTSCF
|  2> % maxcore 2000
|  3> % mp2 density relaxed end
|  4> *xyz 0 1
|  5>  C        0.0054916009     1.5892194915     0.0481752496
|  6>  C       -0.0445355903     0.0594943428    -0.0025753442
|  7>  C        0.7649482193    -0.5727013132     1.1491514600
|  8>  C       -1.4619205548    -0.4459125801     0.0137817894
|  9>  N       -2.5023133472     0.2488862202     0.2859937491
| 10>  C       -3.6467404380    -0.6579672212     0.1988147237
| 11>  C       -3.0904850759    -2.0338037468    -0.1899773443
| 12>  O       -3.6520771380    -3.0823714418    -0.3869200984
| 13>  N       -1.7236613076    -1.7918696439    -0.2708876296
| 14>  H        1.0437120909     1.9315696498     0.0061454169
| 15>  H       -0.5434949531     2.0310883458    -0.7863886215
| 16>  H       -0.4480430802     1.9591645034     0.9710380237
| 17>  H        0.4021921233    -0.2788395858    -0.9491517818
| 18>  H        0.3637851995    -0.2558211102     2.1170053241
| 19>  H        0.7440114331    -1.6664675024     1.1189314933
| 20>  H        1.8101795226    -0.2554423386     1.0930345147
| 21>  H       -4.1783712286    -0.7174836512     1.1552468408
| 22>  H       -4.3715509492    -0.3119338124    -0.5464100864
| 23>  H       -1.0489634568    -2.4937950257    -0.5284013489
| 24> *
| 25>
| 26>                          ****END OF INPUT****

CARTESIAN COORDINATES (ANGSTROEM)
---------------------------------
  C      0.005492    1.589219    0.048175
  C     -0.044536    0.059494   -0.002575
  C      0.764948   -0.572701    1.149151
  C     -1.461921   -0.445913    0.013782
  N     -2.502313    0.248886    0.285994
  C     -3.646740   -0.657967    0.198815
  C     -3.090485   -2.033804   -0.189977
  O     -3.652077   -3.082371   -0.386920
  N     -1.723661   -1.791870   -0.270888
  H      1.043712    1.931570    0.006145
  H     -0.543495    2.031088   -0.786389
  H     -0.448043    1.959165    0.971038
  H      0.402192   -0.278840   -0.949152
  H      0.363785   -0.255821    2.117005
  H      0.744011   -1.666468    1.118931
  H      1.810180   -0.255442    1.093035
  H     -4.178371   -0.717484    1.155247
  H     -4.371551   -0.311934   -0.546410
  H     -1.048963   -2.493795   -0.528401

 Total Charge           Charge          ....    0
 Multiplicity           Mult            ....    1
 Number of Electrons    NEL             ....   68
 Basis Dimension        Dim             ....  339

ORBITAL ENERGIES
----------------

  NO   OCC          E(Eh)            E(eV)
   0   2.0000     -20.537310      -558.8486
   1   2.0000     -15.609492      -424.7559
   2   2.0000     -15.550760      -423.1577
   3   2.0000     -11.362807      -309.1977
   4   2.0000     -11.329006      -308.2779
   5   2.0000     -11.268895      -306.6422
   6   2.0000     -11.261384      -306.4378
   7   2.0000     -11.238859      -305.8249
   8   2.0000     -11.223230      -305.3996
   9   2.0000      -1.402999       -38.1775
  10   2.0000      -1.321149       -35.9503
  11   2.0000      -1.175959       -31.9995
  12   2.0000      -1.101258       -29.9668
  13   2.0000      -0.987128       -26.8611
  14   2.0000      -0.946931       -25.7673
  15   2.0000      -0.868389       -23.6301
  16   2.0000      -0.822502       -22.3814
  17   2.0000      -0.781008       -21.2523
  18   2.0000      -0.707103       -19.2412
  19   2.0000      -0.663751       -18.0616
  20   2.0000      -0.648003       -17.6331
  21   2.0000      -0.626331       -17.0433
  22   2.0000      -0.618946       -16.8424
  23   2.0000      -0.594187       -16.1687
  24   2.0000      -0.570857       -15.5338
  25   2.0000      -0.552297       -15.0288
  26   2.0000      -0.546707       -14.8766
  27   2.0000      -0.517010       -14.0686
  28   2.0000      -0.511103       -13.9078
  29   2.0000      -0.498621       -13.5682
  30   2.0000      -0.485387       -13.2081
  31   2.0000      -0.477143       -12.9837
  32   2.0000      -0.406332       -11.0569
  33   2.0000      -0.373546       -10.1647
  34   0.0000       0.114583         3.1180
  35   0.0000       0.136961         3.7269
  36   0.0000       0.152877         4.1600
  37   0.0000       0.157068         4.2740
  38   0.0000       0.167252         4.5512

MULLIKEN ATOMIC CHARGES
-----------------------
   0 C :   -0.373268
   1 C :   -0.043451
   2 C :   -0.400140
   3 C :    0.166271
   4 N :   -0.260336
   5 C :   -0.115824
   6 C :    0.184404
   7 O :   -0.315761
   8 N :   -0.306821
   9 H :    0.131071
  10 H :    0.137575
  11 H :    0.139274
  12 H :    0.105485
  13 H :    0.140877
  14 H :    0.122840
  15 H :    0.141033
  16 H :    0.149322
  17 H :    0.149062
  18 H :    0.248387
Sum of atomic charges:    0.0000000

LOEWDIN ATOMIC CHARGES
----------------------
   0 C :   -0.280535
   1 C :   -0.272170
   2 C :   -0.280824
   3 C :   -0.291578
   4 N :    0.098105
   5 C :   -0.243180
   6 C :   -0.414669
   7 O :    0.104510
   8 N :    0.164753
   9 H :    0.123510
  10 H :    0.128917
  11 H :    0.131028
  12 H :    0.160052
  13 H :    0.130158
  14 H :    0.119816
  15 H :    0.127108
  16 H :    0.152145
  17 H :    0.151835
  18 H :    0.191018

  Mayer bond orders larger than 0.1
B(  0-C ,  1-C ) :   0.9466 B(  0-C ,  9-H ) :   0.9345 B(  0-C , 10-H ) :   0.9344
B(  0-C , 11-H ) :   0.9273 B(  1-C ,  2-C ) :   0.8964 B(  1-C ,  3-C ) :   0.9234
B(  1-C , 12-H ) :   0.9210 B(  2-C , 13-H ) :   0.9320 B(  2-C , 14-H ) :   0.9354
B(  2-C , 15-H ) :   0.9365 B(  3-C ,  4-N ) :   1.8296 B(  3-C ,  8-N ) :   1.0184
B(  4-N ,  5-C ) :   0.9398 B(  5-C ,  6-C ) :   0.9138 B(  5-C , 16-H ) :   0.9024
B(  5-C , 17-H ) :   0.9039 B(  6-C ,  7-O ) :   2.0198 B(  6-C ,  8-N ) :   1.0818
B(  8-N , 18-H ) :   0.8577

MP2 TOTAL ENERGY:     -418.562235148 Eh
FINAL SINGLE POINT ENERGY      -418.562235147905

DIPOLE MOMENT
-------------
                                X             Y             Z
Electronic contribution:     -8.81182      -6.72749      -2.51980
Nuclear contribution   :     10.01358       7.03143       2.50075
                        -----------------------------------------
Total Dipole Moment    :      1.20176       0.30394      -0.01905
                        -----------------------------------------
Magnitude (a.u.)       :      1.23974
Magnitude (Debye)      :      3.15118

                             ****ORCA TERMINATED NORMALLY****
TOTAL RUN TIME: 0 days 0 hours 19 minutes 12 seconds 508 msec
