                         Program Version 3.0.3 - RELEASE   -
|  1> ! RI-MP2 RIJK def2-TZVP def2-TZVP/C def2-TZVP/JK TIGHTSCF
|  2> % maxcore 2000
|  3> % mp2 density relaxed end
|  4> *xyz 0 1
|  5>  O        0.1404183583    -0.1697352667    -0.3352392834
|  6>  C        0.1810772432     1.0175532992    -0.1450372466
|  7>  C        1.4242572986     1.8723666074    -0.2507822284
|  8>  C        1.2422286472     3.0214637226    -1.2575552522
|  9>  C        2.4506025279     3.9630159600    -1.2996625512
| 10>  C        2.2675741619     5.0922851421    -2.3079833124
| 11>  O        3.3723721451     6.0021064022    -2.2470180869
| 12>  C        4.2493627575     6.0078726419    -3.2685244214
| 13>  O        5.2168091384     6.7061490048    -3.2873028512
| 14>  H       -0.7407656464     1.5857886429     0.1262132195
| 15>  H        1.6212214702     2.2962400830     0.7447855501
| 16>  H        2.2681945359     1.2307565264    -0.5201610838
| 17>  H        1.0640863773     2.6002210016    -2.2553568963
| 18>  H        0.3404412037     3.5928402747    -0.9991931475
| 19>  H        2.6218605380     4.4019243089    -0.3098594506
| 20>  H        3.3570653463     3.4000921324    -1.5540265356
| 21>  H        2.1631681533     4.6964101864    -3.3272388779
| 22>  H        1.3708398390     5.6784390600    -2.0831047666
| 23>  H        3.9674762446     5.3051577600    -4.0782700976
| 24> *
| 25>
| 26>                          ****END OF INPUT****

CARTESIAN COORDINATES (ANGSTROEM)
---------------------------------
  O      0.140418   -0.169735   -0.335239
  C      0.181077    1.017553   -0.145037
  C      1.424257    1.872367   -0.250782
  C      1.242229    3.021464   -1.257555
  C      2.450603    3.963016   -1.299663
  C      2.267574    5.092285   -2.307983
  O      3.372372    6.002106   -2.247018
  C      4.249363    6.007873   -3.268524
  O      5.216809    6.706149   -3.287303
  H     -0.740766    1.585789    0.126213
  H      1.621221    2.296240    0.744786
  H      2.268195    1.230757   -0.520161
  H      1.064086    2.600221   -2.255357
  H      0.340441    3.592840   -0.999193
  H      2.621861    4.401924   -0.309859
  H      3.357065    3.400092   -1.554027
  H      2.163168    4.696410   -3.327239
  H      1.370840    5.678439   -2.083105
  H      3.967476    5.305158   -4.078270

 Total Charge           Charge          ....    0
 Multiplicity           Mult            ....    1
 Number of Electrons    NEL             ....   70
 Basis Dimension        Dim             ....  339

ORBITAL ENERGIES
----------------

  NO   OCC          E(Eh)            E(eV)
   0   2.0000     -20.615515      -560.9767
   1   2.0000     -20.566678      -559.6478
   2   2.0000     -20.555313      -559.3385
   3   2.0000     -11.388979      -309.9099
   4   2.0000     -11.341468      -308.6170
   5   2.0000     -11.316623      -307.9410
   6   2.0000     -11.261646      -306.4450
   7   2.0000     -11.255824      -306.2865
   8   2.0000     -11.254605      -306.2534
   9   2.0000      -1.468669       -39.9645
  10   2.0000      -1.405532       -38.2465
  11   2.0000      -1.379174       -37.5292
  12   2.0000      -1.116842       -30.3908
  13   2.0000      -1.040736       -28.3199
  14   2.0000      -0.936984       -25.4966
  15   2.0000      -0.856048       -23.2943
  16   2.0000      -0.842689       -22.9307
  17   2.0000      -0.804912       -21.9028
  18   2.0000      -0.734661       -19.9911
  19   2.0000      -0.702002       -19.1024
  20   2.0000      -0.685921       -18.6649
  21   2.0000      -0.667350       -18.1595
  22   2.0000      -0.656448       -17.8629
  23   2.0000      -0.634719       -17.2716
  24   2.0000      -0.607123       -16.5207
  25   2.0000      -0.595478       -16.2038
  26   2.0000      -0.562121       -15.2961
  27   2.0000      -0.550802       -14.9881
  28   2.0000      -0.537089       -14.6149
  29   2.0000      -0.523358       -14.2413
  30   2.0000      -0.510674       -13.8961
  31   2.0000      -0.501938       -13.6584
  32   2.0000      -0.464457       -12.6385
  33   2.0000      -0.463125       -12.6023
  34   2.0000      -0.427330       -11.6282
  35   0.0000       0.113394         3.0856
  36   0.0000       0.125258         3.4084
  37   0.0000       0.133042         3.6202
  38   0.0000       0.141840         3.8597
  39   0.0000       0.155060         4.2194

MULLIKEN ATOMIC CHARGES
-----------------------
   0 O :   -0.258704
   1 C :    0.096788
   2 C :   -0.138798
   3 C :   -0.308322
   4 C :   -0.190237
   5 C :   -0.088453
   6 O :   -0.203728
   7 C :    0.199810
   8 O :   -0.268684
   9 H :    0.071297
  10 H :    0.128515
  11 H :    0.126636
  12 H :    0.132300
  13 H :    0.122317
  14 H :    0.132353
  15 H :    0.123511
  16 H :    0.116911
  17 H :    0.135091
  18 H :    0.071395
Sum of atomic charges:    0.0000000

LOEWDIN ATOMIC CHARGES
----------------------
   0 O :    0.135136
   1 C :   -0.297558
   2 C :   -0.260690
   3 C :   -0.261288
   4 C :   -0.269883
   5 C :   -0.294894
   6 O :    0.245212
   7 C :   -0.454909
   8 O :    0.121726
   9 H :    0.109437
  10 H :    0.152599
  11 H :    0.146414
  12 H :    0.142345
  13 H :    0.140718
  14 H :    0.145159
  15 H :    0.142412
  16 H :    0.124302
  17 H :    0.133069
  18 H :    0.100693

  Mayer bond orders larger than 0.1
B(  0-O ,  1-C ) :   2.0079 B(  1-C ,  2-C ) :   0.8760 B(  1-C ,  9-H ) :   0.9376
B(  2-C ,  3-C ) :   0.9083 B(  2-C , 10-H ) :   0.9158 B(  2-C , 11-H ) :   0.9057
B(  3-C ,  4-C ) :   0.9135 B(  3-C , 12-H ) :   0.9255 B(  3-C , 13-H ) :   0.9286
B(  4-C ,  5-C ) :   0.9304 B(  4-C , 14-H ) :   0.9255 B(  4-C , 15-H ) :   0.9264
B(  5-C ,  6-O ) :   0.8652 B(  5-C , 16-H ) :   0.9497 B(  5-C , 17-H ) :   0.9282
B(  6-O ,  7-C ) :   1.0711 B(  7-C ,  8-O ) :   2.0234 B(  7-C , 18-H ) :   0.9135

MP2 TOTAL ENERGY:     -459.450972312 Eh
FINAL SINGLE POINT ENERGY      -459.450972311932

DIPOLE MOMENT
-------------
                                X             Y             Z
Electronic contribution:      3.66617       2.42193      -1.78025
Nuclear contribution   :     -4.66310      -2.49347       1.80101
                        -----------------------------------------
Total Dipole Moment    :     -0.99693      -0.07153       0.02076
                        -----------------------------------------
Magnitude (a.u.)       :      0.99970
Magnitude (Debye)      :      2.54105

                             ****ORCA TERMINATED NORMALLY****
TOTAL RUN TIME: 0 days 0 hours 13 minutes 21 seconds 437 msec
