                         Program Version 3.0.3 - RELEASE   -
|  1> ! RI-MP2 RIJK def2-TZVP def2-TZVP/C def2-TZVP/JK TIGHTSCF
|  2> % maxcore 2000
|  3> % mp2 density relaxed end
|  4> *xyz 0 1
|  5>  O        0.1446829050     1.5453709889     0.3135587100
|  6>  C       -0.0319992592     0.1741460832     0.0585412765
|  7>  C       -1.4994411230    -0.1917809911    -0.2102325964
|  8>  C       -1.3537739443    -1.3659773349    -1.1865433082
|  9>  O       -0.1537459783    -1.0902414747    -1.9486123740
| 10>  C        0.6135984928    -0.1943720580    -1.3030999542
| 11>  O        1.6239602055     0.2790559822    -1.7361541767
| 12>  C        0.5617512291    -0.6765501187     1.0985182933
| 13>  C        1.0487083847    -1.3836386521     1.9397118250
| 14>  H        1.0298601068     1.7656898805    -0.0124378693
| 15>  H       -2.0574613035    -0.4528097693     0.6888113862
| 16>  H       -1.9731368789     0.6657615948    -0.6958076269
| 17>  H       -1.2201543644    -2.3203583938    -0.6680674199
| 18>  H       -2.1765210890    -1.4532161405    -1.8971984227
| 19>  H        1.4887771669    -1.9963100965     2.6880451372
| 20> *
| 21>
| 22>                          ****END OF INPUT****

CARTESIAN COORDINATES (ANGSTROEM)
---------------------------------
  O      0.144683    1.545371    0.313559
  C     -0.031999    0.174146    0.058541
  C     -1.499441   -0.191781   -0.210233
  C     -1.353774   -1.365977   -1.186543
  O     -0.153746   -1.090241   -1.948612
  C      0.613598   -0.194372   -1.303100
  O      1.623960    0.279056   -1.736154
  C      0.561751   -0.676550    1.098518
  C      1.048708   -1.383639    1.939712
  H      1.029860    1.765690   -0.012438
  H     -2.057461   -0.452810    0.688811
  H     -1.973137    0.665762   -0.695808
  H     -1.220154   -2.320358   -0.668067
  H     -2.176521   -1.453216   -1.897198
  H      1.488777   -1.996310    2.688045

 Total Charge           Charge          ....    0
 Multiplicity           Mult            ....    1
 Number of Electrons    NEL             ....   66
 Basis Dimension        Dim             ....  315

ORBITAL ENERGIES
----------------

  NO   OCC          E(Eh)            E(eV)
   0   2.0000     -20.620628      -561.1158
   1   2.0000     -20.585185      -560.1514
   2   2.0000     -20.560360      -559.4758
   3   2.0000     -11.394869      -310.0702
   4   2.0000     -11.349132      -308.8256
   5   2.0000     -11.316316      -307.9326
   6   2.0000     -11.263585      -306.4977
   7   2.0000     -11.255709      -306.2834
   8   2.0000     -11.251155      -306.1595
   9   2.0000      -1.480312       -40.2813
  10   2.0000      -1.401267       -38.1304
  11   2.0000      -1.383487       -37.6466
  12   2.0000      -1.114486       -30.3267
  13   2.0000      -1.046086       -28.4654
  14   2.0000      -0.988525       -26.8991
  15   2.0000      -0.877494       -23.8778
  16   2.0000      -0.819459       -22.2986
  17   2.0000      -0.764739       -20.8096
  18   2.0000      -0.728737       -19.8299
  19   2.0000      -0.718027       -19.5385
  20   2.0000      -0.697993       -18.9934
  21   2.0000      -0.675590       -18.3837
  22   2.0000      -0.633272       -17.2322
  23   2.0000      -0.615261       -16.7421
  24   2.0000      -0.597275       -16.2527
  25   2.0000      -0.567271       -15.4362
  26   2.0000      -0.542714       -14.7680
  27   2.0000      -0.529671       -14.4131
  28   2.0000      -0.502442       -13.6722
  29   2.0000      -0.472986       -12.8706
  30   2.0000      -0.463980       -12.6255
  31   2.0000      -0.419422       -11.4130
  32   2.0000      -0.404646       -11.0110
  33   0.0000       0.126451         3.4409
  34   0.0000       0.133529         3.6335
  35   0.0000       0.145064         3.9474
  36   0.0000       0.156595         4.2612
  37   0.0000       0.167245         4.5510

MULLIKEN ATOMIC CHARGES
-----------------------
   0 O :   -0.453549
   1 C :    0.209464
   2 C :   -0.270242
   3 C :   -0.063052
   4 O :   -0.212151
   5 C :    0.243689
   6 O :   -0.293147
   7 C :   -0.140764
   8 C :   -0.126657
   9 H :    0.338984
  10 H :    0.153322
  11 H :    0.143985
  12 H :    0.131933
  13 H :    0.138819
  14 H :    0.199367
Sum of atomic charges:    0.0000000

LOEWDIN ATOMIC CHARGES
----------------------
   0 O :    0.043481
   1 C :   -0.358454
   2 C :   -0.193641
   3 C :   -0.243979
   4 O :    0.273464
   5 C :   -0.436679
   6 O :    0.148444
   7 C :   -0.060750
   8 C :   -0.064922
   9 H :    0.194073
  10 H :    0.149445
  11 H :    0.153662
  12 H :    0.132329
  13 H :    0.132263
  14 H :    0.131263

  Mayer bond orders larger than 0.1
B(  0-O ,  1-C ) :   1.0279 B(  0-O ,  9-H ) :   0.8177 B(  1-C ,  2-C ) :   0.8435
B(  1-C ,  5-C ) :   0.8823 B(  1-C ,  7-C ) :   1.1076 B(  2-C ,  3-C ) :   0.9461
B(  2-C , 10-H ) :   0.9205 B(  2-C , 11-H ) :   0.9191 B(  3-C ,  4-O ) :   0.8534
B(  3-C , 12-H ) :   0.9198 B(  3-C , 13-H ) :   0.9275 B(  4-O ,  5-C ) :   1.1583
B(  5-C ,  6-O ) :   1.9851 B(  7-C ,  8-C ) :   2.6166 B(  8-C , 14-H ) :   0.8854

MP2 TOTAL ENERGY:     -457.027317391 Eh
FINAL SINGLE POINT ENERGY      -457.027317390878

DIPOLE MOMENT
-------------
                                X             Y             Z
Electronic contribution:      4.17598       1.24722      -1.64596
Nuclear contribution   :     -5.16377      -1.93664       2.25440
                        -----------------------------------------
Total Dipole Moment    :     -0.98779      -0.68941       0.60843
                        -----------------------------------------
Magnitude (a.u.)       :      1.34952
Magnitude (Debye)      :      3.43022

                             ****ORCA TERMINATED NORMALLY****
TOTAL RUN TIME: 0 days 0 hours 16 minutes 8 seconds 316 msec
