                         Program Version 3.0.3 - RELEASE   -
|  1> ! RI-MP2 RIJK def2-TZVP def2-TZVP/C def2-TZVP/JK TIGHTSCF
|  2> % maxcore 2000
|  3> % mp2 density relaxed end
|  4> *xyz 0 1
|  5>  C        0.8840840331    -0.3762791935    -1.1089407033
|  6>  C        0.0100021847     0.0614916963     0.0748441707
|  7>  C       -0.0467101029     1.5928451758     0.1630487324
|  8>  C       -1.4142259774    -0.5232351592     0.0053397386
|  9>  C       -1.5259417613    -2.0496722771     0.0674115175
| 10>  C       -1.0015346325    -2.6943131004     1.3689425090
| 11>  C       -1.6982348328    -4.0789818341     1.4637405472
| 12>  C       -2.8590907035    -4.0450866297     0.4282680570
| 13>  C       -2.9721618936    -2.5722036256    -0.0012828094
| 14>  H        1.8834479011     0.0666916884    -1.0418617272
| 15>  H        1.0081101494    -1.4624510322    -1.1509808939
| 16>  H        0.4428881193    -0.0541136634    -2.0603224977
| 17>  H        0.4820670439    -0.3065440007     0.9965448336
| 18>  H       -0.5097330117     2.0204466237    -0.7347852995
| 19>  H       -0.6338343084     1.9221180379     1.0269803747
| 20>  H        0.9559526997     2.0238182375     0.2547263889
| 21>  H       -2.0038550372    -0.1030638093     0.8329610009
| 22>  H       -1.8937115696    -0.1658343598    -0.9179435714
| 23>  H       -0.9779044222    -2.4862761822    -0.7796180639
| 24>  H        0.0889282900    -2.7729388184     1.3964795736
| 25>  H       -1.2936891097    -2.0650428708     2.2195276921
| 26>  H       -1.0013625138    -4.8921363267     1.2404677916
| 27>  H       -2.0689870127    -4.2604143865     2.4767278615
| 28>  H       -2.6064509529    -4.6638393049    -0.4399006472
| 29>  H       -3.7953711798    -4.4395052186     0.8329399198
| 30>  H       -3.5924849660    -2.0129333821     0.7127377185
| 31>  H       -3.4269126132    -2.4471106144    -0.9891873241
| 32> *
| 33>
| 34>                          ****END OF INPUT****

CARTESIAN COORDINATES (ANGSTROEM)
---------------------------------
  C      0.884084   -0.376279   -1.108941
  C      0.010002    0.061492    0.074844
  C     -0.046710    1.592845    0.163049
  C     -1.414226   -0.523235    0.005340
  C     -1.525942   -2.049672    0.067412
  C     -1.001535   -2.694313    1.368943
  C     -1.698235   -4.078982    1.463741
  C     -2.859091   -4.045087    0.428268
  C     -2.972162   -2.572204   -0.001283
  H      1.883448    0.066692   -1.041862
  H      1.008110   -1.462451   -1.150981
  H      0.442888   -0.054114   -2.060322
  H      0.482067   -0.306544    0.996545
  H     -0.509733    2.020447   -0.734785
  H     -0.633834    1.922118    1.026980
  H      0.955953    2.023818    0.254726
  H     -2.003855   -0.103064    0.832961
  H     -1.893712   -0.165834   -0.917944
  H     -0.977904   -2.486276   -0.779618
  H      0.088928   -2.772939    1.396480
  H     -1.293689   -2.065043    2.219528
  H     -1.001363   -4.892136    1.240468
  H     -2.068987   -4.260414    2.476728
  H     -2.606451   -4.663839   -0.439901
  H     -3.795371   -4.439505    0.832940
  H     -3.592485   -2.012933    0.712738
  H     -3.426913   -2.447111   -0.989187

 Total Charge           Charge          ....    0
 Multiplicity           Mult            ....    1
 Number of Electrons    NEL             ....   72
 Basis Dimension        Dim             ....  387

ORBITAL ENERGIES
----------------

  NO   OCC          E(Eh)            E(eV)
   0   2.0000     -11.221254      -305.3458
   1   2.0000     -11.215434      -305.1875
   2   2.0000     -11.212095      -305.0966
   3   2.0000     -11.211376      -305.0770
   4   2.0000     -11.210743      -305.0598
   5   2.0000     -11.210395      -305.0503
   6   2.0000     -11.209660      -305.0304
   7   2.0000     -11.207515      -304.9720
   8   2.0000     -11.207321      -304.9667
   9   2.0000      -1.121699       -30.5230
  10   2.0000      -1.073292       -29.2058
  11   2.0000      -0.982347       -26.7310
  12   2.0000      -0.954431       -25.9714
  13   2.0000      -0.923788       -25.1376
  14   2.0000      -0.885530       -24.0965
  15   2.0000      -0.781354       -21.2617
  16   2.0000      -0.769148       -20.9296
  17   2.0000      -0.741462       -20.1762
  18   2.0000      -0.652612       -17.7585
  19   2.0000      -0.635779       -17.3004
  20   2.0000      -0.614666       -16.7259
  21   2.0000      -0.594682       -16.1821
  22   2.0000      -0.568142       -15.4599
  23   2.0000      -0.560005       -15.2385
  24   2.0000      -0.553570       -15.0634
  25   2.0000      -0.530166       -14.4266
  26   2.0000      -0.516972       -14.0675
  27   2.0000      -0.495296       -13.4777
  28   2.0000      -0.476124       -12.9560
  29   2.0000      -0.470522       -12.8036
  30   2.0000      -0.466845       -12.7035
  31   2.0000      -0.458725       -12.4825
  32   2.0000      -0.450465       -12.2578
  33   2.0000      -0.440379       -11.9833
  34   2.0000      -0.439026       -11.9465
  35   2.0000      -0.425826       -11.5873
  36   0.0000       0.131575         3.5803
  37   0.0000       0.147560         4.0153
  38   0.0000       0.157491         4.2855
  39   0.0000       0.164670         4.4809
  40   0.0000       0.182066         4.9543

MULLIKEN ATOMIC CHARGES
-----------------------
   0 C :   -0.422357
   1 C :   -0.003980
   2 C :   -0.389883
   3 C :   -0.250670
   4 C :   -0.071871
   5 C :   -0.285116
   6 C :   -0.202217
   7 C :   -0.222544
   8 C :   -0.206111
   9 H :    0.130284
  10 H :    0.132488
  11 H :    0.120674
  12 H :    0.090062
  13 H :    0.119477
  14 H :    0.127086
  15 H :    0.129355
  16 H :    0.107781
  17 H :    0.110770
  18 H :    0.088602
  19 H :    0.124143
  20 H :    0.107380
  21 H :    0.111296
  22 H :    0.112826
  23 H :    0.105951
  24 H :    0.119110
  25 H :    0.100643
  26 H :    0.116821
Sum of atomic charges:    0.0000000

LOEWDIN ATOMIC CHARGES
----------------------
   0 C :   -0.297005
   1 C :   -0.307957
   2 C :   -0.297469
   3 C :   -0.231335
   4 C :   -0.255049
   5 C :   -0.238108
   6 C :   -0.252403
   7 C :   -0.258909
   8 C :   -0.240197
   9 H :    0.122518
  10 H :    0.120028
  11 H :    0.123189
  12 H :    0.149706
  13 H :    0.122392
  14 H :    0.121287
  15 H :    0.121337
  16 H :    0.141673
  17 H :    0.141620
  18 H :    0.152008
  19 H :    0.131232
  20 H :    0.136869
  21 H :    0.130860
  22 H :    0.130918
  23 H :    0.133255
  24 H :    0.129736
  25 H :    0.137442
  26 H :    0.132364

  Mayer bond orders larger than 0.1
B(  0-C ,  1-C ) :   0.9134 B(  0-C ,  9-H ) :   0.9394 B(  0-C , 10-H ) :   0.9392
B(  0-C , 11-H ) :   0.9320 B(  1-C ,  2-C ) :   0.9143 B(  1-C ,  3-C ) :   0.9201
B(  1-C , 12-H ) :   0.9296 B(  2-C , 13-H ) :   0.9334 B(  2-C , 14-H ) :   0.9406
B(  2-C , 15-H ) :   0.9428 B(  3-C ,  4-C ) :   0.9104 B(  3-C , 16-H ) :   0.9233
B(  3-C , 17-H ) :   0.9295 B(  4-C ,  5-C ) :   0.9173 B(  4-C ,  8-C ) :   0.9246
B(  4-C , 18-H ) :   0.9307 B(  5-C ,  6-C ) :   0.9361 B(  5-C , 19-H ) :   0.9320
B(  5-C , 20-H ) :   0.9241 B(  6-C ,  7-C ) :   0.9319 B(  6-C , 21-H ) :   0.9373
B(  6-C , 22-H ) :   0.9382 B(  7-C ,  8-C ) :   0.9464 B(  7-C , 23-H ) :   0.9320
B(  7-C , 24-H ) :   0.9338 B(  8-C , 25-H ) :   0.9269 B(  8-C , 26-H ) :   0.9285

MP2 TOTAL ENERGY:     -352.940041677 Eh
FINAL SINGLE POINT ENERGY      -352.940041677050

DIPOLE MOMENT
-------------
                                X             Y             Z
Electronic contribution:     -1.83111      -2.65733       0.85373
Nuclear contribution   :      1.85148       2.62832      -0.84130
                        -----------------------------------------
Total Dipole Moment    :      0.02037      -0.02901       0.01243
                        -----------------------------------------
Magnitude (a.u.)       :      0.03756
Magnitude (Debye)      :      0.09548

                             ****ORCA TERMINATED NORMALLY****
TOTAL RUN TIME: 0 days 0 hours 22 minutes 8 seconds 909 msec
