                         Program Version 3.0.3 - RELEASE   -
|  1> ! RI-MP2 RIJK def2-TZVP def2-TZVP/C def2-TZVP/JK TIGHTSCF
|  2> % maxcore 2000
|  3> % mp2 density relaxed end
|  4> *xyz 0 1
|  5>  O       -0.6210808122     1.1796005499    -0.9812781795
|  6>  C        0.1038542590     1.0070308123    -0.0415480424
|  7>  C        1.1715413563     1.9940198409     0.4557634366
|  8>  O        2.0426778314     1.5211812370     1.1566540034
|  9>  C        1.1652146940     3.4293217431     0.0371341312
| 10>  C        2.0070072346     4.3477397152     0.9437299919
| 11>  C        2.5661857663     3.9563985977    -0.3679220621
| 12>  C        0.0222960184     4.0101334669    -0.6084002218
| 13>  C       -0.9053138340     4.5779228345    -1.1203946665
| 14>  H        0.1398738830     0.0633242876     0.5433289902
| 15>  H        1.6191062417     5.3505813669     1.0698053568
| 16>  H        2.4080225429     3.8672640074     1.8282997820
| 17>  H        3.3499902270     3.2083347253    -0.3848646138
| 18>  H        2.5710204008     4.6745221836    -1.1782896264
| 19>  H       -1.7371926593     5.0406966619    -1.5906916097
| 20> *
| 21>
| 22>                          ****END OF INPUT****

CARTESIAN COORDINATES (ANGSTROEM)
---------------------------------
  O     -0.621081    1.179601   -0.981278
  C      0.103854    1.007031   -0.041548
  C      1.171541    1.994020    0.455763
  O      2.042678    1.521181    1.156654
  C      1.165215    3.429322    0.037134
  C      2.007007    4.347740    0.943730
  C      2.566186    3.956399   -0.367922
  C      0.022296    4.010133   -0.608400
  C     -0.905314    4.577923   -1.120395
  H      0.139874    0.063324    0.543329
  H      1.619106    5.350581    1.069805
  H      2.408023    3.867264    1.828300
  H      3.349990    3.208335   -0.384865
  H      2.571020    4.674522   -1.178290
  H     -1.737193    5.040697   -1.590692

 Total Charge           Charge          ....    0
 Multiplicity           Mult            ....    1
 Number of Electrons    NEL             ....   64
 Basis Dimension        Dim             ....  315

ORBITAL ENERGIES
----------------

  NO   OCC          E(Eh)            E(eV)
   0   2.0000     -20.591386      -560.3201
   1   2.0000     -20.581857      -560.0608
   2   2.0000     -11.364298      -309.2383
   3   2.0000     -11.354848      -308.9811
   4   2.0000     -11.290795      -307.2382
   5   2.0000     -11.266658      -306.5814
   6   2.0000     -11.262163      -306.4590
   7   2.0000     -11.243215      -305.9434
   8   2.0000     -11.229619      -305.5735
   9   2.0000      -1.434551       -39.0361
  10   2.0000      -1.416608       -38.5479
  11   2.0000      -1.188605       -32.3436
  12   2.0000      -1.035600       -28.1801
  13   2.0000      -0.973427       -26.4883
  14   2.0000      -0.890350       -24.2277
  15   2.0000      -0.853321       -23.2200
  16   2.0000      -0.800597       -21.7854
  17   2.0000      -0.732108       -19.9217
  18   2.0000      -0.705652       -19.2018
  19   2.0000      -0.697356       -18.9760
  20   2.0000      -0.664557       -18.0835
  21   2.0000      -0.659473       -17.9452
  22   2.0000      -0.607896       -16.5417
  23   2.0000      -0.596180       -16.2229
  24   2.0000      -0.550572       -14.9818
  25   2.0000      -0.531990       -14.4762
  26   2.0000      -0.514642       -14.0041
  27   2.0000      -0.489480       -13.3194
  28   2.0000      -0.480569       -13.0769
  29   2.0000      -0.442877       -12.0513
  30   2.0000      -0.383889       -10.4461
  31   2.0000      -0.368723       -10.0335
  32   0.0000       0.053777         1.4634
  33   0.0000       0.156951         4.2708
  34   0.0000       0.158452         4.3117
  35   0.0000       0.160284         4.3615
  36   0.0000       0.168472         4.5843

MULLIKEN ATOMIC CHARGES
-----------------------
   0 O :   -0.216317
   1 C :    0.059371
   2 C :    0.236767
   3 O :   -0.292110
   4 C :   -0.166451
   5 C :   -0.241328
   6 C :   -0.252878
   7 C :    0.096000
   8 C :   -0.154878
   9 H :    0.111844
  10 H :    0.155261
  11 H :    0.159620
  12 H :    0.157174
  13 H :    0.155190
  14 H :    0.192735
Sum of atomic charges:    0.0000000

LOEWDIN ATOMIC CHARGES
----------------------
   0 O :    0.184139
   1 C :   -0.250909
   2 C :   -0.278585
   3 O :    0.176580
   4 C :   -0.195846
   5 C :   -0.159999
   6 C :   -0.153212
   7 C :   -0.074748
   8 C :   -0.079287
   9 H :    0.123297
  10 H :    0.144638
  11 H :    0.146268
  12 H :    0.144904
  13 H :    0.144392
  14 H :    0.128367

  Mayer bond orders larger than 0.1
B(  0-O ,  1-C ) :   1.9897 B(  1-C ,  2-C ) :   0.8451 B(  1-C ,  9-H ) :   0.9305
B(  2-C ,  3-O ) :   1.8774 B(  2-C ,  4-C ) :   0.9795 B(  4-C ,  5-C ) :   0.7885
B(  4-C ,  6-C ) :   0.7946 B(  4-C ,  7-C ) :   1.0829 B(  4-C ,  8-C ) :  -0.1289
B(  5-C ,  6-C ) :   0.9599 B(  5-C , 10-H ) :   0.9270 B(  5-C , 11-H ) :   0.9112
B(  6-C , 12-H ) :   0.9168 B(  6-C , 13-H ) :   0.9264 B(  7-C ,  8-C ) :   2.5977
B(  8-C , 14-H ) :   0.8841

MP2 TOTAL ENERGY:     -419.869064327 Eh
FINAL SINGLE POINT ENERGY      -419.869064326646

DIPOLE MOMENT
-------------
                                X             Y             Z
Electronic contribution:     -2.76934      -4.25171      -0.38617
Nuclear contribution   :      2.99966       4.85278       0.51945
                        -----------------------------------------
Total Dipole Moment    :      0.23033       0.60108       0.13327
                        -----------------------------------------
Magnitude (a.u.)       :      0.65735
Magnitude (Debye)      :      1.67085

                             ****ORCA TERMINATED NORMALLY****
TOTAL RUN TIME: 0 days 0 hours 15 minutes 45 seconds 865 msec
