                         Program Version 3.0.3 - RELEASE   -
|  1> ! RI-MP2 RIJK def2-TZVP def2-TZVP/C def2-TZVP/JK TIGHTSCF
|  2> % maxcore 2000
|  3> % mp2 density relaxed end
|  4> *xyz 0 1
|  5>  C       -0.2489877198     1.4324121245    -1.0144125038
|  6>  C       -0.0456626431     0.0646003049    -0.3463191698
|  7>  C        0.7375003414     0.1965497800     0.9676006023
|  8>  C       -1.3970341952    -0.5963873220    -0.1039160316
|  9>  O       -2.2013884859    -0.7026733891    -1.3032117297
| 10>  C       -2.6448443128    -2.0204990402    -0.9310718371
| 11>  C       -1.5640296699    -2.1282696326     0.1742298938
| 12>  C       -0.3881533580    -3.0040657577    -0.2613313138
| 13>  C       -2.0520593303    -2.5051621168     1.5691797397
| 14>  H        0.7141557506     1.8989832211    -1.2454631092
| 15>  H       -0.8173003677     1.3301742144    -1.9418516889
| 16>  H       -0.7996971689     2.1126429295    -0.3534533367
| 17>  H        0.5268276036    -0.5660617552    -1.0371038746
| 18>  H        0.1953960171     0.8246163118     1.6844099233
| 19>  H        0.9141788348    -0.7736519991     1.4426957436
| 20>  H        1.7123178618     0.6624291399     0.7919487110
| 21>  H       -1.9410851349    -0.0074560422     0.6556136834
| 22>  H       -3.6768789270    -2.0117164836    -0.5513171390
| 23>  H       -2.5768951784    -2.7288477019    -1.7653885738
| 24>  H       -0.0620478556    -2.7655764803    -1.2777540035
| 25>  H        0.4719574325    -2.8943405460     0.4071250389
| 26>  H       -0.6830366647    -4.0596595114    -0.2474600439
| 27>  H       -2.3716496997    -3.5531231150     1.6043933357
| 28>  H       -1.2579196029    -2.3794682832     2.3138719633
| 29>  H       -2.9006261167    -1.8854746994     1.8766262104
| 30> *
| 31>
| 32>                          ****END OF INPUT****

CARTESIAN COORDINATES (ANGSTROEM)
---------------------------------
  C     -0.248988    1.432412   -1.014413
  C     -0.045663    0.064600   -0.346319
  C      0.737500    0.196550    0.967601
  C     -1.397034   -0.596387   -0.103916
  O     -2.201388   -0.702673   -1.303212
  C     -2.644844   -2.020499   -0.931072
  C     -1.564030   -2.128270    0.174230
  C     -0.388153   -3.004066   -0.261331
  C     -2.052059   -2.505162    1.569180
  H      0.714156    1.898983   -1.245463
  H     -0.817300    1.330174   -1.941852
  H     -0.799697    2.112643   -0.353453
  H      0.526828   -0.566062   -1.037104
  H      0.195396    0.824616    1.684410
  H      0.914179   -0.773652    1.442696
  H      1.712318    0.662429    0.791949
  H     -1.941085   -0.007456    0.655614
  H     -3.676879   -2.011716   -0.551317
  H     -2.576895   -2.728848   -1.765389
  H     -0.062048   -2.765576   -1.277754
  H      0.471957   -2.894341    0.407125
  H     -0.683037   -4.059660   -0.247460
  H     -2.371650   -3.553123    1.604393
  H     -1.257920   -2.379468    2.313872
  H     -2.900626   -1.885475    1.876626

 Total Charge           Charge          ....    0
 Multiplicity           Mult            ....    1
 Number of Electrons    NEL             ....   72
 Basis Dimension        Dim             ....  375

ORBITAL ENERGIES
----------------

  NO   OCC          E(Eh)            E(eV)
   0   2.0000     -20.540360      -558.9316
   1   2.0000     -11.272908      -306.7514
   2   2.0000     -11.269630      -306.6622
   3   2.0000     -11.239096      -305.8314
   4   2.0000     -11.223851      -305.4165
   5   2.0000     -11.219570      -305.3000
   6   2.0000     -11.218270      -305.2646
   7   2.0000     -11.215310      -305.1841
   8   2.0000     -11.204926      -304.9015
   9   2.0000      -1.372523       -37.3483
  10   2.0000      -1.086475       -29.5645
  11   2.0000      -1.065842       -29.0030
  12   2.0000      -0.939579       -25.5673
  13   2.0000      -0.927760       -25.2456
  14   2.0000      -0.917316       -24.9614
  15   2.0000      -0.895812       -24.3763
  16   2.0000      -0.790118       -21.5002
  17   2.0000      -0.726357       -19.7652
  18   2.0000      -0.651440       -17.7266
  19   2.0000      -0.647200       -17.6112
  20   2.0000      -0.631135       -17.1740
  21   2.0000      -0.612002       -16.6534
  22   2.0000      -0.574261       -15.6264
  23   2.0000      -0.573784       -15.6135
  24   2.0000      -0.560348       -15.2479
  25   2.0000      -0.546614       -14.8741
  26   2.0000      -0.540352       -14.7037
  27   2.0000      -0.532188       -14.4816
  28   2.0000      -0.529374       -14.4050
  29   2.0000      -0.504124       -13.7179
  30   2.0000      -0.486519       -13.2388
  31   2.0000      -0.476156       -12.9569
  32   2.0000      -0.469604       -12.7786
  33   2.0000      -0.436196       -11.8695
  34   2.0000      -0.418548       -11.3893
  35   2.0000      -0.401495       -10.9252
  36   0.0000       0.129850         3.5334
  37   0.0000       0.155906         4.2424
  38   0.0000       0.163849         4.4586
  39   0.0000       0.173087         4.7099
  40   0.0000       0.185096         5.0367

MULLIKEN ATOMIC CHARGES
-----------------------
   0 C :   -0.400304
   1 C :    0.014014
   2 C :   -0.427959
   3 C :   -0.012252
   4 O :   -0.321356
   5 C :   -0.051381
   6 C :    0.138201
   7 C :   -0.458233
   8 C :   -0.408633
   9 H :    0.128760
  10 H :    0.155091
  11 H :    0.115614
  12 H :    0.075933
  13 H :    0.125758
  14 H :    0.125358
  15 H :    0.137537
  16 H :    0.065679
  17 H :    0.085128
  18 H :    0.099276
  19 H :    0.151250
  20 H :    0.127783
  21 H :    0.138176
  22 H :    0.133124
  23 H :    0.130397
  24 H :    0.133037
Sum of atomic charges:   -0.0000000

LOEWDIN ATOMIC CHARGES
----------------------
   0 C :   -0.289019
   1 C :   -0.293091
   2 C :   -0.289542
   3 C :   -0.228274
   4 O :    0.139486
   5 C :   -0.235864
   6 C :   -0.290627
   7 C :   -0.272485
   8 C :   -0.276311
   9 H :    0.121904
  10 H :    0.129476
  11 H :    0.123200
  12 H :    0.152595
  13 H :    0.124364
  14 H :    0.119559
  15 H :    0.125595
  16 H :    0.141200
  17 H :    0.118189
  18 H :    0.118296
  19 H :    0.130074
  20 H :    0.124392
  21 H :    0.127970
  22 H :    0.126757
  23 H :    0.126520
  24 H :    0.125635

  Mayer bond orders larger than 0.1
B(  0-C ,  1-C ) :   0.9155 B(  0-C ,  9-H ) :   0.9392 B(  0-C , 10-H ) :   0.9356
B(  0-C , 11-H ) :   0.9305 B(  1-C ,  2-C ) :   0.9100 B(  1-C ,  3-C ) :   0.9257
B(  1-C , 12-H ) :   0.9104 B(  2-C , 13-H ) :   0.9312 B(  2-C , 14-H ) :   0.9388
B(  2-C , 15-H ) :   0.9381 B(  3-C ,  4-O ) :   0.9620 B(  3-C ,  6-C ) :   0.9231
B(  3-C , 16-H ) :   0.9043 B(  4-O ,  5-C ) :   0.9549 B(  5-C ,  6-C ) :   0.9535
B(  5-C , 17-H ) :   0.9017 B(  5-C , 18-H ) :   0.9109 B(  6-C ,  7-C ) :   0.8849
B(  6-C ,  8-C ) :   0.9118 B(  7-C , 19-H ) :   0.9398 B(  7-C , 20-H ) :   0.9330
B(  7-C , 21-H ) :   0.9318 B(  8-C , 22-H ) :   0.9353 B(  8-C , 23-H ) :   0.9334
B(  8-C , 24-H ) :   0.9337

MP2 TOTAL ENERGY:     -388.813766489 Eh
FINAL SINGLE POINT ENERGY      -388.813766488560

DIPOLE MOMENT
-------------
                                X             Y             Z
Electronic contribution:     -4.27923      -0.02895      -3.78546
Nuclear contribution   :      4.50361      -0.41686       4.28098
                        -----------------------------------------
Total Dipole Moment    :      0.22438      -0.44582       0.49551
                        -----------------------------------------
Magnitude (a.u.)       :      0.70330
Magnitude (Debye)      :      1.78765

                             ****ORCA TERMINATED NORMALLY****
TOTAL RUN TIME: 0 days 0 hours 25 minutes 1 seconds 376 msec
