                         Program Version 3.0.3 - RELEASE   -
|  1> ! RI-MP2 RIJK def2-TZVP def2-TZVP/C def2-TZVP/JK TIGHTSCF
|  2> % maxcore 2000
|  3> % mp2 density relaxed end
|  4> *xyz 0 1
|  5>  C       -0.0720838101     1.5445584691    -0.0231959395
|  6>  C        0.0349308829     0.0117999721     0.0491898903
|  7>  C        0.7090949329    -0.5217003154    -1.2226188341
|  8>  O        0.9721424704    -1.9069145651    -1.1481120662
|  9>  C        1.9194472197    -2.2132374056    -0.1422232644
| 10>  C        1.6646129142    -1.4970573657     1.1523246171
| 11>  C        0.7936813273    -0.4945221867     1.2638761391
| 12>  C        0.4922094795     0.1557682831     2.5890083960
| 13>  O        1.1365597967    -0.5408249452     3.6395116192
| 14>  H        0.9186492485     2.0125351199    -0.0131729811
| 15>  H       -0.5757060957     1.8478696425    -0.9474529986
| 16>  H       -0.6477457580     1.9562923117     0.8104192137
| 17>  H       -0.9874930826    -0.3940863970     0.0868134467
| 18>  H        0.0605585054    -0.3764949065    -2.0923040066
| 19>  H        1.6429144281     0.0404293894    -1.4009023704
| 20>  H        1.8635186793    -3.2983564339     0.0067152266
| 21>  H        2.9441886950    -1.9967467259    -0.5001227730
| 22>  H        2.2093896684    -1.8423044351     2.0244919940
| 23>  H        0.8121270179     1.2108139458     2.5650918838
| 24>  H       -0.6035701983     0.1711154357     2.7351416341
| 25>  H        1.0205968484    -0.0333544471     4.4471668535
| 26> *
| 27>
| 28>                          ****END OF INPUT****

CARTESIAN COORDINATES (ANGSTROEM)
---------------------------------
  C     -0.072084    1.544558   -0.023196
  C      0.034931    0.011800    0.049190
  C      0.709095   -0.521700   -1.222619
  O      0.972142   -1.906915   -1.148112
  C      1.919447   -2.213237   -0.142223
  C      1.664613   -1.497057    1.152325
  C      0.793681   -0.494522    1.263876
  C      0.492209    0.155768    2.589008
  O      1.136560   -0.540825    3.639512
  H      0.918649    2.012535   -0.013173
  H     -0.575706    1.847870   -0.947453
  H     -0.647746    1.956292    0.810419
  H     -0.987493   -0.394086    0.086813
  H      0.060559   -0.376495   -2.092304
  H      1.642914    0.040429   -1.400902
  H      1.863519   -3.298356    0.006715
  H      2.944189   -1.996747   -0.500123
  H      2.209390   -1.842304    2.024492
  H      0.812127    1.210814    2.565092
  H     -0.603570    0.171115    2.735142
  H      1.020597   -0.033354    4.447167

 Total Charge           Charge          ....    0
 Multiplicity           Mult            ....    1
 Number of Electrons    NEL             ....   70
 Basis Dimension        Dim             ....  351

ORBITAL ENERGIES
----------------

  NO   OCC          E(Eh)            E(eV)
   0   2.0000     -20.560315      -559.4746
   1   2.0000     -20.547958      -559.1384
   2   2.0000     -11.283736      -307.0461
   3   2.0000     -11.271293      -306.7075
   4   2.0000     -11.269445      -306.6572
   5   2.0000     -11.233745      -305.6857
   6   2.0000     -11.228090      -305.5319
   7   2.0000     -11.223391      -305.4040
   8   2.0000     -11.214194      -305.1537
   9   2.0000      -1.372330       -37.3430
  10   2.0000      -1.366455       -37.1831
  11   2.0000      -1.105659       -30.0865
  12   2.0000      -1.039691       -28.2914
  13   2.0000      -0.958460       -26.0810
  14   2.0000      -0.931947       -25.3596
  15   2.0000      -0.842263       -22.9192
  16   2.0000      -0.830079       -22.5876
  17   2.0000      -0.712468       -19.3872
  18   2.0000      -0.702848       -19.1255
  19   2.0000      -0.668181       -18.1821
  20   2.0000      -0.643746       -17.5172
  21   2.0000      -0.635320       -17.2879
  22   2.0000      -0.615053       -16.7364
  23   2.0000      -0.605255       -16.4698
  24   2.0000      -0.579750       -15.7758
  25   2.0000      -0.565530       -15.3889
  26   2.0000      -0.532118       -14.4797
  27   2.0000      -0.527175       -14.3451
  28   2.0000      -0.510946       -13.9035
  29   2.0000      -0.506765       -13.7898
  30   2.0000      -0.481251       -13.0955
  31   2.0000      -0.456968       -12.4347
  32   2.0000      -0.448818       -12.2130
  33   2.0000      -0.405210       -11.0263
  34   2.0000      -0.337823        -9.1926
  35   0.0000       0.127434         3.4677
  36   0.0000       0.141433         3.8486
  37   0.0000       0.161073         4.3830
  38   0.0000       0.163358         4.4452
  39   0.0000       0.181423         4.9368

MULLIKEN ATOMIC CHARGES
-----------------------
   0 C :   -0.452471
   1 C :    0.026136
   2 C :   -0.075691
   3 O :   -0.313132
   4 C :   -0.008407
   5 C :   -0.208278
   6 C :   -0.035811
   7 C :   -0.110228
   8 O :   -0.464012
   9 H :    0.137329
  10 H :    0.137767
  11 H :    0.137736
  12 H :    0.094144
  13 H :    0.125252
  14 H :    0.088687
  15 H :    0.128288
  16 H :    0.099252
  17 H :    0.151496
  18 H :    0.116266
  19 H :    0.109629
  20 H :    0.316048
Sum of atomic charges:   -0.0000000

LOEWDIN ATOMIC CHARGES
----------------------
   0 C :   -0.288975
   1 C :   -0.245800
   2 C :   -0.291960
   3 O :    0.159806
   4 C :   -0.307667
   5 C :   -0.145331
   6 C :   -0.163371
   7 C :   -0.312329
   8 O :   -0.035707
   9 H :    0.125729
  10 H :    0.126603
  11 H :    0.122984
  12 H :    0.159667
  13 H :    0.130866
  14 H :    0.125307
  15 H :    0.136573
  16 H :    0.125916
  17 H :    0.152843
  18 H :    0.124959
  19 H :    0.125901
  20 H :    0.173987

  Mayer bond orders larger than 0.1
B(  0-C ,  1-C ) :   0.8800 B(  0-C ,  9-H ) :   0.9317 B(  0-C , 10-H ) :   0.9360
B(  0-C , 11-H ) :   0.9348 B(  1-C ,  2-C ) :   0.9405 B(  1-C ,  6-C ) :   0.9171
B(  1-C , 12-H ) :   0.8996 B(  2-C ,  3-O ) :   0.9345 B(  2-C , 13-H ) :   0.9290
B(  2-C , 14-H ) :   0.9316 B(  3-O ,  4-C ) :   0.9398 B(  4-C ,  5-C ) :   0.9216
B(  4-C , 15-H ) :   0.9229 B(  4-C , 16-H ) :   0.9363 B(  5-C ,  6-C ) :   1.7843
B(  5-C , 17-H ) :   0.9005 B(  6-C ,  7-C ) :   0.8943 B(  6-C ,  8-O ) :  -0.1099
B(  7-C ,  8-O ) :   1.0286 B(  7-C , 18-H ) :   0.9329 B(  7-C , 19-H ) :   0.9350
B(  8-O , 20-H ) :   0.8467

MP2 TOTAL ENERGY:     -423.520305054 Eh
FINAL SINGLE POINT ENERGY      -423.520305054052

DIPOLE MOMENT
-------------
                                X             Y             Z
Electronic contribution:      1.29841      -5.08136       1.30083
Nuclear contribution   :     -1.44839       6.00467      -0.79271
                        -----------------------------------------
Total Dipole Moment    :     -0.14999       0.92331       0.50812
                        -----------------------------------------
Magnitude (a.u.)       :      1.06451
Magnitude (Debye)      :      2.70578

                             ****ORCA TERMINATED NORMALLY****
TOTAL RUN TIME: 0 days 0 hours 17 minutes 18 seconds 305 msec
