                         Program Version 3.0.3 - RELEASE   -
|  1> ! RI-MP2 RIJK def2-TZVP def2-TZVP/C def2-TZVP/JK TIGHTSCF
|  2> % maxcore 2000
|  3> % mp2 density relaxed end
|  4> *xyz 0 1
|  5>  C        0.4596667790     1.2735040672    -0.5131882823
|  6>  C        0.5241816382    -0.1068426958    -1.1132140740
|  7>  O        1.5499235024    -0.6889930460    -1.3791465616
|  8>  C       -0.8423785034    -0.7327529282    -1.4809985280
|  9>  O       -1.6913180441    -0.0348615451    -1.9891923216
| 10>  C       -1.0825081077    -2.1849926191    -1.2109841263
| 11>  C       -0.0396626626    -3.2219622215    -1.3843310994
| 12>  O       -0.3914650748    -2.7488466826    -0.0930022285
| 13>  H       -0.1858970339     1.9108275504    -1.1235195671
| 14>  H        0.0009501237     1.2172634095     0.4815843434
| 15>  H        1.4633223733     1.6913917160    -0.4319303745
| 16>  H       -2.1291483569    -2.4669544437    -1.3149835420
| 17>  H       -0.3748782154    -4.2313835785    -1.6184026897
| 18>  H        0.9446004722    -2.9296880527    -1.7337917784
| 19> *
| 20>
| 21>                          ****END OF INPUT****

CARTESIAN COORDINATES (ANGSTROEM)
---------------------------------
  C      0.459667    1.273504   -0.513188
  C      0.524182   -0.106843   -1.113214
  O      1.549924   -0.688993   -1.379147
  C     -0.842379   -0.732753   -1.480999
  O     -1.691318   -0.034862   -1.989192
  C     -1.082508   -2.184993   -1.210984
  C     -0.039663   -3.221962   -1.384331
  O     -0.391465   -2.748847   -0.093002
  H     -0.185897    1.910828   -1.123520
  H      0.000950    1.217263    0.481584
  H      1.463322    1.691392   -0.431930
  H     -2.129148   -2.466954   -1.314984
  H     -0.374878   -4.231384   -1.618403
  H      0.944600   -2.929688   -1.733792

 Total Charge           Charge          ....    0
 Multiplicity           Mult            ....    1
 Number of Electrons    NEL             ....   60
 Basis Dimension        Dim             ....  284

ORBITAL ENERGIES
----------------

  NO   OCC          E(Eh)            E(eV)
   0   2.0000     -20.599177      -560.5321
   1   2.0000     -20.587764      -560.2215
   2   2.0000     -20.578427      -559.9675
   3   2.0000     -11.363239      -309.2095
   4   2.0000     -11.360641      -309.1387
   5   2.0000     -11.315384      -307.9073
   6   2.0000     -11.307422      -307.6906
   7   2.0000     -11.247453      -306.0588
   8   2.0000      -1.447715       -39.3943
   9   2.0000      -1.427971       -38.8571
  10   2.0000      -1.412819       -38.4448
  11   2.0000      -1.038264       -28.2526
  12   2.0000      -0.995707       -27.0946
  13   2.0000      -0.922701       -25.1080
  14   2.0000      -0.867031       -23.5931
  15   2.0000      -0.756795       -20.5934
  16   2.0000      -0.718127       -19.5412
  17   2.0000      -0.703290       -19.1375
  18   2.0000      -0.672285       -18.2938
  19   2.0000      -0.647534       -17.6203
  20   2.0000      -0.618595       -16.8328
  21   2.0000      -0.598612       -16.2891
  22   2.0000      -0.585347       -15.9281
  23   2.0000      -0.576030       -15.6746
  24   2.0000      -0.555948       -15.1281
  25   2.0000      -0.523393       -14.2422
  26   2.0000      -0.515337       -14.0230
  27   2.0000      -0.479438       -13.0462
  28   2.0000      -0.462124       -12.5750
  29   2.0000      -0.413521       -11.2525
  30   0.0000       0.071685         1.9507
  31   0.0000       0.141597         3.8531
  32   0.0000       0.153299         4.1715
  33   0.0000       0.168924         4.5967
  34   0.0000       0.189421         5.1544

MULLIKEN ATOMIC CHARGES
-----------------------
   0 C :   -0.410976
   1 C :    0.233579
   2 O :   -0.282225
   3 C :    0.194074
   4 O :   -0.265945
   5 C :   -0.018955
   6 C :   -0.058118
   7 O :   -0.315681
   8 H :    0.172827
   9 H :    0.152782
  10 H :    0.155982
  11 H :    0.149673
  12 H :    0.130752
  13 H :    0.162230
Sum of atomic charges:   -0.0000000

LOEWDIN ATOMIC CHARGES
----------------------
   0 C :   -0.270460
   1 C :   -0.306518
   2 O :    0.173877
   3 C :   -0.278056
   4 O :    0.181794
   5 C :   -0.255108
   6 C :   -0.245903
   7 O :    0.169840
   8 H :    0.146777
   9 H :    0.145026
  10 H :    0.135950
  11 H :    0.149286
  12 H :    0.124216
  13 H :    0.129279

  Mayer bond orders larger than 0.1
B(  0-C ,  1-C ) :   0.9203 B(  0-C ,  8-H ) :   0.9086 B(  0-C ,  9-H ) :   0.9054
B(  0-C , 10-H ) :   0.9347 B(  1-C ,  2-O ) :   1.9088 B(  1-C ,  3-C ) :   0.8511
B(  3-C ,  4-O ) :   1.9168 B(  3-C ,  5-C ) :   0.9383 B(  5-C ,  6-C ) :   0.9335
B(  5-C ,  7-O ) :   0.9113 B(  5-C , 11-H ) :   0.9211 B(  6-C ,  7-O ) :   0.8858
B(  6-C , 12-H ) :   0.9194 B(  6-C , 13-H ) :   0.9034

MP2 TOTAL ENERGY:     -418.999936175 Eh
FINAL SINGLE POINT ENERGY      -418.999936174866

DIPOLE MOMENT
-------------
                                X             Y             Z
Electronic contribution:     -0.88864      -1.50393      -1.02346
Nuclear contribution   :      0.75213       1.41104       1.00983
                        -----------------------------------------
Total Dipole Moment    :     -0.13651      -0.09290      -0.01363
                        -----------------------------------------
Magnitude (a.u.)       :      0.16568
Magnitude (Debye)      :      0.42113

                             ****ORCA TERMINATED NORMALLY****
TOTAL RUN TIME: 0 days 0 hours 11 minutes 8 seconds 759 msec
