                         Program Version 3.0.3 - RELEASE   -
|  1> ! RI-MP2 RIJK def2-TZVP def2-TZVP/C def2-TZVP/JK TIGHTSCF
|  2> % maxcore 2000
|  3> % mp2 density relaxed end
|  4> *xyz 0 1
|  5>  C       -0.0629126085     1.5562287810     0.0528135126
|  6>  C        1.4902397825     1.4542569367     0.0154902193
|  7>  C        1.8356714431     0.7013142691     1.3139778824
|  8>  C        2.1987061573    -0.7353871148     0.9874717693
|  9>  C        2.3473013164    -0.8579616357    -0.5188293720
| 10>  C        1.3115993147     0.1905942143    -0.8974068548
| 11>  C        0.0308640006     0.0034059188    -0.0103751405
| 12>  C        0.7585404083    -0.3694394419     1.2949146856
| 13>  H       -0.5293048030     2.0096772678     0.9324382721
| 14>  H       -0.4798392086     1.9918630908    -0.8603500048
| 15>  H        2.1241429589     2.2940200975    -0.2710016477
| 16>  H        2.1615442682     1.2020918919     2.2158610995
| 17>  H        2.7801282037    -1.3326168157     1.6799712262
| 18>  H        3.3544023422    -0.6029770100    -0.8688928348
| 19>  H        2.0928500409    -1.8571389597    -0.8912683361
| 20>  H        1.1309389858     0.3911364261    -1.9525628737
| 21>  H       -0.8072551198    -0.6202667260    -0.3229493774
| 22>  H        0.2399053871    -0.7081441302     2.1818543147
| 23> *
| 24>
| 25>                          ****END OF INPUT****

CARTESIAN COORDINATES (ANGSTROEM)
---------------------------------
  C     -0.062913    1.556229    0.052814
  C      1.490240    1.454257    0.015490
  C      1.835671    0.701314    1.313978
  C      2.198706   -0.735387    0.987472
  C      2.347301   -0.857962   -0.518829
  C      1.311599    0.190594   -0.897407
  C      0.030864    0.003406   -0.010375
  C      0.758540   -0.369439    1.294915
  H     -0.529305    2.009677    0.932438
  H     -0.479839    1.991863   -0.860350
  H      2.124143    2.294020   -0.271002
  H      2.161544    1.202092    2.215861
  H      2.780128   -1.332617    1.679971
  H      3.354402   -0.602977   -0.868893
  H      2.092850   -1.857139   -0.891268
  H      1.130939    0.391136   -1.952563
  H     -0.807255   -0.620267   -0.322949
  H      0.239905   -0.708144    2.181854

 Total Charge           Charge          ....    0
 Multiplicity           Mult            ....    1
 Number of Electrons    NEL             ....   58
 Basis Dimension        Dim             ....  308

ORBITAL ENERGIES
----------------

  NO   OCC          E(Eh)            E(eV)
   0   2.0000     -11.226341      -305.4843
   1   2.0000     -11.226292      -305.4829
   2   2.0000     -11.223853      -305.4166
   3   2.0000     -11.221953      -305.3649
   4   2.0000     -11.219192      -305.2897
   5   2.0000     -11.218578      -305.2730
   6   2.0000     -11.215985      -305.2025
   7   2.0000     -11.213525      -305.1355
   8   2.0000      -1.226613       -33.3778
   9   2.0000      -1.058581       -28.8055
  10   2.0000      -0.991106       -26.9694
  11   2.0000      -0.921110       -25.0647
  12   2.0000      -0.851305       -23.1652
  13   2.0000      -0.764120       -20.7928
  14   2.0000      -0.732087       -19.9211
  15   2.0000      -0.727236       -19.7891
  16   2.0000      -0.697928       -18.9916
  17   2.0000      -0.630834       -17.1659
  18   2.0000      -0.594730       -16.1834
  19   2.0000      -0.581787       -15.8312
  20   2.0000      -0.557045       -15.1580
  21   2.0000      -0.494376       -13.4527
  22   2.0000      -0.482909       -13.1406
  23   2.0000      -0.471111       -12.8196
  24   2.0000      -0.460355       -12.5269
  25   2.0000      -0.430131       -11.7045
  26   2.0000      -0.416119       -11.3232
  27   2.0000      -0.387821       -10.5532
  28   2.0000      -0.375524       -10.2185
  29   0.0000       0.144802         3.9403
  30   0.0000       0.161783         4.4023
  31   0.0000       0.173151         4.7117
  32   0.0000       0.177190         4.8216
  33   0.0000       0.198537         5.4025

MULLIKEN ATOMIC CHARGES
-----------------------
   0 C :   -0.259475
   1 C :   -0.032854
   2 C :   -0.179165
   3 C :   -0.166009
   4 C :   -0.187809
   5 C :   -0.150687
   6 C :   -0.032852
   7 C :   -0.179163
   8 H :    0.111732
   9 H :    0.109291
  10 H :    0.122667
  11 H :    0.128834
  12 H :    0.122193
  13 H :    0.109729
  14 H :    0.109726
  15 H :    0.122338
  16 H :    0.122669
  17 H :    0.128836
Sum of atomic charges:    0.0000000

LOEWDIN ATOMIC CHARGES
----------------------
   0 C :   -0.195430
   1 C :   -0.160634
   2 C :   -0.148713
   3 C :   -0.175184
   4 C :   -0.213791
   5 C :   -0.167427
   6 C :   -0.160634
   7 C :   -0.148712
   8 H :    0.124640
   9 H :    0.133157
  10 H :    0.133017
  11 H :    0.139835
  12 H :    0.142100
  13 H :    0.140030
  14 H :    0.140029
  15 H :    0.144861
  16 H :    0.133018
  17 H :    0.139836

  Mayer bond orders larger than 0.1
B(  0-C ,  1-C ) :   0.9173 B(  0-C ,  6-C ) :   0.9173 B(  0-C ,  8-H ) :   0.9193
B(  0-C ,  9-H ) :   0.9228 B(  1-C ,  2-C ) :   0.8929 B(  1-C ,  5-C ) :   0.9090
B(  1-C , 10-H ) :   0.9122 B(  2-C ,  3-C ) :   0.8709 B(  2-C ,  7-C ) :   0.8926
B(  2-C , 11-H ) :   0.9324 B(  3-C ,  4-C ) :   0.9647 B(  3-C ,  7-C ) :   0.8709
B(  3-C , 12-H ) :   0.9323 B(  4-C ,  5-C ) :   0.9686 B(  4-C , 13-H ) :   0.9139
B(  4-C , 14-H ) :   0.9139 B(  5-C ,  6-C ) :   0.9090 B(  5-C , 15-H ) :   0.9212
B(  6-C ,  7-C ) :   0.8929 B(  6-C , 16-H ) :   0.9122 B(  7-C , 17-H ) :   0.9324

MP2 TOTAL ENERGY:     -310.088690021 Eh
FINAL SINGLE POINT ENERGY      -310.088690021182

DIPOLE MOMENT
-------------
                                X             Y             Z
Electronic contribution:      0.28342      -0.29926       0.79476
Nuclear contribution   :     -0.27171       0.28774      -0.81044
                        -----------------------------------------
Total Dipole Moment    :      0.01171      -0.01151      -0.01568
                        -----------------------------------------
Magnitude (a.u.)       :      0.02271
Magnitude (Debye)      :      0.05772

                             ****ORCA TERMINATED NORMALLY****
TOTAL RUN TIME: 0 days 0 hours 14 minutes 32 seconds 600 msec
