                         Program Version 3.0.3 - RELEASE   -
|  1> ! RI-MP2 RIJK def2-TZVP def2-TZVP/C def2-TZVP/JK TIGHTSCF
|  2> % maxcore 2000
|  3> % mp2 density relaxed end
|  4> *xyz 0 1
|  5>  C       -0.0723162732     1.5202321119     0.0747434463
|  6>  C        0.0495687483     0.0339130261     0.0781976527
|  7>  C        1.2457867094    -0.7879573188    -0.3464464567
|  8>  C        0.6289705442    -0.9867900137     1.0211812731
|  9>  O        1.2914801015    -0.8231598280     2.2155372509
| 10>  C       -0.7146847956    -1.7220485132     0.8722414324
| 11>  O       -1.1478638385    -0.7395781671    -0.1207041435
| 12>  C       -0.7312221313    -3.0963863111     0.4061423294
| 13>  C       -0.7224353474    -4.2407136554     0.0372490375
| 14>  H        0.8781244335     1.9788118650     0.3611607270
| 15>  H       -0.3398019633     1.8845574686    -0.9232065550
| 16>  H       -0.8445991079     1.8472438245     0.7773776087
| 17>  H        1.1515498455    -1.5399360912    -1.1248130110
| 18>  H        2.1908149604    -0.2533182293    -0.3143340343
| 19>  H        2.0069890661    -1.4676948414     2.2596451608
| 20>  H       -1.3181027119    -1.6104643970     1.7813429066
| 21>  H       -0.7244838597    -5.2505003901    -0.2921696649
| 22> *
| 23>
| 24>                          ****END OF INPUT****

CARTESIAN COORDINATES (ANGSTROEM)
---------------------------------
  C     -0.072316    1.520232    0.074743
  C      0.049569    0.033913    0.078198
  C      1.245787   -0.787957   -0.346446
  C      0.628971   -0.986790    1.021181
  O      1.291480   -0.823160    2.215537
  C     -0.714685   -1.722049    0.872241
  O     -1.147864   -0.739578   -0.120704
  C     -0.731222   -3.096386    0.406142
  C     -0.722435   -4.240714    0.037249
  H      0.878124    1.978812    0.361161
  H     -0.339802    1.884557   -0.923207
  H     -0.844599    1.847244    0.777378
  H      1.151550   -1.539936   -1.124813
  H      2.190815   -0.253318   -0.314334
  H      2.006989   -1.467695    2.259645
  H     -1.318103   -1.610464    1.781343
  H     -0.724484   -5.250500   -0.292170

 Total Charge           Charge          ....    0
 Multiplicity           Mult            ....    1
 Number of Electrons    NEL             ....   66
 Basis Dimension        Dim             ....  327

ORBITAL ENERGIES
----------------

  NO   OCC          E(Eh)            E(eV)
   0   2.0000     -20.585634      -560.1636
   1   2.0000     -20.563597      -559.5639
   2   2.0000     -11.315793      -307.9184
   3   2.0000     -11.302657      -307.5609
   4   2.0000     -11.297403      -307.4180
   5   2.0000     -11.239536      -305.8433
   6   2.0000     -11.237081      -305.7765
   7   2.0000     -11.234087      -305.6951
   8   2.0000     -11.228717      -305.5489
   9   2.0000      -1.413739       -38.4698
  10   2.0000      -1.382525       -37.6204
  11   2.0000      -1.119230       -30.4558
  12   2.0000      -1.060415       -28.8554
  13   2.0000      -0.997639       -27.1471
  14   2.0000      -0.942363       -25.6430
  15   2.0000      -0.843100       -22.9419
  16   2.0000      -0.760621       -20.6975
  17   2.0000      -0.732535       -19.9333
  18   2.0000      -0.705528       -19.1984
  19   2.0000      -0.680259       -18.5108
  20   2.0000      -0.673732       -18.3332
  21   2.0000      -0.646222       -17.5846
  22   2.0000      -0.593324       -16.1452
  23   2.0000      -0.579791       -15.7769
  24   2.0000      -0.560408       -15.2495
  25   2.0000      -0.551197       -14.9988
  26   2.0000      -0.539013       -14.6673
  27   2.0000      -0.518435       -14.1073
  28   2.0000      -0.479237       -13.0407
  29   2.0000      -0.414893       -11.2898
  30   2.0000      -0.404460       -11.0059
  31   2.0000      -0.400627       -10.9016
  32   2.0000      -0.367235        -9.9930
  33   0.0000       0.130819         3.5598
  34   0.0000       0.144379         3.9288
  35   0.0000       0.158275         4.3069
  36   0.0000       0.162175         4.4130
  37   0.0000       0.170554         4.6410

MULLIKEN ATOMIC CHARGES
-----------------------
   0 C :   -0.410087
   1 C :    0.191017
   2 C :   -0.311887
   3 C :    0.119724
   4 O :   -0.450880
   5 C :   -0.027216
   6 O :   -0.311378
   7 C :   -0.061184
   8 C :   -0.102342
   9 H :    0.136847
  10 H :    0.146265
  11 H :    0.141426
  12 H :    0.144823
  13 H :    0.140594
  14 H :    0.337344
  15 H :    0.121758
  16 H :    0.195175
Sum of atomic charges:    0.0000000

LOEWDIN ATOMIC CHARGES
----------------------
   0 C :   -0.264632
   1 C :   -0.284038
   2 C :   -0.171960
   3 C :   -0.311528
   4 O :    0.041994
   5 C :   -0.220751
   6 O :    0.195691
   7 C :   -0.082674
   8 C :   -0.078534
   9 H :    0.137834
  10 H :    0.135730
  11 H :    0.134485
  12 H :    0.139535
  13 H :    0.146447
  14 H :    0.190738
  15 H :    0.163020
  16 H :    0.128642

  Mayer bond orders larger than 0.1
B(  0-C ,  1-C ) :   0.8937 B(  0-C ,  9-H ) :   0.9273 B(  0-C , 10-H ) :   0.9379
B(  0-C , 11-H ) :   0.9351 B(  1-C ,  2-C ) :   0.8658 B(  1-C ,  3-C ) :   0.8659
B(  1-C ,  6-O ) :   0.9842 B(  2-C ,  3-C ) :   0.8928 B(  2-C , 12-H ) :   0.8819
B(  2-C , 13-H ) :   0.9224 B(  3-C ,  4-O ) :   1.0740 B(  3-C ,  5-C ) :   0.9386
B(  4-O , 14-H ) :   0.8294 B(  5-C ,  6-O ) :   0.9335 B(  5-C ,  7-C ) :   1.1751
B(  5-C ,  8-C ) :  -0.1064 B(  5-C , 15-H ) :   0.8929 B(  7-C ,  8-C ) :   2.5506
B(  8-C , 16-H ) :   0.8950

MP2 TOTAL ENERGY:     -421.031093597 Eh
FINAL SINGLE POINT ENERGY      -421.031093596787

DIPOLE MOMENT
-------------
                                X             Y             Z
Electronic contribution:     -1.89102      -4.60546       1.42841
Nuclear contribution   :      2.72469       4.39114      -1.35148
                        -----------------------------------------
Total Dipole Moment    :      0.83367      -0.21432       0.07693
                        -----------------------------------------
Magnitude (a.u.)       :      0.86421
Magnitude (Debye)      :      2.19664

                             ****ORCA TERMINATED NORMALLY****
TOTAL RUN TIME: 0 days 0 hours 16 minutes 29 seconds 905 msec
