                         Program Version 3.0.3 - RELEASE   -
|  1> ! RI-MP2 RIJK def2-TZVP def2-TZVP/C def2-TZVP/JK TIGHTSCF
|  2> % maxcore 2000
|  3> % mp2 density relaxed end
|  4> *xyz 0 1
|  5>  O       -0.1736655785     1.3235268211     0.0558781811
|  6>  N       -0.0081436656    -0.0834507980     0.0392870399
|  7>  C       -1.1294374459    -0.6682001558     0.0373934943
|  8>  C       -2.5954031856    -0.2912938122    -0.0425734803
|  9>  C       -2.7649067672    -1.6485529662    -0.8085096968
| 10>  C       -1.4840496274    -2.1352702669    -0.0460766847
| 11>  C       -1.8560097139    -2.6159086416     1.3778256300
| 12>  C       -3.0872352619    -1.8449161370     1.9162306462
| 13>  C       -3.1871606210    -0.3933229402     1.3839185076
| 14>  H        0.7388932366     1.6294741631     0.0267596701
| 15>  H       -2.8583482671     0.6418912391    -0.5414099580
| 16>  H       -3.6910898875    -2.2083762256    -0.6601947374
| 17>  H       -2.5746952393    -1.5314721082    -1.8770323667
| 18>  H       -0.7884888579    -2.8109411967    -0.5466530584
| 19>  H       -2.0731005421    -3.6900155067     1.3660277001
| 20>  H       -0.9859604097    -2.4761928418     2.0287007068
| 21>  H       -3.9900807903    -2.3849219222     1.6140453694
| 22>  H       -3.0912719633    -1.8502838395     3.0103631436
| 23>  H       -2.6496977859     0.3057202260     2.0335903326
| 24>  H       -4.2360891568    -0.0762498706     1.3785734007
| 25> *
| 26>
| 27>                          ****END OF INPUT****

CARTESIAN COORDINATES (ANGSTROEM)
---------------------------------
  O     -0.173666    1.323527    0.055878
  N     -0.008144   -0.083451    0.039287
  C     -1.129437   -0.668200    0.037393
  C     -2.595403   -0.291294   -0.042573
  C     -2.764907   -1.648553   -0.808510
  C     -1.484050   -2.135270   -0.046077
  C     -1.856010   -2.615909    1.377826
  C     -3.087235   -1.844916    1.916231
  C     -3.187161   -0.393323    1.383919
  H      0.738893    1.629474    0.026760
  H     -2.858348    0.641891   -0.541410
  H     -3.691090   -2.208376   -0.660195
  H     -2.574695   -1.531472   -1.877032
  H     -0.788489   -2.810941   -0.546653
  H     -2.073101   -3.690016    1.366028
  H     -0.985960   -2.476193    2.028701
  H     -3.990081   -2.384922    1.614045
  H     -3.091272   -1.850284    3.010363
  H     -2.649698    0.305720    2.033590
  H     -4.236089   -0.076250    1.378573

 Total Charge           Charge          ....    0
 Multiplicity           Mult            ....    1
 Number of Electrons    NEL             ....   68
 Basis Dimension        Dim             ....  345

ORBITAL ENERGIES
----------------

  NO   OCC          E(Eh)            E(eV)
   0   2.0000     -20.580507      -560.0241
   1   2.0000     -15.603076      -424.5813
   2   2.0000     -11.266501      -306.5771
   3   2.0000     -11.241362      -305.8930
   4   2.0000     -11.241297      -305.8912
   5   2.0000     -11.233176      -305.6702
   6   2.0000     -11.229636      -305.5739
   7   2.0000     -11.229592      -305.5727
   8   2.0000     -11.226121      -305.4783
   9   2.0000      -1.402474       -38.1633
  10   2.0000      -1.196471       -32.5576
  11   2.0000      -1.108086       -30.1526
  12   2.0000      -1.022892       -27.8343
  13   2.0000      -0.999675       -27.2026
  14   2.0000      -0.863125       -23.4868
  15   2.0000      -0.826794       -22.4982
  16   2.0000      -0.800995       -21.7962
  17   2.0000      -0.692105       -18.8331
  18   2.0000      -0.685039       -18.6408
  19   2.0000      -0.675996       -18.3948
  20   2.0000      -0.652193       -17.7471
  21   2.0000      -0.605770       -16.4838
  22   2.0000      -0.586755       -15.9664
  23   2.0000      -0.573605       -15.6086
  24   2.0000      -0.542466       -14.7613
  25   2.0000      -0.534597       -14.5471
  26   2.0000      -0.526629       -14.3303
  27   2.0000      -0.513017       -13.9599
  28   2.0000      -0.487827       -13.2744
  29   2.0000      -0.463613       -12.6155
  30   2.0000      -0.451372       -12.2825
  31   2.0000      -0.437258       -11.8984
  32   2.0000      -0.404282       -11.0011
  33   2.0000      -0.372311       -10.1311
  34   0.0000       0.129025         3.5109
  35   0.0000       0.154450         4.2028
  36   0.0000       0.160455         4.3662
  37   0.0000       0.165481         4.5030
  38   0.0000       0.175298         4.7701

MULLIKEN ATOMIC CHARGES
-----------------------
   0 O :   -0.366445
   1 N :   -0.075389
   2 C :   -0.188098
   3 C :    0.094560
   4 C :   -0.335725
   5 C :    0.101690
   6 C :   -0.277711
   7 C :   -0.243528
   8 C :   -0.285254
   9 H :    0.333361
  10 H :    0.125956
  11 H :    0.123005
  12 H :    0.131576
  13 H :    0.118488
  14 H :    0.120037
  15 H :    0.122791
  16 H :    0.120427
  17 H :    0.129951
  18 H :    0.129083
  19 H :    0.121225
Sum of atomic charges:    0.0000000

LOEWDIN ATOMIC CHARGES
----------------------
   0 O :   -0.086832
   1 N :    0.023537
   2 C :   -0.251548
   3 C :   -0.180937
   4 C :   -0.177954
   5 C :   -0.175241
   6 C :   -0.228158
   7 C :   -0.254878
   8 C :   -0.226296
   9 H :    0.166130
  10 H :    0.146322
  11 H :    0.128835
  12 H :    0.139119
  13 H :    0.144463
  14 H :    0.137776
  15 H :    0.141494
  16 H :    0.136203
  17 H :    0.137067
  18 H :    0.143146
  19 H :    0.137752

  Mayer bond orders larger than 0.1
B(  0-O ,  1-N ) :   0.7882 B(  0-O ,  9-H ) :   0.8457 B(  1-N ,  2-C ) :   1.9390
B(  2-C ,  3-C ) :   0.8786 B(  2-C ,  5-C ) :   0.8997 B(  3-C ,  4-C ) :   0.8938
B(  3-C ,  8-C ) :   0.8470 B(  3-C , 10-H ) :   0.9160 B(  4-C ,  5-C ) :   0.9002
B(  4-C , 11-H ) :   0.9222 B(  4-C , 12-H ) :   0.9197 B(  5-C ,  6-C ) :   0.8521
B(  5-C , 13-H ) :   0.9182 B(  6-C ,  7-C ) :   0.9413 B(  6-C , 14-H ) :   0.9255
B(  6-C , 15-H ) :   0.9313 B(  7-C ,  8-C ) :   0.9408 B(  7-C , 16-H ) :   0.9344
B(  7-C , 17-H ) :   0.9290 B(  8-C , 18-H ) :   0.9337 B(  8-C , 19-H ) :   0.9262

MP2 TOTAL ENERGY:     -402.413956779 Eh
FINAL SINGLE POINT ENERGY      -402.413956778808

DIPOLE MOMENT
-------------
                                X             Y             Z
Electronic contribution:      5.80141       4.23067      -2.71111
Nuclear contribution   :     -6.18332      -4.46540       2.78953
                        -----------------------------------------
Total Dipole Moment    :     -0.38192      -0.23473       0.07843
                        -----------------------------------------
Magnitude (a.u.)       :      0.45509
Magnitude (Debye)      :      1.15675

                             ****ORCA TERMINATED NORMALLY****
TOTAL RUN TIME: 0 days 0 hours 19 minutes 38 seconds 542 msec
