                         Program Version 3.0.3 - RELEASE   -
|  1> ! RI-MP2 RIJK def2-TZVP def2-TZVP/C def2-TZVP/JK TIGHTSCF
|  2> % maxcore 2000
|  3> % mp2 density relaxed end
|  4> *xyz 0 1
|  5>  C       -1.3282765335    -0.0427934406     0.0588994052
|  6>  O        0.0909625245     0.0036187953     0.0049406007
|  7>  C        0.6529458003    -0.6812255672    -1.0652514670
|  8>  C        1.8880961952    -1.5043704531    -0.7441064457
|  9>  C        0.6090452555    -2.2004472568    -1.0885721957
| 10>  C        0.6850500116     0.0178523448    -2.3927969537
| 11>  O        1.0803795887    -0.5306748664    -3.4034139331
| 12>  C        0.2570107683     1.4068988625    -2.4106940479
| 13>  C       -0.0829856546     2.5595154719    -2.4806690418
| 14>  H       -1.7851640447     0.4327010871    -0.8177289699
| 15>  H       -1.6939247778    -1.0753229799     0.1346867388
| 16>  H       -1.6229022396     0.5083850876     0.9542903323
| 17>  H        2.6827569374    -1.4955420697    -1.4804216003
| 18>  H        2.1926088998    -1.4777238258     0.2953143105
| 19>  H        0.0560171131    -2.6706519707    -0.2840006551
| 20>  H        0.5263727374    -2.6650878116    -2.0638991713
| 21>  H       -0.3807946115     3.5781074328    -2.5425337361
| 22> *
| 23>
| 24>                          ****END OF INPUT****

CARTESIAN COORDINATES (ANGSTROEM)
---------------------------------
  C     -1.328277   -0.042793    0.058899
  O      0.090963    0.003619    0.004941
  C      0.652946   -0.681226   -1.065251
  C      1.888096   -1.504370   -0.744106
  C      0.609045   -2.200447   -1.088572
  C      0.685050    0.017852   -2.392797
  O      1.080380   -0.530675   -3.403414
  C      0.257011    1.406899   -2.410694
  C     -0.082986    2.559515   -2.480669
  H     -1.785164    0.432701   -0.817729
  H     -1.693925   -1.075323    0.134687
  H     -1.622902    0.508385    0.954290
  H      2.682757   -1.495542   -1.480422
  H      2.192609   -1.477724    0.295314
  H      0.056017   -2.670652   -0.284001
  H      0.526373   -2.665088   -2.063899
  H     -0.380795    3.578107   -2.542534

 Total Charge           Charge          ....    0
 Multiplicity           Mult            ....    1
 Number of Electrons    NEL             ....   66
 Basis Dimension        Dim             ....  327

ORBITAL ENERGIES
----------------

  NO   OCC          E(Eh)            E(eV)
   0   2.0000     -20.577056      -559.9301
   1   2.0000     -20.558973      -559.4381
   2   2.0000     -11.363128      -309.2064
   3   2.0000     -11.306491      -307.6653
   4   2.0000     -11.280793      -306.9660
   5   2.0000     -11.261349      -306.4369
   6   2.0000     -11.252706      -306.2017
   7   2.0000     -11.245075      -305.9940
   8   2.0000     -11.244207      -305.9704
   9   2.0000      -1.410188       -38.3732
  10   2.0000      -1.393424       -37.9170
  11   2.0000      -1.150178       -31.2979
  12   2.0000      -1.062890       -28.9227
  13   2.0000      -0.960967       -26.1492
  14   2.0000      -0.923964       -25.1424
  15   2.0000      -0.842821       -22.9343
  16   2.0000      -0.807725       -21.9793
  17   2.0000      -0.737545       -20.0696
  18   2.0000      -0.721320       -19.6281
  19   2.0000      -0.683525       -18.5997
  20   2.0000      -0.653467       -17.7817
  21   2.0000      -0.636534       -17.3210
  22   2.0000      -0.622594       -16.9416
  23   2.0000      -0.609722       -16.5914
  24   2.0000      -0.570321       -15.5192
  25   2.0000      -0.529596       -14.4110
  26   2.0000      -0.521005       -14.1773
  27   2.0000      -0.487369       -13.2620
  28   2.0000      -0.478118       -13.0103
  29   2.0000      -0.420090       -11.4312
  30   2.0000      -0.418881       -11.3983
  31   2.0000      -0.415310       -11.3012
  32   2.0000      -0.409256       -11.1364
  33   0.0000       0.075837         2.0636
  34   0.0000       0.144820         3.9407
  35   0.0000       0.154933         4.2159
  36   0.0000       0.167782         4.5656
  37   0.0000       0.172151         4.6845

MULLIKEN ATOMIC CHARGES
-----------------------
   0 C :   -0.208558
   1 O :   -0.303029
   2 C :    0.166852
   3 C :   -0.238765
   4 C :   -0.281443
   5 C :    0.016144
   6 O :   -0.287610
   7 C :    0.061250
   8 C :   -0.112077
   9 H :    0.127923
  10 H :    0.116825
  11 H :    0.142726
  12 H :    0.152366
  13 H :    0.145165
  14 H :    0.147937
  15 H :    0.153759
  16 H :    0.200536
Sum of atomic charges:    0.0000000

LOEWDIN ATOMIC CHARGES
----------------------
   0 C :   -0.332292
   1 O :    0.202386
   2 C :   -0.317631
   3 C :   -0.175638
   4 C :   -0.191723
   5 C :   -0.295675
   6 O :    0.173975
   7 C :   -0.052734
   8 C :   -0.039820
   9 H :    0.108044
  10 H :    0.104014
  11 H :    0.115480
  12 H :    0.143241
  13 H :    0.142577
  14 H :    0.139848
  15 H :    0.143881
  16 H :    0.132067

  Mayer bond orders larger than 0.1
B(  0-C ,  1-O ) :   0.8792 B(  0-C ,  9-H ) :   0.9316 B(  0-C , 10-H ) :   0.9332
B(  0-C , 11-H ) :   0.9393 B(  1-O ,  2-C ) :   1.0036 B(  2-C ,  3-C ) :   0.8270
B(  2-C ,  4-C ) :   0.8667 B(  2-C ,  5-C ) :   1.0033 B(  2-C ,  7-C ) :  -0.1508
B(  3-C ,  4-C ) :   0.9396 B(  3-C , 12-H ) :   0.9227 B(  3-C , 13-H ) :   0.9246
B(  4-C , 14-H ) :   0.9229 B(  4-C , 15-H ) :   0.9072 B(  5-C ,  6-O ) :   1.9362
B(  5-C ,  7-C ) :   1.0105 B(  7-C ,  8-C ) :   2.6058 B(  8-C , 16-H ) :   0.8948

MP2 TOTAL ENERGY:     -421.054318766 Eh
FINAL SINGLE POINT ENERGY      -421.054318766156

DIPOLE MOMENT
-------------
                                X             Y             Z
Electronic contribution:      2.46268       3.59210      -4.81975
Nuclear contribution   :     -3.09661      -3.43854       5.53995
                        -----------------------------------------
Total Dipole Moment    :     -0.63393       0.15356       0.72020
                        -----------------------------------------
Magnitude (a.u.)       :      0.97167
Magnitude (Debye)      :      2.46979

                             ****ORCA TERMINATED NORMALLY****
TOTAL RUN TIME: 0 days 0 hours 16 minutes 29 seconds 563 msec
