                         Program Version 3.0.3 - RELEASE   -
|  1> ! RI-MP2 RIJK def2-TZVP def2-TZVP/C def2-TZVP/JK TIGHTSCF
|  2> % maxcore 2000
|  3> % mp2 density relaxed end
|  4> *xyz 0 1
|  5>  C        0.1489545522     1.5892804168     0.2067153388
|  6>  C        0.1676367914     0.1047801442     0.0899707373
|  7>  C        0.7876573092    -0.8634949414    -0.8459358943
|  8>  C        1.2459574502    -1.7757741233     0.2875669048
|  9>  C        0.1371181918    -1.0930911541     1.1321357262
| 10>  C       -1.1321128155    -1.5332562145     0.3974764702
| 11>  C       -2.4359565154    -0.9647248599     0.9084552808
| 12>  O       -2.5451275309    -0.3109415698     1.9149819900
| 13>  N       -0.7216573314    -0.7100802733    -0.7982573632
| 14>  H        1.0669365174     1.9588562158     0.6766207588
| 15>  H        0.0655433567     2.0413401973    -0.7865194783
| 16>  H       -0.7005424942     1.9242677546     0.8102440100
| 17>  H        1.2385618627    -0.6922529156    -1.8151104284
| 18>  H        1.1911736575    -2.8622456049     0.1569635368
| 19>  H        2.2468223868    -1.4950032780     0.6254350001
| 20>  H        0.1866218369    -1.0332996668     2.2159848290
| 21>  H       -1.2637562506    -2.6038247860     0.1797292006
| 22>  H       -3.3128569250    -1.1798107812     0.2587037308
| 23> *
| 24>
| 25>                          ****END OF INPUT****

CARTESIAN COORDINATES (ANGSTROEM)
---------------------------------
  C      0.148955    1.589280    0.206715
  C      0.167637    0.104780    0.089971
  C      0.787657   -0.863495   -0.845936
  C      1.245957   -1.775774    0.287567
  C      0.137118   -1.093091    1.132136
  C     -1.132113   -1.533256    0.397476
  C     -2.435957   -0.964725    0.908455
  O     -2.545128   -0.310942    1.914982
  N     -0.721657   -0.710080   -0.798257
  H      1.066937    1.958856    0.676621
  H      0.065543    2.041340   -0.786519
  H     -0.700542    1.924268    0.810244
  H      1.238562   -0.692253   -1.815110
  H      1.191174   -2.862246    0.156964
  H      2.246822   -1.495003    0.625435
  H      0.186622   -1.033300    2.215985
  H     -1.263756   -2.603825    0.179729
  H     -3.312857   -1.179811    0.258704

 Total Charge           Charge          ....    0
 Multiplicity           Mult            ....    1
 Number of Electrons    NEL             ....   66
 Basis Dimension        Dim             ....  333

ORBITAL ENERGIES
----------------

  NO   OCC          E(Eh)            E(eV)
   0   2.0000     -20.560702      -559.4851
   1   2.0000     -15.572461      -423.7482
   2   2.0000     -11.332032      -308.3603
   3   2.0000     -11.275566      -306.8237
   4   2.0000     -11.274144      -306.7851
   5   2.0000     -11.267941      -306.6163
   6   2.0000     -11.249821      -306.1232
   7   2.0000     -11.242062      -305.9120
   8   2.0000     -11.227710      -305.5215
   9   2.0000      -1.399624       -38.0857
  10   2.0000      -1.323521       -36.0148
  11   2.0000      -1.041853       -28.3503
  12   2.0000      -1.029665       -28.0186
  13   2.0000      -0.990642       -26.9567
  14   2.0000      -0.880477       -23.9590
  15   2.0000      -0.821626       -22.3576
  16   2.0000      -0.767156       -20.8754
  17   2.0000      -0.710175       -19.3248
  18   2.0000      -0.699277       -19.0283
  19   2.0000      -0.668397       -18.1880
  20   2.0000      -0.644367       -17.5341
  21   2.0000      -0.617312       -16.7979
  22   2.0000      -0.602821       -16.4036
  23   2.0000      -0.570363       -15.5204
  24   2.0000      -0.566500       -15.4152
  25   2.0000      -0.544228       -14.8092
  26   2.0000      -0.522898       -14.2288
  27   2.0000      -0.492590       -13.4040
  28   2.0000      -0.457745       -12.4559
  29   2.0000      -0.449622       -12.2348
  30   2.0000      -0.420089       -11.4312
  31   2.0000      -0.414241       -11.2721
  32   2.0000      -0.376281       -10.2391
  33   0.0000       0.128565         3.4984
  34   0.0000       0.141380         3.8471
  35   0.0000       0.150147         4.0857
  36   0.0000       0.171649         4.6708
  37   0.0000       0.179270         4.8782

MULLIKEN ATOMIC CHARGES
-----------------------
   0 C :   -0.422673
   1 C :    0.091415
   2 C :   -0.100364
   3 C :   -0.212143
   4 C :   -0.112435
   5 C :    0.081395
   6 C :    0.060433
   7 O :   -0.266428
   8 N :   -0.284213
   9 H :    0.135914
  10 H :    0.144990
  11 H :    0.156601
  12 H :    0.134247
  13 H :    0.114528
  14 H :    0.128913
  15 H :    0.147676
  16 H :    0.111380
  17 H :    0.090765
Sum of atomic charges:    0.0000000

LOEWDIN ATOMIC CHARGES
----------------------
   0 C :   -0.272505
   1 C :   -0.209906
   2 C :   -0.185499
   3 C :   -0.204596
   4 C :   -0.135975
   5 C :   -0.241620
   6 C :   -0.262737
   7 O :    0.142483
   8 N :    0.156507
   9 H :    0.132248
  10 H :    0.137764
  11 H :    0.136186
  12 H :    0.136047
  13 H :    0.126091
  14 H :    0.145011
  15 H :    0.139071
  16 H :    0.144977
  17 H :    0.116454

  Mayer bond orders larger than 0.1
B(  0-C ,  1-C ) :   0.7928 B(  0-C ,  9-H ) :   0.9391 B(  0-C , 10-H ) :   0.9460
B(  0-C , 11-H ) :   0.9426 B(  1-C ,  2-C ) :   0.8435 B(  1-C ,  4-C ) :   0.8818
B(  1-C ,  8-N ) :   0.7954 B(  2-C ,  3-C ) :   0.9301 B(  2-C ,  8-N ) :   0.8905
B(  2-C , 12-H ) :   0.9312 B(  3-C ,  4-C ) :   0.9311 B(  3-C , 13-H ) :   0.9193
B(  3-C , 14-H ) :   0.9176 B(  4-C ,  5-C ) :   0.8908 B(  4-C , 15-H ) :   0.9040
B(  5-C ,  6-C ) :   0.8531 B(  5-C ,  8-N ) :   0.8427 B(  5-C , 16-H ) :   0.8938
B(  6-C ,  7-O ) :   2.0038 B(  6-C , 17-H ) :   0.9541

MP2 TOTAL ENERGY:     -401.198968786 Eh
FINAL SINGLE POINT ENERGY      -401.198968785813

DIPOLE MOMENT
-------------
                                X             Y             Z
Electronic contribution:     -4.17308      -1.73440       0.91448
Nuclear contribution   :      4.96797       1.33627      -1.09213
                        -----------------------------------------
Total Dipole Moment    :      0.79489      -0.39812      -0.17764
                        -----------------------------------------
Magnitude (a.u.)       :      0.90659
Magnitude (Debye)      :      2.30437

                             ****ORCA TERMINATED NORMALLY****
TOTAL RUN TIME: 0 days 0 hours 19 minutes 50 seconds 504 msec
