                         Program Version 3.0.3 - RELEASE   -
|  1> ! RI-MP2 RIJK def2-TZVP def2-TZVP/C def2-TZVP/JK TIGHTSCF
|  2> % maxcore 2000
|  3> % mp2 density relaxed end
|  4> *xyz 0 1
|  5>  C        0.0632604159     1.5230884041    -0.1417851027
|  6>  O        1.4804245358     1.4848847950     0.2247263019
|  7>  C        1.2191014680     0.2556688538     0.9516602730
|  8>  C        1.7073894999    -1.1952878285     0.8348839193
|  9>  O        0.4879362219    -1.7908824777     1.4324783171
| 10>  C       -0.6835212064    -1.0741599203     0.9276648412
| 11>  C        0.0003434845    -0.0037068362     0.0599827791
| 12>  C        0.6353886755    -0.7442423560    -1.1086810083
| 13>  C        1.6614697882    -1.4625688628    -0.6474558234
| 14>  H       -0.5156496059     2.1136100761     0.5800794178
| 15>  H       -0.0829348620     1.9055918084    -1.1556214122
| 16>  H        1.0065386407     0.4936890567     2.0003473406
| 17>  H        2.5470693826    -1.5616122681     1.4214916717
| 18>  H       -1.3236358505    -1.7728474702     0.3809336121
| 19>  H       -1.2343019281    -0.6571007540     1.7767884151
| 20>  H        0.2290241011    -0.7241158716    -2.1128109154
| 21>  H        2.2835068688    -2.1692788085    -1.1800619968
| 22> *
| 23>
| 24>                          ****END OF INPUT****

CARTESIAN COORDINATES (ANGSTROEM)
---------------------------------
  C      0.063260    1.523088   -0.141785
  O      1.480425    1.484885    0.224726
  C      1.219101    0.255669    0.951660
  C      1.707389   -1.195288    0.834884
  O      0.487936   -1.790882    1.432478
  C     -0.683521   -1.074160    0.927665
  C      0.000343   -0.003707    0.059983
  C      0.635389   -0.744242   -1.108681
  C      1.661470   -1.462569   -0.647456
  H     -0.515650    2.113610    0.580079
  H     -0.082935    1.905592   -1.155621
  H      1.006539    0.493689    2.000347
  H      2.547069   -1.561612    1.421492
  H     -1.323636   -1.772847    0.380934
  H     -1.234302   -0.657101    1.776788
  H      0.229024   -0.724116   -2.112811
  H      2.283507   -2.169279   -1.180062

 Total Charge           Charge          ....    0
 Multiplicity           Mult            ....    1
 Number of Electrons    NEL             ....   66
 Basis Dimension        Dim             ....  327

ORBITAL ENERGIES
----------------

  NO   OCC          E(Eh)            E(eV)
   0   2.0000     -20.561571      -559.5088
   1   2.0000     -20.557081      -559.3866
   2   2.0000     -11.299368      -307.4714
   3   2.0000     -11.297171      -307.4117
   4   2.0000     -11.289693      -307.2082
   5   2.0000     -11.286513      -307.1216
   6   2.0000     -11.248868      -306.0973
   7   2.0000     -11.237889      -305.7985
   8   2.0000     -11.231989      -305.6380
   9   2.0000      -1.394919       -37.9577
  10   2.0000      -1.360028       -37.0082
  11   2.0000      -1.126521       -30.6542
  12   2.0000      -1.027039       -27.9472
  13   2.0000      -0.966944       -26.3119
  14   2.0000      -0.928652       -25.2699
  15   2.0000      -0.843875       -22.9630
  16   2.0000      -0.777442       -21.1553
  17   2.0000      -0.742277       -20.1984
  18   2.0000      -0.705216       -19.1899
  19   2.0000      -0.677057       -18.4237
  20   2.0000      -0.651754       -17.7351
  21   2.0000      -0.624947       -17.0057
  22   2.0000      -0.597414       -16.2565
  23   2.0000      -0.584265       -15.8987
  24   2.0000      -0.564602       -15.3636
  25   2.0000      -0.544494       -14.8164
  26   2.0000      -0.522938       -14.2299
  27   2.0000      -0.492777       -13.4091
  28   2.0000      -0.479007       -13.0344
  29   2.0000      -0.437196       -11.8967
  30   2.0000      -0.430267       -11.7082
  31   2.0000      -0.404870       -11.0171
  32   2.0000      -0.365499        -9.9457
  33   0.0000       0.130633         3.5547
  34   0.0000       0.142524         3.8783
  35   0.0000       0.160272         4.3612
  36   0.0000       0.170425         4.6375
  37   0.0000       0.184683         5.0255

MULLIKEN ATOMIC CHARGES
-----------------------
   0 C :   -0.012366
   1 O :   -0.316482
   2 C :   -0.020982
   3 C :    0.155762
   4 O :   -0.311466
   5 C :   -0.025432
   6 C :    0.028657
   7 C :   -0.214865
   8 C :   -0.241727
   9 H :    0.102266
  10 H :    0.116398
  11 H :    0.107639
  12 H :    0.141943
  13 H :    0.105817
  14 H :    0.112119
  15 H :    0.135703
  16 H :    0.137016
Sum of atomic charges:    0.0000000

LOEWDIN ATOMIC CHARGES
----------------------
   0 C :   -0.219038
   1 O :    0.136637
   2 C :   -0.213911
   3 C :   -0.241257
   4 O :    0.142489
   5 C :   -0.238034
   6 C :   -0.221000
   7 C :   -0.097184
   8 C :   -0.117144
   9 H :    0.124061
  10 H :    0.124851
  11 H :    0.148366
  12 H :    0.141116
  13 H :    0.124507
  14 H :    0.127694
  15 H :    0.140371
  16 H :    0.137475

  Mayer bond orders larger than 0.1
B(  0-C ,  1-O ) :   0.9326 B(  0-C ,  6-C ) :   0.9266 B(  0-C ,  9-H ) :   0.9190
B(  0-C , 10-H ) :   0.9011 B(  1-O ,  2-C ) :   0.9783 B(  2-C ,  3-C ) :   0.8954
B(  2-C ,  6-C ) :   0.8661 B(  2-C , 11-H ) :   0.9492 B(  3-C ,  4-O ) :   0.8854
B(  3-C ,  8-C ) :   0.9371 B(  3-C , 12-H ) :   0.9118 B(  4-O ,  5-C ) :   0.9481
B(  5-C ,  6-C ) :   0.9571 B(  5-C , 13-H ) :   0.9050 B(  5-C , 14-H ) :   0.9180
B(  6-C ,  7-C ) :   0.9391 B(  7-C ,  8-C ) :   1.7593 B(  7-C , 15-H ) :   0.9220
B(  8-C , 16-H ) :   0.9180

MP2 TOTAL ENERGY:     -421.047668541 Eh
FINAL SINGLE POINT ENERGY      -421.047668541267

DIPOLE MOMENT
-------------
                                X             Y             Z
Electronic contribution:      2.12842      -0.13575       0.42063
Nuclear contribution   :     -2.68677       0.18165      -0.72299
                        -----------------------------------------
Total Dipole Moment    :     -0.55835       0.04590      -0.30237
                        -----------------------------------------
Magnitude (a.u.)       :      0.63662
Magnitude (Debye)      :      1.61817

                             ****ORCA TERMINATED NORMALLY****
TOTAL RUN TIME: 0 days 0 hours 18 minutes 35 seconds 108 msec
