                         Program Version 3.0.3 - RELEASE   -
|  1> ! RI-MP2 RIJK def2-TZVP def2-TZVP/C def2-TZVP/JK TIGHTSCF
|  2> % maxcore 2000
|  3> % mp2 density relaxed end
|  4> *xyz 0 1
|  5>  C       -0.0638525376     1.4591138513     0.0094400646
|  6>  N       -0.0316510173     0.0098339644     0.0006615498
|  7>  C       -1.1505999177    -0.7958604340     0.0034205107
|  8>  N       -2.3382974669    -0.3494579982     0.0139134117
|  9>  C       -0.5919533174    -2.2098298369    -0.0086191696
| 10>  O        0.8283970372    -2.0518073590    -0.0168296813
| 11>  C        1.1470246329    -0.7254790818    -0.0110341591
| 12>  O        2.2669147282    -0.3049684162    -0.0160554350
| 13>  H        0.9681240843     1.8098208197     0.0021431671
| 14>  H       -0.5969832345     1.8293823292    -0.8701058899
| 15>  H       -0.5807773876     1.8193181943     0.9027674900
| 16>  H       -3.0162188365    -1.1105807395     0.0138756630
| 17>  H       -0.8917153563    -2.7725409815     0.8812035848
| 18>  H       -0.9031996308    -2.7618682017    -0.9011851368
| 19> *
| 20>
| 21>                          ****END OF INPUT****

CARTESIAN COORDINATES (ANGSTROEM)
---------------------------------
  C     -0.063853    1.459114    0.009440
  N     -0.031651    0.009834    0.000662
  C     -1.150600   -0.795860    0.003421
  N     -2.338297   -0.349458    0.013913
  C     -0.591953   -2.209830   -0.008619
  O      0.828397   -2.051807   -0.016830
  C      1.147025   -0.725479   -0.011034
  O      2.266915   -0.304968   -0.016055
  H      0.968124    1.809821    0.002143
  H     -0.596983    1.829382   -0.870106
  H     -0.580777    1.819318    0.902767
  H     -3.016219   -1.110581    0.013876
  H     -0.891715   -2.772541    0.881204
  H     -0.903200   -2.761868   -0.901185

 Total Charge           Charge          ....    0
 Multiplicity           Mult            ....    1
 Number of Electrons    NEL             ....   60
 Basis Dimension        Dim             ....  284

ORBITAL ENERGIES
----------------

  NO   OCC          E(Eh)            E(eV)
   0   2.0000     -20.625903      -561.2594
   1   2.0000     -20.547004      -559.1124
   2   2.0000     -15.626490      -425.2184
   3   2.0000     -15.557171      -423.3322
   4   2.0000     -11.422276      -310.8159
   5   2.0000     -11.349962      -308.8482
   6   2.0000     -11.331903      -308.3568
   7   2.0000     -11.274381      -306.7915
   8   2.0000      -1.495046       -40.6823
   9   2.0000      -1.388269       -37.7767
  10   2.0000      -1.311701       -35.6932
  11   2.0000      -1.202453       -32.7204
  12   2.0000      -1.022588       -27.8260
  13   2.0000      -0.986484       -26.8436
  14   2.0000      -0.866934       -23.5905
  15   2.0000      -0.802186       -21.8286
  16   2.0000      -0.727159       -19.7870
  17   2.0000      -0.721954       -19.6454
  18   2.0000      -0.686448       -18.6792
  19   2.0000      -0.647551       -17.6208
  20   2.0000      -0.637103       -17.3365
  21   2.0000      -0.626996       -17.0614
  22   2.0000      -0.601567       -16.3695
  23   2.0000      -0.590416       -16.0660
  24   2.0000      -0.560753       -15.2589
  25   2.0000      -0.521339       -14.1863
  26   2.0000      -0.481845       -13.1117
  27   2.0000      -0.472551       -12.8588
  28   2.0000      -0.446724       -12.1560
  29   2.0000      -0.390993       -10.6395
  30   0.0000       0.119195         3.2434
  31   0.0000       0.137516         3.7420
  32   0.0000       0.153735         4.1833
  33   0.0000       0.157109         4.2752
  34   0.0000       0.201745         5.4897

MULLIKEN ATOMIC CHARGES
-----------------------
   0 C :   -0.305386
   1 N :   -0.091641
   2 C :    0.048933
   3 N :   -0.375931
   4 C :   -0.041838
   5 O :   -0.242009
   6 C :    0.326730
   7 O :   -0.311868
   8 H :    0.179817
   9 H :    0.152413
  10 H :    0.152264
  11 H :    0.221152
  12 H :    0.143681
  13 H :    0.143682
Sum of atomic charges:    0.0000000

LOEWDIN ATOMIC CHARGES
----------------------
   0 C :   -0.260117
   1 N :    0.214928
   2 C :   -0.352767
   3 N :   -0.059798
   4 C :   -0.233766
   5 O :    0.250897
   6 C :   -0.527542
   7 O :    0.124380
   8 H :    0.136356
   9 H :    0.127679
  10 H :    0.127629
  11 H :    0.169222
  12 H :    0.141446
  13 H :    0.141453

  Mayer bond orders larger than 0.1
B(  0-C ,  1-N ) :   0.8527 B(  0-C ,  8-H ) :   0.9184 B(  0-C ,  9-H ) :   0.9302
B(  0-C , 10-H ) :   0.9303 B(  1-N ,  2-C ) :   1.0641 B(  1-N ,  6-C ) :   1.0610
B(  2-C ,  3-N ) :   1.9596 B(  2-C ,  4-C ) :   0.9374 B(  3-N , 11-H ) :   0.8550
B(  4-C ,  5-O ) :   0.8980 B(  4-C , 12-H ) :   0.9143 B(  4-C , 13-H ) :   0.9143
B(  5-O ,  6-C ) :   1.0823 B(  6-C ,  7-O ) :   2.0069

MP2 TOTAL ENERGY:     -415.255243509 Eh
FINAL SINGLE POINT ENERGY      -415.255243509407

DIPOLE MOMENT
-------------
                                X             Y             Z
Electronic contribution:      3.69570      -2.79756      -0.04023
Nuclear contribution   :     -4.84386       2.37549       0.04513
                        -----------------------------------------
Total Dipole Moment    :     -1.14816      -0.42207       0.00490
                        -----------------------------------------
Magnitude (a.u.)       :      1.22329
Magnitude (Debye)      :      3.10936

                             ****ORCA TERMINATED NORMALLY****
TOTAL RUN TIME: 0 days 0 hours 9 minutes 57 seconds 106 msec
