                         Program Version 3.0.3 - RELEASE   -
|  1> ! RI-MP2 RIJK def2-TZVP def2-TZVP/C def2-TZVP/JK TIGHTSCF
|  2> % maxcore 2000
|  3> % mp2 density relaxed end
|  4> *xyz 0 1
|  5>  C        0.1633595739     1.5107556865    -0.1245510916
|  6>  C        0.0253189302     0.0208156150     0.0253822138
|  7>  C       -1.2833934556    -0.6674647480     0.4777585984
|  8>  N       -0.4868137297    -1.8007997426     1.0563600252
|  9>  C        0.6967089062    -0.9295265754     1.1037766718
| 10>  C        0.6344804430    -1.9958851937     0.0475549118
| 11>  C        0.5213647019    -0.9674998334    -1.0698755454
| 12>  C        1.3109728723    -3.3013130540     0.0457219348
| 13>  O        1.9335182537    -3.7300642280    -0.8970059394
| 14>  H        1.2006018781     1.7982967607    -0.3256454419
| 15>  H       -0.4474292348     1.8710432499    -0.9606558644
| 16>  H       -0.1640946002     2.0364426377     0.7788793111
| 17>  H       -1.7824710159    -0.1508344288     1.3018505607
| 18>  H       -2.0141844043    -0.9508594937    -0.2882205717
| 19>  H        1.3455482908    -0.8062297764     1.9621392496
| 20>  H       -0.1506942150    -1.1725842177    -1.9093440285
| 21>  H        1.5139724557    -0.7068262873    -1.4439572481
| 22>  H        1.2112895694    -3.8669159909     0.9969863339
| 23> *
| 24>
| 25>                          ****END OF INPUT****

CARTESIAN COORDINATES (ANGSTROEM)
---------------------------------
  C      0.163360    1.510756   -0.124551
  C      0.025319    0.020816    0.025382
  C     -1.283393   -0.667465    0.477759
  N     -0.486814   -1.800800    1.056360
  C      0.696709   -0.929527    1.103777
  C      0.634480   -1.995885    0.047555
  C      0.521365   -0.967500   -1.069876
  C      1.310973   -3.301313    0.045722
  O      1.933518   -3.730064   -0.897006
  H      1.200602    1.798297   -0.325645
  H     -0.447429    1.871043   -0.960656
  H     -0.164095    2.036443    0.778879
  H     -1.782471   -0.150834    1.301851
  H     -2.014184   -0.950859   -0.288221
  H      1.345548   -0.806230    1.962139
  H     -0.150694   -1.172584   -1.909344
  H      1.513972   -0.706826   -1.443957
  H      1.211290   -3.866916    0.996986

 Total Charge           Charge          ....    0
 Multiplicity           Mult            ....    1
 Number of Electrons    NEL             ....   66
 Basis Dimension        Dim             ....  333

ORBITAL ENERGIES
----------------

  NO   OCC          E(Eh)            E(eV)
   0   2.0000     -20.553393      -559.2863
   1   2.0000     -15.584757      -424.0828
   2   2.0000     -11.331758      -308.3528
   3   2.0000     -11.283775      -307.0471
   4   2.0000     -11.278569      -306.9055
   5   2.0000     -11.268391      -306.6285
   6   2.0000     -11.266683      -306.5820
   7   2.0000     -11.242866      -305.9339
   8   2.0000     -11.235148      -305.7239
   9   2.0000      -1.392005       -37.8784
  10   2.0000      -1.335117       -36.3304
  11   2.0000      -1.068395       -29.0725
  12   2.0000      -1.029022       -28.0011
  13   2.0000      -0.956762       -26.0348
  14   2.0000      -0.907479       -24.6938
  15   2.0000      -0.851520       -23.1710
  16   2.0000      -0.753414       -20.5014
  17   2.0000      -0.746417       -20.3110
  18   2.0000      -0.678302       -18.4575
  19   2.0000      -0.666644       -18.1403
  20   2.0000      -0.637636       -17.3510
  21   2.0000      -0.626530       -17.0487
  22   2.0000      -0.608731       -16.5644
  23   2.0000      -0.579843       -15.7783
  24   2.0000      -0.563509       -15.3339
  25   2.0000      -0.549422       -14.9505
  26   2.0000      -0.528377       -14.3779
  27   2.0000      -0.490352       -13.3431
  28   2.0000      -0.467780       -12.7289
  29   2.0000      -0.450124       -12.2485
  30   2.0000      -0.429506       -11.6874
  31   2.0000      -0.421901       -11.4805
  32   2.0000      -0.380569       -10.3558
  33   0.0000       0.120642         3.2828
  34   0.0000       0.125694         3.4203
  35   0.0000       0.164674         4.4810
  36   0.0000       0.168815         4.5937
  37   0.0000       0.176921         4.8143

MULLIKEN ATOMIC CHARGES
-----------------------
   0 C :   -0.394293
   1 C :    0.035697
   2 C :   -0.112558
   3 N :   -0.233527
   4 C :   -0.131588
   5 C :    0.124850
   6 C :   -0.173546
   7 C :    0.001638
   8 O :   -0.272560
   9 H :    0.139510
  10 H :    0.141590
  11 H :    0.137795
  12 H :    0.124481
  13 H :    0.113178
  14 H :    0.154032
  15 H :    0.120759
  16 H :    0.130947
  17 H :    0.093594
Sum of atomic charges:    0.0000000

LOEWDIN ATOMIC CHARGES
----------------------
   0 C :   -0.276099
   1 C :   -0.229729
   2 C :   -0.200282
   3 N :    0.150305
   4 C :   -0.120391
   5 C :   -0.231368
   6 C :   -0.151946
   7 C :   -0.269363
   8 O :    0.130742
   9 H :    0.131103
  10 H :    0.134116
  11 H :    0.129915
  12 H :    0.136339
  13 H :    0.124346
  14 H :    0.135836
  15 H :    0.132586
  16 H :    0.151817
  17 H :    0.122072

  Mayer bond orders larger than 0.1
B(  0-C ,  1-C ) :   0.8753 B(  0-C ,  9-H ) :   0.9371 B(  0-C , 10-H ) :   0.9357
B(  0-C , 11-H ) :   0.9394 B(  1-C ,  2-C ) :   0.9372 B(  1-C ,  4-C ) :   0.8925
B(  1-C ,  6-C ) :   0.9271 B(  2-C ,  3-N ) :   0.9167 B(  2-C , 12-H ) :   0.9266
B(  2-C , 13-H ) :   0.9164 B(  3-N ,  4-C ) :   0.9272 B(  3-N ,  5-C ) :   0.7951
B(  4-C ,  5-C ) :   0.8107 B(  4-C , 14-H ) :   0.8848 B(  5-C ,  6-C ) :   0.8887
B(  5-C ,  7-C ) :   0.8485 B(  5-C ,  8-O ) :  -0.1055 B(  5-C , 17-H ) :  -0.1018
B(  6-C , 15-H ) :   0.9094 B(  6-C , 16-H ) :   0.9161 B(  7-C ,  8-O ) :   2.0166
B(  7-C , 17-H ) :   0.9738

MP2 TOTAL ENERGY:     -401.202847631 Eh
FINAL SINGLE POINT ENERGY      -401.202847631267

DIPOLE MOMENT
-------------
                                X             Y             Z
Electronic contribution:      2.35102      -7.90944       0.67105
Nuclear contribution   :     -2.72004       9.30203      -0.35819
                        -----------------------------------------
Total Dipole Moment    :     -0.36902       1.39259       0.31285
                        -----------------------------------------
Magnitude (a.u.)       :      1.47423
Magnitude (Debye)      :      3.74720

                             ****ORCA TERMINATED NORMALLY****
TOTAL RUN TIME: 0 days 0 hours 22 minutes 59 seconds 253 msec
