                         Program Version 3.0.3 - RELEASE   -
|  1> ! RI-MP2 RIJK def2-TZVP def2-TZVP/C def2-TZVP/JK TIGHTSCF
|  2> % maxcore 2000
|  3> % mp2 density relaxed end
|  4> *xyz 0 1
|  5>  N       -0.2042795434     1.2570488285    -0.2186902358
|  6>  C        0.0344670654    -0.0737127317    -0.0121383129
|  7>  O        1.1067118861    -0.5598868741     0.2564771226
|  8>  O       -1.1240287567    -0.7736501078    -0.1219318895
|  9>  C       -1.0128427953    -2.1883272839     0.1416634210
| 10>  C       -2.4085079439    -2.7411306517     0.0845811399
| 11>  O       -3.2668548722    -2.2030888850     1.0523601017
| 12>  C       -3.0047572729    -3.1490601930    -1.2422740590
| 13>  C       -2.6179805378    -4.1916037606    -0.2105966844
| 14>  H        0.6079413233     1.8298365289    -0.3719912730
| 15>  H       -1.0613625328     1.5305899026    -0.6685611242
| 16>  H       -0.3578932507    -2.6510565992    -0.6022925756
| 17>  H       -0.5704286410    -2.3312312512     1.1316088380
| 18>  H       -3.2687912831    -1.2483046298     0.9162032360
| 19>  H       -4.0624053822    -2.9540849334    -1.3753365513
| 20>  H       -2.4024446982    -3.0581250939    -2.1397842462
| 21>  H       -1.7527811703    -4.8177802653    -0.3992768208
| 22>  H       -3.4194619742    -4.6737366993     0.3366092835
| 23> *
| 24>
| 25>                          ****END OF INPUT****

CARTESIAN COORDINATES (ANGSTROEM)
---------------------------------
  N     -0.204280    1.257049   -0.218690
  C      0.034467   -0.073713   -0.012138
  O      1.106712   -0.559887    0.256477
  O     -1.124029   -0.773650   -0.121932
  C     -1.012843   -2.188327    0.141663
  C     -2.408508   -2.741131    0.084581
  O     -3.266855   -2.203089    1.052360
  C     -3.004757   -3.149060   -1.242274
  C     -2.617981   -4.191604   -0.210597
  H      0.607941    1.829837   -0.371991
  H     -1.061363    1.530590   -0.668561
  H     -0.357893   -2.651057   -0.602293
  H     -0.570429   -2.331231    1.131609
  H     -3.268791   -1.248305    0.916203
  H     -4.062405   -2.954085   -1.375337
  H     -2.402445   -3.058125   -2.139784
  H     -1.752781   -4.817780   -0.399277
  H     -3.419462   -4.673737    0.336609

 Total Charge           Charge          ....    0
 Multiplicity           Mult            ....    1
 Number of Electrons    NEL             ....   70
 Basis Dimension        Dim             ....  333

ORBITAL ENERGIES
----------------

  NO   OCC          E(Eh)            E(eV)
   0   2.0000     -20.606852      -560.7409
   1   2.0000     -20.564053      -559.5763
   2   2.0000     -20.531489      -558.6902
   3   2.0000     -15.591335      -424.2618
   4   2.0000     -11.407753      -310.4208
   5   2.0000     -11.294236      -307.3318
   6   2.0000     -11.293544      -307.3130
   7   2.0000     -11.232063      -305.6400
   8   2.0000     -11.230592      -305.5999
   9   2.0000      -1.468428       -39.9579
  10   2.0000      -1.380152       -37.5558
  11   2.0000      -1.358518       -36.9672
  12   2.0000      -1.223196       -33.2849
  13   2.0000      -1.138955       -30.9925
  14   2.0000      -0.987385       -26.8681
  15   2.0000      -0.842782       -22.9333
  16   2.0000      -0.820360       -22.3231
  17   2.0000      -0.785733       -21.3809
  18   2.0000      -0.754246       -20.5241
  19   2.0000      -0.726783       -19.7768
  20   2.0000      -0.695944       -18.9376
  21   2.0000      -0.677218       -18.4280
  22   2.0000      -0.650573       -17.7030
  23   2.0000      -0.649565       -17.6756
  24   2.0000      -0.616676       -16.7806
  25   2.0000      -0.583244       -15.8709
  26   2.0000      -0.574391       -15.6300
  27   2.0000      -0.545439       -14.8422
  28   2.0000      -0.521197       -14.1825
  29   2.0000      -0.506687       -13.7877
  30   2.0000      -0.475089       -12.9278
  31   2.0000      -0.465667       -12.6714
  32   2.0000      -0.437160       -11.8957
  33   2.0000      -0.430001       -11.7009
  34   2.0000      -0.400127       -10.8880
  35   0.0000       0.122888         3.3439
  36   0.0000       0.148713         4.0467
  37   0.0000       0.166270         4.5244
  38   0.0000       0.179819         4.8931
  39   0.0000       0.182828         4.9750

MULLIKEN ATOMIC CHARGES
-----------------------
   0 N :   -0.512183
   1 C :    0.413332
   2 O :   -0.370524
   3 O :   -0.302150
   4 C :   -0.120274
   5 C :    0.286057
   6 O :   -0.471478
   7 C :   -0.288545
   8 C :   -0.303944
   9 H :    0.271101
  10 H :    0.266445
  11 H :    0.124356
  12 H :    0.141538
  13 H :    0.327666
  14 H :    0.131745
  15 H :    0.127668
  16 H :    0.138831
  17 H :    0.140358
Sum of atomic charges:   -0.0000000

LOEWDIN ATOMIC CHARGES
----------------------
   0 N :   -0.037325
   1 C :   -0.613610
   2 O :    0.080493
   3 O :    0.218129
   4 C :   -0.239720
   5 C :   -0.384765
   6 O :    0.026298
   7 C :   -0.211432
   8 C :   -0.200063
   9 H :    0.178517
  10 H :    0.173917
  11 H :    0.138926
  12 H :    0.140073
  13 H :    0.183198
  14 H :    0.136770
  15 H :    0.133053
  16 H :    0.135380
  17 H :    0.142162

  Mayer bond orders larger than 0.1
B(  0-N ,  1-C ) :   1.1566 B(  0-N ,  9-H ) :   0.8666 B(  0-N , 10-H ) :   0.8652
B(  1-C ,  2-O ) :   1.9353 B(  1-C ,  3-O ) :   1.0711 B(  3-O ,  4-C ) :   0.8322
B(  4-C ,  5-C ) :   0.9450 B(  4-C , 11-H ) :   0.9264 B(  4-C , 12-H ) :   0.9280
B(  5-C ,  6-O ) :   0.9556 B(  5-C ,  7-C ) :   0.8594 B(  5-C ,  8-C ) :   0.8713
B(  6-O , 13-H ) :   0.8322 B(  7-C ,  8-C ) :   0.9233 B(  7-C , 14-H ) :   0.9226
B(  7-C , 15-H ) :   0.9155 B(  8-C , 16-H ) :   0.9267 B(  8-C , 17-H ) :   0.9184

MP2 TOTAL ENERGY:     -475.505054559 Eh
FINAL SINGLE POINT ENERGY      -475.505054558697

DIPOLE MOMENT
-------------
                                X             Y             Z
Electronic contribution:      3.22984       4.63411       1.96067
Nuclear contribution   :     -3.66920      -3.95624      -2.82100
                        -----------------------------------------
Total Dipole Moment    :     -0.43936       0.67786      -0.86033
                        -----------------------------------------
Magnitude (a.u.)       :      1.18013
Magnitude (Debye)      :      2.99965

                             ****ORCA TERMINATED NORMALLY****
TOTAL RUN TIME: 0 days 0 hours 15 minutes 23 seconds 971 msec
