                         Program Version 3.0.3 - RELEASE   -
|  1> ! RI-MP2 RIJK def2-TZVP def2-TZVP/C def2-TZVP/JK TIGHTSCF
|  2> % maxcore 2000
|  3> % mp2 density relaxed end
|  4> *xyz 0 1
|  5>  C        0.0283593056     1.5655152389    -0.0027867453
|  6>  N        0.0499391190     0.1065375619    -0.0141651891
|  7>  C        0.7490198071    -0.5739981599    -1.1058575465
|  8>  C        2.2737880297    -0.5774305356    -0.8332128062
|  9>  C        2.4205923680    -0.0482670019     0.5526284079
| 10>  O        3.3440980321     0.3500358108     1.2083653551
| 11>  C        0.9998081587    -0.5719711888     0.9089692835
| 12>  C        1.2864221640    -1.6356814724    -0.2278755089
| 13>  C        1.3392713010    -3.1256019821    -0.2417993995
| 14>  H        1.0197876264     2.0301678502    -0.1300331688
| 15>  H       -0.6246808742     1.9179646240    -0.8072601814
| 16>  H       -0.3913658625     1.9084161609     0.9478759257
| 17>  H        0.3659714388    -0.6301044226    -2.1188954017
| 18>  H        3.0226175308    -0.7295000087    -1.5982614982
| 19>  H        0.6916970605    -0.7442114947     1.9385273387
| 20>  H        0.3757059106    -3.5535869509     0.0542593099
| 21>  H        1.5791036276    -3.4950501589    -1.2436818186
| 22>  H        2.1034303669    -3.5027344403     0.4458182335
| 23> *
| 24>
| 25>                          ****END OF INPUT****

CARTESIAN COORDINATES (ANGSTROEM)
---------------------------------
  C      0.028359    1.565515   -0.002787
  N      0.049939    0.106538   -0.014165
  C      0.749020   -0.573998   -1.105858
  C      2.273788   -0.577431   -0.833213
  C      2.420592   -0.048267    0.552628
  O      3.344098    0.350036    1.208365
  C      0.999808   -0.571971    0.908969
  C      1.286422   -1.635681   -0.227876
  C      1.339271   -3.125602   -0.241799
  H      1.019788    2.030168   -0.130033
  H     -0.624681    1.917965   -0.807260
  H     -0.391366    1.908416    0.947876
  H      0.365971   -0.630104   -2.118895
  H      3.022618   -0.729500   -1.598261
  H      0.691697   -0.744211    1.938527
  H      0.375706   -3.553587    0.054259
  H      1.579104   -3.495050   -1.243682
  H      2.103430   -3.502734    0.445818

 Total Charge           Charge          ....    0
 Multiplicity           Mult            ....    1
 Number of Electrons    NEL             ....   66
 Basis Dimension        Dim             ....  333

ORBITAL ENERGIES
----------------

  NO   OCC          E(Eh)            E(eV)
   0   2.0000     -20.538503      -558.8811
   1   2.0000     -15.571781      -423.7297
   2   2.0000     -11.332865      -308.3829
   3   2.0000     -11.288213      -307.1679
   4   2.0000     -11.282281      -307.0065
   5   2.0000     -11.275160      -306.8127
   6   2.0000     -11.252950      -306.2083
   7   2.0000     -11.249534      -306.1154
   8   2.0000     -11.244013      -305.9651
   9   2.0000      -1.386824       -37.7374
  10   2.0000      -1.313267       -35.7358
  11   2.0000      -1.131148       -30.7801
  12   2.0000      -1.001735       -27.2586
  13   2.0000      -0.964693       -26.2506
  14   2.0000      -0.945108       -25.7177
  15   2.0000      -0.824039       -22.4233
  16   2.0000      -0.750106       -20.4114
  17   2.0000      -0.739354       -20.1189
  18   2.0000      -0.682792       -18.5797
  19   2.0000      -0.649826       -17.6827
  20   2.0000      -0.645560       -17.5666
  21   2.0000      -0.607061       -16.5190
  22   2.0000      -0.601783       -16.3753
  23   2.0000      -0.583699       -15.8833
  24   2.0000      -0.582023       -15.8377
  25   2.0000      -0.571660       -15.5557
  26   2.0000      -0.537337       -14.6217
  27   2.0000      -0.500873       -13.6294
  28   2.0000      -0.474136       -12.9019
  29   2.0000      -0.466690       -12.6993
  30   2.0000      -0.420155       -11.4330
  31   2.0000      -0.394971       -10.7477
  32   2.0000      -0.354629        -9.6499
  33   0.0000       0.129292         3.5182
  34   0.0000       0.142928         3.8893
  35   0.0000       0.164858         4.4860
  36   0.0000       0.173501         4.7212
  37   0.0000       0.180809         4.9201

MULLIKEN ATOMIC CHARGES
-----------------------
   0 C :   -0.320777
   1 N :   -0.131944
   2 C :   -0.091683
   3 C :   -0.147438
   4 C :    0.117094
   5 O :   -0.272875
   6 C :   -0.050880
   7 C :    0.028899
   8 C :   -0.418847
   9 H :    0.119669
  10 H :    0.137679
  11 H :    0.142767
  12 H :    0.145019
  13 H :    0.149900
  14 H :    0.146698
  15 H :    0.153441
  16 H :    0.141296
  17 H :    0.151984
Sum of atomic charges:   -0.0000000

LOEWDIN ATOMIC CHARGES
----------------------
   0 C :   -0.321540
   1 N :    0.117947
   2 C :   -0.174503
   3 C :   -0.101827
   4 C :   -0.317603
   5 O :    0.140653
   6 C :   -0.128048
   7 C :   -0.133832
   8 C :   -0.268358
   9 H :    0.111897
  10 H :    0.119466
  11 H :    0.122004
  12 H :    0.142360
  13 H :    0.144634
  14 H :    0.137793
  15 H :    0.136632
  16 H :    0.136137
  17 H :    0.136186

  Mayer bond orders larger than 0.1
B(  0-C ,  1-N ) :   0.8858 B(  0-C ,  9-H ) :   0.9151 B(  0-C , 10-H ) :   0.9370
B(  0-C , 11-H ) :   0.9377 B(  1-N ,  2-C ) :   1.0115 B(  1-N ,  6-C ) :   1.0067
B(  2-C ,  3-C ) :   0.8272 B(  2-C ,  7-C ) :   0.8498 B(  2-C , 12-H ) :   0.9038
B(  3-C ,  4-C ) :   0.9484 B(  3-C ,  6-C ) :  -0.1396 B(  3-C ,  7-C ) :   0.7553
B(  3-C , 13-H ) :   0.9151 B(  4-C ,  5-O ) :   2.0499 B(  4-C ,  6-C ) :   0.8900
B(  6-C ,  7-C ) :   0.8327 B(  6-C , 14-H ) :   0.8938 B(  7-C ,  8-C ) :   0.8074
B(  8-C , 15-H ) :   0.9486 B(  8-C , 16-H ) :   0.9402 B(  8-C , 17-H ) :   0.9400

MP2 TOTAL ENERGY:     -401.203367882 Eh
FINAL SINGLE POINT ENERGY      -401.203367881886

DIPOLE MOMENT
-------------
                                X             Y             Z
Electronic contribution:      3.45320       1.65176       1.90722
Nuclear contribution   :     -4.10992      -2.28859      -2.69546
                        -----------------------------------------
Total Dipole Moment    :     -0.65672      -0.63683      -0.78824
                        -----------------------------------------
Magnitude (a.u.)       :      1.20754
Magnitude (Debye)      :      3.06932

                             ****ORCA TERMINATED NORMALLY****
TOTAL RUN TIME: 0 days 0 hours 19 minutes 2 seconds 182 msec
