                         Program Version 3.0.3 - RELEASE   -
|  1> ! RI-MP2 RIJK def2-TZVP def2-TZVP/C def2-TZVP/JK TIGHTSCF
|  2> % maxcore 2000
|  3> % mp2 density relaxed end
|  4> *xyz 0 1
|  5>  N        0.0182438961    -1.0993454374    -0.1063878245
|  6>  C        0.0111854307     0.0550869962    -0.0585995870
|  7>  C        0.0438480586     1.4963311130     0.0580086431
|  8>  C       -0.3985432112     2.2667421592     1.3292980999
|  9>  C        0.3968883454     3.3979651929     0.6649735087
| 10>  C       -0.0610046227     3.4441111741    -0.8553449492
| 11>  C        1.3871188966     3.1233070926    -1.2841858096
| 12>  C        1.3939707370     2.3543872592     0.0417484852
| 13>  O       -0.7022713333     2.1590240569    -0.9733971096
| 14>  H       -1.4757463098     2.3592100380     1.4797841945
| 15>  H        0.1014351911     1.9077085043     2.2316183232
| 16>  H        0.7077367358     4.3153384774     1.1581918663
| 17>  H       -0.6799180610     4.2232818553    -1.2944194441
| 18>  H        1.5191684601     2.5926808100    -2.2292869142
| 19>  H        2.0467803208     3.9931718046    -1.2250884339
| 20>  H        2.2668362559     1.9489105738     0.5475535612
| 21> *
| 22>
| 23>                          ****END OF INPUT****

CARTESIAN COORDINATES (ANGSTROEM)
---------------------------------
  N      0.018244   -1.099345   -0.106388
  C      0.011185    0.055087   -0.058600
  C      0.043848    1.496331    0.058009
  C     -0.398543    2.266742    1.329298
  C      0.396888    3.397965    0.664974
  C     -0.061005    3.444111   -0.855345
  C      1.387119    3.123307   -1.284186
  C      1.393971    2.354387    0.041748
  O     -0.702271    2.159024   -0.973397
  H     -1.475746    2.359210    1.479784
  H      0.101435    1.907709    2.231618
  H      0.707737    4.315338    1.158192
  H     -0.679918    4.223282   -1.294419
  H      1.519168    2.592681   -2.229287
  H      2.046780    3.993172   -1.225088
  H      2.266836    1.948911    0.547554

 Total Charge           Charge          ....    0
 Multiplicity           Mult            ....    1
 Number of Electrons    NEL             ....   64
 Basis Dimension        Dim             ....  321

ORBITAL ENERGIES
----------------

  NO   OCC          E(Eh)            E(eV)
   0   2.0000     -20.583156      -560.0961
   1   2.0000     -15.577800      -423.8935
   2   2.0000     -11.343325      -308.6676
   3   2.0000     -11.309458      -307.7460
   4   2.0000     -11.275698      -306.8274
   5   2.0000     -11.270335      -306.6814
   6   2.0000     -11.264422      -306.5205
   7   2.0000     -11.255546      -306.2790
   8   2.0000     -11.246491      -306.0326
   9   2.0000      -1.427921       -38.8557
  10   2.0000      -1.221836       -33.2478
  11   2.0000      -1.170597       -31.8536
  12   2.0000      -1.066204       -29.0129
  13   2.0000      -0.970804       -26.4169
  14   2.0000      -0.869625       -23.6637
  15   2.0000      -0.841311       -22.8932
  16   2.0000      -0.786526       -21.4025
  17   2.0000      -0.758476       -20.6392
  18   2.0000      -0.677889       -18.4463
  19   2.0000      -0.660705       -17.9787
  20   2.0000      -0.622375       -16.9357
  21   2.0000      -0.607756       -16.5379
  22   2.0000      -0.565811       -15.3965
  23   2.0000      -0.553272       -15.0553
  24   2.0000      -0.540874       -14.7179
  25   2.0000      -0.524367       -14.2687
  26   2.0000      -0.512072       -13.9342
  27   2.0000      -0.484396       -13.1811
  28   2.0000      -0.468421       -12.7464
  29   2.0000      -0.451635       -12.2896
  30   2.0000      -0.437750       -11.9118
  31   2.0000      -0.419058       -11.4032
  32   0.0000       0.131476         3.5777
  33   0.0000       0.139521         3.7966
  34   0.0000       0.152764         4.1569
  35   0.0000       0.158679         4.3179
  36   0.0000       0.172303         4.6886

MULLIKEN ATOMIC CHARGES
-----------------------
   0 N :   -0.028786
   1 C :   -0.267807
   2 C :    0.291258
   3 C :   -0.226829
   4 C :   -0.134839
   5 C :    0.038803
   6 C :   -0.251843
   7 C :   -0.098214
   8 O :   -0.298637
   9 H :    0.137314
  10 H :    0.133536
  11 H :    0.146465
  12 H :    0.142999
  13 H :    0.135968
  14 H :    0.127641
  15 H :    0.152972
Sum of atomic charges:   -0.0000000

LOEWDIN ATOMIC CHARGES
----------------------
   0 N :    0.083898
   1 C :   -0.137846
   2 C :   -0.280625
   3 C :   -0.164791
   4 C :   -0.155092
   5 C :   -0.222449
   6 C :   -0.204538
   7 C :   -0.123267
   8 O :    0.224809
   9 H :    0.136076
  10 H :    0.149808
  11 H :    0.138780
  12 H :    0.132476
  13 H :    0.133621
  14 H :    0.147021
  15 H :    0.142118

  Mayer bond orders larger than 0.1
B(  0-N ,  1-C ) :   2.8858 B(  1-C ,  2-C ) :   0.8562 B(  2-C ,  3-C ) :   0.9148
B(  2-C ,  7-C ) :   0.8486 B(  2-C ,  8-O ) :   0.9124 B(  3-C ,  4-C ) :   0.9442
B(  3-C ,  9-H ) :   0.9163 B(  3-C , 10-H ) :   0.9167 B(  4-C ,  5-C ) :   0.8832
B(  4-C ,  7-C ) :   0.8702 B(  4-C , 11-H ) :   0.9089 B(  5-C ,  6-C ) :   0.9334
B(  5-C ,  8-O ) :   0.8977 B(  5-C , 12-H ) :   0.9109 B(  6-C ,  7-C ) :   0.9376
B(  6-C , 13-H ) :   0.9143 B(  6-C , 14-H ) :   0.9222 B(  7-C , 15-H ) :   0.9035

MP2 TOTAL ENERGY:     -400.027111997 Eh
FINAL SINGLE POINT ENERGY      -400.027111997291

DIPOLE MOMENT
-------------
                                X             Y             Z
Electronic contribution:     -2.16604      -5.47141      -1.08977
Nuclear contribution   :      2.73832       7.29544       1.57133
                        -----------------------------------------
Total Dipole Moment    :      0.57228       1.82402       0.48156
                        -----------------------------------------
Magnitude (a.u.)       :      1.97141
Magnitude (Debye)      :      5.01093

                             ****ORCA TERMINATED NORMALLY****
TOTAL RUN TIME: 0 days 0 hours 18 minutes 6 seconds 106 msec
