                         Program Version 3.0.3 - RELEASE   -
|  1> ! RI-MP2 RIJK def2-TZVP def2-TZVP/C def2-TZVP/JK TIGHTSCF
|  2> % maxcore 2000
|  3> % mp2 density relaxed end
|  4> *xyz 0 1
|  5>  C       -0.0484185085     1.5385589041     0.1034382090
|  6>  C       -0.0145580812     0.0199497451    -0.0207211179
|  7>  C       -1.3865977028    -0.5724491751    -0.3333164680
|  8>  C        1.1231947175    -0.5821824634    -0.9401395130
|  9>  C        1.7132798660    -1.2781686709     0.2873396582
| 10>  O        2.0318034332    -0.2685653499     1.2467560816
| 11>  C        0.6719621797    -0.7104672583     1.1724547211
| 12>  C        0.0546215259    -1.2251123528     2.3552539613
| 13>  N       -0.4976507189    -1.6273985228     3.2886702791
| 14>  H        0.9317566424     1.9268743907     0.3903462078
| 15>  H       -0.3331007026     1.9935131806    -0.8514380721
| 16>  H       -0.7797105208     1.8550531878     0.8550887461
| 17>  H       -1.7547945034    -0.1904978327    -1.2909932776
| 18>  H       -1.3515733613    -1.6651261435    -0.3962424561
| 19>  H       -2.1141956591    -0.3051851483     0.4400466455
| 20>  H        0.7302970800    -1.2762166927    -1.6862011916
| 21>  H        1.7950429853     0.1335766131    -1.4187209940
| 22>  H        2.2440204085    -2.2194754609     0.3674502506
| 23> *
| 24>
| 25>                          ****END OF INPUT****

CARTESIAN COORDINATES (ANGSTROEM)
---------------------------------
  C     -0.048419    1.538559    0.103438
  C     -0.014558    0.019950   -0.020721
  C     -1.386598   -0.572449   -0.333316
  C      1.123195   -0.582182   -0.940140
  C      1.713280   -1.278169    0.287340
  O      2.031803   -0.268565    1.246756
  C      0.671962   -0.710467    1.172455
  C      0.054622   -1.225112    2.355254
  N     -0.497651   -1.627399    3.288670
  H      0.931757    1.926874    0.390346
  H     -0.333101    1.993513   -0.851438
  H     -0.779711    1.855053    0.855089
  H     -1.754795   -0.190498   -1.290993
  H     -1.351573   -1.665126   -0.396242
  H     -2.114196   -0.305185    0.440047
  H      0.730297   -1.276217   -1.686201
  H      1.795043    0.133577   -1.418721
  H      2.244020   -2.219475    0.367450

 Total Charge           Charge          ....    0
 Multiplicity           Mult            ....    1
 Number of Electrons    NEL             ....   66
 Basis Dimension        Dim             ....  333

ORBITAL ENERGIES
----------------

  NO   OCC          E(Eh)            E(eV)
   0   2.0000     -20.603105      -560.6390
   1   2.0000     -15.584542      -424.0769
   2   2.0000     -11.336707      -308.4875
   3   2.0000     -11.321789      -308.0815
   4   2.0000     -11.284574      -307.0689
   5   2.0000     -11.275987      -306.8352
   6   2.0000     -11.254765      -306.2577
   7   2.0000     -11.236653      -305.7649
   8   2.0000     -11.228151      -305.5335
   9   2.0000      -1.455781       -39.6138
  10   2.0000      -1.227380       -33.3987
  11   2.0000      -1.139108       -30.9967
  12   2.0000      -1.011355       -27.5204
  13   2.0000      -0.970784       -26.4164
  14   2.0000      -0.952182       -25.9102
  15   2.0000      -0.858068       -23.3492
  16   2.0000      -0.813241       -22.1294
  17   2.0000      -0.720899       -19.6167
  18   2.0000      -0.674671       -18.3587
  19   2.0000      -0.643095       -17.4995
  20   2.0000      -0.620673       -16.8894
  21   2.0000      -0.606751       -16.5105
  22   2.0000      -0.589473       -16.0404
  23   2.0000      -0.570619       -15.5273
  24   2.0000      -0.555284       -15.1100
  25   2.0000      -0.540938       -14.7197
  26   2.0000      -0.529067       -14.3966
  27   2.0000      -0.508467       -13.8361
  28   2.0000      -0.502301       -13.6683
  29   2.0000      -0.496917       -13.5218
  30   2.0000      -0.464384       -12.6365
  31   2.0000      -0.452328       -12.3085
  32   2.0000      -0.409920       -11.1545
  33   0.0000       0.122596         3.3360
  34   0.0000       0.134622         3.6633
  35   0.0000       0.151738         4.1290
  36   0.0000       0.162288         4.4161
  37   0.0000       0.170524         4.6402

MULLIKEN ATOMIC CHARGES
-----------------------
   0 C :   -0.435217
   1 C :    0.144577
   2 C :   -0.452827
   3 C :   -0.202120
   4 C :   -0.063438
   5 O :   -0.304340
   6 C :    0.288401
   7 C :   -0.227235
   8 N :   -0.032721
   9 H :    0.156308
  10 H :    0.136433
  11 H :    0.139351
  12 H :    0.143627
  13 H :    0.142552
  14 H :    0.149797
  15 H :    0.136035
  16 H :    0.129786
  17 H :    0.151031
Sum of atomic charges:   -0.0000000

LOEWDIN ATOMIC CHARGES
----------------------
   0 C :   -0.264663
   1 C :   -0.247674
   2 C :   -0.259441
   3 C :   -0.167735
   4 C :   -0.193790
   5 O :    0.225622
   6 C :   -0.247278
   7 C :   -0.144000
   8 N :    0.086759
   9 H :    0.133635
  10 H :    0.129837
  11 H :    0.131304
  12 H :    0.131670
  13 H :    0.132123
  14 H :    0.133654
  15 H :    0.143141
  16 H :    0.139088
  17 H :    0.137749

  Mayer bond orders larger than 0.1
B(  0-C ,  1-C ) :   0.8965 B(  0-C ,  9-H ) :   0.9331 B(  0-C , 10-H ) :   0.9340
B(  0-C , 11-H ) :   0.9318 B(  1-C ,  2-C ) :   0.9090 B(  1-C ,  3-C ) :   0.9494
B(  1-C ,  6-C ) :   0.8665 B(  2-C , 12-H ) :   0.9332 B(  2-C , 13-H ) :   0.9270
B(  2-C , 14-H ) :   0.9321 B(  3-C ,  4-C ) :   0.9255 B(  3-C , 15-H ) :   0.9054
B(  3-C , 16-H ) :   0.9012 B(  4-C ,  5-O ) :   0.9113 B(  4-C ,  6-C ) :   0.8545
B(  4-C , 17-H ) :   0.9252 B(  5-O ,  6-C ) :   0.8511 B(  6-C ,  7-C ) :   0.9061
B(  7-C ,  8-N ) :   2.8603

MP2 TOTAL ENERGY:     -401.237633955 Eh
FINAL SINGLE POINT ENERGY      -401.237633955496

DIPOLE MOMENT
-------------
                                X             Y             Z
Electronic contribution:      4.11226      -4.23975       8.09986
Nuclear contribution   :     -4.02165       4.38781      -9.78630
                        -----------------------------------------
Total Dipole Moment    :      0.09061       0.14807      -1.68644
                        -----------------------------------------
Magnitude (a.u.)       :      1.69535
Magnitude (Debye)      :      4.30924

                             ****ORCA TERMINATED NORMALLY****
TOTAL RUN TIME: 0 days 0 hours 21 minutes 10 seconds 606 msec
