                         Program Version 3.0.3 - RELEASE   -
|  1> ! RI-MP2 RIJK def2-TZVP def2-TZVP/C def2-TZVP/JK TIGHTSCF
|  2> % maxcore 2000
|  3> % mp2 density relaxed end
|  4> *xyz 0 1
|  5>  C        0.3585314373     0.0072033536     1.5301385973
|  6>  C       -0.0248095185     0.0778383070     0.0433971188
|  7>  C        1.1445425646    -0.3992439819    -0.8302809003
|  8>  C       -1.3274113332    -0.7153745184    -0.1868069691
|  9>  C       -2.0638640330    -0.5714541893    -1.5348656371
| 10>  C       -3.4014950007    -1.3262157229    -1.4574488929
| 11>  C       -2.3086443051     0.8947367443    -1.9219809806
| 12>  O       -1.2345384924    -1.2007114434    -2.5237355300
| 13>  H        1.2720430785     0.5775538155     1.7285609806
| 14>  H       -0.4341998725     0.4075597026     2.1715827485
| 15>  H        0.5430409055    -1.0293300351     1.8378029636
| 16>  H       -0.2180113480     1.1333066890    -0.1908141951
| 17>  H        1.3806201561    -1.4487759537    -0.6164922806
| 18>  H        0.9095221159    -0.3295368266    -1.8925896275
| 19>  H        2.0441089635     0.1916940877    -0.6249051352
| 20>  H       -1.1214457808    -1.7842615450    -0.0421698131
| 21>  H       -2.0415655881    -0.4313959375     0.5965459454
| 22>  H       -4.0732350573    -0.8813243031    -0.7161980332
| 23>  H       -3.9136817142    -1.3002553110    -2.4268911648
| 24>  H       -3.2327918820    -2.3734564830    -1.1907888582
| 25>  H       -1.3658500799     1.4183866043    -2.0954067598
| 26>  H       -2.8989963016     0.9505760793    -2.8445194506
| 27>  H       -2.8644036866     1.4279249684    -1.1435152812
| 28>  H       -1.6841291476    -1.1252281807    -3.3722645048
| 29> *
| 30>
| 31>                          ****END OF INPUT****

CARTESIAN COORDINATES (ANGSTROEM)
---------------------------------
  C      0.358531    0.007203    1.530139
  C     -0.024810    0.077838    0.043397
  C      1.144543   -0.399244   -0.830281
  C     -1.327411   -0.715375   -0.186807
  C     -2.063864   -0.571454   -1.534866
  C     -3.401495   -1.326216   -1.457449
  C     -2.308644    0.894737   -1.921981
  O     -1.234538   -1.200711   -2.523736
  H      1.272043    0.577554    1.728561
  H     -0.434200    0.407560    2.171583
  H      0.543041   -1.029330    1.837803
  H     -0.218011    1.133307   -0.190814
  H      1.380620   -1.448776   -0.616492
  H      0.909522   -0.329537   -1.892590
  H      2.044109    0.191694   -0.624905
  H     -1.121446   -1.784262   -0.042170
  H     -2.041566   -0.431396    0.596546
  H     -4.073235   -0.881324   -0.716198
  H     -3.913682   -1.300255   -2.426891
  H     -3.232792   -2.373456   -1.190789
  H     -1.365850    1.418387   -2.095407
  H     -2.898996    0.950576   -2.844519
  H     -2.864404    1.427925   -1.143515
  H     -1.684129   -1.125228   -3.372265

 Total Charge           Charge          ....    0
 Multiplicity           Mult            ....    1
 Number of Electrons    NEL             ....   66
 Basis Dimension        Dim             ....  344

ORBITAL ENERGIES
----------------

  NO   OCC          E(Eh)            E(eV)
   0   2.0000     -20.547111      -559.1153
   1   2.0000     -11.284791      -307.0748
   2   2.0000     -11.219190      -305.2897
   3   2.0000     -11.215814      -305.1978
   4   2.0000     -11.214471      -305.1613
   5   2.0000     -11.212656      -305.1119
   6   2.0000     -11.205491      -304.9169
   7   2.0000     -11.194350      -304.6138
   8   2.0000      -1.355677       -36.8898
   9   2.0000      -1.087377       -29.5890
  10   2.0000      -1.038187       -28.2505
  11   2.0000      -0.939875       -25.5753
  12   2.0000      -0.922472       -25.1018
  13   2.0000      -0.915950       -24.9243
  14   2.0000      -0.792590       -21.5675
  15   2.0000      -0.745780       -20.2937
  16   2.0000      -0.670316       -18.2402
  17   2.0000      -0.642004       -17.4698
  18   2.0000      -0.614165       -16.7123
  19   2.0000      -0.595102       -16.1935
  20   2.0000      -0.580474       -15.7955
  21   2.0000      -0.565019       -15.3749
  22   2.0000      -0.556171       -15.1342
  23   2.0000      -0.542833       -14.7713
  24   2.0000      -0.523340       -14.2408
  25   2.0000      -0.512784       -13.9536
  26   2.0000      -0.509049       -13.8519
  27   2.0000      -0.499432       -13.5902
  28   2.0000      -0.488244       -13.2858
  29   2.0000      -0.455572       -12.3968
  30   2.0000      -0.452960       -12.3257
  31   2.0000      -0.438963       -11.9448
  32   2.0000      -0.421217       -11.4619
  33   0.0000       0.123695         3.3659
  34   0.0000       0.153592         4.1795
  35   0.0000       0.171867         4.6767
  36   0.0000       0.175622         4.7789
  37   0.0000       0.185961         5.0603

MULLIKEN ATOMIC CHARGES
-----------------------
   0 C :   -0.390262
   1 C :   -0.035743
   2 C :   -0.395469
   3 C :   -0.237487
   4 C :    0.236830
   5 C :   -0.409388
   6 C :   -0.460127
   7 O :   -0.472297
   8 H :    0.130144
   9 H :    0.123540
  10 H :    0.121083
  11 H :    0.084795
  12 H :    0.112573
  13 H :    0.145599
  14 H :    0.119166
  15 H :    0.113794
  16 H :    0.114296
  17 H :    0.123487
  18 H :    0.119884
  19 H :    0.141388
  20 H :    0.153074
  21 H :    0.125370
  22 H :    0.128539
  23 H :    0.307209
Sum of atomic charges:   -0.0000000

LOEWDIN ATOMIC CHARGES
----------------------
   0 C :   -0.297731
   1 C :   -0.305258
   2 C :   -0.297486
   3 C :   -0.209706
   4 C :   -0.421190
   5 C :   -0.282776
   6 C :   -0.283151
   7 O :    0.001621
   8 H :    0.121701
   9 H :    0.119272
  10 H :    0.122762
  11 H :    0.147921
  12 H :    0.123142
  13 H :    0.123881
  14 H :    0.118561
  15 H :    0.148519
  16 H :    0.147826
  17 H :    0.125602
  18 H :    0.120216
  19 H :    0.127661
  20 H :    0.126458
  21 H :    0.122296
  22 H :    0.128674
  23 H :    0.171186

  Mayer bond orders larger than 0.1
B(  0-C ,  1-C ) :   0.9126 B(  0-C ,  8-H ) :   0.9429 B(  0-C ,  9-H ) :   0.9404
B(  0-C , 10-H ) :   0.9347 B(  1-C ,  2-C ) :   0.9285 B(  1-C ,  3-C ) :   0.9294
B(  1-C , 11-H ) :   0.9320 B(  2-C , 12-H ) :   0.9299 B(  2-C , 13-H ) :   0.9329
B(  2-C , 14-H ) :   0.9370 B(  3-C ,  4-C ) :   0.8936 B(  3-C , 15-H ) :   0.9183
B(  3-C , 16-H ) :   0.9300 B(  4-C ,  5-C ) :   0.9167 B(  4-C ,  6-C ) :   0.9174
B(  4-C ,  7-O ) :   0.9021 B(  5-C , 17-H ) :   0.9315 B(  5-C , 18-H ) :   0.9296
B(  5-C , 19-H ) :   0.9422 B(  6-C , 20-H ) :   0.9438 B(  6-C , 21-H ) :   0.9259
B(  6-C , 22-H ) :   0.9305 B(  7-O , 23-H ) :   0.8450

MP2 TOTAL ENERGY:     -350.822489464 Eh
FINAL SINGLE POINT ENERGY      -350.822489464141

DIPOLE MOMENT
-------------
                                X             Y             Z
Electronic contribution:     -0.65852      -1.62331      -3.35465
Nuclear contribution   :      0.07703       1.90954       3.20916
                        -----------------------------------------
Total Dipole Moment    :     -0.58149       0.28623      -0.14549
                        -----------------------------------------
Magnitude (a.u.)       :      0.66425
Magnitude (Debye)      :      1.68838

                             ****ORCA TERMINATED NORMALLY****
TOTAL RUN TIME: 0 days 0 hours 16 minutes 3 seconds 337 msec
