                         Program Version 3.0.3 - RELEASE   -
|  1> ! RI-MP2 RIJK def2-TZVP def2-TZVP/C def2-TZVP/JK TIGHTSCF
|  2> % maxcore 2000
|  3> % mp2 density relaxed end
|  4> *xyz 0 1
|  5>  C        0.0872880558     1.6403306742    -0.2589189823
|  6>  C        0.0449099375     0.1396071273    -0.0724534324
|  7>  C        1.3321744027    -0.6974007204    -0.0368497743
|  8>  O        2.5823576085    -0.0740931439    -0.0500211327
|  9>  C        0.5291008788    -0.4903764855     1.1933804518
| 10>  C        0.9491314154     0.1086517410     2.5278210598
| 11>  C        0.1844192676    -1.0727552731     3.0949978978
| 12>  N       -0.0716116130    -1.4984029968     4.2445175136
| 13>  O       -0.1740036073    -1.5715193991     1.8507962353
| 14>  H        1.0092812133     2.0588376484     0.1530128934
| 15>  H        0.0458256683     1.9042731551    -1.3212438450
| 16>  H       -0.7600564100     2.1259249377     0.2358347980
| 17>  H       -0.7946181160    -0.3717569794    -0.5377732717
| 18>  H        1.2878367496    -1.6840396678    -0.4980434566
| 19>  H        2.7772641565     0.1942653821    -0.9545009135
| 20>  H        2.0215741517     0.1063561164     2.7266309912
| 21>  H        0.5282579422     1.0848757980     2.7749514896
| 22>  H       -0.6326096114    -2.3512466540     4.2077314279
| 23> *
| 24>
| 25>                          ****END OF INPUT****

CARTESIAN COORDINATES (ANGSTROEM)
---------------------------------
  C      0.087288    1.640331   -0.258919
  C      0.044910    0.139607   -0.072453
  C      1.332174   -0.697401   -0.036850
  O      2.582358   -0.074093   -0.050021
  C      0.529101   -0.490376    1.193380
  C      0.949131    0.108652    2.527821
  C      0.184419   -1.072755    3.094998
  N     -0.071612   -1.498403    4.244518
  O     -0.174004   -1.571519    1.850796
  H      1.009281    2.058838    0.153013
  H      0.045826    1.904273   -1.321244
  H     -0.760056    2.125925    0.235835
  H     -0.794618   -0.371757   -0.537773
  H      1.287837   -1.684040   -0.498043
  H      2.777264    0.194265   -0.954501
  H      2.021574    0.106356    2.726631
  H      0.528258    1.084876    2.774951
  H     -0.632610   -2.351247    4.207731

 Total Charge           Charge          ....    0
 Multiplicity           Mult            ....    1
 Number of Electrons    NEL             ....   68
 Basis Dimension        Dim             ....  333

ORBITAL ENERGIES
----------------

  NO   OCC          E(Eh)            E(eV)
   0   2.0000     -20.592889      -560.3610
   1   2.0000     -20.581248      -560.0442
   2   2.0000     -15.535868      -422.7525
   3   2.0000     -11.340518      -308.5912
   4   2.0000     -11.306238      -307.6584
   5   2.0000     -11.296036      -307.3808
   6   2.0000     -11.251473      -306.1681
   7   2.0000     -11.248740      -306.0938
   8   2.0000     -11.234488      -305.7060
   9   2.0000      -1.437508       -39.1166
  10   2.0000      -1.389007       -37.7968
  11   2.0000      -1.198954       -32.6252
  12   2.0000      -1.146704       -31.2034
  13   2.0000      -1.023656       -27.8551
  14   2.0000      -0.978319       -26.6214
  15   2.0000      -0.821282       -22.3482
  16   2.0000      -0.795089       -21.6355
  17   2.0000      -0.741525       -20.1779
  18   2.0000      -0.725520       -19.7424
  19   2.0000      -0.700273       -19.0554
  20   2.0000      -0.685696       -18.6587
  21   2.0000      -0.660944       -17.9852
  22   2.0000      -0.623571       -16.9682
  23   2.0000      -0.591535       -16.0965
  24   2.0000      -0.565847       -15.3975
  25   2.0000      -0.560926       -15.2636
  26   2.0000      -0.552330       -15.0297
  27   2.0000      -0.531319       -14.4579
  28   2.0000      -0.512972       -13.9587
  29   2.0000      -0.501660       -13.6509
  30   2.0000      -0.449007       -12.2181
  31   2.0000      -0.436628       -11.8813
  32   2.0000      -0.408676       -11.1206
  33   2.0000      -0.382571       -10.4103
  34   0.0000       0.116386         3.1670
  35   0.0000       0.152217         4.1420
  36   0.0000       0.161543         4.3958
  37   0.0000       0.168951         4.5974
  38   0.0000       0.178409         4.8548

MULLIKEN ATOMIC CHARGES
-----------------------
   0 C :   -0.457009
   1 C :   -0.118239
   2 C :   -0.024141
   3 O :   -0.464070
   4 C :    0.226106
   5 C :   -0.211151
   6 C :    0.124722
   7 N :   -0.357777
   8 O :   -0.265729
   9 H :    0.156552
  10 H :    0.138228
  11 H :    0.145588
  12 H :    0.131782
  13 H :    0.122599
  14 H :    0.328402
  15 H :    0.154936
  16 H :    0.139326
  17 H :    0.229874
Sum of atomic charges:    0.0000000

LOEWDIN ATOMIC CHARGES
----------------------
   0 C :   -0.293406
   1 C :   -0.200586
   2 C :   -0.282326
   3 O :    0.006424
   4 C :   -0.249720
   5 C :   -0.149021
   6 C :   -0.379095
   7 N :   -0.054140
   8 O :    0.252626
   9 H :    0.131426
  10 H :    0.126941
  11 H :    0.129898
  12 H :    0.157986
  13 H :    0.139000
  14 H :    0.184443
  15 H :    0.155205
  16 H :    0.150424
  17 H :    0.173921

  Mayer bond orders larger than 0.1
B(  0-C ,  1-C ) :   0.8725 B(  0-C ,  9-H ) :   0.9370 B(  0-C , 10-H ) :   0.9353
B(  0-C , 11-H ) :   0.9387 B(  1-C ,  2-C ) :   0.8957 B(  1-C ,  4-C ) :   0.8609
B(  1-C , 12-H ) :   0.9067 B(  2-C ,  3-O ) :   1.0527 B(  2-C ,  4-C ) :   0.8112
B(  2-C , 13-H ) :   0.9475 B(  3-O ,  4-C ) :  -0.1144 B(  3-O , 14-H ) :   0.8393
B(  4-C ,  5-C ) :   0.9428 B(  4-C ,  8-O ) :   0.9275 B(  5-C ,  6-C ) :   0.9493
B(  5-C , 15-H ) :   0.8949 B(  5-C , 16-H ) :   0.9025 B(  6-C ,  7-N ) :   2.1003
B(  6-C ,  8-O ) :   1.0411 B(  7-N , 17-H ) :   0.8461

MP2 TOTAL ENERGY:     -438.336375718 Eh
FINAL SINGLE POINT ENERGY      -438.336375718411

DIPOLE MOMENT
-------------
                                X             Y             Z
Electronic contribution:      0.19710      -5.58086       3.63246
Nuclear contribution   :     -0.19679       6.09232      -5.08973
                        -----------------------------------------
Total Dipole Moment    :      0.00031       0.51146      -1.45727
                        -----------------------------------------
Magnitude (a.u.)       :      1.54442
Magnitude (Debye)      :      3.92560

                             ****ORCA TERMINATED NORMALLY****
TOTAL RUN TIME: 0 days 0 hours 16 minutes 19 seconds 460 msec
