                         Program Version 3.0.3 - RELEASE   -
|  1> ! RI-MP2 RIJK def2-TZVP def2-TZVP/C def2-TZVP/JK TIGHTSCF
|  2> % maxcore 2000
|  3> % mp2 density relaxed end
|  4> *xyz 0 1
|  5>  C        0.0236081435     1.5069837098    -0.1540645020
|  6>  C        1.3375089956     0.8183950340     0.0296676053
|  7>  O        1.8781902917     0.7235582555     1.3450333465
|  8>  C        0.9116174219    -0.0010800789     2.0631492872
|  9>  C        0.7930714324    -1.1477182200     3.0989502267
| 10>  N       -0.6470580125    -1.0007112042     2.5469572442
| 11>  C       -0.4213634496     0.5006924253     2.6951102436
| 12>  C        0.1012076681    -0.8557244610     1.1390315647
| 13>  C        0.0264199070    -0.0173230169    -0.1129020156
| 14>  H       -0.3702779289     2.1138932647     0.6488098820
| 15>  H       -0.1671638092     1.9181553479    -1.1406123961
| 16>  H        2.1130288964     0.8492451247    -0.7256997130
| 17>  H        1.2664594378    -2.1028547797     2.8629011889
| 18>  H        0.8552198600    -0.9037840172     4.1611819713
| 19>  H       -0.3938606546     0.8330824982     3.7357255686
| 20>  H       -1.1224695953     1.0908077284     2.1109406814
| 21>  H        0.5032487092    -1.8373008583     0.8732383650
| 22>  H       -0.1831020834    -0.5201882822    -1.0497827785
| 23> *
| 24>
| 25>                          ****END OF INPUT****

CARTESIAN COORDINATES (ANGSTROEM)
---------------------------------
  C      0.023608    1.506984   -0.154065
  C      1.337509    0.818395    0.029668
  O      1.878190    0.723558    1.345033
  C      0.911617   -0.001080    2.063149
  C      0.793071   -1.147718    3.098950
  N     -0.647058   -1.000711    2.546957
  C     -0.421363    0.500692    2.695110
  C      0.101208   -0.855724    1.139032
  C      0.026420   -0.017323   -0.112902
  H     -0.370278    2.113893    0.648810
  H     -0.167164    1.918155   -1.140612
  H      2.113029    0.849245   -0.725700
  H      1.266459   -2.102855    2.862901
  H      0.855220   -0.903784    4.161182
  H     -0.393861    0.833082    3.735726
  H     -1.122470    1.090808    2.110941
  H      0.503249   -1.837301    0.873238
  H     -0.183102   -0.520188   -1.049783

 Total Charge           Charge          ....    0
 Multiplicity           Mult            ....    1
 Number of Electrons    NEL             ....   66
 Basis Dimension        Dim             ....  333

ORBITAL ENERGIES
----------------

  NO   OCC          E(Eh)            E(eV)
   0   2.0000     -20.574307      -559.8554
   1   2.0000     -15.581311      -423.9890
   2   2.0000     -11.298855      -307.4575
   3   2.0000     -11.297770      -307.4280
   4   2.0000     -11.271645      -306.7170
   5   2.0000     -11.264802      -306.5309
   6   2.0000     -11.258264      -306.3529
   7   2.0000     -11.251775      -306.1764
   8   2.0000     -11.242904      -305.9350
   9   2.0000      -1.403507       -38.1914
  10   2.0000      -1.287260       -35.0281
  11   2.0000      -1.139573       -31.0094
  12   2.0000      -0.970079       -26.3972
  13   2.0000      -0.929509       -25.2932
  14   2.0000      -0.909607       -24.7517
  15   2.0000      -0.831899       -22.6371
  16   2.0000      -0.802824       -21.8460
  17   2.0000      -0.748795       -20.3757
  18   2.0000      -0.708293       -19.2736
  19   2.0000      -0.666581       -18.1386
  20   2.0000      -0.635364       -17.2891
  21   2.0000      -0.621153       -16.9024
  22   2.0000      -0.606075       -16.4921
  23   2.0000      -0.578483       -15.7413
  24   2.0000      -0.566892       -15.4259
  25   2.0000      -0.520310       -14.1583
  26   2.0000      -0.496841       -13.5197
  27   2.0000      -0.486020       -13.2253
  28   2.0000      -0.454677       -12.3724
  29   2.0000      -0.445706       -12.1283
  30   2.0000      -0.419499       -11.4152
  31   2.0000      -0.395930       -10.7738
  32   2.0000      -0.371609       -10.1120
  33   0.0000       0.144430         3.9302
  34   0.0000       0.159118         4.3298
  35   0.0000       0.164226         4.4688
  36   0.0000       0.165279         4.4975
  37   0.0000       0.187511         5.1024

MULLIKEN ATOMIC CHARGES
-----------------------
   0 C :   -0.249166
   1 C :    0.054671
   2 O :   -0.299692
   3 C :    0.112280
   4 C :   -0.118338
   5 N :   -0.183774
   6 C :   -0.177421
   7 C :   -0.074228
   8 C :   -0.179832
   9 H :    0.141471
  10 H :    0.134247
  11 H :    0.133090
  12 H :    0.118509
  13 H :    0.125471
  14 H :    0.116580
  15 H :    0.119322
  16 H :    0.092695
  17 H :    0.134116
Sum of atomic charges:   -0.0000000

LOEWDIN ATOMIC CHARGES
----------------------
   0 C :   -0.207831
   1 C :   -0.231577
   2 O :    0.214190
   3 C :   -0.324664
   4 C :   -0.194955
   5 N :    0.111438
   6 C :   -0.213565
   7 C :   -0.190091
   8 C :   -0.178917
   9 H :    0.135499
  10 H :    0.142263
  11 H :    0.135826
  12 H :    0.126624
  13 H :    0.127106
  14 H :    0.124416
  15 H :    0.125458
  16 H :    0.152318
  17 H :    0.146465

  Mayer bond orders larger than 0.1
B(  0-C ,  1-C ) :   0.8639 B(  0-C ,  8-C ) :   0.8705 B(  0-C ,  9-H ) :   0.9159
B(  0-C , 10-H ) :   0.9217 B(  1-C ,  2-O ) :   0.9554 B(  1-C ,  8-C ) :   0.8345
B(  1-C , 11-H ) :   0.9395 B(  2-O ,  3-C ) :   0.9668 B(  3-C ,  4-C ) :   0.9145
B(  3-C ,  6-C ) :   0.9500 B(  3-C ,  7-C ) :   0.9283 B(  4-C ,  5-N ) :   0.9117
B(  4-C , 12-H ) :   0.9166 B(  4-C , 13-H ) :   0.9268 B(  5-N ,  6-C ) :   0.9279
B(  5-N ,  7-C ) :   0.8863 B(  6-C , 14-H ) :   0.9285 B(  6-C , 15-H ) :   0.9113
B(  7-C ,  8-C ) :   0.9863 B(  7-C , 16-H ) :   0.9261 B(  8-C , 17-H ) :   0.9274

MP2 TOTAL ENERGY:     -401.129014117 Eh
FINAL SINGLE POINT ENERGY      -401.129014117076

DIPOLE MOMENT
-------------
                                X             Y             Z
Electronic contribution:      1.67961      -0.54247       0.65735
Nuclear contribution   :     -1.53309       0.76121      -1.15484
                        -----------------------------------------
Total Dipole Moment    :      0.14652       0.21874      -0.49749
                        -----------------------------------------
Magnitude (a.u.)       :      0.56286
Magnitude (Debye)      :      1.43068

                             ****ORCA TERMINATED NORMALLY****
TOTAL RUN TIME: 0 days 0 hours 19 minutes 37 seconds 80 msec
