                         Program Version 3.0.3 - RELEASE   -
|  1> ! RI-MP2 RIJK def2-TZVP def2-TZVP/C def2-TZVP/JK TIGHTSCF
|  2> % maxcore 2000
|  3> % mp2 density relaxed end
|  4> *xyz 0 1
|  5>  O        0.2330184193     1.2664936782    -0.1405703545
|  6>  C        0.1140262266    -0.0553229498    -0.0757688785
|  7>  N        0.2175090768    -0.8355201370    -1.1414936772
|  8>  N        0.0248169002    -2.0320728060    -0.5768244448
|  9>  C        0.0575037007    -3.2735504917    -1.3242686976
| 10>  C        1.4124085674    -3.6454814189    -1.7465697437
| 11>  N        2.4681458081    -3.9618865845    -2.0884873652
| 12>  N       -0.1794029831    -1.9999286529     0.7299607857
| 13>  N       -0.1297670736    -0.7371459086     1.0709703222
| 14>  H        0.1258626781     1.6123918764     0.7549913634
| 15>  H       -0.3529366033    -4.0441848174    -0.6678854673
| 16>  H       -0.5850193872    -3.1735574977    -2.2032898824
| 17> *
| 18>
| 19>                          ****END OF INPUT****

CARTESIAN COORDINATES (ANGSTROEM)
---------------------------------
  O      0.233018    1.266494   -0.140570
  C      0.114026   -0.055323   -0.075769
  N      0.217509   -0.835520   -1.141494
  N      0.024817   -2.032073   -0.576824
  C      0.057504   -3.273550   -1.324269
  C      1.412409   -3.645481   -1.746570
  N      2.468146   -3.961887   -2.088487
  N     -0.179403   -1.999929    0.729961
  N     -0.129767   -0.737146    1.070970
  H      0.125863    1.612392    0.754991
  H     -0.352937   -4.044185   -0.667885
  H     -0.585019   -3.173557   -2.203290

 Total Charge           Charge          ....    0
 Multiplicity           Mult            ....    1
 Number of Electrons    NEL             ....   64
 Basis Dimension        Dim             ....  297

ORBITAL ENERGIES
----------------

  NO   OCC          E(Eh)            E(eV)
   0   2.0000     -20.631826      -561.4205
   1   2.0000     -15.731022      -428.0629
   2   2.0000     -15.700526      -427.2330
   3   2.0000     -15.634166      -425.4273
   4   2.0000     -15.628193      -425.2648
   5   2.0000     -15.600557      -424.5127
   6   2.0000     -11.384445      -309.7865
   7   2.0000     -11.365907      -309.2820
   8   2.0000     -11.300277      -307.4962
   9   2.0000      -1.533693       -41.7339
  10   2.0000      -1.456386       -39.6303
  11   2.0000      -1.295289       -35.2466
  12   2.0000      -1.246947       -33.9311
  13   2.0000      -1.211055       -32.9545
  14   2.0000      -1.073089       -29.2002
  15   2.0000      -0.918987       -25.0069
  16   2.0000      -0.891150       -24.2494
  17   2.0000      -0.808395       -21.9975
  18   2.0000      -0.769004       -20.9257
  19   2.0000      -0.725543       -19.7430
  20   2.0000      -0.685985       -18.6666
  21   2.0000      -0.667225       -18.1561
  22   2.0000      -0.661431       -17.9985
  23   2.0000      -0.609092       -16.5742
  24   2.0000      -0.588037       -16.0013
  25   2.0000      -0.580058       -15.7842
  26   2.0000      -0.520082       -14.1522
  27   2.0000      -0.501859       -13.6563
  28   2.0000      -0.492491       -13.4014
  29   2.0000      -0.488792       -13.3007
  30   2.0000      -0.464649       -12.6438
  31   2.0000      -0.399658       -10.8752
  32   0.0000       0.088878         2.4185
  33   0.0000       0.119470         3.2509
  34   0.0000       0.131493         3.5781
  35   0.0000       0.146587         3.9888
  36   0.0000       0.148239         4.0338

MULLIKEN ATOMIC CHARGES
-----------------------
   0 O :   -0.397384
   1 C :    0.283408
   2 N :   -0.256004
   3 N :    0.223774
   4 C :   -0.041529
   5 C :   -0.166537
   6 N :   -0.041086
   7 N :   -0.153382
   8 N :   -0.202023
   9 H :    0.358493
  10 H :    0.201137
  11 H :    0.191131
Sum of atomic charges:   -0.0000000

LOEWDIN ATOMIC CHARGES
----------------------
   0 O :    0.109680
   1 C :   -0.523588
   2 N :    0.070855
   3 N :    0.118494
   4 C :   -0.221384
   5 C :   -0.178100
   6 N :    0.092784
   7 N :   -0.028965
   8 N :   -0.000746
   9 H :    0.212938
  10 H :    0.176060
  11 H :    0.171972

  Mayer bond orders larger than 0.1
B(  0-O ,  1-C ) :   1.1540 B(  0-O ,  9-H ) :   0.8079 B(  1-C ,  2-N ) :   1.4364
B(  1-C ,  8-N ) :   1.3678 B(  2-N ,  3-N ) :   1.0444 B(  2-N ,  7-N ) :   0.1152
B(  3-N ,  4-C ) :   0.8727 B(  3-N ,  7-N ) :   1.0997 B(  4-C ,  5-C ) :   0.9141
B(  4-C , 10-H ) :   0.8990 B(  4-C , 11-H ) :   0.9056 B(  5-C ,  6-N ) :   2.8236
B(  7-N ,  8-N ) :   1.2491

MP2 TOTAL ENERGY:     -464.230046148 Eh
FINAL SINGLE POINT ENERGY      -464.230046148284

DIPOLE MOMENT
-------------
                                X             Y             Z
Electronic contribution:      0.84602       0.72250       0.46378
Nuclear contribution   :     -2.01432      -0.65306      -0.39359
                        -----------------------------------------
Total Dipole Moment    :     -1.16830       0.06944       0.07020
                        -----------------------------------------
Magnitude (a.u.)       :      1.17246
Magnitude (Debye)      :      2.98016

                             ****ORCA TERMINATED NORMALLY****
TOTAL RUN TIME: 0 days 0 hours 12 minutes 33 seconds 919 msec
