                         Program Version 3.0.3 - RELEASE   -
|  1> ! RI-MP2 RIJK def2-TZVP def2-TZVP/C def2-TZVP/JK TIGHTSCF
|  2> % maxcore 2000
|  3> % mp2 density relaxed end
|  4> *xyz 0 1
|  5>  C       -0.1306365945     1.5251108734    -0.0103812243
|  6>  C        0.0524157740     0.0391664644     0.0612832991
|  7>  O       -1.1902947948    -0.6972947189     0.2558249866
|  8>  C       -0.5557236727    -1.6514026221     1.1381822973
|  9>  C        0.1433516568    -2.7762553930     0.3454650503
| 10>  C        1.3167598714    -1.7966740360     0.0281087295
| 11>  C        0.7615474917    -0.8310011058     1.1563217430
| 12>  C        0.9038593542    -0.7229192435    -0.9912914614
| 13>  O        1.2498107425    -0.4683718928    -2.1085546014
| 14>  H        0.8356758578     2.0277958475    -0.1141041982
| 15>  H       -0.7396705941     1.7800424149    -0.8835422155
| 16>  H       -0.6341017978     1.8978988722     0.8859789481
| 17>  H       -1.1932860980    -1.9026331987     1.9875675836
| 18>  H        0.4891118656    -3.5694893335     1.0162615344
| 19>  H       -0.4072974979    -3.2166831250    -0.4893086494
| 20>  H        2.3293515641    -2.1923083032    -0.0405037254
| 21>  H        1.3186519317    -0.4580782398     2.0101035138
| 22> *
| 23>
| 24>                          ****END OF INPUT****

CARTESIAN COORDINATES (ANGSTROEM)
---------------------------------
  C     -0.130637    1.525111   -0.010381
  C      0.052416    0.039166    0.061283
  O     -1.190295   -0.697295    0.255825
  C     -0.555724   -1.651403    1.138182
  C      0.143352   -2.776255    0.345465
  C      1.316760   -1.796674    0.028109
  C      0.761547   -0.831001    1.156322
  C      0.903859   -0.722919   -0.991291
  O      1.249811   -0.468372   -2.108555
  H      0.835676    2.027796   -0.114104
  H     -0.739671    1.780042   -0.883542
  H     -0.634102    1.897899    0.885979
  H     -1.193286   -1.902633    1.987568
  H      0.489112   -3.569489    1.016262
  H     -0.407297   -3.216683   -0.489309
  H      2.329352   -2.192308   -0.040504
  H      1.318652   -0.458078    2.010104

 Total Charge           Charge          ....    0
 Multiplicity           Mult            ....    1
 Number of Electrons    NEL             ....   66
 Basis Dimension        Dim             ....  327

ORBITAL ENERGIES
----------------

  NO   OCC          E(Eh)            E(eV)
   0   2.0000     -20.567116      -559.6597
   1   2.0000     -20.558354      -559.4213
   2   2.0000     -11.333257      -308.3936
   3   2.0000     -11.306945      -307.6776
   4   2.0000     -11.301297      -307.5239
   5   2.0000     -11.256805      -306.3132
   6   2.0000     -11.256206      -306.2969
   7   2.0000     -11.248287      -306.0815
   8   2.0000     -11.228884      -305.5535
   9   2.0000      -1.411190       -38.4004
  10   2.0000      -1.391057       -37.8526
  11   2.0000      -1.154274       -31.4094
  12   2.0000      -1.051168       -28.6037
  13   2.0000      -0.960180       -26.1278
  14   2.0000      -0.921728       -25.0815
  15   2.0000      -0.828382       -22.5414
  16   2.0000      -0.796111       -21.6633
  17   2.0000      -0.713348       -19.4112
  18   2.0000      -0.686629       -18.6841
  19   2.0000      -0.666702       -18.1419
  20   2.0000      -0.664842       -18.0913
  21   2.0000      -0.620342       -16.8804
  22   2.0000      -0.590552       -16.0697
  23   2.0000      -0.583527       -15.8786
  24   2.0000      -0.560551       -15.2534
  25   2.0000      -0.555353       -15.1119
  26   2.0000      -0.551554       -15.0086
  27   2.0000      -0.521642       -14.1946
  28   2.0000      -0.480726       -13.0812
  29   2.0000      -0.451339       -12.2816
  30   2.0000      -0.443646       -12.0722
  31   2.0000      -0.427208       -11.6249
  32   2.0000      -0.384375       -10.4594
  33   0.0000       0.119466         3.2508
  34   0.0000       0.141317         3.8454
  35   0.0000       0.157354         4.2818
  36   0.0000       0.165152         4.4940
  37   0.0000       0.175522         4.7762

MULLIKEN ATOMIC CHARGES
-----------------------
   0 C :   -0.403015
   1 C :    0.200180
   2 O :   -0.316537
   3 C :    0.033590
   4 C :   -0.231648
   5 C :   -0.037474
   6 C :   -0.165625
   7 C :    0.071337
   8 O :   -0.243932
   9 H :    0.135578
  10 H :    0.153147
  11 H :    0.140462
  12 H :    0.119587
  13 H :    0.123239
  14 H :    0.128579
  15 H :    0.138024
  16 H :    0.154507
Sum of atomic charges:   -0.0000000

LOEWDIN ATOMIC CHARGES
----------------------
   0 C :   -0.265853
   1 C :   -0.266028
   2 O :    0.187709
   3 C :   -0.231506
   4 C :   -0.192830
   5 C :   -0.140861
   6 C :   -0.096429
   7 C :   -0.259124
   8 O :    0.172993
   9 H :    0.136510
  10 H :    0.141653
  11 H :    0.132886
  12 H :    0.126968
  13 H :    0.143998
  14 H :    0.133879
  15 H :    0.140881
  16 H :    0.135155

  Mayer bond orders larger than 0.1
B(  0-C ,  1-C ) :   0.8740 B(  0-C ,  9-H ) :   0.9264 B(  0-C , 10-H ) :   0.9347
B(  0-C , 11-H ) :   0.9409 B(  1-C ,  2-O ) :   0.9102 B(  1-C ,  5-C ) :  -0.1195
B(  1-C ,  6-C ) :   0.8876 B(  1-C ,  7-C ) :   0.8372 B(  2-O ,  3-C ) :   0.9520
B(  3-C ,  4-C ) :   0.9239 B(  3-C ,  6-C ) :   0.9461 B(  3-C , 12-H ) :   0.9204
B(  4-C ,  5-C ) :   0.9102 B(  4-C , 13-H ) :   0.9081 B(  4-C , 14-H ) :   0.9085
B(  5-C ,  6-C ) :   0.8941 B(  5-C ,  7-C ) :   0.9083 B(  5-C , 15-H ) :   0.9048
B(  6-C , 16-H ) :   0.8849 B(  7-C ,  8-O ) :   2.0482

MP2 TOTAL ENERGY:     -421.082760280 Eh
FINAL SINGLE POINT ENERGY      -421.082760279999

DIPOLE MOMENT
-------------
                                X             Y             Z
Electronic contribution:      0.41681      -0.97452      -3.08658
Nuclear contribution   :     -0.12077       0.70451       4.34685
                        -----------------------------------------
Total Dipole Moment    :      0.29604      -0.27001       1.26027
                        -----------------------------------------
Magnitude (a.u.)       :      1.32244
Magnitude (Debye)      :      3.36136

                             ****ORCA TERMINATED NORMALLY****
TOTAL RUN TIME: 0 days 0 hours 18 minutes 52 seconds 322 msec
