                         Program Version 3.0.3 - RELEASE   -
|  1> ! RI-MP2 RIJK def2-TZVP def2-TZVP/C def2-TZVP/JK TIGHTSCF
|  2> % maxcore 2000
|  3> % mp2 density relaxed end
|  4> *xyz 0 1
|  5>  C        1.0260608968    -1.1196653612    -0.8136835338
|  6>  C        0.1997732049    -0.1345118933     0.0317123014
|  7>  C        0.5185528148     1.3016473169    -0.4183894090
|  8>  C       -1.3371325866    -0.4372539670     0.0861055534
|  9>  C       -1.6097687593    -1.9496700873     0.2112100353
| 10>  C       -1.9427055594     0.2681851316     1.3278183022
| 11>  O       -1.4010010601    -0.1702949208     2.5633351356
| 12>  C       -2.1102169832     0.1039242192    -1.1275343323
| 13>  O       -1.6017303370    -0.4707620439    -2.3256721584
| 14>  H        2.0851190830    -0.8425286253    -0.7693476353
| 15>  H        0.9472406641    -2.1475607131    -0.4499472073
| 16>  H        0.7114027360    -1.1032709618    -1.8594061292
| 17>  H        0.5350859704    -0.2359056973     1.0715154411
| 18>  H        0.2956091880     1.4384993794    -1.4816916741
| 19>  H       -0.0332798674     2.0590822003     0.1468556563
| 20>  H        1.5842606660     1.5088649028    -0.2774646329
| 21>  H       -1.0008243812    -2.4061728989     0.9985573623
| 22>  H       -2.6659618769    -2.1308628172     0.4482215984
| 23>  H       -1.3903612505    -2.4683065909    -0.7232344591
| 24>  H       -1.7448061149     1.3438232573     1.2927333208
| 25>  H       -3.0374779178     0.1405514568     1.3162217613
| 26>  H       -1.6694279379    -1.0844121937     2.6970023332
| 27>  H       -3.1774680479    -0.1437304610    -1.0057064180
| 28>  H       -2.0344916628     1.2008047972    -1.1611414856
| 29>  H       -2.1216675113    -0.1373032589    -3.0624590762
| 30> *
| 31>
| 32>                          ****END OF INPUT****

CARTESIAN COORDINATES (ANGSTROEM)
---------------------------------
  C      1.026061   -1.119665   -0.813684
  C      0.199773   -0.134512    0.031712
  C      0.518553    1.301647   -0.418389
  C     -1.337133   -0.437254    0.086106
  C     -1.609769   -1.949670    0.211210
  C     -1.942706    0.268185    1.327818
  O     -1.401001   -0.170295    2.563335
  C     -2.110217    0.103924   -1.127534
  O     -1.601730   -0.470762   -2.325672
  H      2.085119   -0.842529   -0.769348
  H      0.947241   -2.147561   -0.449947
  H      0.711403   -1.103271   -1.859406
  H      0.535086   -0.235906    1.071515
  H      0.295609    1.438499   -1.481692
  H     -0.033280    2.059082    0.146856
  H      1.584261    1.508865   -0.277465
  H     -1.000824   -2.406173    0.998557
  H     -2.665962   -2.130863    0.448222
  H     -1.390361   -2.468307   -0.723234
  H     -1.744806    1.343823    1.292733
  H     -3.037478    0.140551    1.316222
  H     -1.669428   -1.084412    2.697002
  H     -3.177468   -0.143730   -1.005706
  H     -2.034492    1.200805   -1.161141
  H     -2.121668   -0.137303   -3.062459

 Total Charge           Charge          ....    0
 Multiplicity           Mult            ....    1
 Number of Electrons    NEL             ....   74
 Basis Dimension        Dim             ....  375

ORBITAL ENERGIES
----------------

  NO   OCC          E(Eh)            E(eV)
   0   2.0000     -20.559338      -559.4480
   1   2.0000     -20.553955      -559.3016
   2   2.0000     -11.276931      -306.8609
   3   2.0000     -11.271929      -306.7248
   4   2.0000     -11.233951      -305.6914
   5   2.0000     -11.217295      -305.2381
   6   2.0000     -11.212508      -305.1078
   7   2.0000     -11.203638      -304.8665
   8   2.0000     -11.195137      -304.6352
   9   2.0000      -1.364255       -37.1233
  10   2.0000      -1.358858       -36.9764
  11   2.0000      -1.104626       -30.0584
  12   2.0000      -1.015759       -27.6402
  13   2.0000      -0.941420       -25.6173
  14   2.0000      -0.906172       -24.6582
  15   2.0000      -0.901376       -24.5277
  16   2.0000      -0.822569       -22.3832
  17   2.0000      -0.728202       -19.8154
  18   2.0000      -0.712664       -19.3926
  19   2.0000      -0.673085       -18.3156
  20   2.0000      -0.650824       -17.7098
  21   2.0000      -0.629449       -17.1282
  22   2.0000      -0.610041       -16.6001
  23   2.0000      -0.594956       -16.1896
  24   2.0000      -0.568008       -15.4563
  25   2.0000      -0.555864       -15.1258
  26   2.0000      -0.548140       -14.9157
  27   2.0000      -0.534387       -14.5414
  28   2.0000      -0.524019       -14.2593
  29   2.0000      -0.519107       -14.1256
  30   2.0000      -0.495410       -13.4808
  31   2.0000      -0.487952       -13.2778
  32   2.0000      -0.469067       -12.7640
  33   2.0000      -0.455134       -12.3848
  34   2.0000      -0.439233       -11.9522
  35   2.0000      -0.427158       -11.6236
  36   2.0000      -0.418872       -11.3981
  37   0.0000       0.124691         3.3930
  38   0.0000       0.144413         3.9297
  39   0.0000       0.162171         4.4129
  40   0.0000       0.163967         4.4618
  41   0.0000       0.185143         5.0380

MULLIKEN ATOMIC CHARGES
-----------------------
   0 C :   -0.421060
   1 C :   -0.004255
   2 C :   -0.457197
   3 C :    0.111347
   4 C :   -0.537739
   5 C :   -0.045807
   6 O :   -0.468578
   7 C :   -0.121525
   8 O :   -0.473887
   9 H :    0.123990
  10 H :    0.127687
  11 H :    0.149847
  12 H :    0.100504
  13 H :    0.137452
  14 H :    0.126395
  15 H :    0.134505
  16 H :    0.140625
  17 H :    0.134078
  18 H :    0.171475
  19 H :    0.111415
  20 H :    0.110400
  21 H :    0.319191
  22 H :    0.101365
  23 H :    0.116241
  24 H :    0.313531
Sum of atomic charges:   -0.0000000

LOEWDIN ATOMIC CHARGES
----------------------
   0 C :   -0.295691
   1 C :   -0.258162
   2 C :   -0.295267
   3 C :   -0.295668
   4 C :   -0.280664
   5 C :   -0.305617
   6 O :   -0.036853
   7 C :   -0.308415
   8 O :   -0.038772
   9 H :    0.121762
  10 H :    0.120160
  11 H :    0.125847
  12 H :    0.158675
  13 H :    0.124736
  14 H :    0.117996
  15 H :    0.124298
  16 H :    0.123637
  17 H :    0.124701
  18 H :    0.134398
  19 H :    0.130387
  20 H :    0.120064
  21 H :    0.172303
  22 H :    0.120752
  23 H :    0.122584
  24 H :    0.172808

  Mayer bond orders larger than 0.1
B(  0-C ,  1-C ) :   0.8933 B(  0-C ,  9-H ) :   0.9402 B(  0-C , 10-H ) :   0.9389
B(  0-C , 11-H ) :   0.9324 B(  1-C ,  2-C ) :   0.8887 B(  1-C ,  3-C ) :   0.8714
B(  1-C , 12-H ) :   0.9230 B(  2-C , 13-H ) :   0.9369 B(  2-C , 14-H ) :   0.9402
B(  2-C , 15-H ) :   0.9389 B(  3-C ,  4-C ) :   0.8506 B(  3-C ,  5-C ) :   0.9068
B(  3-C ,  7-C ) :   0.9062 B(  4-C , 16-H ) :   0.9427 B(  4-C , 17-H ) :   0.9326
B(  4-C , 18-H ) :   0.9355 B(  5-C ,  6-O ) :   0.9265 B(  5-C , 19-H ) :   0.9234
B(  5-C , 20-H ) :   0.9339 B(  6-O , 21-H ) :   0.8463 B(  7-C ,  8-O ) :   1.0099
B(  7-C , 22-H ) :   0.9164 B(  7-C , 23-H ) :   0.9328 B(  8-O , 24-H ) :   0.8466

MP2 TOTAL ENERGY:     -425.930249790 Eh
FINAL SINGLE POINT ENERGY      -425.930249789618

DIPOLE MOMENT
-------------
                                X             Y             Z
Electronic contribution:     -2.89320       0.25908       1.32592
Nuclear contribution   :      2.12994      -0.27879      -1.79046
                        -----------------------------------------
Total Dipole Moment    :     -0.76326      -0.01971      -0.46454
                        -----------------------------------------
Magnitude (a.u.)       :      0.89373
Magnitude (Debye)      :      2.27167

                             ****ORCA TERMINATED NORMALLY****
TOTAL RUN TIME: 0 days 0 hours 22 minutes 29 seconds 488 msec
