                         Program Version 3.0.3 - RELEASE   -
|  1> ! RI-MP2 RIJK def2-TZVP def2-TZVP/C def2-TZVP/JK TIGHTSCF
|  2> % maxcore 2000
|  3> % mp2 density relaxed end
|  4> *xyz 0 1
|  5>  O       -0.1709985194     1.4578929430     0.0926487622
|  6>  C       -0.0211700114     0.0535952465     0.2286199271
|  7>  C       -1.3381849958    -0.5955171011    -0.1911575993
|  8>  C       -1.3028695266    -2.0938548425    -0.1142871993
|  9>  C       -0.5997135949    -3.0970826154    -1.0193715994
| 10>  N       -1.4849400236    -4.1936045804    -0.4613276842
| 11>  C       -0.9955789245    -4.2659742901     0.9738911250
| 12>  C       -1.5540711457    -2.8732988705     1.2030394502
| 13>  C       -2.4388027187    -3.0682442137     0.0054106677
| 14>  H        0.6574242850     1.8759044504     0.3444708744
| 15>  H        0.7975034085    -0.3244533316    -0.4050868599
| 16>  H        0.2146486496    -0.2283546770     1.2670293870
| 17>  H       -2.1380128457    -0.2017962040     0.4476553304
| 18>  H       -1.5711257284    -0.2748316068    -1.2143046594
| 19>  H       -0.8397678630    -2.9406229597    -2.0754166801
| 20>  H        0.4760765105    -3.2818085988    -0.9111699154
| 21>  H       -1.5548681404    -5.0396629613     1.5068723884
| 22>  H        0.0800923540    -4.4506768296     1.0796469219
| 23>  H       -1.7797553581    -2.3514992133     2.1253629571
| 24>  H       -3.5038366116    -3.0217394939    -0.1740311646
| 25> *
| 26>
| 27>                          ****END OF INPUT****

CARTESIAN COORDINATES (ANGSTROEM)
---------------------------------
  O     -0.170999    1.457893    0.092649
  C     -0.021170    0.053595    0.228620
  C     -1.338185   -0.595517   -0.191158
  C     -1.302870   -2.093855   -0.114287
  C     -0.599714   -3.097083   -1.019372
  N     -1.484940   -4.193605   -0.461328
  C     -0.995579   -4.265974    0.973891
  C     -1.554071   -2.873299    1.203039
  C     -2.438803   -3.068244    0.005411
  H      0.657424    1.875904    0.344471
  H      0.797503   -0.324453   -0.405087
  H      0.214649   -0.228355    1.267029
  H     -2.138013   -0.201796    0.447655
  H     -1.571126   -0.274832   -1.214305
  H     -0.839768   -2.940623   -2.075417
  H      0.476077   -3.281809   -0.911170
  H     -1.554868   -5.039663    1.506872
  H      0.080092   -4.450677    1.079647
  H     -1.779755   -2.351499    2.125363
  H     -3.503837   -3.021739   -0.174031

 Total Charge           Charge          ....    0
 Multiplicity           Mult            ....    1
 Number of Electrons    NEL             ....   68
 Basis Dimension        Dim             ....  345

ORBITAL ENERGIES
----------------

  NO   OCC          E(Eh)            E(eV)
   0   2.0000     -20.558854      -559.4349
   1   2.0000     -15.555707      -423.2923
   2   2.0000     -11.279511      -306.9311
   3   2.0000     -11.258287      -306.3536
   4   2.0000     -11.253220      -306.2157
   5   2.0000     -11.252086      -306.1848
   6   2.0000     -11.244209      -305.9705
   7   2.0000     -11.238193      -305.8068
   8   2.0000     -11.228910      -305.5542
   9   2.0000      -1.363096       -37.0917
  10   2.0000      -1.299654       -35.3654
  11   2.0000      -1.068016       -29.0622
  12   2.0000      -1.007075       -27.4039
  13   2.0000      -0.973288       -26.4845
  14   2.0000      -0.883398       -24.0385
  15   2.0000      -0.846975       -23.0474
  16   2.0000      -0.746938       -20.3252
  17   2.0000      -0.739537       -20.1238
  18   2.0000      -0.707446       -19.2506
  19   2.0000      -0.660367       -17.9695
  20   2.0000      -0.640913       -17.4401
  21   2.0000      -0.628927       -17.1140
  22   2.0000      -0.607369       -16.5274
  23   2.0000      -0.594944       -16.1893
  24   2.0000      -0.568740       -15.4762
  25   2.0000      -0.529594       -14.4110
  26   2.0000      -0.525742       -14.3062
  27   2.0000      -0.498436       -13.5631
  28   2.0000      -0.472952       -12.8697
  29   2.0000      -0.466822       -12.7029
  30   2.0000      -0.447377       -12.1737
  31   2.0000      -0.425628       -11.5819
  32   2.0000      -0.375996       -10.2314
  33   2.0000      -0.358914        -9.7665
  34   0.0000       0.130994         3.5645
  35   0.0000       0.149202         4.0600
  36   0.0000       0.159883         4.3506
  37   0.0000       0.164384         4.4731
  38   0.0000       0.175225         4.7681

MULLIKEN ATOMIC CHARGES
-----------------------
   0 O :   -0.460731
   1 C :   -0.083543
   2 C :   -0.175636
   3 C :   -0.070898
   4 C :   -0.094455
   5 N :   -0.207279
   6 C :   -0.107847
   7 C :   -0.193670
   8 C :   -0.086680
   9 H :    0.316173
  10 H :    0.097378
  11 H :    0.100000
  12 H :    0.116882
  13 H :    0.120204
  14 H :    0.114616
  15 H :    0.106713
  16 H :    0.119519
  17 H :    0.105539
  18 H :    0.134323
  19 H :    0.149391
Sum of atomic charges:    0.0000000

LOEWDIN ATOMIC CHARGES
----------------------
   0 O :   -0.050379
   1 C :   -0.343945
   2 C :   -0.231766
   3 C :   -0.204112
   4 C :   -0.211351
   5 N :    0.100280
   6 C :   -0.232880
   7 C :   -0.167774
   8 C :   -0.137084
   9 H :    0.172454
  10 H :    0.115499
  11 H :    0.115667
  12 H :    0.149740
  13 H :    0.147914
  14 H :    0.135288
  15 H :    0.119397
  16 H :    0.132982
  17 H :    0.118576
  18 H :    0.138795
  19 H :    0.132699

  Mayer bond orders larger than 0.1
B(  0-O ,  1-C ) :   1.0254 B(  0-O ,  2-C ) :  -0.1054 B(  0-O ,  9-H ) :   0.8480
B(  1-C ,  2-C ) :   0.9294 B(  1-C , 10-H ) :   0.9333 B(  1-C , 11-H ) :   0.9325
B(  2-C ,  3-C ) :   0.8922 B(  2-C , 12-H ) :   0.9164 B(  2-C , 13-H ) :   0.9215
B(  3-C ,  4-C ) :   0.9694 B(  3-C ,  7-C ) :   0.7999 B(  3-C ,  8-C ) :   0.8805
B(  4-C ,  5-N ) :   0.9274 B(  4-C , 14-H ) :   0.9147 B(  4-C , 15-H ) :   0.9266
B(  5-N ,  6-C ) :   0.9253 B(  5-N ,  8-C ) :   0.9436 B(  6-C ,  7-C ) :   0.9802
B(  6-C , 16-H ) :   0.9217 B(  6-C , 17-H ) :   0.9262 B(  7-C ,  8-C ) :   0.9031
B(  7-C , 18-H ) :   0.9240 B(  8-C , 19-H ) :   0.8956

MP2 TOTAL ENERGY:     -402.375195646 Eh
FINAL SINGLE POINT ENERGY      -402.375195646421

DIPOLE MOMENT
-------------
                                X             Y             Z
Electronic contribution:     -1.69405      -1.03315      -0.48539
Nuclear contribution   :      2.28736       1.43743       1.03464
                        -----------------------------------------
Total Dipole Moment    :      0.59331       0.40428       0.54925
                        -----------------------------------------
Magnitude (a.u.)       :      0.90395
Magnitude (Debye)      :      2.29766

                             ****ORCA TERMINATED NORMALLY****
TOTAL RUN TIME: 0 days 0 hours 16 minutes 52 seconds 227 msec
