                         Program Version 3.0.3 - RELEASE   -
|  1> ! RI-MP2 RIJK def2-TZVP def2-TZVP/C def2-TZVP/JK TIGHTSCF
|  2> % maxcore 2000
|  3> % mp2 density relaxed end
|  4> *xyz 0 1
|  5>  O       -0.1348462173    -0.0172319966     0.0855564784
|  6>  C       -0.0329934454     1.1887052248     0.0929036651
|  7>  C        1.2070467621     1.9077213255    -0.0302024771
|  8>  C        2.2340254452     2.5370325636    -0.1309322367
|  9>  C        3.4640198371     3.3065246493    -0.2475540712
| 10>  C        3.2628141421     4.8162257748    -0.0736915985
| 11>  C        2.8648095059     5.3711143370     1.3219640095
| 12>  C        3.8285372441     6.5637091307     1.0747281863
| 13>  C        4.5235746401     5.7231294881    -0.0309507304
| 14>  H       -0.9247351469     1.8403816671     0.1995370135
| 15>  H        4.1827224118     2.9416880585     0.4994223404
| 16>  H        3.9186301009     3.1000872426    -1.2265462511
| 17>  H        2.5621062067     5.1752014324    -0.8344624526
| 18>  H        1.8097927878     5.5881840247     1.5013008080
| 19>  H        3.2261530355     4.7202940377     2.1251918866
| 20>  H        3.3052806502     7.4282810190     0.6569656393
| 21>  H        4.4413797381     6.9019783236     1.9127883646
| 22>  H        5.3897925360     5.1800128277     0.3621442714
| 23>  H        4.8202346559     6.2266858494    -0.9540624556
| 24> *
| 25>
| 26>                          ****END OF INPUT****

CARTESIAN COORDINATES (ANGSTROEM)
---------------------------------
  O     -0.134846   -0.017232    0.085556
  C     -0.032993    1.188705    0.092904
  C      1.207047    1.907721   -0.030202
  C      2.234025    2.537033   -0.130932
  C      3.464020    3.306525   -0.247554
  C      3.262814    4.816226   -0.073692
  C      2.864810    5.371114    1.321964
  C      3.828537    6.563709    1.074728
  C      4.523575    5.723129   -0.030951
  H     -0.924735    1.840382    0.199537
  H      4.182722    2.941688    0.499422
  H      3.918630    3.100087   -1.226546
  H      2.562106    5.175201   -0.834462
  H      1.809793    5.588184    1.501301
  H      3.226153    4.720294    2.125192
  H      3.305281    7.428281    0.656966
  H      4.441380    6.901978    1.912788
  H      5.389793    5.180013    0.362144
  H      4.820235    6.226686   -0.954062

 Total Charge           Charge          ....    0
 Multiplicity           Mult            ....    1
 Number of Electrons    NEL             ....   66
 Basis Dimension        Dim             ....  339

ORBITAL ENERGIES
----------------

  NO   OCC          E(Eh)            E(eV)
   0   2.0000     -20.563884      -559.5717
   1   2.0000     -11.354469      -308.9708
   2   2.0000     -11.265853      -306.5594
   3   2.0000     -11.264942      -306.5346
   4   2.0000     -11.246437      -306.0311
   5   2.0000     -11.238439      -305.8135
   6   2.0000     -11.232470      -305.6510
   7   2.0000     -11.230692      -305.6027
   8   2.0000     -11.230095      -305.5864
   9   2.0000      -1.399076       -38.0708
  10   2.0000      -1.150699       -31.3121
  11   2.0000      -1.083147       -29.4739
  12   2.0000      -1.009496       -27.4698
  13   2.0000      -0.909582       -24.7510
  14   2.0000      -0.900867       -24.5138
  15   2.0000      -0.862381       -23.4666
  16   2.0000      -0.762634       -20.7523
  17   2.0000      -0.721060       -19.6211
  18   2.0000      -0.675148       -18.3717
  19   2.0000      -0.658269       -17.9124
  20   2.0000      -0.648784       -17.6543
  21   2.0000      -0.638645       -17.3784
  22   2.0000      -0.609867       -16.5953
  23   2.0000      -0.550542       -14.9810
  24   2.0000      -0.550022       -14.9668
  25   2.0000      -0.537235       -14.6189
  26   2.0000      -0.492089       -13.3904
  27   2.0000      -0.473094       -12.8735
  28   2.0000      -0.454669       -12.3722
  29   2.0000      -0.450506       -12.2589
  30   2.0000      -0.448933       -12.2161
  31   2.0000      -0.398472       -10.8430
  32   2.0000      -0.396666       -10.7938
  33   0.0000       0.083515         2.2726
  34   0.0000       0.122725         3.3395
  35   0.0000       0.145791         3.9672
  36   0.0000       0.149345         4.0639
  37   0.0000       0.157344         4.2816

MULLIKEN ATOMIC CHARGES
-----------------------
   0 O :   -0.256700
   1 C :    0.025980
   2 C :    0.109190
   3 C :    0.019356
   4 C :   -0.406535
   5 C :   -0.023450
   6 C :   -0.251176
   7 C :   -0.203436
   8 C :   -0.233640
   9 H :    0.102592
  10 H :    0.152794
  11 H :    0.156569
  12 H :    0.107006
  13 H :    0.123226
  14 H :    0.112573
  15 H :    0.116037
  16 H :    0.118796
  17 H :    0.108792
  18 H :    0.122026
Sum of atomic charges:   -0.0000000

LOEWDIN ATOMIC CHARGES
----------------------
   0 O :    0.143716
   1 C :   -0.296870
   2 C :   -0.067645
   3 C :   -0.023877
   4 C :   -0.232795
   5 C :   -0.223368
   6 C :   -0.219513
   7 C :   -0.241732
   8 C :   -0.221072
   9 H :    0.122952
  10 H :    0.162676
  11 H :    0.164818
  12 H :    0.154213
  13 H :    0.125160
  14 H :    0.136914
  15 H :    0.133843
  16 H :    0.122949
  17 H :    0.135505
  18 H :    0.124124

  Mayer bond orders larger than 0.1
B(  0-O ,  1-C ) :   2.0182 B(  1-C ,  2-C ) :   0.8281 B(  1-C ,  9-H ) :   1.0118
B(  2-C ,  3-C ) :   2.7100 B(  2-C ,  4-C ) :  -0.1342 B(  2-C ,  9-H ) :  -0.1110
B(  3-C ,  4-C ) :   1.0361 B(  4-C ,  5-C ) :   0.9146 B(  4-C , 10-H ) :   0.9176
B(  4-C , 11-H ) :   0.9224 B(  5-C ,  6-C ) :   0.9311 B(  5-C ,  8-C ) :   0.9378
B(  5-C , 12-H ) :   0.9224 B(  6-C ,  7-C ) :   0.9340 B(  6-C , 13-H ) :   0.9301
B(  6-C , 14-H ) :   0.9219 B(  7-C ,  8-C ) :   0.9355 B(  7-C , 15-H ) :   0.9294
B(  7-C , 16-H ) :   0.9284 B(  8-C , 17-H ) :   0.9172 B(  8-C , 18-H ) :   0.9307

MP2 TOTAL ENERGY:     -385.164990422 Eh
FINAL SINGLE POINT ENERGY      -385.164990421666

DIPOLE MOMENT
-------------
                                X             Y             Z
Electronic contribution:     -7.93464     -11.85352      -1.74591
Nuclear contribution   :      8.60849      13.25958       1.72134
                        -----------------------------------------
Total Dipole Moment    :      0.67385       1.40606      -0.02457
                        -----------------------------------------
Magnitude (a.u.)       :      1.55939
Magnitude (Debye)      :      3.96365

                             ****ORCA TERMINATED NORMALLY****
TOTAL RUN TIME: 0 days 0 hours 15 minutes 16 seconds 567 msec
