                         Program Version 3.0.3 - RELEASE   -
|  1> ! RI-MP2 RIJK def2-TZVP def2-TZVP/C def2-TZVP/JK TIGHTSCF
|  2> % maxcore 2000
|  3> % mp2 density relaxed end
|  4> *xyz 0 1
|  5>  O       -0.1574164846     1.3648100136     0.0814128349
|  6>  N        0.0387439115    -0.0296574584    -0.0116527229
|  7>  C       -1.0636519536    -0.6418199225    -0.0856826310
|  8>  C       -2.5587514648    -0.3646138643    -0.0075959675
|  9>  O       -3.0038149434    -0.8983050436    -1.2686725166
| 10>  C       -2.6351088548    -2.2710687205    -1.0342249464
| 11>  C       -3.5556882083    -2.6586274959     0.1423561376
| 12>  C       -2.6609810370    -1.6688962126     0.9031844098
| 13>  C       -1.4264775801    -2.0898407340    -0.0108520091
| 14>  H        0.7480845585     1.6906717137     0.1209173537
| 15>  H       -3.0059486160     0.5987741618     0.2144062964
| 16>  H       -2.5626468248    -2.8203249188    -1.9704742649
| 17>  H       -4.6218926722    -2.4538770696     0.0240020375
| 18>  H       -3.3873567756    -3.6807729004     0.4909868657
| 19>  H       -2.5981868656    -1.5566216144     1.9826102799
| 20>  H       -0.7452959491    -2.9102122242     0.1928067228
| 21> *
| 22>
| 23>                          ****END OF INPUT****

CARTESIAN COORDINATES (ANGSTROEM)
---------------------------------
  O     -0.157416    1.364810    0.081413
  N      0.038744   -0.029657   -0.011653
  C     -1.063652   -0.641820   -0.085683
  C     -2.558751   -0.364614   -0.007596
  O     -3.003815   -0.898305   -1.268673
  C     -2.635109   -2.271069   -1.034225
  C     -3.555688   -2.658627    0.142356
  C     -2.660981   -1.668896    0.903184
  C     -1.426478   -2.089841   -0.010852
  H      0.748085    1.690672    0.120917
  H     -3.005949    0.598774    0.214406
  H     -2.562647   -2.820325   -1.970474
  H     -4.621893   -2.453877    0.024002
  H     -3.387357   -3.680773    0.490987
  H     -2.598187   -1.556622    1.982610
  H     -0.745296   -2.910212    0.192807

 Total Charge           Charge          ....    0
 Multiplicity           Mult            ....    1
 Number of Electrons    NEL             ....   66
 Basis Dimension        Dim             ....  321

ORBITAL ENERGIES
----------------

  NO   OCC          E(Eh)            E(eV)
   0   2.0000     -20.588820      -560.2503
   1   2.0000     -20.569225      -559.7171
   2   2.0000     -15.615093      -424.9083
   3   2.0000     -11.305384      -307.6351
   4   2.0000     -11.304613      -307.6141
   5   2.0000     -11.281443      -306.9837
   6   2.0000     -11.261826      -306.4499
   7   2.0000     -11.258843      -306.3687
   8   2.0000     -11.240245      -305.8626
   9   2.0000      -1.417745       -38.5788
  10   2.0000      -1.407068       -38.2883
  11   2.0000      -1.182423       -32.1754
  12   2.0000      -1.125678       -30.6313
  13   2.0000      -1.014431       -27.6041
  14   2.0000      -0.935227       -25.4488
  15   2.0000      -0.815571       -22.1928
  16   2.0000      -0.784377       -21.3440
  17   2.0000      -0.745567       -20.2879
  18   2.0000      -0.726072       -19.7574
  19   2.0000      -0.694058       -18.8863
  20   2.0000      -0.668426       -18.1888
  21   2.0000      -0.647299       -17.6139
  22   2.0000      -0.601303       -16.3623
  23   2.0000      -0.572772       -15.5859
  24   2.0000      -0.561447       -15.2778
  25   2.0000      -0.535929       -14.5834
  26   2.0000      -0.533699       -14.5227
  27   2.0000      -0.498057       -13.5528
  28   2.0000      -0.473587       -12.8870
  29   2.0000      -0.460650       -12.5349
  30   2.0000      -0.438628       -11.9357
  31   2.0000      -0.400390       -10.8952
  32   2.0000      -0.379445       -10.3252
  33   0.0000       0.137200         3.7334
  34   0.0000       0.150327         4.0906
  35   0.0000       0.153775         4.1844
  36   0.0000       0.166684         4.5357
  37   0.0000       0.185075         5.0361

MULLIKEN ATOMIC CHARGES
-----------------------
   0 O :   -0.359260
   1 N :   -0.075032
   2 C :   -0.074375
   3 C :    0.083283
   4 O :   -0.312519
   5 C :    0.039689
   6 C :   -0.227561
   7 C :   -0.141345
   8 C :   -0.089026
   9 H :    0.337012
  10 H :    0.148366
  11 H :    0.138306
  12 H :    0.126657
  13 H :    0.121173
  14 H :    0.143607
  15 H :    0.141024
Sum of atomic charges:   -0.0000000

LOEWDIN ATOMIC CHARGES
----------------------
   0 O :   -0.080057
   1 N :    0.030150
   2 C :   -0.254596
   3 C :   -0.194633
   4 O :    0.192309
   5 C :   -0.223723
   6 C :   -0.211342
   7 C :   -0.141293
   8 C :   -0.111082
   9 H :    0.168788
  10 H :    0.138315
  11 H :    0.131274
  12 H :    0.130193
  13 H :    0.144252
  14 H :    0.138271
  15 H :    0.143174

  Mayer bond orders larger than 0.1
B(  0-O ,  1-N ) :   0.7912 B(  0-O ,  9-H ) :   0.8431 B(  1-N ,  2-C ) :   1.9276
B(  2-C ,  3-C ) :   0.8813 B(  2-C ,  8-C ) :   0.9564 B(  3-C ,  4-O ) :   0.8963
B(  3-C ,  7-C ) :   0.8792 B(  3-C , 10-H ) :   0.8971 B(  4-O ,  5-C ) :   0.9127
B(  5-C ,  6-C ) :   0.9362 B(  5-C ,  8-C ) :   0.8666 B(  5-C , 11-H ) :   0.9112
B(  6-C ,  7-C ) :   0.9492 B(  6-C , 12-H ) :   0.9162 B(  6-C , 13-H ) :   0.9231
B(  7-C ,  8-C ) :   0.8512 B(  7-C , 14-H ) :   0.9075 B(  8-C , 15-H ) :   0.9034

MP2 TOTAL ENERGY:     -437.059957869 Eh
FINAL SINGLE POINT ENERGY      -437.059957868691

DIPOLE MOMENT
-------------
                                X             Y             Z
Electronic contribution:      2.84107       3.51366      -1.44782
Nuclear contribution   :     -2.90997      -4.07297       1.98597
                        -----------------------------------------
Total Dipole Moment    :     -0.06890      -0.55931       0.53815
                        -----------------------------------------
Magnitude (a.u.)       :      0.77922
Magnitude (Debye)      :      1.98061

                             ****ORCA TERMINATED NORMALLY****
TOTAL RUN TIME: 0 days 0 hours 15 minutes 33 seconds 511 msec
