                         Program Version 3.0.3 - RELEASE   -
|  1> ! RI-MP2 RIJK def2-TZVP def2-TZVP/C def2-TZVP/JK TIGHTSCF
|  2> % maxcore 2000
|  3> % mp2 density relaxed end
|  4> *xyz 0 1
|  5>  C        0.0658544313     1.5464950368     0.0155037998
|  6>  C        1.3518625977     0.7708339849    -0.0201911801
|  7>  C        0.0188719877     0.0356497357    -0.0164544218
|  8>  C       -0.4431651851    -0.6699084277     1.2489275025
|  9>  N       -0.2121551391    -2.1290385254     1.2289131052
| 10>  C       -1.3947578780    -2.9681214393     1.0222963146
| 11>  C       -0.3915765164    -2.7923762943    -0.0675912353
| 12>  C       -0.6462105993    -1.9658392453    -1.2723243617
| 13>  C       -0.4064555973    -0.6533020789    -1.2606188358
| 14>  H       -0.2119012376     2.0379422210     0.9427137771
| 15>  H       -0.2402314779     2.0805075939    -0.8783516987
| 16>  H        1.9276774504     0.7696753677    -0.9390069120
| 17>  H        1.9504260004     0.7207945553     0.8831726946
| 18>  H        0.0804640019    -0.2604309178     2.1210527664
| 19>  H       -1.5123845691    -0.4548362329     1.3885099255
| 20>  H       -1.4273405599    -3.8910480254     1.5961867247
| 21>  H       -2.3541088311    -2.4680342189     0.8996232241
| 22>  H        0.3076958207    -3.6136718519    -0.2312844805
| 23>  H       -0.9521272322    -2.4756519660    -2.1817665334
| 24>  H       -0.5167992271    -0.0569671517    -2.1631678952
| 25> *
| 26>
| 27>                          ****END OF INPUT****

CARTESIAN COORDINATES (ANGSTROEM)
---------------------------------
  C      0.065854    1.546495    0.015504
  C      1.351863    0.770834   -0.020191
  C      0.018872    0.035650   -0.016454
  C     -0.443165   -0.669908    1.248928
  N     -0.212155   -2.129039    1.228913
  C     -1.394758   -2.968121    1.022296
  C     -0.391577   -2.792376   -0.067591
  C     -0.646211   -1.965839   -1.272324
  C     -0.406456   -0.653302   -1.260619
  H     -0.211901    2.037942    0.942714
  H     -0.240231    2.080508   -0.878352
  H      1.927677    0.769675   -0.939007
  H      1.950426    0.720795    0.883173
  H      0.080464   -0.260431    2.121053
  H     -1.512385   -0.454836    1.388510
  H     -1.427341   -3.891048    1.596187
  H     -2.354109   -2.468034    0.899623
  H      0.307696   -3.613672   -0.231284
  H     -0.952127   -2.475652   -2.181767
  H     -0.516799   -0.056967   -2.163168

 Total Charge           Charge          ....    0
 Multiplicity           Mult            ....    1
 Number of Electrons    NEL             ....   66
 Basis Dimension        Dim             ....  345

ORBITAL ENERGIES
----------------

  NO   OCC          E(Eh)            E(eV)
   0   2.0000     -15.552651      -423.2092
   1   2.0000     -11.257331      -306.3275
   2   2.0000     -11.251198      -306.1607
   3   2.0000     -11.250059      -306.1297
   4   2.0000     -11.240517      -305.8700
   5   2.0000     -11.231730      -305.6309
   6   2.0000     -11.228782      -305.5507
   7   2.0000     -11.227216      -305.5081
   8   2.0000     -11.227191      -305.5074
   9   2.0000      -1.271461       -34.5982
  10   2.0000      -1.157418       -31.4950
  11   2.0000      -1.050641       -28.5894
  12   2.0000      -0.995619       -27.0922
  13   2.0000      -0.866628       -23.5821
  14   2.0000      -0.837139       -22.7797
  15   2.0000      -0.823520       -22.4091
  16   2.0000      -0.805604       -21.9216
  17   2.0000      -0.693639       -18.8749
  18   2.0000      -0.681332       -18.5400
  19   2.0000      -0.667000       -18.1500
  20   2.0000      -0.639908       -17.4128
  21   2.0000      -0.603384       -16.4189
  22   2.0000      -0.587315       -15.9817
  23   2.0000      -0.564787       -15.3686
  24   2.0000      -0.533725       -14.5234
  25   2.0000      -0.518443       -14.1075
  26   2.0000      -0.506382       -13.7793
  27   2.0000      -0.473851       -12.8941
  28   2.0000      -0.453169       -12.3313
  29   2.0000      -0.440094       -11.9756
  30   2.0000      -0.417951       -11.3730
  31   2.0000      -0.366914        -9.9842
  32   2.0000      -0.326773        -8.8919
  33   0.0000       0.143810         3.9133
  34   0.0000       0.152706         4.1553
  35   0.0000       0.163978         4.4621
  36   0.0000       0.172611         4.6970
  37   0.0000       0.177537         4.8310

MULLIKEN ATOMIC CHARGES
-----------------------
   0 C :   -0.311405
   1 C :   -0.295107
   2 C :    0.202288
   3 C :   -0.131144
   4 N :   -0.213245
   5 C :   -0.194843
   6 C :   -0.014393
   7 C :   -0.174147
   8 C :   -0.235244
   9 H :    0.130317
  10 H :    0.130187
  11 H :    0.133454
  12 H :    0.134164
  13 H :    0.112712
  14 H :    0.109767
  15 H :    0.122930
  16 H :    0.123308
  17 H :    0.125297
  18 H :    0.123192
  19 H :    0.121911
Sum of atomic charges:   -0.0000000

LOEWDIN ATOMIC CHARGES
----------------------
   0 C :   -0.202822
   1 C :   -0.195824
   2 C :   -0.233085
   3 C :   -0.226551
   4 N :    0.116272
   5 C :   -0.240257
   6 C :   -0.242840
   7 C :   -0.154081
   8 C :   -0.121997
   9 H :    0.135873
  10 H :    0.134058
  11 H :    0.134750
  12 H :    0.136022
  13 H :    0.137782
  14 H :    0.134379
  15 H :    0.123268
  16 H :    0.123615
  17 H :    0.148386
  18 H :    0.145475
  19 H :    0.147575

  Mayer bond orders larger than 0.1
B(  0-C ,  1-C ) :   0.9352 B(  0-C ,  2-C ) :   0.8351 B(  0-C ,  9-H ) :   0.9222
B(  0-C , 10-H ) :   0.9217 B(  1-C ,  2-C ) :   0.8173 B(  1-C , 11-H ) :   0.9290
B(  1-C , 12-H ) :   0.9204 B(  2-C ,  3-C ) :   0.9230 B(  2-C ,  8-C ) :   0.9404
B(  3-C ,  4-N ) :   0.9033 B(  3-C , 13-H ) :   0.9110 B(  3-C , 14-H ) :   0.9352
B(  4-N ,  5-C ) :   0.8918 B(  4-N ,  6-C ) :   0.9297 B(  5-C ,  6-C ) :   0.9228
B(  5-C , 15-H ) :   0.9223 B(  5-C , 16-H ) :   0.9156 B(  6-C ,  7-C ) :   0.9580
B(  6-C , 17-H ) :   0.9109 B(  7-C ,  8-C ) :   1.8064 B(  7-C , 18-H ) :   0.9283
B(  8-C , 19-H ) :   0.9193

MP2 TOTAL ENERGY:     -365.306606405 Eh
FINAL SINGLE POINT ENERGY      -365.306606405131

DIPOLE MOMENT
-------------
                                X             Y             Z
Electronic contribution:      0.08947      -2.65028      -0.41778
Nuclear contribution   :     -0.37229       2.89512       0.12407
                        -----------------------------------------
Total Dipole Moment    :     -0.28281       0.24484      -0.29371
                        -----------------------------------------
Magnitude (a.u.)       :      0.47560
Magnitude (Debye)      :      1.20888

                             ****ORCA TERMINATED NORMALLY****
TOTAL RUN TIME: 0 days 0 hours 19 minutes 31 seconds 516 msec
