                         Program Version 3.0.3 - RELEASE   -
|  1> ! RI-MP2 RIJK def2-TZVP def2-TZVP/C def2-TZVP/JK TIGHTSCF
|  2> % maxcore 2000
|  3> % mp2 density relaxed end
|  4> *xyz 0 1
|  5>  C        0.0982774033     1.5412186508     0.1836617624
|  6>  C       -0.0730675698     0.0332975921    -0.0489624898
|  7>  C        0.6756672006    -0.4780812382    -1.2601620730
|  8>  C        0.8670286602    -2.0099302818    -1.5676297361
|  9>  C        2.0806856801    -1.5452504401    -2.4394431275
| 10>  C        1.3677103746    -0.7379256158    -3.5454779724
| 11>  C        0.3264580260     0.0529079635    -2.6745846662
| 12>  C        2.2187348181    -0.4727726004    -1.3455862296
| 13>  O        3.1083133167     0.0063937076    -0.7035262641
| 14>  H        1.1568995747     1.7961150439     0.2852904513
| 15>  H       -0.3147378521     2.1275959078    -0.6433983363
| 16>  H       -0.4166822130     1.8523981511     1.0973591972
| 17>  H        0.2831684353    -0.5080513298     0.8362444372
| 18>  H       -1.1390808049    -0.2110890038    -0.1503943103
| 19>  H        1.1572040111    -2.5889921005    -0.6885988541
| 20>  H        0.0489087003    -2.4995559844    -2.1029482510
| 21>  H        2.8978587610    -2.2071391703    -2.7176441502
| 22>  H        2.0510048617    -0.0788520982    -4.0872532910
| 23>  H        0.8854030016    -1.3952308212    -4.2739744981
| 24>  H       -0.7076646702    -0.1859615598    -2.9411920430
| 25>  H        0.4518151348     1.1352668474    -2.7569540655
| 26> *
| 27>
| 28>                          ****END OF INPUT****

CARTESIAN COORDINATES (ANGSTROEM)
---------------------------------
  C      0.098277    1.541219    0.183662
  C     -0.073068    0.033298   -0.048962
  C      0.675667   -0.478081   -1.260162
  C      0.867029   -2.009930   -1.567630
  C      2.080686   -1.545250   -2.439443
  C      1.367710   -0.737926   -3.545478
  C      0.326458    0.052908   -2.674585
  C      2.218735   -0.472773   -1.345586
  O      3.108313    0.006394   -0.703526
  H      1.156900    1.796115    0.285290
  H     -0.314738    2.127596   -0.643398
  H     -0.416682    1.852398    1.097359
  H      0.283168   -0.508051    0.836244
  H     -1.139081   -0.211089   -0.150394
  H      1.157204   -2.588992   -0.688599
  H      0.048909   -2.499556   -2.102948
  H      2.897859   -2.207139   -2.717644
  H      2.051005   -0.078852   -4.087253
  H      0.885403   -1.395231   -4.273974
  H     -0.707665   -0.185962   -2.941192
  H      0.451815    1.135267   -2.756954

 Total Charge           Charge          ....    0
 Multiplicity           Mult            ....    1
 Number of Electrons    NEL             ....   68
 Basis Dimension        Dim             ....  351

ORBITAL ENERGIES
----------------

  NO   OCC          E(Eh)            E(eV)
   0   2.0000     -20.546602      -559.1015
   1   2.0000     -11.325999      -308.1961
   2   2.0000     -11.249330      -306.1098
   3   2.0000     -11.246325      -306.0280
   4   2.0000     -11.243371      -305.9477
   5   2.0000     -11.239976      -305.8553
   6   2.0000     -11.238063      -305.8032
   7   2.0000     -11.227867      -305.5258
   8   2.0000     -11.212576      -305.1097
   9   2.0000      -1.390614       -37.8405
  10   2.0000      -1.197366       -32.5820
  11   2.0000      -1.047672       -28.5086
  12   2.0000      -0.989461       -26.9246
  13   2.0000      -0.945070       -25.7167
  14   2.0000      -0.862024       -23.4569
  15   2.0000      -0.850686       -23.1483
  16   2.0000      -0.773981       -21.0611
  17   2.0000      -0.701350       -19.0847
  18   2.0000      -0.670331       -18.2406
  19   2.0000      -0.652559       -17.7570
  20   2.0000      -0.629272       -17.1234
  21   2.0000      -0.618524       -16.8309
  22   2.0000      -0.586895       -15.9702
  23   2.0000      -0.567333       -15.4379
  24   2.0000      -0.530145       -14.4260
  25   2.0000      -0.526210       -14.3189
  26   2.0000      -0.522141       -14.2082
  27   2.0000      -0.515871       -14.0376
  28   2.0000      -0.499065       -13.5803
  29   2.0000      -0.488671       -13.2974
  30   2.0000      -0.474550       -12.9132
  31   2.0000      -0.461594       -12.5606
  32   2.0000      -0.436367       -11.8742
  33   2.0000      -0.372800       -10.1444
  34   0.0000       0.132068         3.5938
  35   0.0000       0.143413         3.9025
  36   0.0000       0.153948         4.1891
  37   0.0000       0.165292         4.4978
  38   0.0000       0.174222         4.7408

MULLIKEN ATOMIC CHARGES
-----------------------
   0 C :   -0.429421
   1 C :   -0.175003
   2 C :    0.083158
   3 C :   -0.277617
   4 C :   -0.000362
   5 C :   -0.264048
   6 C :   -0.274186
   7 C :    0.049136
   8 O :   -0.258533
   9 H :    0.157135
  10 H :    0.123544
  11 H :    0.134749
  12 H :    0.113236
  13 H :    0.113450
  14 H :    0.133154
  15 H :    0.125994
  16 H :    0.138834
  17 H :    0.130056
  18 H :    0.122960
  19 H :    0.121487
  20 H :    0.132276
Sum of atomic charges:   -0.0000000

LOEWDIN ATOMIC CHARGES
----------------------
   0 C :   -0.309354
   1 C :   -0.251538
   2 C :   -0.213750
   3 C :   -0.159301
   4 C :   -0.174225
   5 C :   -0.215205
   6 C :   -0.192828
   7 C :   -0.260252
   8 O :    0.159471
   9 H :    0.128923
  10 H :    0.119101
  11 H :    0.121465
  12 H :    0.145391
  13 H :    0.141268
  14 H :    0.141765
  15 H :    0.135964
  16 H :    0.138372
  17 H :    0.136279
  18 H :    0.134774
  19 H :    0.136118
  20 H :    0.137561

  Mayer bond orders larger than 0.1
B(  0-C ,  1-C ) :   0.9156 B(  0-C ,  9-H ) :   0.9360 B(  0-C , 10-H ) :   0.9381
B(  0-C , 11-H ) :   0.9387 B(  1-C ,  2-C ) :   0.8871 B(  1-C , 12-H ) :   0.9287
B(  1-C , 13-H ) :   0.9349 B(  2-C ,  3-C ) :   0.8708 B(  2-C ,  4-C ) :  -0.1120
B(  2-C ,  6-C ) :   0.8959 B(  2-C ,  7-C ) :   0.8201 B(  3-C ,  4-C ) :   0.9015
B(  3-C , 14-H ) :   0.9172 B(  3-C , 15-H ) :   0.9140 B(  4-C ,  5-C ) :   0.8809
B(  4-C ,  7-C ) :   0.8810 B(  4-C , 16-H ) :   0.9061 B(  5-C ,  6-C ) :   0.9526
B(  5-C , 17-H ) :   0.9296 B(  5-C , 18-H ) :   0.9218 B(  6-C , 19-H ) :   0.9180
B(  6-C , 20-H ) :   0.9298 B(  7-C ,  8-O ) :   2.0491

MP2 TOTAL ENERGY:     -386.430202607 Eh
FINAL SINGLE POINT ENERGY      -386.430202606557

DIPOLE MOMENT
-------------
                                X             Y             Z
Electronic contribution:      6.45263      -1.99811      -0.03053
Nuclear contribution   :     -7.33292       1.59420      -0.50519
                        -----------------------------------------
Total Dipole Moment    :     -0.88029      -0.40391      -0.53572
                        -----------------------------------------
Magnitude (a.u.)       :      1.10682
Magnitude (Debye)      :      2.81331

                             ****ORCA TERMINATED NORMALLY****
TOTAL RUN TIME: 0 days 0 hours 21 minutes 20 seconds 413 msec
