                         Program Version 3.0.3 - RELEASE   -
|  1> ! RI-MP2 RIJK def2-TZVP def2-TZVP/C def2-TZVP/JK TIGHTSCF
|  2> % maxcore 2000
|  3> % mp2 density relaxed end
|  4> *xyz 0 1
|  5>  N        0.1098131194     0.6924324457     1.0343464184
|  6>  C        0.0934446120    -0.1148538186     0.0554030018
|  7>  C        1.2519801375    -0.5193822129    -0.8401795102
|  8>  O        1.4595592154    -1.9325928952    -0.8365996876
|  9>  C        0.2815287330    -2.6861137957    -0.6261379958
| 10>  C       -0.2955421899    -2.7605891692     0.8410461295
| 11>  C       -1.5270975537    -1.9894674575     0.3518546870
| 12>  C       -1.0188312180    -1.9976283830    -1.0656434934
| 13>  N       -1.1128551094    -0.7578851339    -0.3083702456
| 14>  H        1.0489536185     1.0712859233     1.1625602710
| 15>  H        1.0407971600    -0.1756132589    -1.8650753258
| 16>  H        2.1850665404    -0.0573781371    -0.5081507414
| 17>  H        0.4619402076    -3.6708717607    -1.0597769183
| 18>  H       -0.5232631341    -3.7906758053     1.1243660705
| 19>  H        0.2941344051    -2.2863911635     1.6290738971
| 20>  H       -2.5433359286    -2.0585551200     0.7179907450
| 21>  H       -1.5418711552    -2.0761667975    -2.0115085921
| 22> *
| 23>
| 24>                          ****END OF INPUT****

CARTESIAN COORDINATES (ANGSTROEM)
---------------------------------
  N      0.109813    0.692432    1.034346
  C      0.093445   -0.114854    0.055403
  C      1.251980   -0.519382   -0.840180
  O      1.459559   -1.932593   -0.836600
  C      0.281529   -2.686114   -0.626138
  C     -0.295542   -2.760589    0.841046
  C     -1.527098   -1.989467    0.351855
  C     -1.018831   -1.997628   -1.065643
  N     -1.112855   -0.757885   -0.308370
  H      1.048954    1.071286    1.162560
  H      1.040797   -0.175613   -1.865075
  H      2.185067   -0.057378   -0.508151
  H      0.461940   -3.670872   -1.059777
  H     -0.523263   -3.790676    1.124366
  H      0.294134   -2.286391    1.629074
  H     -2.543336   -2.058555    0.717991
  H     -1.541871   -2.076167   -2.011509

 Total Charge           Charge          ....    0
 Multiplicity           Mult            ....    1
 Number of Electrons    NEL             ....   66
 Basis Dimension        Dim             ....  327

ORBITAL ENERGIES
----------------

  NO   OCC          E(Eh)            E(eV)
   0   2.0000     -20.572884      -559.8166
   1   2.0000     -15.581713      -424.0000
   2   2.0000     -15.543594      -422.9627
   3   2.0000     -11.315233      -307.9031
   4   2.0000     -11.302201      -307.5485
   5   2.0000     -11.298383      -307.4446
   6   2.0000     -11.283403      -307.0370
   7   2.0000     -11.274212      -306.7869
   8   2.0000     -11.241395      -305.8939
   9   2.0000      -1.400342       -38.1052
  10   2.0000      -1.318360       -35.8744
  11   2.0000      -1.209914       -32.9234
  12   2.0000      -1.066471       -29.0202
  13   2.0000      -0.967109       -26.3164
  14   2.0000      -0.921723       -25.0814
  15   2.0000      -0.909723       -24.7548
  16   2.0000      -0.763014       -20.7627
  17   2.0000      -0.730583       -19.8802
  18   2.0000      -0.722981       -19.6733
  19   2.0000      -0.695434       -18.9237
  20   2.0000      -0.677351       -18.4316
  21   2.0000      -0.636353       -17.3160
  22   2.0000      -0.608507       -16.5583
  23   2.0000      -0.593223       -16.1424
  24   2.0000      -0.570660       -15.5285
  25   2.0000      -0.540073       -14.6961
  26   2.0000      -0.509741       -13.8708
  27   2.0000      -0.483310       -13.1515
  28   2.0000      -0.466917       -12.7054
  29   2.0000      -0.447434       -12.1753
  30   2.0000      -0.430657       -11.7188
  31   2.0000      -0.402711       -10.9583
  32   2.0000      -0.381274       -10.3750
  33   0.0000       0.138397         3.7660
  34   0.0000       0.145850         3.9688
  35   0.0000       0.153795         4.1850
  36   0.0000       0.168549         4.5865
  37   0.0000       0.176009         4.7895

MULLIKEN ATOMIC CHARGES
-----------------------
   0 N :   -0.305162
   1 C :   -0.022549
   2 C :   -0.019327
   3 O :   -0.306111
   4 C :    0.067470
   5 C :   -0.220445
   6 C :   -0.081594
   7 C :   -0.078665
   8 N :   -0.146677
   9 H :    0.216220
  10 H :    0.114607
  11 H :    0.112883
  12 H :    0.123200
  13 H :    0.127680
  14 H :    0.126270
  15 H :    0.145080
  16 H :    0.147118
Sum of atomic charges:   -0.0000000

LOEWDIN ATOMIC CHARGES
----------------------
   0 N :   -0.026622
   1 C :   -0.363258
   2 C :   -0.272389
   3 O :    0.171481
   4 C :   -0.271607
   5 C :   -0.196900
   6 C :   -0.188083
   7 C :   -0.186620
   8 N :    0.209270
   9 H :    0.166224
  10 H :    0.135643
  11 H :    0.133284
  12 H :    0.142907
  13 H :    0.139736
  14 H :    0.135401
  15 H :    0.136815
  16 H :    0.134718

  Mayer bond orders larger than 0.1
B(  0-N ,  1-C ) :   2.0394 B(  0-N ,  9-H ) :   0.8530 B(  1-C ,  2-C ) :   0.9623
B(  1-C ,  8-N ) :   0.9931 B(  2-C ,  3-O ) :   0.9457 B(  2-C , 10-H ) :   0.9123
B(  2-C , 11-H ) :   0.9141 B(  3-O ,  4-C ) :   0.9531 B(  4-C ,  5-C ) :   0.9372
B(  4-C ,  7-C ) :   0.8679 B(  4-C , 12-H ) :   0.9334 B(  5-C ,  6-C ) :   0.9437
B(  5-C , 13-H ) :   0.9115 B(  5-C , 14-H ) :   0.9032 B(  6-C ,  7-C ) :   0.8199
B(  6-C ,  8-N ) :   0.9117 B(  6-C , 15-H ) :   0.9268 B(  7-C ,  8-N ) :   0.8727
B(  7-C , 16-H ) :   0.9210

MP2 TOTAL ENERGY:     -417.252312040 Eh
FINAL SINGLE POINT ENERGY      -417.252312040426

DIPOLE MOMENT
-------------
                                X             Y             Z
Electronic contribution:     -0.48645       1.47628      -0.81176
Nuclear contribution   :      0.70720      -2.20169       0.41122
                        -----------------------------------------
Total Dipole Moment    :      0.22074      -0.72541      -0.40054
                        -----------------------------------------
Magnitude (a.u.)       :      0.85754
Magnitude (Debye)      :      2.17970

                             ****ORCA TERMINATED NORMALLY****
TOTAL RUN TIME: 0 days 0 hours 18 minutes 2 seconds 256 msec
