                         Program Version 3.0.3 - RELEASE   -
|  1> ! RI-MP2 RIJK def2-TZVP def2-TZVP/C def2-TZVP/JK TIGHTSCF
|  2> % maxcore 2000
|  3> % mp2 density relaxed end
|  4> *xyz 0 1
|  5>  C        0.0001217600     1.5552435492     0.1342188594
|  6>  C        1.5108989612     1.8025879219     0.0112679396
|  7>  O        2.0275753541     0.8180773168     0.9664764004
|  8>  C        1.5967043602    -0.1461353205    -0.0268934065
|  9>  C        1.9665261724     0.8629789641    -1.1424619424
| 10>  C        1.1775278598     0.7643747010    -2.4541435523
| 11>  C        0.2373101246    -0.4474927937    -2.3807123789
| 12>  O       -0.5743203878    -0.4696299369    -1.2144083132
| 13>  C        0.0488592641    -0.0021450288    -0.0244712953
| 14>  H       -0.3635390404     1.8709209756     1.1140269361
| 15>  H       -0.6141346688     2.0164324703    -0.6421410434
| 16>  H        1.9067772927     2.8084302497     0.1504350551
| 17>  H        2.0364359150    -1.1370899486     0.0819511778
| 18>  H        3.0480831469     0.9219075271    -1.2695320662
| 19>  H        0.6061281607     1.6805000745    -2.6404814944
| 20>  H        1.8492129210     0.6323972674    -3.3083742179
| 21>  H       -0.4529493439    -0.4700139701    -3.2292731249
| 22>  H        0.8471836704    -1.3645791691    -2.4287637328
| 23>  H       -0.4325259423    -0.5279175300     0.8018424396
| 24> *
| 25>
| 26>                          ****END OF INPUT****

CARTESIAN COORDINATES (ANGSTROEM)
---------------------------------
  C      0.000122    1.555244    0.134219
  C      1.510899    1.802588    0.011268
  O      2.027575    0.818077    0.966476
  C      1.596704   -0.146135   -0.026893
  C      1.966526    0.862979   -1.142462
  C      1.177528    0.764375   -2.454144
  C      0.237310   -0.447493   -2.380712
  O     -0.574320   -0.469630   -1.214408
  C      0.048859   -0.002145   -0.024471
  H     -0.363539    1.870921    1.114027
  H     -0.614135    2.016432   -0.642141
  H      1.906777    2.808430    0.150435
  H      2.036436   -1.137090    0.081951
  H      3.048083    0.921908   -1.269532
  H      0.606128    1.680500   -2.640481
  H      1.849213    0.632397   -3.308374
  H     -0.452949   -0.470014   -3.229273
  H      0.847184   -1.364579   -2.428764
  H     -0.432526   -0.527918    0.801842

 Total Charge           Charge          ....    0
 Multiplicity           Mult            ....    1
 Number of Electrons    NEL             ....   68
 Basis Dimension        Dim             ....  339

ORBITAL ENERGIES
----------------

  NO   OCC          E(Eh)            E(eV)
   0   2.0000     -20.553933      -559.3009
   1   2.0000     -20.551873      -559.2449
   2   2.0000     -11.288946      -307.1878
   3   2.0000     -11.285921      -307.1055
   4   2.0000     -11.282249      -307.0056
   5   2.0000     -11.279685      -306.9358
   6   2.0000     -11.240180      -305.8608
   7   2.0000     -11.233535      -305.6800
   8   2.0000     -11.222973      -305.3926
   9   2.0000      -1.398942       -38.0672
  10   2.0000      -1.368519       -37.2393
  11   2.0000      -1.086363       -29.5614
  12   2.0000      -1.046560       -28.4783
  13   2.0000      -0.963202       -26.2101
  14   2.0000      -0.924894       -25.1677
  15   2.0000      -0.864984       -23.5374
  16   2.0000      -0.775822       -21.1112
  17   2.0000      -0.725056       -19.7298
  18   2.0000      -0.721413       -19.6306
  19   2.0000      -0.673505       -18.3270
  20   2.0000      -0.656729       -17.8705
  21   2.0000      -0.630930       -17.1685
  22   2.0000      -0.600139       -16.3306
  23   2.0000      -0.578877       -15.7520
  24   2.0000      -0.561290       -15.2735
  25   2.0000      -0.549529       -14.9534
  26   2.0000      -0.529154       -14.3990
  27   2.0000      -0.510016       -13.8782
  28   2.0000      -0.498169       -13.5559
  29   2.0000      -0.482310       -13.1243
  30   2.0000      -0.458922       -12.4879
  31   2.0000      -0.438692       -11.9374
  32   2.0000      -0.417214       -11.3530
  33   2.0000      -0.394369       -10.7313
  34   0.0000       0.135604         3.6900
  35   0.0000       0.157796         4.2938
  36   0.0000       0.164579         4.4784
  37   0.0000       0.172515         4.6944
  38   0.0000       0.188832         5.1384

MULLIKEN ATOMIC CHARGES
-----------------------
   0 C :   -0.265604
   1 C :   -0.014897
   2 O :   -0.315092
   3 C :   -0.028148
   4 C :   -0.048876
   5 C :   -0.266724
   6 C :   -0.061887
   7 O :   -0.320478
   8 C :    0.124166
   9 H :    0.122209
  10 H :    0.124275
  11 H :    0.128089
  12 H :    0.128378
  13 H :    0.120529
  14 H :    0.117699
  15 H :    0.128461
  16 H :    0.121539
  17 H :    0.092903
  18 H :    0.113457
Sum of atomic charges:   -0.0000000

LOEWDIN ATOMIC CHARGES
----------------------
   0 C :   -0.214093
   1 C :   -0.234591
   2 O :    0.163603
   3 C :   -0.234389
   4 C :   -0.190102
   5 C :   -0.246718
   6 C :   -0.310398
   7 O :    0.166089
   8 C :   -0.267679
   9 H :    0.138935
  10 H :    0.137775
  11 H :    0.130314
  12 H :    0.132386
  13 H :    0.153438
  14 H :    0.141043
  15 H :    0.143076
  16 H :    0.128870
  17 H :    0.122220
  18 H :    0.140220

  Mayer bond orders larger than 0.1
B(  0-C ,  1-C ) :   0.9609 B(  0-C ,  8-C ) :   0.8954 B(  0-C ,  9-H ) :   0.9134
B(  0-C , 10-H ) :   0.9258 B(  1-C ,  2-O ) :   0.8967 B(  1-C ,  4-C ) :   0.9333
B(  1-C , 11-H ) :   0.9116 B(  2-O ,  3-C ) :   0.9532 B(  3-C ,  4-C ) :   0.9411
B(  3-C ,  8-C ) :   0.8968 B(  3-C , 12-H ) :   0.9139 B(  4-C ,  5-C ) :   0.9035
B(  4-C , 13-H ) :   0.9149 B(  5-C ,  6-C ) :   0.9497 B(  5-C , 14-H ) :   0.9157
B(  5-C , 15-H ) :   0.9206 B(  6-C ,  7-O ) :   0.9523 B(  6-C , 16-H ) :   0.9251
B(  6-C , 17-H ) :   0.9280 B(  7-O ,  8-C ) :   0.9487 B(  8-C , 18-H ) :   0.9311

MP2 TOTAL ENERGY:     -422.305808511 Eh
FINAL SINGLE POINT ENERGY      -422.305808511366

DIPOLE MOMENT
-------------
                                X             Y             Z
Electronic contribution:      0.50522      -0.96958       3.51698
Nuclear contribution   :     -0.29580       1.20599      -4.24851
                        -----------------------------------------
Total Dipole Moment    :      0.20942       0.23641      -0.73153
                        -----------------------------------------
Magnitude (a.u.)       :      0.79680
Magnitude (Debye)      :      2.02530

                             ****ORCA TERMINATED NORMALLY****
TOTAL RUN TIME: 0 days 0 hours 18 minutes 44 seconds 7 msec
