                         Program Version 3.0.3 - RELEASE   -
|  1> ! RI-MP2 RIJK def2-TZVP def2-TZVP/C def2-TZVP/JK TIGHTSCF
|  2> % maxcore 2000
|  3> % mp2 density relaxed end
|  4> *xyz 0 1
|  5>  O        0.0995842311     1.3925021034    -0.0143258713
|  6>  C        0.0460083726    -0.0003330513     0.2018830410
|  7>  C       -1.3804519848    -0.5288448352     0.0298989697
|  8>  O       -1.8886682144    -0.0717226285    -1.2329459418
|  9>  C       -1.4855702904    -2.0448364536     0.1836254486
| 10>  C       -2.9228264909    -2.5755132758     0.0912455265
| 11>  C       -3.0063618423    -4.0828598485     0.1997129167
| 12>  C       -3.0349456096    -4.7524829024     1.5521025503
| 13>  C       -4.2685978990    -4.7496438869     0.6813631793
| 14>  H       -0.4953154750     1.5538005685    -0.7588405506
| 15>  H        0.7149797302    -0.5432740126    -0.4926782549
| 16>  H        0.4065214041    -0.1937635249     1.2183767672
| 17>  H       -2.0215292488    -0.0320765637     0.7686271985
| 18>  H       -1.4418995366    -0.5757860490    -1.9242076226
| 19>  H       -0.8633355452    -2.5239280780    -0.5880957953
| 20>  H       -1.0457669703    -2.3346252585     1.1465003160
| 21>  H       -3.5256365028    -2.1221796895     0.8896878203
| 22>  H       -3.3686850164    -2.2391782931    -0.8522732912
| 23>  H       -2.4598252176    -4.6168164568    -0.5749718239
| 24>  H       -2.4988119527    -5.6857392315     1.6846755372
| 25>  H       -3.0372911512    -4.1154641924     2.4312545547
| 26>  H       -5.0952675028    -4.1119198368     0.9777882324
| 27>  H       -4.5735799971    -5.6805924329     0.2162684032
| 28> *
| 29>
| 30>                          ****END OF INPUT****

CARTESIAN COORDINATES (ANGSTROEM)
---------------------------------
  O      0.099584    1.392502   -0.014326
  C      0.046008   -0.000333    0.201883
  C     -1.380452   -0.528845    0.029899
  O     -1.888668   -0.071723   -1.232946
  C     -1.485570   -2.044836    0.183625
  C     -2.922826   -2.575513    0.091246
  C     -3.006362   -4.082860    0.199713
  C     -3.034946   -4.752483    1.552103
  C     -4.268598   -4.749644    0.681363
  H     -0.495315    1.553801   -0.758841
  H      0.714980   -0.543274   -0.492678
  H      0.406521   -0.193764    1.218377
  H     -2.021529   -0.032077    0.768627
  H     -1.441900   -0.575786   -1.924208
  H     -0.863336   -2.523928   -0.588096
  H     -1.045767   -2.334625    1.146500
  H     -3.525637   -2.122180    0.889688
  H     -3.368685   -2.239178   -0.852273
  H     -2.459825   -4.616816   -0.574972
  H     -2.498812   -5.685739    1.684676
  H     -3.037291   -4.115464    2.431255
  H     -5.095268   -4.111920    0.977788
  H     -4.573580   -5.680592    0.216268

 Total Charge           Charge          ....    0
 Multiplicity           Mult            ....    1
 Number of Electrons    NEL             ....   72
 Basis Dimension        Dim             ....  363

ORBITAL ENERGIES
----------------

  NO   OCC          E(Eh)            E(eV)
   0   2.0000     -20.568252      -559.6906
   1   2.0000     -20.547469      -559.1251
   2   2.0000     -11.284600      -307.0696
   3   2.0000     -11.274186      -306.7862
   4   2.0000     -11.232804      -305.6601
   5   2.0000     -11.231776      -305.6322
   6   2.0000     -11.226993      -305.5020
   7   2.0000     -11.225553      -305.4628
   8   2.0000     -11.224818      -305.4428
   9   2.0000      -1.380752       -37.5722
  10   2.0000      -1.346575       -36.6422
  11   2.0000      -1.147426       -31.2230
  12   2.0000      -1.063637       -28.9430
  13   2.0000      -0.980051       -26.6685
  14   2.0000      -0.880751       -23.9665
  15   2.0000      -0.827360       -22.5136
  16   2.0000      -0.819533       -22.3006
  17   2.0000      -0.777748       -21.1636
  18   2.0000      -0.701228       -19.0814
  19   2.0000      -0.674149       -18.3445
  20   2.0000      -0.662390       -18.0246
  21   2.0000      -0.651988       -17.7415
  22   2.0000      -0.628350       -17.0983
  23   2.0000      -0.610800       -16.6207
  24   2.0000      -0.593057       -16.1379
  25   2.0000      -0.567791       -15.4504
  26   2.0000      -0.540682       -14.7127
  27   2.0000      -0.520318       -14.1586
  28   2.0000      -0.514324       -13.9955
  29   2.0000      -0.505316       -13.7504
  30   2.0000      -0.494811       -13.4645
  31   2.0000      -0.477999       -13.0070
  32   2.0000      -0.463140       -12.6027
  33   2.0000      -0.434883       -11.8338
  34   2.0000      -0.415306       -11.3010
  35   2.0000      -0.402007       -10.9392
  36   0.0000       0.125161         3.4058
  37   0.0000       0.146213         3.9787
  38   0.0000       0.156178         4.2498
  39   0.0000       0.159597         4.3428
  40   0.0000       0.180425         4.9096

MULLIKEN ATOMIC CHARGES
-----------------------
   0 O :   -0.477654
   1 C :    0.019522
   2 C :    0.067902
   3 O :   -0.494077
   4 C :   -0.334635
   5 C :   -0.212892
   6 C :   -0.061059
   7 C :   -0.279683
   8 C :   -0.260826
   9 H :    0.327741
  10 H :    0.078165
  11 H :    0.107072
  12 H :    0.095841
  13 H :    0.317755
  14 H :    0.113575
  15 H :    0.125594
  16 H :    0.112997
  17 H :    0.127123
  18 H :    0.114693
  19 H :    0.128913
  20 H :    0.125519
  21 H :    0.129099
  22 H :    0.129315
Sum of atomic charges:    0.0000000

LOEWDIN ATOMIC CHARGES
----------------------
   0 O :   -0.048424
   1 C :   -0.345718
   2 C :   -0.356721
   3 O :   -0.031800
   4 C :   -0.254545
   5 C :   -0.248586
   6 C :   -0.236202
   7 C :   -0.233794
   8 C :   -0.230974
   9 H :    0.176002
  10 H :    0.114400
  11 H :    0.129600
  12 H :    0.147872
  13 H :    0.176015
  14 H :    0.138302
  15 H :    0.147597
  16 H :    0.144052
  17 H :    0.143189
  18 H :    0.146222
  19 H :    0.129496
  20 H :    0.131537
  21 H :    0.132333
  22 H :    0.130146

  Mayer bond orders larger than 0.1
B(  0-O ,  1-C ) :   0.9484 B(  0-O ,  9-H ) :   0.8234 B(  1-C ,  2-C ) :   0.9723
B(  1-C , 10-H ) :   0.8990 B(  1-C , 11-H ) :   0.9297 B(  2-C ,  3-O ) :   0.8437
B(  2-C ,  4-C ) :   0.9492 B(  2-C , 12-H ) :   0.9186 B(  3-O , 13-H ) :   0.8387
B(  4-C ,  5-C ) :   0.9120 B(  4-C , 14-H ) :   0.9187 B(  4-C , 15-H ) :   0.9328
B(  5-C ,  6-C ) :   0.9031 B(  5-C , 16-H ) :   0.9323 B(  5-C , 17-H ) :   0.9305
B(  6-C ,  7-C ) :   0.8883 B(  6-C ,  8-C ) :   0.8934 B(  6-C , 18-H ) :   0.9275
B(  7-C ,  8-C ) :   0.9002 B(  7-C , 19-H ) :   0.9296 B(  7-C , 20-H ) :   0.9291
B(  8-C , 21-H ) :   0.9309 B(  8-C , 22-H ) :   0.9330

MP2 TOTAL ENERGY:     -424.710124233 Eh
FINAL SINGLE POINT ENERGY      -424.710124233190

DIPOLE MOMENT
-------------
                                X             Y             Z
Electronic contribution:      2.07759       6.15364      -2.15280
Nuclear contribution   :     -2.14264      -7.14547       1.89273
                        -----------------------------------------
Total Dipole Moment    :     -0.06505      -0.99183      -0.26007
                        -----------------------------------------
Magnitude (a.u.)       :      1.02742
Magnitude (Debye)      :      2.61150

                             ****ORCA TERMINATED NORMALLY****
TOTAL RUN TIME: 0 days 0 hours 15 minutes 54 seconds 333 msec
