                         Program Version 3.0.3 - RELEASE   -
|  1> ! RI-MP2 RIJK def2-TZVP def2-TZVP/C def2-TZVP/JK TIGHTSCF
|  2> % maxcore 2000
|  3> % mp2 density relaxed end
|  4> *xyz 0 1
|  5>  O       -0.1216726263    -0.0766004061     0.3424284974
|  6>  C       -0.0656451823     1.1080692642     0.0914006344
|  7>  N        1.0715350150     1.8131600735    -0.1674251633
|  8>  C        2.3815767586     1.2159896268    -0.1734781549
|  9>  C        3.3981932322     1.5439046036    -1.3130806737
| 10>  C        3.6102961577     2.9414653726    -0.6540353060
| 11>  C        3.5812178747     1.9269516652     0.5302128492
| 12>  C        4.4944320848     1.0178895690    -0.3420854523
| 13>  H       -0.9633554357     1.7571276646     0.0459258500
| 14>  H        0.9711001687     2.7962413820    -0.3611423148
| 15>  H        2.2483017458     0.1598656195     0.0591727237
| 16>  H        3.2908360318     1.3197248902    -2.3750249285
| 17>  H        4.5703993007     3.4259338116    -0.8500312439
| 18>  H        2.8027291674     3.6754479806    -0.7264071742
| 19>  H        3.6849131759     2.1444879307     1.5939046316
| 20>  H        4.4864865095    -0.0520944436    -0.1189441882
| 21>  H        5.5065087314     1.3872547357    -0.5193294865
| 22> *
| 23>
| 24>                          ****END OF INPUT****

CARTESIAN COORDINATES (ANGSTROEM)
---------------------------------
  O     -0.121673   -0.076600    0.342428
  C     -0.065645    1.108069    0.091401
  N      1.071535    1.813160   -0.167425
  C      2.381577    1.215990   -0.173478
  C      3.398193    1.543905   -1.313081
  C      3.610296    2.941465   -0.654035
  C      3.581218    1.926952    0.530213
  C      4.494432    1.017890   -0.342085
  H     -0.963355    1.757128    0.045926
  H      0.971100    2.796241   -0.361142
  H      2.248302    0.159866    0.059173
  H      3.290836    1.319725   -2.375025
  H      4.570399    3.425934   -0.850031
  H      2.802729    3.675448   -0.726407
  H      3.684913    2.144488    1.593905
  H      4.486487   -0.052094   -0.118944
  H      5.506509    1.387255   -0.519329

 Total Charge           Charge          ....    0
 Multiplicity           Mult            ....    1
 Number of Electrons    NEL             ....   60
 Basis Dimension        Dim             ....  302

ORBITAL ENERGIES
----------------

  NO   OCC          E(Eh)            E(eV)
   0   2.0000     -20.521064      -558.4065
   1   2.0000     -15.589204      -424.2038
   2   2.0000     -11.348835      -308.8175
   3   2.0000     -11.276715      -306.8550
   4   2.0000     -11.252061      -306.1841
   5   2.0000     -11.252003      -306.1826
   6   2.0000     -11.241946      -305.9089
   7   2.0000     -11.237302      -305.7825
   8   2.0000      -1.382007       -37.6063
   9   2.0000      -1.256317       -34.1861
  10   2.0000      -1.193053       -32.4646
  11   2.0000      -0.932127       -25.3645
  12   2.0000      -0.917483       -24.9660
  13   2.0000      -0.866102       -23.5678
  14   2.0000      -0.813224       -22.1289
  15   2.0000      -0.772146       -21.0112
  16   2.0000      -0.707786       -19.2598
  17   2.0000      -0.682649       -18.5758
  18   2.0000      -0.656987       -17.8775
  19   2.0000      -0.624098       -16.9826
  20   2.0000      -0.594126       -16.1670
  21   2.0000      -0.585947       -15.9444
  22   2.0000      -0.532759       -14.4971
  23   2.0000      -0.491726       -13.3805
  24   2.0000      -0.475305       -12.9337
  25   2.0000      -0.468159       -12.7392
  26   2.0000      -0.462187       -12.5767
  27   2.0000      -0.452784       -12.3209
  28   2.0000      -0.427881       -11.6432
  29   2.0000      -0.378163       -10.2903
  30   0.0000       0.129747         3.5306
  31   0.0000       0.154435         4.2024
  32   0.0000       0.162925         4.4334
  33   0.0000       0.174614         4.7515
  34   0.0000       0.179599         4.8871

MULLIKEN ATOMIC CHARGES
-----------------------
   0 O :   -0.361910
   1 C :    0.184217
   2 N :   -0.322736
   3 C :   -0.034127
   4 C :   -0.086772
   5 C :   -0.239586
   6 C :   -0.086792
   7 C :   -0.236157
   8 H :    0.077103
   9 H :    0.231448
  10 H :    0.145918
  11 H :    0.137202
  12 H :    0.116859
  13 H :    0.096379
  14 H :    0.137194
  15 H :    0.121753
  16 H :    0.120007
Sum of atomic charges:   -0.0000000

LOEWDIN ATOMIC CHARGES
----------------------
   0 O :    0.056023
   1 C :   -0.433759
   2 N :    0.106487
   3 C :   -0.211061
   4 C :   -0.166949
   5 C :   -0.202726
   6 C :   -0.166948
   7 C :   -0.193952
   8 H :    0.108941
   9 H :    0.185054
  10 H :    0.157752
  11 H :    0.125635
  12 H :    0.130172
  13 H :    0.117491
  14 H :    0.125633
  15 H :    0.131162
  16 H :    0.131046

  Mayer bond orders larger than 0.1
B(  0-O ,  1-C ) :   1.8895 B(  1-C ,  2-N ) :   1.1566 B(  1-C ,  8-H ) :   0.9301
B(  2-N ,  3-C ) :   0.8186 B(  2-N ,  9-H ) :   0.8685 B(  3-C ,  4-C ) :   0.8594
B(  3-C ,  6-C ) :   0.8594 B(  3-C , 10-H ) :   0.9441 B(  4-C ,  5-C ) :   0.8924
B(  4-C ,  7-C ) :   0.9006 B(  4-C , 11-H ) :   0.8972 B(  5-C ,  6-C ) :   0.8924
B(  5-C , 12-H ) :   0.9244 B(  5-C , 13-H ) :   0.9374 B(  6-C ,  7-C ) :   0.9006
B(  6-C , 14-H ) :   0.8972 B(  7-C , 15-H ) :   0.9311 B(  7-C , 16-H ) :   0.9258

MP2 TOTAL ENERGY:     -363.215714726 Eh
FINAL SINGLE POINT ENERGY      -363.215714725831

DIPOLE MOMENT
-------------
                                X             Y             Z
Electronic contribution:     -5.31804      -2.25776       0.99588
Nuclear contribution   :      6.00595       3.55777      -1.33343
                        -----------------------------------------
Total Dipole Moment    :      0.68791       1.30002      -0.33756
                        -----------------------------------------
Magnitude (a.u.)       :      1.50904
Magnitude (Debye)      :      3.83567

                             ****ORCA TERMINATED NORMALLY****
TOTAL RUN TIME: 0 days 0 hours 11 minutes 40 seconds 986 msec
