                         Program Version 3.0.3 - RELEASE   -
|  1> ! RI-MP2 RIJK def2-TZVP def2-TZVP/C def2-TZVP/JK TIGHTSCF
|  2> % maxcore 2000
|  3> % mp2 density relaxed end
|  4> *xyz 0 1
|  5>  C       -0.1758968381     1.6038537013     0.1511777062
|  6>  C       -0.1007401298     0.0883627513    -0.0709866409
|  7>  C        0.7055399065    -0.4106768168    -1.3125200050
|  8>  C       -0.0127712859    -0.0041754208    -2.6126612826
|  9>  C        2.0717236785     0.2585361974    -1.2851324936
| 10>  O        3.0794433841    -0.2132616315    -0.8076098189
| 11>  C        0.8470897726    -1.9628430958    -1.2004176965
| 12>  C        1.5428723847    -2.6262607342    -2.3957794762
| 13>  O        1.4732627162    -2.3390731431     0.0160104482
| 14>  H        0.8069640380     2.0409421620     0.3559165232
| 15>  H       -0.6068298325     2.1350110598    -0.7035590986
| 16>  H       -0.8089782526     1.8184811359     1.0174126874
| 17>  H        0.3321510948    -0.3930289799     0.8092254362
| 18>  H       -1.1170746322    -0.3124460865    -0.1770374341
| 19>  H       -0.1980639599     1.0734776713    -2.6460599869
| 20>  H        0.5652961764    -0.2644223705    -3.5035527296
| 21>  H       -0.9815196632    -0.5095502777    -2.6812585263
| 22>  H        2.1074665685     1.2718483792    -1.7444069805
| 23>  H       -0.1735718447    -2.3624693054    -1.1318798428
| 24>  H        2.5463106666    -2.2178575474    -2.5511662269
| 25>  H        1.6428419207    -3.6950554615    -2.1900223790
| 26>  H        0.9737827144    -2.5108180337    -3.3226494084
| 27>  H        2.3460496969    -1.9206327835     0.0018719154
| 28> *
| 29>
| 30>                          ****END OF INPUT****

CARTESIAN COORDINATES (ANGSTROEM)
---------------------------------
  C     -0.175897    1.603854    0.151178
  C     -0.100740    0.088363   -0.070987
  C      0.705540   -0.410677   -1.312520
  C     -0.012771   -0.004175   -2.612661
  C      2.071724    0.258536   -1.285132
  O      3.079443   -0.213262   -0.807610
  C      0.847090   -1.962843   -1.200418
  C      1.542872   -2.626261   -2.395779
  O      1.473263   -2.339073    0.016010
  H      0.806964    2.040942    0.355917
  H     -0.606830    2.135011   -0.703559
  H     -0.808978    1.818481    1.017413
  H      0.332151   -0.393029    0.809225
  H     -1.117075   -0.312446   -0.177037
  H     -0.198064    1.073478   -2.646060
  H      0.565296   -0.264422   -3.503553
  H     -0.981520   -0.509550   -2.681259
  H      2.107467    1.271848   -1.744407
  H     -0.173572   -2.362469   -1.131880
  H      2.546311   -2.217858   -2.551166
  H      1.642842   -3.695055   -2.190022
  H      0.973783   -2.510818   -3.322649
  H      2.346050   -1.920633    0.001872

 Total Charge           Charge          ....    0
 Multiplicity           Mult            ....    1
 Number of Electrons    NEL             ....   72
 Basis Dimension        Dim             ....  363

ORBITAL ENERGIES
----------------

  NO   OCC          E(Eh)            E(eV)
   0   2.0000     -20.568485      -559.6969
   1   2.0000     -20.538933      -558.8928
   2   2.0000     -11.341247      -308.6110
   3   2.0000     -11.283854      -307.0493
   4   2.0000     -11.255677      -306.2825
   5   2.0000     -11.235699      -305.7389
   6   2.0000     -11.234206      -305.6983
   7   2.0000     -11.226508      -305.4888
   8   2.0000     -11.214655      -305.1663
   9   2.0000      -1.409020       -38.3414
  10   2.0000      -1.350431       -36.7471
  11   2.0000      -1.117941       -30.4207
  12   2.0000      -1.020046       -27.7569
  13   2.0000      -0.982274       -26.7290
  14   2.0000      -0.915276       -24.9059
  15   2.0000      -0.868562       -23.6348
  16   2.0000      -0.831106       -22.6155
  17   2.0000      -0.767129       -20.8746
  18   2.0000      -0.678739       -18.4694
  19   2.0000      -0.660328       -17.9684
  20   2.0000      -0.644773       -17.5452
  21   2.0000      -0.630664       -17.1612
  22   2.0000      -0.610997       -16.6261
  23   2.0000      -0.604120       -16.4390
  24   2.0000      -0.578294       -15.7362
  25   2.0000      -0.564884       -15.3713
  26   2.0000      -0.552284       -15.0284
  27   2.0000      -0.542437       -14.7604
  28   2.0000      -0.534347       -14.5403
  29   2.0000      -0.521747       -14.1975
  30   2.0000      -0.508555       -13.8385
  31   2.0000      -0.504933       -13.7399
  32   2.0000      -0.478574       -13.0227
  33   2.0000      -0.464791       -12.6476
  34   2.0000      -0.425419       -11.5762
  35   2.0000      -0.410181       -11.1616
  36   0.0000       0.118081         3.2132
  37   0.0000       0.126549         3.4436
  38   0.0000       0.156174         4.2497
  39   0.0000       0.166483         4.5302
  40   0.0000       0.173589         4.7236

MULLIKEN ATOMIC CHARGES
-----------------------
   0 C :   -0.433382
   1 C :   -0.191925
   2 C :    0.079503
   3 C :   -0.490271
   4 C :    0.057092
   5 O :   -0.304766
   6 C :    0.128488
   7 C :   -0.421411
   8 O :   -0.479211
   9 H :    0.140213
  10 H :    0.126238
  11 H :    0.145393
  12 H :    0.147848
  13 H :    0.112761
  14 H :    0.144150
  15 H :    0.153552
  16 H :    0.146608
  17 H :    0.104781
  18 H :    0.089598
  19 H :    0.137488
  20 H :    0.149348
  21 H :    0.127396
  22 H :    0.330508
Sum of atomic charges:    0.0000000

LOEWDIN ATOMIC CHARGES
----------------------
   0 C :   -0.317131
   1 C :   -0.238358
   2 C :   -0.292264
   3 C :   -0.263764
   4 C :   -0.241445
   5 O :    0.124822
   6 C :   -0.329631
   7 C :   -0.299682
   8 O :   -0.015605
   9 H :    0.122997
  10 H :    0.118507
  11 H :    0.126525
  12 H :    0.150303
  13 H :    0.143638
  14 H :    0.127413
  15 H :    0.128477
  16 H :    0.133382
  17 H :    0.122866
  18 H :    0.148036
  19 H :    0.125477
  20 H :    0.129700
  21 H :    0.122533
  22 H :    0.173203

  Mayer bond orders larger than 0.1
B(  0-C ,  1-C ) :   0.9043 B(  0-C ,  9-H ) :   0.9352 B(  0-C , 10-H ) :   0.9385
B(  0-C , 11-H ) :   0.9408 B(  1-C ,  2-C ) :   0.8683 B(  1-C , 12-H ) :   0.9195
B(  1-C , 13-H ) :   0.9260 B(  2-C ,  3-C ) :   0.8965 B(  2-C ,  4-C ) :   0.8406
B(  2-C ,  6-C ) :   0.8814 B(  3-C , 14-H ) :   0.9273 B(  3-C , 15-H ) :   0.9367
B(  3-C , 16-H ) :   0.9337 B(  4-C ,  5-O ) :   1.8868 B(  4-C , 17-H ) :   0.9467
B(  6-C ,  7-C ) :   0.9065 B(  6-C ,  8-O ) :   0.9206 B(  6-C , 18-H ) :   0.9223
B(  7-C , 19-H ) :   0.9258 B(  7-C , 20-H ) :   0.9403 B(  7-C , 21-H ) :   0.9333
B(  8-O , 22-H ) :   0.8144

MP2 TOTAL ENERGY:     -424.742891341 Eh
FINAL SINGLE POINT ENERGY      -424.742891341292

DIPOLE MOMENT
-------------
                                X             Y             Z
Electronic contribution:      6.30454      -2.24469       2.86287
Nuclear contribution   :     -7.00464       2.91031      -3.57607
                        -----------------------------------------
Total Dipole Moment    :     -0.70010       0.66562      -0.71320
                        -----------------------------------------
Magnitude (a.u.)       :      1.20077
Magnitude (Debye)      :      3.05211

                             ****ORCA TERMINATED NORMALLY****
TOTAL RUN TIME: 0 days 0 hours 22 minutes 51 seconds 695 msec
