                         Program Version 3.0.3 - RELEASE   -
|  1> ! RI-MP2 RIJK def2-TZVP def2-TZVP/C def2-TZVP/JK TIGHTSCF
|  2> % maxcore 2000
|  3> % mp2 density relaxed end
|  4> *xyz 0 1
|  5>  C        0.0244412414     1.4352458610     0.3500699152
|  6>  C       -0.0680865547    -0.0602751905     0.0549442180
|  7>  C       -1.5140115446    -0.5451065317    -0.0300308088
|  8>  O       -2.4781351295     0.1670686454     0.2005784578
|  9>  N       -1.6649451692    -1.8458819166    -0.3905188348
| 10>  C       -0.7550743882    -2.9753611553    -0.5826625638
| 11>  C       -2.0048560054    -3.9007807743    -0.7216742075
| 12>  C       -2.1198407121    -5.0456329511     0.2724344047
| 13>  C       -2.8878464284    -2.6420326930    -0.4483324496
| 14>  H        1.0688880087     1.7481463241     0.4379200268
| 15>  H       -0.4478737179     2.0188191085    -0.4441344868
| 16>  H       -0.4947744289     1.6776901824     1.2799874446
| 17>  H        0.4457810777    -0.3088641015    -0.8825767941
| 18>  H        0.4453790257    -0.6411520050     0.8334832298
| 19>  H       -0.1147703822    -2.8980805169    -1.4693163444
| 20>  H       -0.1217726077    -3.1964894192     0.2869252754
| 21>  H       -2.1237657908    -4.2704217283    -1.7428662104
| 22>  H       -1.9991469816    -4.6879577488     1.3010670849
| 23>  H       -3.0989573525    -5.5308695262     0.2006174412
| 24>  H       -1.3550474615    -5.8082684544     0.0901554145
| 25>  H       -3.4417111717    -2.6600561317     0.4977997831
| 26>  H       -3.5744398367    -2.3465363368    -1.2480996258
| 27> *
| 28>
| 29>                          ****END OF INPUT****

CARTESIAN COORDINATES (ANGSTROEM)
---------------------------------
  C      0.024441    1.435246    0.350070
  C     -0.068087   -0.060275    0.054944
  C     -1.514012   -0.545107   -0.030031
  O     -2.478135    0.167069    0.200578
  N     -1.664945   -1.845882   -0.390519
  C     -0.755074   -2.975361   -0.582663
  C     -2.004856   -3.900781   -0.721674
  C     -2.119841   -5.045633    0.272434
  C     -2.887846   -2.642033   -0.448332
  H      1.068888    1.748146    0.437920
  H     -0.447874    2.018819   -0.444134
  H     -0.494774    1.677690    1.279987
  H      0.445781   -0.308864   -0.882577
  H      0.445379   -0.641152    0.833483
  H     -0.114770   -2.898081   -1.469316
  H     -0.121773   -3.196489    0.286925
  H     -2.123766   -4.270422   -1.742866
  H     -1.999147   -4.687958    1.301067
  H     -3.098957   -5.530870    0.200617
  H     -1.355047   -5.808268    0.090155
  H     -3.441711   -2.660056    0.497800
  H     -3.574440   -2.346536   -1.248100

 Total Charge           Charge          ....    0
 Multiplicity           Mult            ....    1
 Number of Electrons    NEL             ....   70
 Basis Dimension        Dim             ....  357

ORBITAL ENERGIES
----------------

  NO   OCC          E(Eh)            E(eV)
   0   2.0000     -20.503811      -557.9371
   1   2.0000     -15.571785      -423.7298
   2   2.0000     -11.335064      -308.4428
   3   2.0000     -11.274208      -306.7868
   4   2.0000     -11.262151      -306.4587
   5   2.0000     -11.246943      -306.0449
   6   2.0000     -11.235701      -305.7390
   7   2.0000     -11.228203      -305.5349
   8   2.0000     -11.210854      -305.0629
   9   2.0000      -1.369279       -37.2600
  10   2.0000      -1.261785       -34.3349
  11   2.0000      -1.071476       -29.1564
  12   2.0000      -1.034580       -28.1523
  13   2.0000      -0.950635       -25.8681
  14   2.0000      -0.941516       -25.6200
  15   2.0000      -0.861987       -23.4559
  16   2.0000      -0.783673       -21.3248
  17   2.0000      -0.733068       -19.9478
  18   2.0000      -0.686091       -18.6695
  19   2.0000      -0.673759       -18.3339
  20   2.0000      -0.633360       -17.2346
  21   2.0000      -0.623000       -16.9527
  22   2.0000      -0.592123       -16.1125
  23   2.0000      -0.580012       -15.7829
  24   2.0000      -0.566280       -15.4093
  25   2.0000      -0.551403       -15.0044
  26   2.0000      -0.532559       -14.4917
  27   2.0000      -0.515152       -14.0180
  28   2.0000      -0.507711       -13.8155
  29   2.0000      -0.499656       -13.5963
  30   2.0000      -0.489599       -13.3227
  31   2.0000      -0.481229       -13.0949
  32   2.0000      -0.461407       -12.5555
  33   2.0000      -0.406841       -11.0707
  34   2.0000      -0.366764        -9.9801
  35   0.0000       0.121800         3.3143
  36   0.0000       0.141134         3.8405
  37   0.0000       0.160290         4.3617
  38   0.0000       0.165226         4.4960
  39   0.0000       0.178475         4.8565

MULLIKEN ATOMIC CHARGES
-----------------------
   0 C :   -0.361371
   1 C :   -0.228101
   2 C :    0.178354
   3 O :   -0.377943
   4 N :   -0.056697
   5 C :   -0.196267
   6 C :    0.011369
   7 C :   -0.438197
   8 C :   -0.156511
   9 H :    0.126887
  10 H :    0.130396
  11 H :    0.136046
  12 H :    0.124016
  13 H :    0.123709
  14 H :    0.117001
  15 H :    0.114503
  16 H :    0.109668
  17 H :    0.133814
  18 H :    0.138418
  19 H :    0.134861
  20 H :    0.117187
  21 H :    0.118855
Sum of atomic charges:   -0.0000000

LOEWDIN ATOMIC CHARGES
----------------------
   0 C :   -0.310076
   1 C :   -0.263441
   2 C :   -0.445327
   3 O :    0.079718
   4 N :    0.194651
   5 C :   -0.210175
   6 C :   -0.244370
   7 C :   -0.299993
   8 C :   -0.197387
   9 H :    0.118827
  10 H :    0.126701
  11 H :    0.127975
  12 H :    0.144871
  13 H :    0.145772
  14 H :    0.123551
  15 H :    0.125877
  16 H :    0.145732
  17 H :    0.126167
  18 H :    0.127211
  19 H :    0.125597
  20 H :    0.130423
  21 H :    0.127695

  Mayer bond orders larger than 0.1
B(  0-C ,  1-C ) :   0.9448 B(  0-C ,  9-H ) :   0.9397 B(  0-C , 10-H ) :   0.9366
B(  0-C , 11-H ) :   0.9355 B(  1-C ,  2-C ) :   0.9229 B(  1-C , 12-H ) :   0.9161
B(  1-C , 13-H ) :   0.9091 B(  2-C ,  3-O ) :   1.9111 B(  2-C ,  4-N ) :   1.1821
B(  4-N ,  5-C ) :   0.9251 B(  4-N ,  8-C ) :   0.8901 B(  5-C ,  6-C ) :   0.9277
B(  5-C , 14-H ) :   0.9125 B(  5-C , 15-H ) :   0.9073 B(  6-C ,  7-C ) :   0.9013
B(  6-C ,  8-C ) :   0.9261 B(  6-C , 16-H ) :   0.9247 B(  7-C , 17-H ) :   0.9338
B(  7-C , 18-H ) :   0.9380 B(  7-C , 19-H ) :   0.9373 B(  8-C , 20-H ) :   0.9140
B(  8-C , 21-H ) :   0.9218

MP2 TOTAL ENERGY:     -403.676043764 Eh
FINAL SINGLE POINT ENERGY      -403.676043763672

DIPOLE MOMENT
-------------
                                X             Y             Z
Electronic contribution:     -3.49849       3.20579      -1.06352
Nuclear contribution   :      4.29852      -4.57224       0.77034
                        -----------------------------------------
Total Dipole Moment    :      0.80003      -1.36645      -0.29318
                        -----------------------------------------
Magnitude (a.u.)       :      1.61034
Magnitude (Debye)      :      4.09315

                             ****ORCA TERMINATED NORMALLY****
TOTAL RUN TIME: 0 days 0 hours 18 minutes 9 seconds 912 msec
