                         Program Version 3.0.3 - RELEASE   -
|  1> ! RI-MP2 RIJK def2-TZVP def2-TZVP/C def2-TZVP/JK TIGHTSCF
|  2> % maxcore 2000
|  3> % mp2 density relaxed end
|  4> *xyz 0 1
|  5>  O       -0.0605893137     1.4018771723    -0.0351423573
|  6>  C        0.0260256828     0.0117970849    -0.0752437369
|  7>  C        0.9283580660    -0.6718210842    -1.0516665109
|  8>  C        0.4145495069    -1.8385484827    -1.4400501609
|  9>  C       -0.8727756890    -2.1480047482    -0.6873205361
| 10>  C       -0.5085512976    -2.9744330959     0.5682657263
| 11>  O        0.1679489748    -2.0444817968     1.4264926317
| 12>  C       -0.3820393112    -0.7760596582     1.1846512169
| 13>  C       -1.2516860708    -0.7979483500    -0.0331266567
| 14>  H        0.6586811997     1.7320549122     0.5141850144
| 15>  H        1.8822967666    -0.2538723145    -1.3508667039
| 16>  H        0.8981498852    -2.5642351498    -2.0839480811
| 17>  H       -1.6600813464    -2.6133632916    -1.2853525303
| 18>  H       -1.4121187873    -3.3668275694     1.0604603640
| 19>  H        0.1775270148    -3.8022982853     0.3697037890
| 20>  H       -0.6417400782    -0.2119474370     2.0759096071
| 21>  H       -2.2377314327    -0.3561945459    -0.0918923851
| 22> *
| 23>
| 24>                          ****END OF INPUT****

CARTESIAN COORDINATES (ANGSTROEM)
---------------------------------
  O     -0.060589    1.401877   -0.035142
  C      0.026026    0.011797   -0.075244
  C      0.928358   -0.671821   -1.051667
  C      0.414550   -1.838548   -1.440050
  C     -0.872776   -2.148005   -0.687321
  C     -0.508551   -2.974433    0.568266
  O      0.167949   -2.044482    1.426493
  C     -0.382039   -0.776060    1.184651
  C     -1.251686   -0.797948   -0.033127
  H      0.658681    1.732055    0.514185
  H      1.882297   -0.253872   -1.350867
  H      0.898150   -2.564235   -2.083948
  H     -1.660081   -2.613363   -1.285353
  H     -1.412119   -3.366828    1.060460
  H      0.177527   -3.802298    0.369704
  H     -0.641740   -0.211947    2.075910
  H     -2.237731   -0.356195   -0.091892

 Total Charge           Charge          ....    0
 Multiplicity           Mult            ....    1
 Number of Electrons    NEL             ....   66
 Basis Dimension        Dim             ....  327

ORBITAL ENERGIES
----------------

  NO   OCC          E(Eh)            E(eV)
   0   2.0000     -20.570573      -559.7538
   1   2.0000     -20.558435      -559.4235
   2   2.0000     -11.291879      -307.2677
   3   2.0000     -11.284024      -307.0539
   4   2.0000     -11.280160      -306.9487
   5   2.0000     -11.245588      -306.0080
   6   2.0000     -11.231258      -305.6181
   7   2.0000     -11.231015      -305.6115
   8   2.0000     -11.228794      -305.5510
   9   2.0000      -1.393271       -37.9128
  10   2.0000      -1.374712       -37.4078
  11   2.0000      -1.165862       -31.7247
  12   2.0000      -1.051972       -28.6256
  13   2.0000      -0.998765       -27.1778
  14   2.0000      -0.878628       -23.9087
  15   2.0000      -0.805347       -21.9146
  16   2.0000      -0.773490       -21.0477
  17   2.0000      -0.762416       -20.7464
  18   2.0000      -0.731467       -19.9042
  19   2.0000      -0.669489       -18.2177
  20   2.0000      -0.649300       -17.6683
  21   2.0000      -0.621753       -16.9188
  22   2.0000      -0.602739       -16.4014
  23   2.0000      -0.599268       -16.3069
  24   2.0000      -0.577450       -15.7132
  25   2.0000      -0.523079       -14.2337
  26   2.0000      -0.511875       -13.9288
  27   2.0000      -0.505396       -13.7525
  28   2.0000      -0.479890       -13.0585
  29   2.0000      -0.463311       -12.6073
  30   2.0000      -0.427520       -11.6334
  31   2.0000      -0.390962       -10.6386
  32   2.0000      -0.331579        -9.0227
  33   0.0000       0.137296         3.7360
  34   0.0000       0.142096         3.8666
  35   0.0000       0.152372         4.1463
  36   0.0000       0.178053         4.8451
  37   0.0000       0.188316         5.1243

MULLIKEN ATOMIC CHARGES
-----------------------
   0 O :   -0.457940
   1 C :    0.198932
   2 C :   -0.191028
   3 C :   -0.204816
   4 C :   -0.013635
   5 C :   -0.028219
   6 O :   -0.310591
   7 C :   -0.021577
   8 C :   -0.177792
   9 H :    0.330086
  10 H :    0.126050
  11 H :    0.132071
  12 H :    0.131025
  13 H :    0.092796
  14 H :    0.113458
  15 H :    0.129396
  16 H :    0.151785
Sum of atomic charges:    0.0000000

LOEWDIN ATOMIC CHARGES
----------------------
   0 O :    0.030618
   1 C :   -0.310551
   2 C :   -0.112307
   3 C :   -0.125377
   4 C :   -0.193327
   5 C :   -0.257223
   6 O :    0.181068
   7 C :   -0.241504
   8 C :   -0.124138
   9 H :    0.185622
  10 H :    0.141235
  11 H :    0.138408
  12 H :    0.150904
  13 H :    0.120663
  14 H :    0.128303
  15 H :    0.140352
  16 H :    0.147254

  Mayer bond orders larger than 0.1
B(  0-O ,  1-C ) :   0.9888 B(  0-O ,  9-H ) :   0.8374 B(  1-C ,  2-C ) :   0.9583
B(  1-C ,  7-C ) :   0.8258 B(  1-C ,  8-C ) :   0.8660 B(  2-C ,  3-C ) :   1.7888
B(  2-C , 10-H ) :   0.9214 B(  3-C ,  4-C ) :   0.9081 B(  3-C , 11-H ) :   0.9183
B(  4-C ,  5-C ) :   0.9218 B(  4-C ,  8-C ) :   0.8900 B(  4-C , 12-H ) :   0.9093
B(  5-C ,  6-O ) :   0.9360 B(  5-C , 13-H ) :   0.9204 B(  5-C , 14-H ) :   0.9169
B(  6-O ,  7-C ) :   0.9828 B(  7-C ,  8-C ) :   0.8965 B(  7-C , 15-H ) :   0.9349
B(  8-C , 16-H ) :   0.8940

MP2 TOTAL ENERGY:     -421.101327815 Eh
FINAL SINGLE POINT ENERGY      -421.101327814932

DIPOLE MOMENT
-------------
                                X             Y             Z
Electronic contribution:      0.92029       2.47771       0.84541
Nuclear contribution   :     -0.95037      -2.71178      -0.90627
                        -----------------------------------------
Total Dipole Moment    :     -0.03008      -0.23407      -0.06086
                        -----------------------------------------
Magnitude (a.u.)       :      0.24372
Magnitude (Debye)      :      0.61949

                             ****ORCA TERMINATED NORMALLY****
TOTAL RUN TIME: 0 days 0 hours 17 minutes 39 seconds 877 msec
