                         Program Version 3.0.3 - RELEASE   -
|  1> ! RI-MP2 RIJK def2-TZVP def2-TZVP/C def2-TZVP/JK TIGHTSCF
|  2> % maxcore 2000
|  3> % mp2 density relaxed end
|  4> *xyz 0 1
|  5>  C        0.0256231153     1.4830069944    -0.0696478479
|  6>  C        0.0485833925    -0.0104965111    -0.0685336310
|  7>  N        0.6936013334    -0.8679612745    -1.1119699844
|  8>  C        0.1121015221    -1.8785391198    -0.1839827250
|  9>  C        0.4532656465    -1.0155869808     1.0614870285
| 10>  O       -0.8800069857    -1.0939841255     1.6499583006
| 11>  C       -1.1462079502    -1.0239933398     0.2274066489
| 12>  C       -2.4902643331    -1.0383269945    -0.2782107958
| 13>  N       -3.5470450349    -1.0318508545    -0.7484897707
| 14>  H        1.0450069544     1.8774004261    -0.1176018229
| 15>  H       -0.5338525603     1.8680323539    -0.9281656070
| 16>  H       -0.4522830462     1.8467835567     0.8448204753
| 17>  H        0.1708539630    -0.8334937925    -1.9902726743
| 18>  H        0.1783613946    -2.9566904908    -0.3222475835
| 19>  H        1.3218379585    -1.0311505674     1.7147255393
| 20> *
| 21>
| 22>                          ****END OF INPUT****

CARTESIAN COORDINATES (ANGSTROEM)
---------------------------------
  C      0.025623    1.483007   -0.069648
  C      0.048583   -0.010497   -0.068534
  N      0.693601   -0.867961   -1.111970
  C      0.112102   -1.878539   -0.183983
  C      0.453266   -1.015587    1.061487
  O     -0.880007   -1.093984    1.649958
  C     -1.146208   -1.023993    0.227407
  C     -2.490264   -1.038327   -0.278211
  N     -3.547045   -1.031851   -0.748490
  H      1.045007    1.877400   -0.117602
  H     -0.533853    1.868032   -0.928166
  H     -0.452283    1.846784    0.844820
  H      0.170854   -0.833494   -1.990273
  H      0.178361   -2.956690   -0.322248
  H      1.321838   -1.031151    1.714726

 Total Charge           Charge          ....    0
 Multiplicity           Mult            ....    1
 Number of Electrons    NEL             ....   64
 Basis Dimension        Dim             ....  315

ORBITAL ENERGIES
----------------

  NO   OCC          E(Eh)            E(eV)
   0   2.0000     -20.589466      -560.2678
   1   2.0000     -15.594854      -424.3575
   2   2.0000     -15.583941      -424.0606
   3   2.0000     -11.355663      -309.0033
   4   2.0000     -11.329296      -308.2858
   5   2.0000     -11.320382      -308.0433
   6   2.0000     -11.313748      -307.8627
   7   2.0000     -11.291372      -307.2538
   8   2.0000     -11.247599      -306.0627
   9   2.0000      -1.448830       -39.4247
  10   2.0000      -1.281480       -34.8708
  11   2.0000      -1.235752       -33.6265
  12   2.0000      -1.036445       -28.2031
  13   2.0000      -1.017356       -27.6837
  14   2.0000      -0.979229       -26.6462
  15   2.0000      -0.872938       -23.7539
  16   2.0000      -0.804596       -21.8942
  17   2.0000      -0.716893       -19.5077
  18   2.0000      -0.690512       -18.7898
  19   2.0000      -0.661764       -18.0075
  20   2.0000      -0.652223       -17.7479
  21   2.0000      -0.601389       -16.3646
  22   2.0000      -0.590404       -16.0657
  23   2.0000      -0.580448       -15.7948
  24   2.0000      -0.559406       -15.2222
  25   2.0000      -0.522257       -14.2113
  26   2.0000      -0.515314       -14.0224
  27   2.0000      -0.502686       -13.6788
  28   2.0000      -0.489551       -13.3213
  29   2.0000      -0.444901       -12.1064
  30   2.0000      -0.425681       -11.5834
  31   2.0000      -0.414154       -11.2697
  32   0.0000       0.113754         3.0954
  33   0.0000       0.129855         3.5335
  34   0.0000       0.138387         3.7657
  35   0.0000       0.156994         4.2720
  36   0.0000       0.166489         4.5304

MULLIKEN ATOMIC CHARGES
-----------------------
   0 C :   -0.432384
   1 C :    0.135669
   2 N :   -0.357494
   3 C :   -0.001386
   4 C :    0.000276
   5 O :   -0.311499
   6 C :    0.253335
   7 C :   -0.269266
   8 N :   -0.012903
   9 H :    0.157579
  10 H :    0.148363
  11 H :    0.160461
  12 H :    0.215335
  13 H :    0.157290
  14 H :    0.156624
Sum of atomic charges:    0.0000000

LOEWDIN ATOMIC CHARGES
----------------------
   0 C :   -0.266201
   1 C :   -0.211748
   2 N :    0.026444
   3 C :   -0.145264
   4 C :   -0.153508
   5 O :    0.176201
   6 C :   -0.233905
   7 C :   -0.144347
   8 N :    0.096881
   9 H :    0.139699
  10 H :    0.137069
  11 H :    0.144088
  12 H :    0.166004
  13 H :    0.134153
  14 H :    0.134434

  Mayer bond orders larger than 0.1
B(  0-C ,  1-C ) :   0.8553 B(  0-C ,  9-H ) :   0.9398 B(  0-C , 10-H ) :   0.9292
B(  0-C , 11-H ) :   0.9305 B(  1-C ,  2-N ) :   0.8887 B(  1-C ,  4-C ) :   0.8596
B(  1-C ,  6-C ) :   0.8138 B(  2-N ,  3-C ) :   0.9066 B(  2-N , 12-H ) :   0.8698
B(  3-C ,  4-C ) :   0.8972 B(  3-C ,  6-C ) :   0.8181 B(  3-C , 13-H ) :   0.8992
B(  4-C ,  5-O ) :   0.9030 B(  4-C , 14-H ) :   0.8829 B(  5-O ,  6-C ) :   0.9545
B(  6-C ,  7-C ) :   0.8331 B(  7-C ,  8-N ) :   2.8530

MP2 TOTAL ENERGY:     -415.999359692 Eh
FINAL SINGLE POINT ENERGY      -415.999359691624

DIPOLE MOMENT
-------------
                                X             Y             Z
Electronic contribution:     -4.47824      -4.37538       1.00561
Nuclear contribution   :      5.68278       4.64077      -1.09650
                        -----------------------------------------
Total Dipole Moment    :      1.20454       0.26539      -0.09089
                        -----------------------------------------
Magnitude (a.u.)       :      1.23677
Magnitude (Debye)      :      3.14363

                             ****ORCA TERMINATED NORMALLY****
TOTAL RUN TIME: 0 days 0 hours 16 minutes 0 seconds 926 msec
