                         Program Version 3.0.3 - RELEASE   -
|  1> ! RI-MP2 RIJK def2-TZVP def2-TZVP/C def2-TZVP/JK TIGHTSCF
|  2> % maxcore 2000
|  3> % mp2 density relaxed end
|  4> *xyz 0 1
|  5>  C        0.0175524000     1.6017058128    -0.0599033074
|  6>  C        0.1162589065     0.0807705809     0.0186359600
|  7>  C        0.8205722706    -0.5905393144    -1.1904494657
|  8>  C        1.5273064141    -1.7749092004    -0.5783687349
|  9>  C        1.5628611049    -1.7270310158     0.7561400359
| 10>  C        2.1833326087    -2.7012711219     1.7057208173
| 11>  C        0.8601079032    -0.4947711038     1.2328498965
| 12>  C        1.3147691342     0.2864046067     2.3977264504
| 13>  O        0.1577004955    -0.5481916130     2.4857801587
| 14>  H        1.0092242937     2.0644519234    -0.1145397624
| 15>  H       -0.5415867180     1.9066546870    -0.9505626691
| 16>  H       -0.5039316517     2.0119139740     0.8110573860
| 17>  H       -0.8989206741    -0.3307910105     0.0844862580
| 18>  H        0.1144949775    -0.8742212754    -1.9793671971
| 19>  H        1.5404488626     0.0979934020    -1.6567948045
| 20>  H        1.9807391213    -2.5579277940    -1.1775258849
| 21>  H        2.5101366321    -3.6073274763     1.1893961542
| 22>  H        3.0575171737    -2.2707434417     2.2106338811
| 23>  H        1.4707689940    -2.9780606875     2.4899506844
| 24>  H        2.1767438728    -0.0460214001     2.9755129988
| 25>  H        1.1248541684     1.3576228881     2.4378973547
| 26> *
| 27>
| 28>                          ****END OF INPUT****

CARTESIAN COORDINATES (ANGSTROEM)
---------------------------------
  C      0.017552    1.601706   -0.059903
  C      0.116259    0.080771    0.018636
  C      0.820572   -0.590539   -1.190449
  C      1.527306   -1.774909   -0.578369
  C      1.562861   -1.727031    0.756140
  C      2.183333   -2.701271    1.705721
  C      0.860108   -0.494771    1.232850
  C      1.314769    0.286405    2.397726
  O      0.157700   -0.548192    2.485780
  H      1.009224    2.064452   -0.114540
  H     -0.541587    1.906655   -0.950563
  H     -0.503932    2.011914    0.811057
  H     -0.898921   -0.330791    0.084486
  H      0.114495   -0.874221   -1.979367
  H      1.540449    0.097993   -1.656795
  H      1.980739   -2.557928   -1.177526
  H      2.510137   -3.607327    1.189396
  H      3.057517   -2.270743    2.210634
  H      1.470769   -2.978061    2.489951
  H      2.176744   -0.046021    2.975513
  H      1.124854    1.357623    2.437897

 Total Charge           Charge          ....    0
 Multiplicity           Mult            ....    1
 Number of Electrons    NEL             ....   68
 Basis Dimension        Dim             ....  351

ORBITAL ENERGIES
----------------

  NO   OCC          E(Eh)            E(eV)
   0   2.0000     -20.560686      -559.4847
   1   2.0000     -11.287028      -307.1356
   2   2.0000     -11.277011      -306.8631
   3   2.0000     -11.232496      -305.6518
   4   2.0000     -11.232225      -305.6444
   5   2.0000     -11.227129      -305.5057
   6   2.0000     -11.224653      -305.4383
   7   2.0000     -11.221386      -305.3494
   8   2.0000     -11.217845      -305.2531
   9   2.0000      -1.404124       -38.2082
  10   2.0000      -1.138836       -30.9893
  11   2.0000      -1.039694       -28.2915
  12   2.0000      -0.973990       -26.5036
  13   2.0000      -0.924180       -25.1482
  14   2.0000      -0.887657       -24.1544
  15   2.0000      -0.879093       -23.9213
  16   2.0000      -0.768959       -20.9245
  17   2.0000      -0.723770       -19.6948
  18   2.0000      -0.668292       -18.1852
  19   2.0000      -0.643837       -17.5197
  20   2.0000      -0.626063       -17.0360
  21   2.0000      -0.604015       -16.4361
  22   2.0000      -0.572662       -15.5829
  23   2.0000      -0.562859       -15.3162
  24   2.0000      -0.556344       -15.1389
  25   2.0000      -0.551455       -15.0059
  26   2.0000      -0.520306       -14.1582
  27   2.0000      -0.509450       -13.8628
  28   2.0000      -0.493211       -13.4210
  29   2.0000      -0.482727       -13.1357
  30   2.0000      -0.469518       -12.7762
  31   2.0000      -0.443769       -12.0756
  32   2.0000      -0.424980       -11.5643
  33   2.0000      -0.335649        -9.1335
  34   0.0000       0.136207         3.7064
  35   0.0000       0.151221         4.1149
  36   0.0000       0.158785         4.3208
  37   0.0000       0.164685         4.4813
  38   0.0000       0.175079         4.7641

MULLIKEN ATOMIC CHARGES
-----------------------
   0 C :   -0.448626
   1 C :   -0.010921
   2 C :   -0.182410
   3 C :   -0.190811
   4 C :   -0.014358
   5 C :   -0.440249
   6 C :    0.183013
   7 C :   -0.093990
   8 O :   -0.340058
   9 H :    0.129364
  10 H :    0.139141
  11 H :    0.144889
  12 H :    0.097189
  13 H :    0.122973
  14 H :    0.110928
  15 H :    0.124592
  16 H :    0.139719
  17 H :    0.133606
  18 H :    0.162491
  19 H :    0.114523
  20 H :    0.118995
Sum of atomic charges:    0.0000000

LOEWDIN ATOMIC CHARGES
----------------------
   0 C :   -0.294521
   1 C :   -0.212475
   2 C :   -0.213202
   3 C :   -0.123924
   4 C :   -0.156544
   5 C :   -0.267284
   6 C :   -0.254544
   7 C :   -0.239349
   8 O :    0.164007
   9 H :    0.123440
  10 H :    0.125920
  11 H :    0.126740
  12 H :    0.164281
  13 H :    0.137196
  14 H :    0.142349
  15 H :    0.137418
  16 H :    0.131409
  17 H :    0.130851
  18 H :    0.138470
  19 H :    0.119251
  20 H :    0.120509

  Mayer bond orders larger than 0.1
B(  0-C ,  1-C ) :   0.9061 B(  0-C ,  9-H ) :   0.9328 B(  0-C , 10-H ) :   0.9383
B(  0-C , 11-H ) :   0.9413 B(  1-C ,  2-C ) :   0.9527 B(  1-C ,  6-C ) :   0.9064
B(  1-C , 12-H ) :   0.9201 B(  2-C ,  3-C ) :   0.9345 B(  2-C , 13-H ) :   0.9284
B(  2-C , 14-H ) :   0.9030 B(  3-C ,  4-C ) :   1.7367 B(  3-C , 15-H ) :   0.9225
B(  4-C ,  5-C ) :   0.8898 B(  4-C ,  6-C ) :   0.9090 B(  5-C , 16-H ) :   0.9468
B(  5-C , 17-H ) :   0.9238 B(  5-C , 18-H ) :   0.9368 B(  6-C ,  7-C ) :   0.9600
B(  6-C ,  8-O ) :   0.8683 B(  7-C ,  8-O ) :   0.8935 B(  7-C , 19-H ) :   0.9144
B(  7-C , 20-H ) :   0.9010

MP2 TOTAL ENERGY:     -386.411664494 Eh
FINAL SINGLE POINT ENERGY      -386.411664494243

DIPOLE MOMENT
-------------
                                X             Y             Z
Electronic contribution:     -1.14530      -1.95966       2.44965
Nuclear contribution   :      1.65266       2.16304      -2.89144
                        -----------------------------------------
Total Dipole Moment    :      0.50736       0.20338      -0.44179
                        -----------------------------------------
Magnitude (a.u.)       :      0.70282
Magnitude (Debye)      :      1.78642

                             ****ORCA TERMINATED NORMALLY****
TOTAL RUN TIME: 0 days 0 hours 20 minutes 2 seconds 956 msec
