                         Program Version 3.0.3 - RELEASE   -
|  1> ! RI-MP2 RIJK def2-TZVP def2-TZVP/C def2-TZVP/JK TIGHTSCF
|  2> % maxcore 2000
|  3> % mp2 density relaxed end
|  4> *xyz 0 1
|  5>  C        0.0396406257     1.4523641516    -0.1237389496
|  6>  N       -0.1462389921     0.0331245664     0.0929310464
|  7>  C        0.5531186304    -0.6455773516     1.0849964662
|  8>  C        1.2059625320     0.0157226741     2.1334930125
|  9>  C        1.8540638537    -0.7103527112     3.1313523938
| 10>  C        1.8899719153    -2.1029879988     3.1281824633
| 11>  C        2.5893404455    -2.8835107956     4.2138670342
| 12>  C        1.2423642296    -2.7557150835     2.0708503656
| 13>  C        0.5885259058    -2.0517163292     1.0737154147
| 14>  H        1.0922732235     1.7400952338    -0.2764875807
| 15>  H       -0.5317942107     1.7520825846    -1.0052406271
| 16>  H       -0.3438807120     2.0268815901     0.7269761273
| 17>  H       -0.2800507820    -0.5027510806    -0.7499647755
| 18>  H        1.2118779523     1.0980997530     2.1776850712
| 19>  H        2.3502560728    -0.1679154197     3.9316393212
| 20>  H        1.8830873282    -3.4785880473     4.8057901020
| 21>  H        3.3254499170    -3.5827592794     3.8004835315
| 22>  H        3.1158672846    -2.2180182778     4.9039016460
| 23>  H        1.2513877814    -3.8417274601     2.0284027781
| 24>  H        0.0910668290    -2.5877438089     0.2695963889
| 25> *
| 26>
| 27>                          ****END OF INPUT****

CARTESIAN COORDINATES (ANGSTROEM)
---------------------------------
  C      0.039641    1.452364   -0.123739
  N     -0.146239    0.033125    0.092931
  C      0.553119   -0.645577    1.084996
  C      1.205963    0.015723    2.133493
  C      1.854064   -0.710353    3.131352
  C      1.889972   -2.102988    3.128182
  C      2.589340   -2.883511    4.213867
  C      1.242364   -2.755715    2.070850
  C      0.588526   -2.051716    1.073715
  H      1.092273    1.740095   -0.276488
  H     -0.531794    1.752083   -1.005241
  H     -0.343881    2.026882    0.726976
  H     -0.280051   -0.502751   -0.749965
  H      1.211878    1.098100    2.177685
  H      2.350256   -0.167915    3.931639
  H      1.883087   -3.478588    4.805790
  H      3.325450   -3.582759    3.800484
  H      3.115867   -2.218018    4.903902
  H      1.251388   -3.841727    2.028403
  H      0.091067   -2.587744    0.269596

 Total Charge           Charge          ....    0
 Multiplicity           Mult            ....    1
 Number of Electrons    NEL             ....   66
 Basis Dimension        Dim             ....  345

ORBITAL ENERGIES
----------------

  NO   OCC          E(Eh)            E(eV)
   0   2.0000     -15.559863      -423.4054
   1   2.0000     -11.268697      -306.6368
   2   2.0000     -11.255088      -306.2665
   3   2.0000     -11.225524      -305.4620
   4   2.0000     -11.224344      -305.4299
   5   2.0000     -11.220229      -305.3180
   6   2.0000     -11.218710      -305.2766
   7   2.0000     -11.215447      -305.1878
   8   2.0000     -11.215411      -305.1868
   9   2.0000      -1.236326       -33.6421
  10   2.0000      -1.132096       -30.8059
  11   2.0000      -1.026472       -27.9317
  12   2.0000      -1.005413       -27.3587
  13   2.0000      -0.943042       -25.6615
  14   2.0000      -0.891904       -24.2699
  15   2.0000      -0.822816       -22.3900
  16   2.0000      -0.782785       -21.3007
  17   2.0000      -0.706289       -19.2191
  18   2.0000      -0.660071       -17.9615
  19   2.0000      -0.628519       -17.1029
  20   2.0000      -0.611276       -16.6337
  21   2.0000      -0.598681       -16.2909
  22   2.0000      -0.582533       -15.8515
  23   2.0000      -0.572944       -15.5906
  24   2.0000      -0.564889       -15.3714
  25   2.0000      -0.535664       -14.5762
  26   2.0000      -0.525977       -14.3126
  27   2.0000      -0.499664       -13.5965
  28   2.0000      -0.491159       -13.3651
  29   2.0000      -0.474848       -12.9213
  30   2.0000      -0.415240       -11.2992
  31   2.0000      -0.331805        -9.0289
  32   2.0000      -0.277150        -7.5416
  33   0.0000       0.126685         3.4473
  34   0.0000       0.140478         3.8226
  35   0.0000       0.148462         4.0399
  36   0.0000       0.149811         4.0766
  37   0.0000       0.160360         4.3636

MULLIKEN ATOMIC CHARGES
-----------------------
   0 C :   -0.301836
   1 N :   -0.326860
   2 C :    0.294553
   3 C :   -0.253941
   4 C :   -0.192726
   5 C :    0.148065
   6 C :   -0.438658
   7 C :   -0.179976
   8 C :   -0.234944
   9 H :    0.130242
  10 H :    0.140449
  11 H :    0.139047
  12 H :    0.224444
  13 H :    0.116367
  14 H :    0.109211
  15 H :    0.139089
  16 H :    0.137710
  17 H :    0.132132
  18 H :    0.113021
  19 H :    0.104612
Sum of atomic charges:    0.0000000

LOEWDIN ATOMIC CHARGES
----------------------
   0 C :   -0.335429
   1 N :    0.046192
   2 C :   -0.221186
   3 C :   -0.137546
   4 C :   -0.132268
   5 C :   -0.182939
   6 C :   -0.271474
   7 C :   -0.129081
   8 C :   -0.130133
   9 H :    0.107821
  10 H :    0.119147
  11 H :    0.117041
  12 H :    0.179957
  13 H :    0.147139
  14 H :    0.146149
  15 H :    0.129156
  16 H :    0.128657
  17 H :    0.127433
  18 H :    0.147429
  19 H :    0.143935

  Mayer bond orders larger than 0.1
B(  0-C ,  1-N ) :   0.9260 B(  0-C ,  9-H ) :   0.9320 B(  0-C , 10-H ) :   0.9341
B(  0-C , 11-H ) :   0.9313 B(  1-N ,  2-C ) :   1.0632 B(  1-N , 12-H ) :   0.8761
B(  2-C ,  3-C ) :   1.2864 B(  2-C ,  8-C ) :   1.2203 B(  3-C ,  4-C ) :   1.3478
B(  3-C , 13-H ) :   0.9321 B(  4-C ,  5-C ) :   1.3428 B(  4-C , 14-H ) :   0.9311
B(  5-C ,  6-C ) :   0.8581 B(  5-C ,  7-C ) :   1.2751 B(  6-C , 15-H ) :   0.9317
B(  6-C , 16-H ) :   0.9388 B(  6-C , 17-H ) :   0.9515 B(  7-C ,  8-C ) :   1.4102
B(  7-C , 18-H ) :   0.9426 B(  8-C , 19-H ) :   0.9356

MP2 TOTAL ENERGY:     -365.403656127 Eh
FINAL SINGLE POINT ENERGY      -365.403656126613

DIPOLE MOMENT
-------------
                                X             Y             Z
Electronic contribution:     -1.22725      -1.32778      -0.87666
Nuclear contribution   :      1.19843       1.54866       0.35382
                        -----------------------------------------
Total Dipole Moment    :     -0.02882       0.22088      -0.52284
                        -----------------------------------------
Magnitude (a.u.)       :      0.56831
Magnitude (Debye)      :      1.44453

                             ****ORCA TERMINATED NORMALLY****
TOTAL RUN TIME: 0 days 0 hours 18 minutes 47 seconds 510 msec
