                         Program Version 3.0.3 - RELEASE   -
|  1> ! RI-MP2 RIJK def2-TZVP def2-TZVP/C def2-TZVP/JK TIGHTSCF
|  2> % maxcore 2000
|  3> % mp2 density relaxed end
|  4> *xyz 0 1
|  5>  C       -0.4959786171     1.1505642954     0.3405098351
|  6>  O        0.0254971743    -0.1612355122     0.2690973708
|  7>  C        0.5472520334    -0.4963120059    -1.0013876075
|  8>  C        1.3837634974    -1.7759409834    -0.8545094736
|  9>  C        2.5727548715    -1.6548752150     0.1176519204
| 10>  C        3.1777926839    -3.0410107626     0.3779680554
| 11>  C        3.6450640917    -0.6820312634    -0.3910506763
| 12>  C       -0.5851524583    -0.7667853296    -1.9888179545
| 13>  O       -0.4904485394    -0.6622201073    -3.1833353957
| 14>  H        0.2775361424     1.9038393364     0.1283395202
| 15>  H       -1.3284759420     1.3079089348    -0.3617587588
| 16>  H       -0.8649365691     1.2956253563     1.3582444097
| 17>  H        1.1635691049     0.3204480538    -1.4060143977
| 18>  H        0.7167086110    -2.5757474782    -0.5081573524
| 19>  H        1.7374985071    -2.0630838912    -1.8524567027
| 20>  H        2.1778866861    -1.2686837641     1.0644370333
| 21>  H        4.0044100744    -2.9807452307     1.0934059792
| 22>  H        2.4325261463    -3.7330723573     0.7838286640
| 23>  H        3.5715094058    -3.4797974077    -0.5469236051
| 24>  H        3.2557745224     0.3318179786    -0.5249706247
| 25>  H        4.4782317993    -0.6200897565     0.3165278163
| 26>  H        4.0516212096    -1.0139271270    -1.3541104038
| 27>  H       -1.5222587457    -1.1156184132    -1.4935100413
| 28> *
| 29>
| 30>                          ****END OF INPUT****

CARTESIAN COORDINATES (ANGSTROEM)
---------------------------------
  C     -0.495979    1.150564    0.340510
  O      0.025497   -0.161236    0.269097
  C      0.547252   -0.496312   -1.001388
  C      1.383763   -1.775941   -0.854509
  C      2.572755   -1.654875    0.117652
  C      3.177793   -3.041011    0.377968
  C      3.645064   -0.682031   -0.391051
  C     -0.585152   -0.766785   -1.988818
  O     -0.490449   -0.662220   -3.183335
  H      0.277536    1.903839    0.128340
  H     -1.328476    1.307909   -0.361759
  H     -0.864937    1.295625    1.358244
  H      1.163569    0.320448   -1.406014
  H      0.716709   -2.575747   -0.508157
  H      1.737499   -2.063084   -1.852457
  H      2.177887   -1.268684    1.064437
  H      4.004410   -2.980745    1.093406
  H      2.432526   -3.733072    0.783829
  H      3.571509   -3.479797   -0.546924
  H      3.255775    0.331818   -0.524971
  H      4.478232   -0.620090    0.316528
  H      4.051621   -1.013927   -1.354110
  H     -1.522259   -1.115618   -1.493510

 Total Charge           Charge          ....    0
 Multiplicity           Mult            ....    1
 Number of Electrons    NEL             ....   72
 Basis Dimension        Dim             ....  363

ORBITAL ENERGIES
----------------

  NO   OCC          E(Eh)            E(eV)
   0   2.0000     -20.573326      -559.8286
   1   2.0000     -20.562575      -559.5361
   2   2.0000     -11.332121      -308.3627
   3   2.0000     -11.295761      -307.3733
   4   2.0000     -11.285250      -307.0873
   5   2.0000     -11.232685      -305.6569
   6   2.0000     -11.230454      -305.5962
   7   2.0000     -11.215526      -305.1900
   8   2.0000     -11.214507      -305.1622
   9   2.0000      -1.405992       -38.2590
  10   2.0000      -1.390152       -37.8280
  11   2.0000      -1.099949       -29.9311
  12   2.0000      -1.027613       -27.9628
  13   2.0000      -0.932136       -25.3647
  14   2.0000      -0.928200       -25.2576
  15   2.0000      -0.898174       -24.4406
  16   2.0000      -0.799187       -21.7470
  17   2.0000      -0.771990       -21.0069
  18   2.0000      -0.696466       -18.9518
  19   2.0000      -0.675550       -18.3827
  20   2.0000      -0.663048       -18.0424
  21   2.0000      -0.634635       -17.2693
  22   2.0000      -0.620589       -16.8871
  23   2.0000      -0.608458       -16.5570
  24   2.0000      -0.592983       -16.1359
  25   2.0000      -0.563906       -15.3447
  26   2.0000      -0.541287       -14.7292
  27   2.0000      -0.536541       -14.6000
  28   2.0000      -0.530670       -14.4403
  29   2.0000      -0.515385       -14.0243
  30   2.0000      -0.499041       -13.5796
  31   2.0000      -0.478462       -13.0196
  32   2.0000      -0.468831       -12.7575
  33   2.0000      -0.464404       -12.6371
  34   2.0000      -0.456439       -12.4203
  35   2.0000      -0.405339       -11.0298
  36   0.0000       0.124282         3.3819
  37   0.0000       0.132689         3.6106
  38   0.0000       0.148655         4.0451
  39   0.0000       0.161670         4.3993
  40   0.0000       0.177076         4.8185

MULLIKEN ATOMIC CHARGES
-----------------------
   0 C :   -0.230635
   1 O :   -0.308120
   2 C :    0.126337
   3 C :   -0.238720
   4 C :   -0.010344
   5 C :   -0.389482
   6 C :   -0.430327
   7 C :    0.044680
   8 O :   -0.255202
   9 H :    0.121050
  10 H :    0.121822
  11 H :    0.144319
  12 H :    0.081316
  13 H :    0.116799
  14 H :    0.135166
  15 H :    0.105159
  16 H :    0.131845
  17 H :    0.131047
  18 H :    0.121411
  19 H :    0.130972
  20 H :    0.133697
  21 H :    0.125052
  22 H :    0.092158
Sum of atomic charges:   -0.0000000

LOEWDIN ATOMIC CHARGES
----------------------
   0 C :   -0.351062
   1 O :    0.162750
   2 C :   -0.333765
   3 C :   -0.218140
   4 C :   -0.306093
   5 C :   -0.294965
   6 C :   -0.294822
   7 C :   -0.279437
   8 O :    0.139673
   9 H :    0.104728
  10 H :    0.105031
  11 H :    0.115752
  12 H :    0.144864
  13 H :    0.148103
  14 H :    0.151013
  15 H :    0.154210
  16 H :    0.123168
  17 H :    0.122649
  18 H :    0.123083
  19 H :    0.119738
  20 H :    0.124515
  21 H :    0.124186
  22 H :    0.114821

  Mayer bond orders larger than 0.1
B(  0-C ,  1-O ) :   0.9034 B(  0-C ,  9-H ) :   0.9343 B(  0-C , 10-H ) :   0.9318
B(  0-C , 11-H ) :   0.9393 B(  1-O ,  2-C ) :   0.9412 B(  2-C ,  3-C ) :   0.9242
B(  2-C ,  7-C ) :   0.8353 B(  2-C , 12-H ) :   0.9013 B(  3-C ,  4-C ) :   0.9133
B(  3-C , 13-H ) :   0.9181 B(  3-C , 14-H ) :   0.9226 B(  4-C ,  5-C ) :   0.9108
B(  4-C ,  6-C ) :   0.9140 B(  4-C , 15-H ) :   0.9294 B(  5-C , 16-H ) :   0.9422
B(  5-C , 17-H ) :   0.9405 B(  5-C , 18-H ) :   0.9309 B(  6-C , 19-H ) :   0.9401
B(  6-C , 20-H ) :   0.9399 B(  6-C , 21-H ) :   0.9306 B(  7-C ,  8-O ) :   2.0177
B(  7-C , 22-H ) :   0.9422

MP2 TOTAL ENERGY:     -424.721909033 Eh
FINAL SINGLE POINT ENERGY      -424.721909032620

DIPOLE MOMENT
-------------
                                X             Y             Z
Electronic contribution:     -8.35320       1.57382      -5.28647
Nuclear contribution   :      8.49885      -1.30414       6.03810
                        -----------------------------------------
Total Dipole Moment    :      0.14565       0.26968       0.75163
                        -----------------------------------------
Magnitude (a.u.)       :      0.81172
Magnitude (Debye)      :      2.06324

                             ****ORCA TERMINATED NORMALLY****
TOTAL RUN TIME: 0 days 0 hours 18 minutes 41 seconds 360 msec
