                         Program Version 3.0.3 - RELEASE   -
|  1> ! RI-MP2 RIJK def2-TZVP def2-TZVP/C def2-TZVP/JK TIGHTSCF
|  2> % maxcore 2000
|  3> % mp2 density relaxed end
|  4> *xyz 0 1
|  5>  O        0.1949250262     1.3456194784     0.3122939748
|  6>  C        0.0328102488    -0.0236440884     0.0394955809
|  7>  C       -0.6913526712    -0.8732059910     1.0602303084
|  8>  C       -1.3873339247    -0.4520876695    -0.2121935390
|  9>  C        1.1329248040    -0.6148065392    -0.7542834718
| 10>  C        2.1854162062     0.0442331137    -1.3377132482
| 11>  N        2.9285472249    -0.9382441172    -1.9609925611
| 12>  C        2.3029521934    -2.1243495338    -1.7313142724
| 13>  N        1.2198399640    -1.9685277371    -1.0060040309
| 14>  H        0.8966185398     1.4246130394     0.9687396416
| 15>  H       -0.3802784563    -1.9068383408     1.1543609692
| 16>  H       -0.9851013145    -0.3757647518     1.9780563095
| 17>  H       -2.1386013759     0.3262047731    -0.1434482585
| 18>  H       -1.5504119037    -1.2021087034    -0.9770284360
| 19>  H        2.4505790895     1.0858060053    -1.3841917508
| 20>  H        3.7744865652    -0.7993353550    -2.4871465853
| 21>  H        2.6816911040    -3.0613760028    -2.1119154206
| 22> *
| 23>
| 24>                          ****END OF INPUT****

CARTESIAN COORDINATES (ANGSTROEM)
---------------------------------
  O      0.194925    1.345619    0.312294
  C      0.032810   -0.023644    0.039496
  C     -0.691353   -0.873206    1.060230
  C     -1.387334   -0.452088   -0.212194
  C      1.132925   -0.614807   -0.754283
  C      2.185416    0.044233   -1.337713
  N      2.928547   -0.938244   -1.960993
  C      2.302952   -2.124350   -1.731314
  N      1.219840   -1.968528   -1.006004
  H      0.896619    1.424613    0.968740
  H     -0.380278   -1.906838    1.154361
  H     -0.985101   -0.375765    1.978056
  H     -2.138601    0.326205   -0.143448
  H     -1.550412   -1.202109   -0.977028
  H      2.450579    1.085806   -1.384192
  H      3.774487   -0.799335   -2.487147
  H      2.681691   -3.061376   -2.111915

 Total Charge           Charge          ....    0
 Multiplicity           Mult            ....    1
 Number of Electrons    NEL             ....   66
 Basis Dimension        Dim             ....  327

ORBITAL ENERGIES
----------------

  NO   OCC          E(Eh)            E(eV)
   0   2.0000     -20.558946      -559.4374
   1   2.0000     -15.619615      -425.0313
   2   2.0000     -15.544368      -422.9838
   3   2.0000     -11.298981      -307.4609
   4   2.0000     -11.284181      -307.0582
   5   2.0000     -11.254337      -306.2461
   6   2.0000     -11.248555      -306.0887
   7   2.0000     -11.215751      -305.1961
   8   2.0000     -11.215058      -305.1773
   9   2.0000      -1.370239       -37.2861
  10   2.0000      -1.340042       -36.4644
  11   2.0000      -1.172494       -31.9052
  12   2.0000      -1.117567       -30.4106
  13   2.0000      -1.012368       -27.5479
  14   2.0000      -0.856554       -23.3080
  15   2.0000      -0.829455       -22.5706
  16   2.0000      -0.819205       -22.2917
  17   2.0000      -0.768611       -20.9150
  18   2.0000      -0.744297       -20.2534
  19   2.0000      -0.676381       -18.4053
  20   2.0000      -0.636939       -17.3320
  21   2.0000      -0.621690       -16.9170
  22   2.0000      -0.602351       -16.3908
  23   2.0000      -0.599876       -16.3235
  24   2.0000      -0.593908       -16.1611
  25   2.0000      -0.549180       -14.9439
  26   2.0000      -0.509418       -13.8620
  27   2.0000      -0.501036       -13.6339
  28   2.0000      -0.442995       -12.0545
  29   2.0000      -0.435172       -11.8416
  30   2.0000      -0.408558       -11.1174
  31   2.0000      -0.384148       -10.4532
  32   2.0000      -0.306049        -8.3280
  33   0.0000       0.125214         3.4072
  34   0.0000       0.149366         4.0644
  35   0.0000       0.162786         4.4296
  36   0.0000       0.182919         4.9775
  37   0.0000       0.186800         5.0831

MULLIKEN ATOMIC CHARGES
-----------------------
   0 O :   -0.472614
   1 C :    0.251760
   2 C :   -0.306728
   3 C :   -0.254834
   4 C :    0.016694
   5 C :   -0.143583
   6 N :   -0.253586
   7 C :    0.052412
   8 N :   -0.319420
   9 H :    0.321181
  10 H :    0.142358
  11 H :    0.132363
  12 H :    0.130331
  13 H :    0.143718
  14 H :    0.159572
  15 H :    0.250044
  16 H :    0.150334
Sum of atomic charges:   -0.0000000

LOEWDIN ATOMIC CHARGES
----------------------
   0 O :    0.026791
   1 C :   -0.336491
   2 C :   -0.207375
   3 C :   -0.193919
   4 C :   -0.235442
   5 C :   -0.214790
   6 N :    0.174450
   7 C :   -0.318477
   8 N :    0.113469
   9 H :    0.181917
  10 H :    0.138793
  11 H :    0.133265
  12 H :    0.137504
  13 H :    0.139035
  14 H :    0.138168
  15 H :    0.193065
  16 H :    0.130039

  Mayer bond orders larger than 0.1
B(  0-O ,  1-C ) :   0.9663 B(  0-O ,  9-H ) :   0.8412 B(  1-C ,  2-C ) :   0.8798
B(  1-C ,  3-C ) :   0.8509 B(  1-C ,  4-C ) :   0.9372 B(  2-C ,  3-C ) :   0.9242
B(  2-C , 10-H ) :   0.9097 B(  2-C , 11-H ) :   0.9248 B(  3-C , 12-H ) :   0.9225
B(  3-C , 13-H ) :   0.9274 B(  4-C ,  5-C ) :   1.4988 B(  4-C ,  8-N ) :   1.2342
B(  5-C ,  6-N ) :   1.1360 B(  5-C , 14-H ) :   0.8911 B(  6-N ,  7-C ) :   1.1703
B(  6-N , 15-H ) :   0.8695 B(  7-C ,  8-N ) :   1.5414 B(  7-C , 16-H ) :   0.9267

MP2 TOTAL ENERGY:     -417.324222511 Eh
FINAL SINGLE POINT ENERGY      -417.324222511271

DIPOLE MOMENT
-------------
                                X             Y             Z
Electronic contribution:      3.54971       0.02077      -2.09094
Nuclear contribution   :     -2.12880       0.16011       1.71219
                        -----------------------------------------
Total Dipole Moment    :      1.42092       0.18087      -0.37875
                        -----------------------------------------
Magnitude (a.u.)       :      1.48161
Magnitude (Debye)      :      3.76595

                             ****ORCA TERMINATED NORMALLY****
TOTAL RUN TIME: 0 days 0 hours 22 minutes 24 seconds 253 msec
