                         Program Version 3.0.3 - RELEASE   -
|  1> ! RI-MP2 RIJK def2-TZVP def2-TZVP/C def2-TZVP/JK TIGHTSCF
|  2> % maxcore 2000
|  3> % mp2 density relaxed end
|  4> *xyz 0 1
|  5>  C       -0.0530405136     1.5083294331    -0.0838401313
|  6>  C        1.4612505409     1.4755392930    -0.0793423017
|  7>  C        1.3696601230     0.2797422765     0.8898794779
|  8>  C        2.4311241686    -0.4782826653     0.1365411847
|  9>  O        3.7417764585     0.1087815690    -0.1339428306
| 10>  C        3.3485464778     0.3813589036    -1.5161219462
| 11>  C        1.8871993177     0.2857368262    -1.0865381672
| 12>  C        0.5327430984    -0.3661140904    -1.2904874108
| 13>  N       -0.0008068165     0.0002732469     0.0887521825
| 14>  H       -0.4670917784     1.9708792351     0.8171198730
| 15>  H       -0.6106612373     1.8517630476    -0.9609887314
| 16>  H        2.1347367353     2.3245115516     0.0244918713
| 17>  H        1.1840026137     0.3194813574     1.9632125619
| 18>  H        2.4868231945    -1.5702261387     0.1892219316
| 19>  H        3.7214750050     1.3493064976    -1.8647875683
| 20>  H        3.6907896991    -0.4171033352    -2.1883622974
| 21>  H       -0.1328073741     0.0502668437    -2.0495734356
| 22>  H        0.5904645574    -1.4491492317    -1.4205511225
| 23> *
| 24>
| 25>                          ****END OF INPUT****

CARTESIAN COORDINATES (ANGSTROEM)
---------------------------------
  C     -0.053041    1.508329   -0.083840
  C      1.461251    1.475539   -0.079342
  C      1.369660    0.279742    0.889879
  C      2.431124   -0.478283    0.136541
  O      3.741776    0.108782   -0.133943
  C      3.348546    0.381359   -1.516122
  C      1.887199    0.285737   -1.086538
  C      0.532743   -0.366114   -1.290487
  N     -0.000807    0.000273    0.088752
  H     -0.467092    1.970879    0.817120
  H     -0.610661    1.851763   -0.960989
  H      2.134737    2.324512    0.024492
  H      1.184003    0.319481    1.963213
  H      2.486823   -1.570226    0.189222
  H      3.721475    1.349306   -1.864788
  H      3.690790   -0.417103   -2.188362
  H     -0.132807    0.050267   -2.049573
  H      0.590465   -1.449149   -1.420551

 Total Charge           Charge          ....    0
 Multiplicity           Mult            ....    1
 Number of Electrons    NEL             ....   66
 Basis Dimension        Dim             ....  333

ORBITAL ENERGIES
----------------

  NO   OCC          E(Eh)            E(eV)
   0   2.0000     -20.558698      -559.4306
   1   2.0000     -15.567437      -423.6115
   2   2.0000     -11.294163      -307.3298
   3   2.0000     -11.279378      -306.9275
   4   2.0000     -11.270073      -306.6743
   5   2.0000     -11.262370      -306.4647
   6   2.0000     -11.255444      -306.2762
   7   2.0000     -11.249368      -306.1109
   8   2.0000     -11.240880      -305.8799
   9   2.0000      -1.385647       -37.7054
  10   2.0000      -1.276331       -34.7307
  11   2.0000      -1.049825       -28.5672
  12   2.0000      -1.006376       -27.3849
  13   2.0000      -0.967509       -26.3273
  14   2.0000      -0.894790       -24.3485
  15   2.0000      -0.837789       -22.7974
  16   2.0000      -0.780270       -21.2322
  17   2.0000      -0.707522       -19.2526
  18   2.0000      -0.689314       -18.7572
  19   2.0000      -0.679825       -18.4990
  20   2.0000      -0.642518       -17.4838
  21   2.0000      -0.623385       -16.9632
  22   2.0000      -0.603858       -16.4318
  23   2.0000      -0.585304       -15.9269
  24   2.0000      -0.547114       -14.8877
  25   2.0000      -0.511113       -13.9081
  26   2.0000      -0.488205       -13.2847
  27   2.0000      -0.481729       -13.1085
  28   2.0000      -0.467493       -12.7211
  29   2.0000      -0.438899       -11.9430
  30   2.0000      -0.415588       -11.3087
  31   2.0000      -0.395814       -10.7706
  32   2.0000      -0.374219       -10.1830
  33   0.0000       0.140522         3.8238
  34   0.0000       0.158717         4.3189
  35   0.0000       0.163121         4.4387
  36   0.0000       0.168133         4.5751
  37   0.0000       0.185291         5.0420

MULLIKEN ATOMIC CHARGES
-----------------------
   0 C :   -0.173203
   1 C :   -0.125619
   2 C :   -0.041727
   3 C :   -0.012001
   4 O :   -0.324561
   5 C :   -0.014433
   6 C :   -0.060205
   7 C :   -0.133661
   8 N :   -0.190372
   9 H :    0.124067
  10 H :    0.117295
  11 H :    0.128002
  12 H :    0.133510
  13 H :    0.105178
  14 H :    0.114437
  15 H :    0.103857
  16 H :    0.125628
  17 H :    0.123808
Sum of atomic charges:   -0.0000000

LOEWDIN ATOMIC CHARGES
----------------------
   0 C :   -0.246418
   1 C :   -0.151612
   2 C :   -0.153230
   3 C :   -0.204651
   4 O :    0.132817
   5 C :   -0.232945
   6 C :   -0.192123
   7 C :   -0.228761
   8 N :    0.107809
   9 H :    0.136782
  10 H :    0.121119
  11 H :    0.137116
  12 H :    0.131312
  13 H :    0.131516
  14 H :    0.122739
  15 H :    0.123833
  16 H :    0.130415
  17 H :    0.134280

  Mayer bond orders larger than 0.1
B(  0-C ,  1-C ) :   0.9680 B(  0-C ,  8-N ) :   0.9236 B(  0-C ,  9-H ) :   0.9198
B(  0-C , 10-H ) :   0.9208 B(  1-C ,  2-C ) :   0.9000 B(  1-C ,  6-C ) :   0.8325
B(  1-C , 11-H ) :   0.8980 B(  2-C ,  3-C ) :   0.8921 B(  2-C ,  8-N ) :   0.8746
B(  2-C , 12-H ) :   0.9002 B(  3-C ,  4-O ) :   0.9790 B(  3-C ,  6-C ) :   0.8728
B(  3-C , 13-H ) :   0.9673 B(  4-O ,  5-C ) :   0.9261 B(  5-C ,  6-C ) :   0.9524
B(  5-C , 14-H ) :   0.9056 B(  5-C , 15-H ) :   0.9196 B(  6-C ,  7-C ) :   0.9411
B(  7-C ,  8-N ) :   0.9167 B(  7-C , 16-H ) :   0.9328 B(  7-C , 17-H ) :   0.9202

MP2 TOTAL ENERGY:     -401.141355835 Eh
FINAL SINGLE POINT ENERGY      -401.141355834634

DIPOLE MOMENT
-------------
                                X             Y             Z
Electronic contribution:      2.05872      -0.87191       1.59429
Nuclear contribution   :     -2.17342       1.18311      -2.20904
                        -----------------------------------------
Total Dipole Moment    :     -0.11471       0.31119      -0.61475
                        -----------------------------------------
Magnitude (a.u.)       :      0.69851
Magnitude (Debye)      :      1.77547

                             ****ORCA TERMINATED NORMALLY****
TOTAL RUN TIME: 0 days 0 hours 20 minutes 1 seconds 400 msec
