                         Program Version 3.0.3 - RELEASE   -
|  1> ! RI-MP2 RIJK def2-TZVP def2-TZVP/C def2-TZVP/JK TIGHTSCF
|  2> % maxcore 2000
|  3> % mp2 density relaxed end
|  4> *xyz 0 1
|  5>  C       -0.0066291391     1.5533931338     0.0116512675
|  6>  C       -0.0256862580     0.0049565115    -0.0317010686
|  7>  C       -1.3887485181    -0.5282267583     0.0016892777
|  8>  C       -2.5153850331    -0.9390066410     0.0460710838
|  9>  C        0.7032444280    -0.4877982074    -1.2134398370
| 10>  N        1.2941152314    -0.8537732601    -2.1357618267
| 11>  H        1.0235907675     1.9164347173     0.0159274978
| 12>  H       -0.5239821066     1.9641680570    -0.8573784867
| 13>  H       -0.5127630861     1.8951903705     0.9167725408
| 14>  H        0.5154867860    -0.3695766875     0.8479880871
| 15>  H       -3.5090365519    -1.3132901258     0.0800076943
| 16> *
| 17>
| 18>                          ****END OF INPUT****

CARTESIAN COORDINATES (ANGSTROEM)
---------------------------------
  C     -0.006629    1.553393    0.011651
  C     -0.025686    0.004957   -0.031701
  C     -1.388749   -0.528227    0.001689
  C     -2.515385   -0.939007    0.046071
  C      0.703244   -0.487798   -1.213440
  N      1.294115   -0.853773   -2.135762
  H      1.023591    1.916435    0.015927
  H     -0.523982    1.964168   -0.857378
  H     -0.512763    1.895190    0.916773
  H      0.515487   -0.369577    0.847988
  H     -3.509037   -1.313290    0.080008

 Total Charge           Charge          ....    0
 Multiplicity           Mult            ....    1
 Number of Electrons    NEL             ....   42
 Basis Dimension        Dim             ....  216

ORBITAL ENERGIES
----------------

  NO   OCC          E(Eh)            E(eV)
   0   2.0000     -15.577007      -423.8719
   1   2.0000     -11.323519      -308.1286
   2   2.0000     -11.281069      -306.9735
   3   2.0000     -11.259017      -306.3734
   4   2.0000     -11.258061      -306.3474
   5   2.0000     -11.248859      -306.0970
   6   2.0000      -1.227861       -33.4118
   7   2.0000      -1.129463       -30.7343
   8   2.0000      -1.027405       -27.9571
   9   2.0000      -0.928254       -25.2591
  10   2.0000      -0.769606       -20.9420
  11   2.0000      -0.717955       -19.5365
  12   2.0000      -0.688249       -18.7282
  13   2.0000      -0.608127       -16.5480
  14   2.0000      -0.580353       -15.7922
  15   2.0000      -0.562280       -15.3004
  16   2.0000      -0.553913       -15.0727
  17   2.0000      -0.473314       -12.8795
  18   2.0000      -0.469383       -12.7726
  19   2.0000      -0.416796       -11.3416
  20   2.0000      -0.411718       -11.2034
  21   0.0000       0.113349         3.0844
  22   0.0000       0.144008         3.9186
  23   0.0000       0.153811         4.1854
  24   0.0000       0.164222         4.4687
  25   0.0000       0.170000         4.6259

MULLIKEN ATOMIC CHARGES
-----------------------
   0 C :   -0.381879
   1 C :   -0.044162
   2 C :   -0.050169
   3 C :   -0.118488
   4 C :   -0.155758
   5 N :   -0.057594
   6 H :    0.152666
   7 H :    0.149053
   8 H :    0.151207
   9 H :    0.153273
  10 H :    0.201851
Sum of atomic charges:   -0.0000000

LOEWDIN ATOMIC CHARGES
----------------------
   0 C :   -0.244484
   1 C :   -0.250596
   2 C :   -0.076402
   3 C :   -0.070279
   4 C :   -0.152474
   5 N :    0.070432
   6 H :    0.132093
   7 H :    0.134863
   8 H :    0.132659
   9 H :    0.192854
  10 H :    0.131336

  Mayer bond orders larger than 0.1
B(  0-C ,  1-C ) :   0.9068 B(  0-C ,  6-H ) :   0.9314 B(  0-C ,  7-H ) :   0.9251
B(  0-C ,  8-H ) :   0.9325 B(  1-C ,  2-C ) :   1.1010 B(  1-C ,  4-C ) :   0.9211
B(  1-C ,  9-H ) :   0.9094 B(  2-C ,  3-C ) :   2.6057 B(  3-C , 10-H ) :   0.8915
B(  4-C ,  5-N ) :   2.8577

MP2 TOTAL ENERGY:     -247.676052506 Eh
FINAL SINGLE POINT ENERGY      -247.676052506441

DIPOLE MOMENT
-------------
                                X             Y             Z
Electronic contribution:      0.73266      -3.95614      -2.31716
Nuclear contribution   :     -1.40433       4.58313       3.49117
                        -----------------------------------------
Total Dipole Moment    :     -0.67167       0.62698       1.17400
                        -----------------------------------------
Magnitude (a.u.)       :      1.49082
Magnitude (Debye)      :      3.78936

                             ****ORCA TERMINATED NORMALLY****
TOTAL RUN TIME: 0 days 0 hours 4 minutes 4 seconds 130 msec
