                         Program Version 3.0.3 - RELEASE   -
|  1> ! RI-MP2 RIJK def2-TZVP def2-TZVP/C def2-TZVP/JK TIGHTSCF
|  2> % maxcore 2000
|  3> % mp2 density relaxed end
|  4> *xyz 0 1
|  5>  O        0.0217969121     0.0311571215    -0.2899447124
|  6>  C        0.0120783720     1.2211216924    -0.0334357014
|  7>  C       -1.2439656793     1.9739482970     0.1579010588
|  8>  C       -1.2453697440     3.3081634782     0.2502114928
|  9>  C        0.0224155023     4.1093586122     0.2947534539
| 10>  N        1.1309368127     3.2742912020     0.7393095112
| 11>  C        1.2710207753     2.0436592167    -0.0009784457
| 12>  C        2.5763893429     1.3115596921     0.0278863967
| 13>  C        2.1353783859     1.9404300993    -1.2671077909
| 14>  H       -2.1579339775     1.3900764511     0.1248821113
| 15>  H       -2.1802446507     3.8619423582     0.2769056584
| 16>  H        0.1741819437     4.5697563696    -0.7039024834
| 17>  H       -0.0923894027     4.9410496799     1.0000067550
| 18>  H        1.9997581124     3.7959727597     0.7374640342
| 19>  H        3.3901127470     1.7752256700     0.5765178205
| 20>  H        2.5150678681     0.2326210689     0.1092383654
| 21>  H        1.7970796419     1.2855331788    -2.0621723421
| 22>  H        2.6306731379     2.8500518524    -1.5919123521
| 23> *
| 24>
| 25>                          ****END OF INPUT****

CARTESIAN COORDINATES (ANGSTROEM)
---------------------------------
  O      0.021797    0.031157   -0.289945
  C      0.012078    1.221122   -0.033436
  C     -1.243966    1.973948    0.157901
  C     -1.245370    3.308163    0.250211
  C      0.022416    4.109359    0.294753
  N      1.130937    3.274291    0.739310
  C      1.271021    2.043659   -0.000978
  C      2.576389    1.311560    0.027886
  C      2.135378    1.940430   -1.267108
  H     -2.157934    1.390076    0.124882
  H     -2.180245    3.861942    0.276906
  H      0.174182    4.569756   -0.703902
  H     -0.092389    4.941050    1.000007
  H      1.999758    3.795973    0.737464
  H      3.390113    1.775226    0.576518
  H      2.515068    0.232621    0.109238
  H      1.797080    1.285533   -2.062172
  H      2.630673    2.850052   -1.591912

 Total Charge           Charge          ....    0
 Multiplicity           Mult            ....    1
 Number of Electrons    NEL             ....   66
 Basis Dimension        Dim             ....  333

ORBITAL ENERGIES
----------------

  NO   OCC          E(Eh)            E(eV)
   0   2.0000     -20.534211      -558.7643
   1   2.0000     -15.564225      -423.5241
   2   2.0000     -11.326760      -308.2168
   3   2.0000     -11.276674      -306.8539
   4   2.0000     -11.274781      -306.8024
   5   2.0000     -11.265784      -306.5576
   6   2.0000     -11.237653      -305.7921
   7   2.0000     -11.236311      -305.7556
   8   2.0000     -11.232149      -305.6423
   9   2.0000      -1.378443       -37.5093
  10   2.0000      -1.248288       -33.9676
  11   2.0000      -1.129672       -30.7399
  12   2.0000      -1.077069       -29.3085
  13   2.0000      -0.965797       -26.2807
  14   2.0000      -0.869545       -23.6615
  15   2.0000      -0.835679       -22.7400
  16   2.0000      -0.809928       -22.0393
  17   2.0000      -0.703971       -19.1560
  18   2.0000      -0.698549       -19.0085
  19   2.0000      -0.678579       -18.4651
  20   2.0000      -0.632268       -17.2049
  21   2.0000      -0.629398       -17.1268
  22   2.0000      -0.613357       -16.6903
  23   2.0000      -0.603445       -16.4206
  24   2.0000      -0.566084       -15.4039
  25   2.0000      -0.543653       -14.7936
  26   2.0000      -0.523465       -14.2442
  27   2.0000      -0.514461       -13.9992
  28   2.0000      -0.469242       -12.7687
  29   2.0000      -0.452301       -12.3077
  30   2.0000      -0.407008       -11.0752
  31   2.0000      -0.380500       -10.3539
  32   2.0000      -0.356092        -9.6898
  33   0.0000       0.091581         2.4920
  34   0.0000       0.126851         3.4518
  35   0.0000       0.153651         4.1810
  36   0.0000       0.168589         4.5875
  37   0.0000       0.182236         4.9589

MULLIKEN ATOMIC CHARGES
-----------------------
   0 O :   -0.317172
   1 C :    0.234909
   2 C :   -0.257522
   3 C :   -0.096865
   4 C :   -0.094180
   5 N :   -0.295257
   6 C :    0.090837
   7 C :   -0.254842
   8 C :   -0.291663
   9 H :    0.135495
  10 H :    0.138524
  11 H :    0.108911
  12 H :    0.133368
  13 H :    0.201829
  14 H :    0.135038
  15 H :    0.155540
  16 H :    0.143637
  17 H :    0.129413
Sum of atomic charges:    0.0000000

LOEWDIN ATOMIC CHARGES
----------------------
   0 O :    0.145458
   1 C :   -0.285420
   2 C :   -0.126066
   3 C :   -0.121218
   4 C :   -0.286847
   5 N :    0.044492
   6 C :   -0.274031
   7 C :   -0.195678
   8 C :   -0.200668
   9 H :    0.153050
  10 H :    0.147281
  11 H :    0.132421
  12 H :    0.141270
  13 H :    0.174942
  14 H :    0.135448
  15 H :    0.145667
  16 H :    0.138663
  17 H :    0.131235

  Mayer bond orders larger than 0.1
B(  0-O ,  1-C ) :   1.9145 B(  1-C ,  2-C ) :   1.0355 B(  1-C ,  6-C ) :   0.9307
B(  2-C ,  3-C ) :   1.7127 B(  2-C ,  9-H ) :   0.9171 B(  3-C ,  4-C ) :   0.9436
B(  3-C , 10-H ) :   0.9179 B(  4-C ,  5-N ) :   0.9787 B(  4-C , 11-H ) :   0.9038
B(  4-C , 12-H ) :   0.9150 B(  5-N ,  6-C ) :   1.0079 B(  5-N , 13-H ) :   0.8748
B(  6-C ,  7-C ) :   0.8469 B(  6-C ,  8-C ) :   0.8078 B(  7-C ,  8-C ) :   0.9155
B(  7-C , 14-H ) :   0.9282 B(  7-C , 15-H ) :   0.9152 B(  8-C , 16-H ) :   0.9074
B(  8-C , 17-H ) :   0.9236

MP2 TOTAL ENERGY:     -401.254676542 Eh
FINAL SINGLE POINT ENERGY      -401.254676542440

DIPOLE MOMENT
-------------
                                X             Y             Z
Electronic contribution:     -2.83099      -3.68359       1.12087
Nuclear contribution   :      2.99923       5.16443      -1.25395
                        -----------------------------------------
Total Dipole Moment    :      0.16824       1.48085      -0.13308
                        -----------------------------------------
Magnitude (a.u.)       :      1.49630
Magnitude (Debye)      :      3.80330

                             ****ORCA TERMINATED NORMALLY****
TOTAL RUN TIME: 0 days 0 hours 19 minutes 11 seconds 117 msec
