                         Program Version 3.0.3 - RELEASE   -
|  1> ! RI-MP2 RIJK def2-TZVP def2-TZVP/C def2-TZVP/JK TIGHTSCF
|  2> % maxcore 2000
|  3> % mp2 density relaxed end
|  4> *xyz 0 1
|  5>  C        0.0752708741     1.5514352960    -0.0661539524
|  6>  O        1.3968002034     1.5627485272     0.5083248104
|  7>  C        1.4688546973     0.1239377248     0.4883520628
|  8>  C        0.0226625854    -0.0006686408    -0.0457402119
|  9>  C       -0.9895941737    -0.5804087841     0.9457115476
| 10>  C       -2.4329097025    -0.3638278357     0.4636040377
| 11>  C       -2.5907563968    -0.6693040392    -1.0027307825
| 12>  C       -1.5607829317    -0.8224775612    -1.8342783281
| 13>  C       -0.1217191967    -0.6839229590    -1.4076860391
| 14>  H       -0.6525774885     2.0668702343     0.5739544297
| 15>  H        0.0553136275     2.0095439261    -1.0639054326
| 16>  H        2.2498085626    -0.2383960878    -0.1947835209
| 17>  H        1.6495677595    -0.2948741356     1.4872381034
| 18>  H       -0.8005845972    -1.6565488227     1.0538010138
| 19>  H       -0.8477962673    -0.1325296114     1.9358001321
| 20>  H       -3.1198274817    -0.9858582468     1.0508744022
| 21>  H       -2.7475186484     0.6725978910     0.6576977818
| 22>  H       -3.6063403096    -0.7641712951    -1.3799118922
| 23>  H       -1.7409090248    -1.0583737594    -2.8804174443
| 24>  H        0.4428294035    -0.1265378531    -2.1668074227
| 25>  H        0.3500792056    -1.6783980175    -1.3689898849
| 26> *
| 27>
| 28>                          ****END OF INPUT****

CARTESIAN COORDINATES (ANGSTROEM)
---------------------------------
  C      0.075271    1.551435   -0.066154
  O      1.396800    1.562749    0.508325
  C      1.468855    0.123938    0.488352
  C      0.022663   -0.000669   -0.045740
  C     -0.989594   -0.580409    0.945712
  C     -2.432910   -0.363828    0.463604
  C     -2.590756   -0.669304   -1.002731
  C     -1.560783   -0.822478   -1.834278
  C     -0.121719   -0.683923   -1.407686
  H     -0.652577    2.066870    0.573954
  H      0.055314    2.009544   -1.063905
  H      2.249809   -0.238396   -0.194784
  H      1.649568   -0.294874    1.487238
  H     -0.800585   -1.656549    1.053801
  H     -0.847796   -0.132530    1.935800
  H     -3.119827   -0.985858    1.050874
  H     -2.747519    0.672598    0.657698
  H     -3.606340   -0.764171   -1.379912
  H     -1.740909   -1.058374   -2.880417
  H      0.442829   -0.126538   -2.166807
  H      0.350079   -1.678398   -1.368990

 Total Charge           Charge          ....    0
 Multiplicity           Mult            ....    1
 Number of Electrons    NEL             ....   68
 Basis Dimension        Dim             ....  351

ORBITAL ENERGIES
----------------

  NO   OCC          E(Eh)            E(eV)
   0   2.0000     -20.543081      -559.0057
   1   2.0000     -11.272506      -306.7405
   2   2.0000     -11.271589      -306.7155
   3   2.0000     -11.238476      -305.8145
   4   2.0000     -11.230888      -305.6080
   5   2.0000     -11.230204      -305.5894
   6   2.0000     -11.228589      -305.5454
   7   2.0000     -11.226888      -305.4992
   8   2.0000     -11.226684      -305.4936
   9   2.0000      -1.373197       -37.3666
  10   2.0000      -1.130404       -30.7598
  11   2.0000      -1.030911       -28.0525
  12   2.0000      -1.012017       -27.5384
  13   2.0000      -0.931139       -25.3376
  14   2.0000      -0.895452       -24.3665
  15   2.0000      -0.852759       -23.2047
  16   2.0000      -0.757527       -20.6133
  17   2.0000      -0.703496       -19.1431
  18   2.0000      -0.678204       -18.4549
  19   2.0000      -0.668292       -18.1852
  20   2.0000      -0.625432       -17.0189
  21   2.0000      -0.610802       -16.6208
  22   2.0000      -0.591859       -16.1053
  23   2.0000      -0.569870       -15.5069
  24   2.0000      -0.564149       -15.3513
  25   2.0000      -0.552926       -15.0459
  26   2.0000      -0.534216       -14.5368
  27   2.0000      -0.517487       -14.0816
  28   2.0000      -0.501873       -13.6566
  29   2.0000      -0.460207       -12.5229
  30   2.0000      -0.435880       -11.8609
  31   2.0000      -0.426644       -11.6096
  32   2.0000      -0.408184       -11.1073
  33   2.0000      -0.351132        -9.5548
  34   0.0000       0.126976         3.4552
  35   0.0000       0.154307         4.1989
  36   0.0000       0.158600         4.3157
  37   0.0000       0.166830         4.5397
  38   0.0000       0.170572         4.6415

MULLIKEN ATOMIC CHARGES
-----------------------
   0 C :   -0.057344
   1 O :   -0.327998
   2 C :   -0.034498
   3 C :    0.128206
   4 C :   -0.291646
   5 C :   -0.180598
   6 C :   -0.171323
   7 C :   -0.200710
   8 C :   -0.227267
   9 H :    0.088697
  10 H :    0.093112
  11 H :    0.089634
  12 H :    0.092622
  13 H :    0.115525
  14 H :    0.138152
  15 H :    0.129556
  16 H :    0.120893
  17 H :    0.121303
  18 H :    0.121268
  19 H :    0.130699
  20 H :    0.121720
Sum of atomic charges:   -0.0000000

LOEWDIN ATOMIC CHARGES
----------------------
   0 C :   -0.227661
   1 O :    0.112163
   2 C :   -0.231941
   3 C :   -0.259687
   4 C :   -0.215540
   5 C :   -0.250614
   6 C :   -0.172545
   7 C :   -0.169717
   8 C :   -0.216318
   9 H :    0.118027
  10 H :    0.118880
  11 H :    0.117975
  12 H :    0.117971
  13 H :    0.145456
  14 H :    0.143980
  15 H :    0.144066
  16 H :    0.144090
  17 H :    0.141573
  18 H :    0.141584
  19 H :    0.148644
  20 H :    0.149613

  Mayer bond orders larger than 0.1
B(  0-C ,  1-O ) :   0.9677 B(  0-C ,  3-C ) :   0.9564 B(  0-C ,  9-H ) :   0.9040
B(  0-C , 10-H ) :   0.9002 B(  1-O ,  2-C ) :   0.9717 B(  2-C ,  3-C ) :   0.9436
B(  2-C , 11-H ) :   0.9035 B(  2-C , 12-H ) :   0.9025 B(  3-C ,  4-C ) :   0.8888
B(  3-C ,  8-C ) :   0.9286 B(  4-C ,  5-C ) :   0.9430 B(  4-C , 13-H ) :   0.9232
B(  4-C , 14-H ) :   0.9328 B(  5-C ,  6-C ) :   0.9370 B(  5-C , 15-H ) :   0.9260
B(  5-C , 16-H ) :   0.9134 B(  6-C ,  7-C ) :   1.8055 B(  6-C , 17-H ) :   0.9299
B(  7-C ,  8-C ) :   0.9404 B(  7-C , 18-H ) :   0.9296 B(  8-C , 19-H ) :   0.9241
B(  8-C , 20-H ) :   0.9047

MP2 TOTAL ENERGY:     -386.404482979 Eh
FINAL SINGLE POINT ENERGY      -386.404482979302

DIPOLE MOMENT
-------------
                                X             Y             Z
Electronic contribution:      2.24284       1.94216      -0.16034
Nuclear contribution   :     -2.74903      -2.52216       0.00677
                        -----------------------------------------
Total Dipole Moment    :     -0.50619      -0.57999      -0.15358
                        -----------------------------------------
Magnitude (a.u.)       :      0.78499
Magnitude (Debye)      :      1.99529

                             ****ORCA TERMINATED NORMALLY****
TOTAL RUN TIME: 0 days 0 hours 18 minutes 58 seconds 86 msec
