                         Program Version 3.0.3 - RELEASE   -
|  1> ! RI-MP2 RIJK def2-TZVP def2-TZVP/C def2-TZVP/JK TIGHTSCF
|  2> % maxcore 2000
|  3> % mp2 density relaxed end
|  4> *xyz 0 1
|  5>  N       -0.0583871607     1.2701652052    -0.0274982501
|  6>  C       -0.0334510961     0.0121642739    -0.0145161941
|  7>  O        1.1068254479    -0.7685097962     0.0056755684
|  8>  C        0.6697692548    -2.1577817384    -0.0025715545
|  9>  C       -0.6160399821    -2.0985837503    -0.8334374911
| 10>  C       -1.2041739684    -0.9446155124     0.0200941163
| 11>  C       -1.1915834636    -1.5664528268     1.4432485974
| 12>  C        0.1092233753    -2.3938985921     1.4169110459
| 13>  O        0.5757276906    -3.0709226924     2.2890576496
| 14>  H        0.8890242567     1.6532231681    -0.0217759859
| 15>  H        1.4985550414    -2.7918063846    -0.3059639615
| 16>  H       -0.4309121857    -1.8249338533    -1.8745370141
| 17>  H       -1.2032264308    -3.0198366556    -0.7889291177
| 18>  H       -2.1438425422    -0.4991708263    -0.2942108112
| 19>  H       -1.1872751208    -0.8311049880     2.2511634495
| 20>  H       -2.0433787063    -2.2367080710     1.5986989430
| 21> *
| 22>
| 23>                          ****END OF INPUT****

CARTESIAN COORDINATES (ANGSTROEM)
---------------------------------
  N     -0.058387    1.270165   -0.027498
  C     -0.033451    0.012164   -0.014516
  O      1.106825   -0.768510    0.005676
  C      0.669769   -2.157782   -0.002572
  C     -0.616040   -2.098584   -0.833437
  C     -1.204174   -0.944616    0.020094
  C     -1.191583   -1.566453    1.443249
  C      0.109223   -2.393899    1.416911
  O      0.575728   -3.070923    2.289058
  H      0.889024    1.653223   -0.021776
  H      1.498555   -2.791806   -0.305964
  H     -0.430912   -1.824934   -1.874537
  H     -1.203226   -3.019837   -0.788929
  H     -2.143843   -0.499171   -0.294211
  H     -1.187275   -0.831105    2.251163
  H     -2.043379   -2.236708    1.598699

 Total Charge           Charge          ....    0
 Multiplicity           Mult            ....    1
 Number of Electrons    NEL             ....   66
 Basis Dimension        Dim             ....  321

ORBITAL ENERGIES
----------------

  NO   OCC          E(Eh)            E(eV)
   0   2.0000     -20.611367      -560.8638
   1   2.0000     -20.570172      -559.7428
   2   2.0000     -15.545818      -423.0232
   3   2.0000     -11.350018      -308.8497
   4   2.0000     -11.347954      -308.7935
   5   2.0000     -11.320948      -308.0587
   6   2.0000     -11.272669      -306.7449
   7   2.0000     -11.265796      -306.5579
   8   2.0000     -11.262706      -306.4738
   9   2.0000      -1.448999       -39.4293
  10   2.0000      -1.410561       -38.3833
  11   2.0000      -1.208647       -32.8890
  12   2.0000      -1.156157       -31.4606
  13   2.0000      -1.007424       -27.4134
  14   2.0000      -0.978592       -26.6288
  15   2.0000      -0.858972       -23.3738
  16   2.0000      -0.810373       -22.0514
  17   2.0000      -0.745846       -20.2955
  18   2.0000      -0.722265       -19.6538
  19   2.0000      -0.701259       -19.0822
  20   2.0000      -0.674388       -18.3510
  21   2.0000      -0.655889       -17.8477
  22   2.0000      -0.612203       -16.6589
  23   2.0000      -0.593682       -16.1549
  24   2.0000      -0.581366       -15.8198
  25   2.0000      -0.561835       -15.2883
  26   2.0000      -0.550409       -14.9774
  27   2.0000      -0.540195       -14.6994
  28   2.0000      -0.522029       -14.2051
  29   2.0000      -0.497412       -13.5353
  30   2.0000      -0.442553       -12.0425
  31   2.0000      -0.427452       -11.6316
  32   2.0000      -0.400537       -10.8992
  33   0.0000       0.117519         3.1979
  34   0.0000       0.126952         3.4545
  35   0.0000       0.155603         4.2342
  36   0.0000       0.163301         4.4436
  37   0.0000       0.169657         4.6166

MULLIKEN ATOMIC CHARGES
-----------------------
   0 N :   -0.353824
   1 C :    0.033343
   2 O :   -0.259961
   3 C :    0.156118
   4 C :   -0.334338
   5 C :    0.060956
   6 C :   -0.268136
   7 C :    0.066240
   8 O :   -0.238745
   9 H :    0.229701
  10 H :    0.151720
  11 H :    0.145756
  12 H :    0.148711
  13 H :    0.148608
  14 H :    0.160513
  15 H :    0.153338
Sum of atomic charges:   -0.0000000

LOEWDIN ATOMIC CHARGES
----------------------
   0 N :   -0.045668
   1 C :   -0.382340
   2 O :    0.251755
   3 C :   -0.227100
   4 C :   -0.193422
   5 C :   -0.187204
   6 C :   -0.184594
   7 C :   -0.290750
   8 O :    0.175573
   9 H :    0.172220
  10 H :    0.146169
  11 H :    0.147649
  12 H :    0.147981
  13 H :    0.157232
  14 H :    0.156129
  15 H :    0.156369

  Mayer bond orders larger than 0.1
B(  0-N ,  1-C ) :   2.0977 B(  0-N ,  9-H ) :   0.8516 B(  1-C ,  2-O ) :   1.0700
B(  1-C ,  5-C ) :   0.8924 B(  2-O ,  3-C ) :   0.8277 B(  3-C ,  4-C ) :   0.9251
B(  3-C ,  6-C ) :  -0.1220 B(  3-C ,  7-C ) :   0.8346 B(  3-C , 10-H ) :   0.9090
B(  4-C ,  5-C ) :   0.8862 B(  4-C , 11-H ) :   0.9058 B(  4-C , 12-H ) :   0.9285
B(  5-C ,  6-C ) :   0.8680 B(  5-C , 13-H ) :   0.9083 B(  6-C ,  7-C ) :   0.9457
B(  6-C , 14-H ) :   0.9034 B(  6-C , 15-H ) :   0.9031 B(  7-C ,  8-O ) :   2.0536

MP2 TOTAL ENERGY:     -437.203392860 Eh
FINAL SINGLE POINT ENERGY      -437.203392860145

DIPOLE MOMENT
-------------
                                X             Y             Z
Electronic contribution:      3.48902      -0.14248       1.92123
Nuclear contribution   :     -4.00600      -0.40091      -2.66991
                        -----------------------------------------
Total Dipole Moment    :     -0.51698      -0.54340      -0.74868
                        -----------------------------------------
Magnitude (a.u.)       :      1.05975
Magnitude (Debye)      :      2.69367

                             ****ORCA TERMINATED NORMALLY****
TOTAL RUN TIME: 0 days 0 hours 17 minutes 31 seconds 360 msec
