                         Program Version 3.0.3 - RELEASE   -
|  1> ! RI-MP2 RIJK def2-TZVP def2-TZVP/C def2-TZVP/JK TIGHTSCF
|  2> % maxcore 2000
|  3> % mp2 density relaxed end
|  4> *xyz 0 1
|  5>  C       -0.2610474062     1.5778241168    -0.0136238656
|  6>  C        0.0046218866     0.0685862099    -0.0126865142
|  7>  C        0.7327513818    -0.4522783220    -1.2494283137
|  8>  C        2.1942003234    -0.1018427163    -1.4946482382
|  9>  C        2.9061233533     0.3084043579    -0.2036532201
| 10>  C        2.2107922672    -0.8952069433     0.5070012954
| 11>  C        1.8021574699    -1.4429273960    -0.8877406342
| 12>  C        0.9009251844    -0.4598679941     1.1703740526
| 13>  O        1.1885922942     0.4825812276     2.1904588667
| 14>  H        0.6603898050     2.1571612737    -0.1010729622
| 15>  H       -0.9063750840     1.8436646075    -0.8576949380
| 16>  H       -0.7712631270     1.9002669221     0.9005457585
| 17>  H       -0.9678422511    -0.4376725317     0.0417121526
| 18>  H        0.1576372223    -0.6298475424    -2.1529581830
| 19>  H        2.5418276247     0.0997745516    -2.5017562997
| 20>  H        3.9832891571     0.1410786174    -0.2864755680
| 21>  H        2.7335435900     1.3036091448     0.2139267833
| 22>  H        2.8432081236    -1.5061691038     1.1501913921
| 23>  H        1.9013292047    -2.4501630977    -1.2694984963
| 24>  H        0.4143950999    -1.3464491129     1.6068379551
| 25>  H        0.3677552400     0.7034305907     2.6404425670
| 26> *
| 27>
| 28>                          ****END OF INPUT****

CARTESIAN COORDINATES (ANGSTROEM)
---------------------------------
  C     -0.261047    1.577824   -0.013624
  C      0.004622    0.068586   -0.012687
  C      0.732751   -0.452278   -1.249428
  C      2.194200   -0.101843   -1.494648
  C      2.906123    0.308404   -0.203653
  C      2.210792   -0.895207    0.507001
  C      1.802157   -1.442927   -0.887741
  C      0.900925   -0.459868    1.170374
  O      1.188592    0.482581    2.190459
  H      0.660390    2.157161   -0.101073
  H     -0.906375    1.843665   -0.857695
  H     -0.771263    1.900267    0.900546
  H     -0.967842   -0.437673    0.041712
  H      0.157637   -0.629848   -2.152958
  H      2.541828    0.099775   -2.501756
  H      3.983289    0.141079   -0.286476
  H      2.733544    1.303609    0.213927
  H      2.843208   -1.506169    1.150191
  H      1.901329   -2.450163   -1.269498
  H      0.414395   -1.346449    1.606838
  H      0.367755    0.703431    2.640443

 Total Charge           Charge          ....    0
 Multiplicity           Mult            ....    1
 Number of Electrons    NEL             ....   68
 Basis Dimension        Dim             ....  351

ORBITAL ENERGIES
----------------

  NO   OCC          E(Eh)            E(eV)
   0   2.0000     -20.551183      -559.2261
   1   2.0000     -11.273206      -306.7595
   2   2.0000     -11.227471      -305.5150
   3   2.0000     -11.226606      -305.4915
   4   2.0000     -11.225454      -305.4601
   5   2.0000     -11.223949      -305.4192
   6   2.0000     -11.222925      -305.3913
   7   2.0000     -11.215070      -305.1776
   8   2.0000     -11.209793      -305.0340
   9   2.0000      -1.358352       -36.9626
  10   2.0000      -1.203331       -32.7443
  11   2.0000      -1.038476       -28.2584
  12   2.0000      -0.991728       -26.9863
  13   2.0000      -0.937861       -25.5205
  14   2.0000      -0.859049       -23.3759
  15   2.0000      -0.799440       -21.7539
  16   2.0000      -0.757646       -20.6166
  17   2.0000      -0.710852       -19.3433
  18   2.0000      -0.701997       -19.1023
  19   2.0000      -0.674403       -18.3514
  20   2.0000      -0.624157       -16.9842
  21   2.0000      -0.603178       -16.4133
  22   2.0000      -0.581586       -15.8257
  23   2.0000      -0.557430       -15.1684
  24   2.0000      -0.547049       -14.8860
  25   2.0000      -0.527229       -14.3466
  26   2.0000      -0.508448       -13.8356
  27   2.0000      -0.501557       -13.6481
  28   2.0000      -0.480054       -13.0629
  29   2.0000      -0.461511       -12.5583
  30   2.0000      -0.436369       -11.8742
  31   2.0000      -0.412209       -11.2168
  32   2.0000      -0.385847       -10.4994
  33   2.0000      -0.370432       -10.0800
  34   0.0000       0.127737         3.4759
  35   0.0000       0.154164         4.1950
  36   0.0000       0.164347         4.4721
  37   0.0000       0.170460         4.6384
  38   0.0000       0.191225         5.2035

MULLIKEN ATOMIC CHARGES
-----------------------
   0 C :   -0.409102
   1 C :   -0.001258
   2 C :   -0.155094
   3 C :   -0.112451
   4 C :   -0.282288
   5 C :    0.077192
   6 C :   -0.243778
   7 C :   -0.015396
   8 O :   -0.460989
   9 H :    0.135834
  10 H :    0.128562
  11 H :    0.103491
  12 H :    0.090099
  13 H :    0.121527
  14 H :    0.123918
  15 H :    0.115223
  16 H :    0.124366
  17 H :    0.123655
  18 H :    0.136528
  19 H :    0.087122
  20 H :    0.312837
Sum of atomic charges:    0.0000000

LOEWDIN ATOMIC CHARGES
----------------------
   0 C :   -0.293521
   1 C :   -0.233087
   2 C :   -0.163022
   3 C :   -0.162292
   4 C :   -0.191432
   5 C :   -0.167094
   6 C :   -0.135721
   7 C :   -0.291010
   8 O :   -0.009351
   9 H :    0.125671
  10 H :    0.124528
  11 H :    0.115903
  12 H :    0.150534
  13 H :    0.149748
  14 H :    0.133342
  15 H :    0.137867
  16 H :    0.126575
  17 H :    0.142441
  18 H :    0.132406
  19 H :    0.134345
  20 H :    0.173171

  Mayer bond orders larger than 0.1
B(  0-C ,  1-C ) :   0.8827 B(  0-C ,  9-H ) :   0.9354 B(  0-C , 10-H ) :   0.9392
B(  0-C , 11-H ) :   0.9363 B(  1-C ,  2-C ) :   0.8977 B(  1-C ,  7-C ) :   0.9442
B(  1-C , 12-H ) :   0.9185 B(  2-C ,  3-C ) :   0.8649 B(  2-C ,  6-C ) :   0.9006
B(  2-C , 13-H ) :   0.9266 B(  3-C ,  4-C ) :   0.9605 B(  3-C ,  6-C ) :   0.8431
B(  3-C , 14-H ) :   0.9297 B(  4-C ,  5-C ) :   0.9388 B(  4-C , 15-H ) :   0.9290
B(  4-C , 16-H ) :   0.9213 B(  5-C ,  6-C ) :   0.8816 B(  5-C ,  7-C ) :   0.8816
B(  5-C , 17-H ) :   0.9184 B(  6-C , 18-H ) :   0.9148 B(  7-C ,  8-O ) :   1.0658
B(  7-C , 19-H ) :   0.9539 B(  8-O , 20-H ) :   0.8471

MP2 TOTAL ENERGY:     -386.398568104 Eh
FINAL SINGLE POINT ENERGY      -386.398568103809

DIPOLE MOMENT
-------------
                                X             Y             Z
Electronic contribution:      1.66607      -2.57130       1.15941
Nuclear contribution   :     -2.17555       2.33574      -1.28857
                        -----------------------------------------
Total Dipole Moment    :     -0.50948      -0.23556      -0.12916
                        -----------------------------------------
Magnitude (a.u.)       :      0.57597
Magnitude (Debye)      :      1.46399

                             ****ORCA TERMINATED NORMALLY****
TOTAL RUN TIME: 0 days 0 hours 20 minutes 11 seconds 359 msec
