                         Program Version 3.0.3 - RELEASE   -
|  1> ! RI-MP2 RIJK def2-TZVP def2-TZVP/C def2-TZVP/JK TIGHTSCF
|  2> % maxcore 2000
|  3> % mp2 density relaxed end
|  4> *xyz 0 1
|  5>  O       -0.0656857200     1.4030463181    -0.1416848622
|  6>  N        0.0721366131     0.0106368552    -0.0337364051
|  7>  C       -1.0536171952    -0.5849240646     0.0555024455
|  8>  C       -2.3983477726     0.0948659955     0.1055260920
|  9>  C       -3.3743716096    -0.6326942228     0.9875507803
| 10>  C       -3.1671784359    -1.8446338198     1.5160573286
| 11>  C       -1.9523896396    -2.6375013754     1.2353812986
| 12>  O       -1.7219756965    -3.6910752988     1.7892141157
| 13>  C       -1.0280659545    -2.0848423236     0.1469860746
| 14>  H        0.8517462748     1.6955898573    -0.1466890510
| 15>  H       -2.2748416928     1.1260360178     0.4489189253
| 16>  H       -2.8166234707     0.1790891653    -0.9102906364
| 17>  H       -4.2973671708    -0.1017861035     1.2098711166
| 18>  H       -3.8895069405    -2.3093842584     2.1794140206
| 19>  H       -1.3968207417    -2.5114783220    -0.7994992594
| 20>  H       -0.0133781472    -2.4550841703     0.2982341465
| 21> *
| 22>
| 23>                          ****END OF INPUT****

CARTESIAN COORDINATES (ANGSTROEM)
---------------------------------
  O     -0.065686    1.403046   -0.141685
  N      0.072137    0.010637   -0.033736
  C     -1.053617   -0.584924    0.055502
  C     -2.398348    0.094866    0.105526
  C     -3.374372   -0.632694    0.987551
  C     -3.167178   -1.844634    1.516057
  C     -1.952390   -2.637501    1.235381
  O     -1.721976   -3.691075    1.789214
  C     -1.028066   -2.084842    0.146986
  H      0.851746    1.695590   -0.146689
  H     -2.274842    1.126036    0.448919
  H     -2.816623    0.179089   -0.910291
  H     -4.297367   -0.101786    1.209871
  H     -3.889507   -2.309384    2.179414
  H     -1.396821   -2.511478   -0.799499
  H     -0.013378   -2.455084    0.298234

 Total Charge           Charge          ....    0
 Multiplicity           Mult            ....    1
 Number of Electrons    NEL             ....   66
 Basis Dimension        Dim             ....  321

ORBITAL ENERGIES
----------------

  NO   OCC          E(Eh)            E(eV)
   0   2.0000     -20.603094      -560.6387
   1   2.0000     -20.547322      -559.1210
   2   2.0000     -15.628559      -425.2747
   3   2.0000     -11.338411      -308.5339
   4   2.0000     -11.297156      -307.4113
   5   2.0000     -11.279428      -306.9288
   6   2.0000     -11.263597      -306.4981
   7   2.0000     -11.252793      -306.2041
   8   2.0000     -11.248004      -306.0737
   9   2.0000      -1.431326       -38.9484
  10   2.0000      -1.390125       -37.8272
  11   2.0000      -1.193914       -32.4881
  12   2.0000      -1.115687       -30.3594
  13   2.0000      -1.019675       -27.7468
  14   2.0000      -0.991851       -26.9896
  15   2.0000      -0.848295       -23.0833
  16   2.0000      -0.785616       -21.3777
  17   2.0000      -0.716873       -19.5071
  18   2.0000      -0.708564       -19.2810
  19   2.0000      -0.694410       -18.8959
  20   2.0000      -0.645636       -17.5686
  21   2.0000      -0.641372       -17.4526
  22   2.0000      -0.627883       -17.0856
  23   2.0000      -0.605062       -16.4646
  24   2.0000      -0.598028       -16.2732
  25   2.0000      -0.581926       -15.8350
  26   2.0000      -0.545631       -14.8474
  27   2.0000      -0.536425       -14.5969
  28   2.0000      -0.513286       -13.9672
  29   2.0000      -0.444827       -12.1044
  30   2.0000      -0.433012       -11.7828
  31   2.0000      -0.392193       -10.6721
  32   2.0000      -0.385771       -10.4974
  33   0.0000       0.082065         2.2331
  34   0.0000       0.120713         3.2848
  35   0.0000       0.143329         3.9002
  36   0.0000       0.153966         4.1896
  37   0.0000       0.161754         4.4016

MULLIKEN ATOMIC CHARGES
-----------------------
   0 O :   -0.373603
   1 N :   -0.081172
   2 C :   -0.002259
   3 C :   -0.170649
   4 C :   -0.122540
   5 C :   -0.223527
   6 C :    0.213558
   7 O :   -0.282220
   8 C :   -0.193924
   9 H :    0.341754
  10 H :    0.164790
  11 H :    0.149424
  12 H :    0.142071
  13 H :    0.142500
  14 H :    0.143631
  15 H :    0.152165
Sum of atomic charges:    0.0000000

LOEWDIN ATOMIC CHARGES
----------------------
   0 O :   -0.075124
   1 N :    0.030211
   2 C :   -0.272848
   3 C :   -0.215614
   4 C :   -0.114947
   5 C :   -0.137164
   6 C :   -0.318833
   7 O :    0.152744
   8 C :   -0.181797
   9 H :    0.172178
  10 H :    0.162887
  11 H :    0.165804
  12 H :    0.149451
  13 H :    0.154558
  14 H :    0.167988
  15 H :    0.160507

  Mayer bond orders larger than 0.1
B(  0-O ,  1-N ) :   0.8119 B(  0-O ,  9-H ) :   0.8420 B(  1-N ,  2-C ) :   1.8649
B(  2-C ,  3-C ) :   0.9575 B(  2-C ,  8-C ) :   0.9016 B(  3-C ,  4-C ) :   0.9309
B(  3-C , 10-H ) :   0.9147 B(  3-C , 11-H ) :   0.8835 B(  4-C ,  5-C ) :   1.6822
B(  4-C , 12-H ) :   0.9200 B(  5-C ,  6-C ) :   1.0047 B(  5-C , 13-H ) :   0.9192
B(  6-C ,  7-O ) :   1.9605 B(  6-C ,  8-C ) :   0.8956 B(  8-C , 14-H ) :   0.8969
B(  8-C , 15-H ) :   0.9087

MP2 TOTAL ENERGY:     -437.146191155 Eh
FINAL SINGLE POINT ENERGY      -437.146191154706

DIPOLE MOMENT
-------------
                                X             Y             Z
Electronic contribution:      2.10508      -1.77202       1.32644
Nuclear contribution   :     -2.59327       2.88971      -1.88880
                        -----------------------------------------
Total Dipole Moment    :     -0.48818       1.11769      -0.56236
                        -----------------------------------------
Magnitude (a.u.)       :      1.34306
Magnitude (Debye)      :      3.41378

                             ****ORCA TERMINATED NORMALLY****
TOTAL RUN TIME: 0 days 0 hours 15 minutes 5 seconds 326 msec
