                         Program Version 3.0.3 - RELEASE   -
|  1> ! RI-MP2 RIJK def2-TZVP def2-TZVP/C def2-TZVP/JK TIGHTSCF
|  2> % maxcore 2000
|  3> % mp2 density relaxed end
|  4> *xyz 0 1
|  5>  C       -0.0745774667     1.3951355192    -0.0985949238
|  6>  N        0.0028631375    -0.0265736572     0.1621967622
|  7>  C       -1.1647869088    -0.8659708497     0.0823082663
|  8>  C       -1.3823413567    -1.5937578533    -1.2105163170
|  9>  C       -0.6933894690    -2.2926661252    -0.0284248614
| 10>  C        0.7972181294    -2.2199028493     0.0038939065
| 11>  O        1.5971134942    -3.1192261606     0.0499464641
| 12>  C        1.1702561056    -0.7377279985     0.0038198436
| 13>  N        2.3347571611    -0.2401300242    -0.1381491382
| 14>  H        0.9117219249     1.8247164037     0.0815989379
| 15>  H       -0.3660112702     1.6087235718    -1.1368771978
| 16>  H       -0.8038015426     1.8621499990     0.5709278772
| 17>  H       -1.9992817968    -0.5853550780     0.7159091717
| 18>  H       -2.3756025162    -1.9598096323    -1.4463402827
| 19>  H       -0.7811849362    -1.3088142849    -2.0674186908
| 20>  H       -1.1934739871    -3.1255623089     0.4467677981
| 21>  H        3.0046876875    -1.0100390914    -0.1921541958
| 22> *
| 23>
| 24>                          ****END OF INPUT****

CARTESIAN COORDINATES (ANGSTROEM)
---------------------------------
  C     -0.074577    1.395136   -0.098595
  N      0.002863   -0.026574    0.162197
  C     -1.164787   -0.865971    0.082308
  C     -1.382341   -1.593758   -1.210516
  C     -0.693389   -2.292666   -0.028425
  C      0.797218   -2.219903    0.003894
  O      1.597113   -3.119226    0.049946
  C      1.170256   -0.737728    0.003820
  N      2.334757   -0.240130   -0.138149
  H      0.911722    1.824716    0.081599
  H     -0.366011    1.608724   -1.136877
  H     -0.803802    1.862150    0.570928
  H     -1.999282   -0.585355    0.715909
  H     -2.375603   -1.959810   -1.446340
  H     -0.781185   -1.308814   -2.067419
  H     -1.193474   -3.125562    0.446768
  H      3.004688   -1.010039   -0.192154

 Total Charge           Charge          ....    0
 Multiplicity           Mult            ....    1
 Number of Electrons    NEL             ....   66
 Basis Dimension        Dim             ....  327

ORBITAL ENERGIES
----------------

  NO   OCC          E(Eh)            E(eV)
   0   2.0000     -20.568551      -559.6987
   1   2.0000     -15.593326      -424.3160
   2   2.0000     -15.536361      -422.7659
   3   2.0000     -11.351478      -308.8894
   4   2.0000     -11.319724      -308.0253
   5   2.0000     -11.300133      -307.4922
   6   2.0000     -11.266759      -306.5841
   7   2.0000     -11.265746      -306.5565
   8   2.0000     -11.264276      -306.5165
   9   2.0000      -1.411558       -38.4105
  10   2.0000      -1.314972       -35.7822
  11   2.0000      -1.196020       -32.5454
  12   2.0000      -1.141745       -31.0685
  13   2.0000      -0.990039       -26.9403
  14   2.0000      -0.929146       -25.2833
  15   2.0000      -0.868054       -23.6210
  16   2.0000      -0.807530       -21.9740
  17   2.0000      -0.754862       -20.5408
  18   2.0000      -0.716926       -19.5085
  19   2.0000      -0.674843       -18.3634
  20   2.0000      -0.658051       -17.9065
  21   2.0000      -0.638733       -17.3808
  22   2.0000      -0.621599       -16.9146
  23   2.0000      -0.606015       -16.4905
  24   2.0000      -0.578978       -15.7548
  25   2.0000      -0.567479       -15.4419
  26   2.0000      -0.544846       -14.8260
  27   2.0000      -0.514369       -13.9967
  28   2.0000      -0.484760       -13.1910
  29   2.0000      -0.456171       -12.4130
  30   2.0000      -0.445409       -12.1202
  31   2.0000      -0.407535       -11.0896
  32   2.0000      -0.348036        -9.4705
  33   0.0000       0.081826         2.2266
  34   0.0000       0.137439         3.7399
  35   0.0000       0.147860         4.0235
  36   0.0000       0.161476         4.3940
  37   0.0000       0.173890         4.7318

MULLIKEN ATOMIC CHARGES
-----------------------
   0 C :   -0.317591
   1 N :   -0.091337
   2 C :   -0.043908
   3 C :   -0.265243
   4 C :   -0.119458
   5 C :    0.168278
   6 O :   -0.269738
   7 C :    0.049219
   8 N :   -0.401213
   9 H :    0.182370
  10 H :    0.129506
  11 H :    0.137216
  12 H :    0.146190
  13 H :    0.144206
  14 H :    0.158455
  15 H :    0.156928
  16 H :    0.236121
Sum of atomic charges:   -0.0000000

LOEWDIN ATOMIC CHARGES
----------------------
   0 C :   -0.284885
   1 N :    0.194434
   2 C :   -0.209619
   3 C :   -0.174628
   4 C :   -0.148928
   5 C :   -0.278175
   6 O :    0.170468
   7 C :   -0.342777
   8 N :   -0.063109
   9 H :    0.137073
  10 H :    0.116419
  11 H :    0.119926
  12 H :    0.147469
  13 H :    0.141115
  14 H :    0.144360
  15 H :    0.156630
  16 H :    0.174228

  Mayer bond orders larger than 0.1
B(  0-C ,  1-N ) :   0.8767 B(  0-C ,  9-H ) :   0.9223 B(  0-C , 10-H ) :   0.9270
B(  0-C , 11-H ) :   0.9339 B(  1-N ,  2-C ) :   0.9317 B(  1-N ,  7-C ) :   1.1280
B(  2-C ,  3-C ) :   0.9015 B(  2-C ,  4-C ) :   0.8550 B(  2-C , 12-H ) :   0.9137
B(  3-C ,  4-C ) :   0.8209 B(  3-C , 13-H ) :   0.9199 B(  3-C , 14-H ) :   0.9149
B(  4-C ,  5-C ) :   0.9440 B(  4-C , 15-H ) :   0.9149 B(  5-C ,  6-O ) :   1.9790
B(  5-C ,  7-C ) :   0.8918 B(  7-C ,  8-N ) :   1.8948 B(  8-N , 16-H ) :   0.8497

MP2 TOTAL ENERGY:     -417.309716121 Eh
FINAL SINGLE POINT ENERGY      -417.309716121414

DIPOLE MOMENT
-------------
                                X             Y             Z
Electronic contribution:      3.94519      -5.13384       1.66791
Nuclear contribution   :     -5.67795       5.44520      -1.81430
                        -----------------------------------------
Total Dipole Moment    :     -1.73276       0.31135      -0.14639
                        -----------------------------------------
Magnitude (a.u.)       :      1.76659
Magnitude (Debye)      :      4.49032

                             ****ORCA TERMINATED NORMALLY****
TOTAL RUN TIME: 0 days 0 hours 17 minutes 27 seconds 368 msec
