                         Program Version 3.0.3 - RELEASE   -
|  1> ! RI-MP2 RIJK def2-TZVP def2-TZVP/C def2-TZVP/JK TIGHTSCF
|  2> % maxcore 2000
|  3> % mp2 density relaxed end
|  4> *xyz 0 1
|  5>  C        0.0486154731     1.5426640477     0.0419616014
|  6>  C       -0.0386829464     0.0146205677    -0.0525013537
|  7>  C       -1.4590166459    -0.4948914659    -0.0285111002
|  8>  C       -2.5445815105    -0.3868129444     1.0727730926
|  9>  N       -3.2831452110    -1.2009444057    -0.0067040983
| 10>  C       -2.6406124656    -0.2027592177    -0.9915666405
| 11>  C       -1.9489529049    -1.9751419438    -0.1121340751
| 12>  C       -1.7309117951    -2.7454216632    -1.3281411340
| 13>  N       -1.5203133152    -3.3630477356    -2.2826908483
| 14>  H        1.0896643277     1.8758416743     0.0169220181
| 15>  H       -0.4751397498     2.0215588319    -0.7917654511
| 16>  H       -0.3971248669     1.9105133773     0.9720774673
| 17>  H        0.4425353025    -0.3315073773    -0.9758278968
| 18>  H        0.5168420975    -0.4437036906     0.7758212956
| 19>  H       -2.3941685075    -0.9328633364     2.0085656539
| 20>  H       -2.9983648075     0.5904643251     1.2484648062
| 21>  H       -3.0986118508     0.7877659868    -0.9502544374
| 22>  H       -2.5819857825    -0.5731267384    -2.0171095990
| 23>  H       -1.7623644413    -2.6069092419     0.7609785595
| 24> *
| 25>
| 26>                          ****END OF INPUT****

CARTESIAN COORDINATES (ANGSTROEM)
---------------------------------
  C      0.048615    1.542664    0.041962
  C     -0.038683    0.014621   -0.052501
  C     -1.459017   -0.494891   -0.028511
  C     -2.544582   -0.386813    1.072773
  N     -3.283145   -1.200944   -0.006704
  C     -2.640612   -0.202759   -0.991567
  C     -1.948953   -1.975142   -0.112134
  C     -1.730912   -2.745422   -1.328141
  N     -1.520313   -3.363048   -2.282691
  H      1.089664    1.875842    0.016922
  H     -0.475140    2.021559   -0.791765
  H     -0.397125    1.910513    0.972077
  H      0.442535   -0.331507   -0.975828
  H      0.516842   -0.443704    0.775821
  H     -2.394169   -0.932863    2.008566
  H     -2.998365    0.590464    1.248465
  H     -3.098612    0.787766   -0.950254
  H     -2.581986   -0.573127   -2.017110
  H     -1.762364   -2.606909    0.760979

 Total Charge           Charge          ....    0
 Multiplicity           Mult            ....    1
 Number of Electrons    NEL             ....   66
 Basis Dimension        Dim             ....  339

ORBITAL ENERGIES
----------------

  NO   OCC          E(Eh)            E(eV)
   0   2.0000     -15.598109      -424.4461
   1   2.0000     -15.575521      -423.8315
   2   2.0000     -11.314454      -307.8819
   3   2.0000     -11.282951      -307.0247
   4   2.0000     -11.281195      -306.9769
   5   2.0000     -11.277488      -306.8760
   6   2.0000     -11.274978      -306.8078
   7   2.0000     -11.244035      -305.9657
   8   2.0000     -11.234133      -305.6963
   9   2.0000      -1.323111       -36.0037
  10   2.0000      -1.219485       -33.1839
  11   2.0000      -1.070054       -29.1177
  12   2.0000      -0.993915       -27.0458
  13   2.0000      -0.945730       -25.7346
  14   2.0000      -0.943297       -25.6684
  15   2.0000      -0.856101       -23.2957
  16   2.0000      -0.795434       -21.6449
  17   2.0000      -0.703055       -19.1311
  18   2.0000      -0.671072       -18.2608
  19   2.0000      -0.643724       -17.5166
  20   2.0000      -0.634092       -17.2545
  21   2.0000      -0.578124       -15.7316
  22   2.0000      -0.577194       -15.7062
  23   2.0000      -0.545850       -14.8533
  24   2.0000      -0.538937       -14.6652
  25   2.0000      -0.532257       -14.4834
  26   2.0000      -0.524209       -14.2644
  27   2.0000      -0.507540       -13.8109
  28   2.0000      -0.496022       -13.4974
  29   2.0000      -0.474537       -12.9128
  30   2.0000      -0.457745       -12.4559
  31   2.0000      -0.448926       -12.2159
  32   2.0000      -0.393241       -10.7006
  33   0.0000       0.116216         3.1624
  34   0.0000       0.139197         3.7878
  35   0.0000       0.141923         3.8619
  36   0.0000       0.164087         4.4650
  37   0.0000       0.171203         4.6587

MULLIKEN ATOMIC CHARGES
-----------------------
   0 C :   -0.412308
   1 C :   -0.160332
   2 C :   -0.033651
   3 C :   -0.155436
   4 N :   -0.187501
   5 C :   -0.194374
   6 C :    0.093332
   7 C :   -0.240145
   8 N :   -0.036390
   9 H :    0.145395
  10 H :    0.133222
  11 H :    0.129750
  12 H :    0.131599
  13 H :    0.115746
  14 H :    0.120588
  15 H :    0.133562
  16 H :    0.128762
  17 H :    0.147967
  18 H :    0.140214
Sum of atomic charges:   -0.0000000

LOEWDIN ATOMIC CHARGES
----------------------
   0 C :   -0.308003
   1 C :   -0.259528
   2 C :   -0.216366
   3 C :   -0.198801
   4 N :    0.122253
   5 C :   -0.191818
   6 C :   -0.199712
   7 C :   -0.171372
   8 N :    0.074155
   9 H :    0.125025
  10 H :    0.123767
  11 H :    0.122631
  12 H :    0.148569
  13 H :    0.144795
  14 H :    0.127022
  15 H :    0.129442
  16 H :    0.128571
  17 H :    0.134518
  18 H :    0.164848

  Mayer bond orders larger than 0.1
B(  0-C ,  1-C ) :   0.9169 B(  0-C ,  9-H ) :   0.9393 B(  0-C , 10-H ) :   0.9373
B(  0-C , 11-H ) :   0.9373 B(  1-C ,  2-C ) :   0.8613 B(  1-C , 12-H ) :   0.9272
B(  1-C , 13-H ) :   0.9228 B(  2-C ,  3-C ) :   0.9178 B(  2-C ,  5-C ) :   0.9354
B(  2-C ,  6-C ) :   0.8761 B(  3-C ,  4-N ) :   0.9113 B(  3-C , 14-H ) :   0.9226
B(  3-C , 15-H ) :   0.9297 B(  4-N ,  5-C ) :   0.9185 B(  4-N ,  6-C ) :   0.9508
B(  5-C , 16-H ) :   0.9286 B(  5-C , 17-H ) :   0.9190 B(  6-C ,  7-C ) :   0.9611
B(  6-C , 18-H ) :   0.8971 B(  7-C ,  8-N ) :   2.8624

MP2 TOTAL ENERGY:     -381.337222800 Eh
FINAL SINGLE POINT ENERGY      -381.337222799887

DIPOLE MOMENT
-------------
                                X             Y             Z
Electronic contribution:     -4.06193      -9.45291      -3.50445
Nuclear contribution   :      4.63634      10.79015       4.64577
                        -----------------------------------------
Total Dipole Moment    :      0.57441       1.33724       1.14132
                        -----------------------------------------
Magnitude (a.u.)       :      1.84953
Magnitude (Debye)      :      4.70114

                             ****ORCA TERMINATED NORMALLY****
TOTAL RUN TIME: 0 days 0 hours 19 minutes 28 seconds 458 msec
