                         Program Version 3.0.3 - RELEASE   -
|  1> ! RI-MP2 RIJK def2-TZVP def2-TZVP/C def2-TZVP/JK TIGHTSCF
|  2> % maxcore 2000
|  3> % mp2 density relaxed end
|  4> *xyz 0 1
|  5>  O       -0.1691111292     1.4211045076    -0.0868940224
|  6>  C       -0.0955159068     0.0389335920    -0.0106622311
|  7>  C       -0.4931826071    -0.7104591135     1.2479972391
|  8>  N       -1.2014045955     0.0440075531     2.2529733548
|  9>  C       -2.3039317684     0.4277118719     1.7283876947
| 10>  N       -2.5421758359    -0.0188237905     0.4291192087
| 11>  C       -3.6717676174     0.2572604623    -0.3118689823
| 12>  O       -4.6084968714     0.9007791955     0.0950881636
| 13>  C       -1.3822983371    -0.7518655381    -0.0095459148
| 14>  H        0.2098275971     1.7917196450     0.7183076018
| 15>  H        0.7190243124    -0.4161724745    -0.5725688280
| 16>  H        0.1171988902    -1.5351126679     1.5962328749
| 17>  H       -3.0459652081     1.0538693999     2.2050695273
| 18>  H       -3.6203563216    -0.1862481959    -1.3228131523
| 19>  H       -1.5485056512    -1.6046740970    -0.6555716340
| 20> *
| 21>
| 22>                          ****END OF INPUT****

CARTESIAN COORDINATES (ANGSTROEM)
---------------------------------
  O     -0.169111    1.421105   -0.086894
  C     -0.095516    0.038934   -0.010662
  C     -0.493183   -0.710459    1.247997
  N     -1.201405    0.044008    2.252973
  C     -2.303932    0.427712    1.728388
  N     -2.542176   -0.018824    0.429119
  C     -3.671768    0.257260   -0.311869
  O     -4.608497    0.900779    0.095088
  C     -1.382298   -0.751866   -0.009546
  H      0.209828    1.791720    0.718308
  H      0.719024   -0.416172   -0.572569
  H      0.117199   -1.535113    1.596233
  H     -3.045965    1.053869    2.205070
  H     -3.620356   -0.186248   -1.322813
  H     -1.548506   -1.604674   -0.655572

 Total Charge           Charge          ....    0
 Multiplicity           Mult            ....    1
 Number of Electrons    NEL             ....   66
 Basis Dimension        Dim             ....  315

ORBITAL ENERGIES
----------------

  NO   OCC          E(Eh)            E(eV)
   0   2.0000     -20.580570      -560.0258
   1   2.0000     -20.550939      -559.2195
   2   2.0000     -15.625455      -425.1903
   3   2.0000     -15.567374      -423.6098
   4   2.0000     -11.375453      -309.5418
   5   2.0000     -11.328904      -308.2751
   6   2.0000     -11.307213      -307.6849
   7   2.0000     -11.296519      -307.3939
   8   2.0000     -11.285199      -307.0859
   9   2.0000      -1.416793       -38.5529
  10   2.0000      -1.397121       -38.0176
  11   2.0000      -1.337474       -36.3945
  12   2.0000      -1.203208       -32.7410
  13   2.0000      -1.122295       -30.5392
  14   2.0000      -0.924174       -25.1481
  15   2.0000      -0.880210       -23.9517
  16   2.0000      -0.849598       -23.1187
  17   2.0000      -0.782010       -21.2796
  18   2.0000      -0.742169       -20.1954
  19   2.0000      -0.709060       -19.2945
  20   2.0000      -0.687011       -18.6945
  21   2.0000      -0.670953       -18.2576
  22   2.0000      -0.626327       -17.0432
  23   2.0000      -0.621405       -16.9093
  24   2.0000      -0.607709       -16.5366
  25   2.0000      -0.579508       -15.7692
  26   2.0000      -0.550126       -14.9697
  27   2.0000      -0.507200       -13.8016
  28   2.0000      -0.482863       -13.1394
  29   2.0000      -0.478550       -13.0220
  30   2.0000      -0.445501       -12.1227
  31   2.0000      -0.405435       -11.0324
  32   2.0000      -0.360989        -9.8230
  33   0.0000       0.107993         2.9386
  34   0.0000       0.134165         3.6508
  35   0.0000       0.149537         4.0691
  36   0.0000       0.158461         4.3119
  37   0.0000       0.182135         4.9561

MULLIKEN ATOMIC CHARGES
-----------------------
   0 O :   -0.460700
   1 C :    0.060353
   2 C :   -0.079610
   3 N :   -0.243363
   4 C :   -0.009925
   5 N :   -0.028158
   6 C :    0.154207
   7 O :   -0.320408
   8 C :   -0.112383
   9 H :    0.343326
  10 H :    0.124342
  11 H :    0.135775
  12 H :    0.174549
  13 H :    0.100785
  14 H :    0.161209
Sum of atomic charges:   -0.0000000

LOEWDIN ATOMIC CHARGES
----------------------
   0 O :    0.020151
   1 C :   -0.313108
   2 C :   -0.223794
   3 N :    0.099918
   4 C :   -0.235523
   5 N :    0.222003
   6 C :   -0.366613
   7 O :    0.097719
   8 C :   -0.188105
   9 H :    0.191701
  10 H :    0.142405
  11 H :    0.141671
  12 H :    0.147089
  13 H :    0.119429
  14 H :    0.145058

  Mayer bond orders larger than 0.1
B(  0-O ,  1-C ) :   1.0309 B(  0-O ,  9-H ) :   0.8269 B(  1-C ,  2-C ) :   0.8628
B(  1-C ,  8-C ) :   0.8213 B(  1-C , 10-H ) :   0.9511 B(  2-C ,  3-N ) :   0.9894
B(  2-C ,  8-C ) :   0.8812 B(  2-C , 11-H ) :   0.9345 B(  3-N ,  4-C ) :   1.7589
B(  4-C ,  5-N ) :   1.0347 B(  4-C , 12-H ) :   0.9127 B(  5-N ,  6-C ) :   1.0388
B(  5-N ,  8-C ) :   0.9318 B(  6-C ,  7-O ) :   1.9246 B(  6-C , 13-H ) :   0.9282
B(  8-C , 14-H ) :   0.9082

MP2 TOTAL ENERGY:     -453.212218940 Eh
FINAL SINGLE POINT ENERGY      -453.212218939799

DIPOLE MOMENT
-------------
                                X             Y             Z
Electronic contribution:     -2.60570       1.16349       0.90513
Nuclear contribution   :      3.59263      -2.05324      -1.35003
                        -----------------------------------------
Total Dipole Moment    :      0.98693      -0.88974      -0.44490
                        -----------------------------------------
Magnitude (a.u.)       :      1.40129
Magnitude (Debye)      :      3.56179

                             ****ORCA TERMINATED NORMALLY****
TOTAL RUN TIME: 0 days 0 hours 14 minutes 51 seconds 29 msec
