                         Program Version 3.0.3 - RELEASE   -
|  1> ! RI-MP2 RIJK def2-TZVP def2-TZVP/C def2-TZVP/JK TIGHTSCF
|  2> % maxcore 2000
|  3> % mp2 density relaxed end
|  4> *xyz 0 1
|  5>  C       -0.2099634590     1.5270209252     0.0644950967
|  6>  C       -0.0487612536     0.0439880264    -0.0236255292
|  7>  C       -0.0328825875    -0.7263157136    -1.1115898607
|  8>  C        0.0919244010    -2.1977324657    -0.7988855474
|  9>  C        0.5124581404    -2.1994885038     0.7012422122
| 10>  C        1.9625199976    -2.3219466353     0.8380664597
| 11>  N        3.1121272654    -2.3780516512     0.9518140567
| 12>  C        0.0545196296    -0.7940162903     1.2420633971
| 13>  O        0.8570403419    -0.2550514328     2.2665624601
| 14>  H        0.5999260543     1.9730282450     0.6513714008
| 15>  H       -0.2242819243     1.9905047146    -0.9249577029
| 16>  H       -1.1423898777     1.7895054491     0.5807638354
| 17>  H       -0.1419445754    -0.3651055536    -2.1285607840
| 18>  H       -0.8677998458    -2.7168104544    -0.9191802763
| 19>  H        0.8133027502    -2.7201926674    -1.4339055012
| 20>  H        0.0510550398    -3.0135840478     1.2659191746
| 21>  H       -0.9365722786    -0.8996321191     1.7027865671
| 22>  H        1.7723385317    -0.2282454651     1.9588353810
| 23> *
| 24>
| 25>                          ****END OF INPUT****

CARTESIAN COORDINATES (ANGSTROEM)
---------------------------------
  C     -0.209963    1.527021    0.064495
  C     -0.048761    0.043988   -0.023626
  C     -0.032883   -0.726316   -1.111590
  C      0.091924   -2.197732   -0.798886
  C      0.512458   -2.199489    0.701242
  C      1.962520   -2.321947    0.838066
  N      3.112127   -2.378052    0.951814
  C      0.054520   -0.794016    1.242063
  O      0.857040   -0.255051    2.266562
  H      0.599926    1.973028    0.651371
  H     -0.224282    1.990505   -0.924958
  H     -1.142390    1.789505    0.580764
  H     -0.141945   -0.365106   -2.128561
  H     -0.867800   -2.716810   -0.919180
  H      0.813303   -2.720193   -1.433906
  H      0.051055   -3.013584    1.265919
  H     -0.936572   -0.899632    1.702787
  H      1.772339   -0.228245    1.958835

 Total Charge           Charge          ....    0
 Multiplicity           Mult            ....    1
 Number of Electrons    NEL             ....   66
 Basis Dimension        Dim             ....  333

ORBITAL ENERGIES
----------------

  NO   OCC          E(Eh)            E(eV)
   0   2.0000     -20.571746      -559.7857
   1   2.0000     -15.573475      -423.7758
   2   2.0000     -11.311199      -307.7934
   3   2.0000     -11.289073      -307.1913
   4   2.0000     -11.277000      -306.8628
   5   2.0000     -11.258894      -306.3701
   6   2.0000     -11.248253      -306.0805
   7   2.0000     -11.241897      -305.9076
   8   2.0000     -11.233160      -305.6698
   9   2.0000      -1.383275       -37.6408
  10   2.0000      -1.224902       -33.3313
  11   2.0000      -1.159996       -31.5651
  12   2.0000      -1.049985       -28.5715
  13   2.0000      -0.981856       -26.7177
  14   2.0000      -0.933246       -25.3949
  15   2.0000      -0.856628       -23.3100
  16   2.0000      -0.757090       -20.6015
  17   2.0000      -0.714281       -19.4366
  18   2.0000      -0.695573       -18.9275
  19   2.0000      -0.644387       -17.5347
  20   2.0000      -0.621956       -16.9243
  21   2.0000      -0.608638       -16.5619
  22   2.0000      -0.593038       -16.1374
  23   2.0000      -0.571309       -15.5461
  24   2.0000      -0.556867       -15.1531
  25   2.0000      -0.551957       -15.0195
  26   2.0000      -0.545195       -14.8355
  27   2.0000      -0.521871       -14.2008
  28   2.0000      -0.502782       -13.6814
  29   2.0000      -0.477156       -12.9841
  30   2.0000      -0.457654       -12.4534
  31   2.0000      -0.441194       -12.0055
  32   2.0000      -0.362957        -9.8766
  33   0.0000       0.120914         3.2902
  34   0.0000       0.136510         3.7146
  35   0.0000       0.145533         3.9602
  36   0.0000       0.152895         4.1605
  37   0.0000       0.162774         4.4293

MULLIKEN ATOMIC CHARGES
-----------------------
   0 C :   -0.413860
   1 C :   -0.045208
   2 C :   -0.184331
   3 C :   -0.196246
   4 C :    0.128704
   5 C :   -0.298466
   6 N :   -0.046115
   7 C :    0.074957
   8 O :   -0.446493
   9 H :    0.146362
  10 H :    0.140034
  11 H :    0.140073
  12 H :    0.135176
  13 H :    0.131107
  14 H :    0.149132
  15 H :    0.145745
  16 H :    0.111481
  17 H :    0.327948
Sum of atomic charges:   -0.0000000

LOEWDIN ATOMIC CHARGES
----------------------
   0 C :   -0.267961
   1 C :   -0.180317
   2 C :   -0.128268
   3 C :   -0.197582
   4 C :   -0.192231
   5 C :   -0.181179
   6 N :    0.059380
   7 C :   -0.266305
   8 O :    0.009293
   9 H :    0.134815
  10 H :    0.131453
  11 H :    0.135783
  12 H :    0.141241
  13 H :    0.145697
  14 H :    0.146789
  15 H :    0.171644
  16 H :    0.153759
  17 H :    0.183988

  Mayer bond orders larger than 0.1
B(  0-C ,  1-C ) :   0.9184 B(  0-C ,  9-H ) :   0.9309 B(  0-C , 10-H ) :   0.9480
B(  0-C , 11-H ) :   0.9209 B(  1-C ,  2-C ) :   1.7127 B(  1-C ,  7-C ) :   0.9416
B(  2-C ,  3-C ) :   0.9472 B(  2-C , 12-H ) :   0.9171 B(  3-C ,  4-C ) :   0.8732
B(  3-C , 13-H ) :   0.9082 B(  3-C , 14-H ) :   0.9298 B(  4-C ,  5-C ) :   0.9176
B(  4-C ,  7-C ) :   0.8613 B(  4-C , 15-H ) :   0.9063 B(  5-C ,  6-N ) :   2.8559
B(  7-C ,  8-O ) :   1.0142 B(  7-C , 16-H ) :   0.9048 B(  8-O , 17-H ) :   0.8234

MP2 TOTAL ENERGY:     -401.289087713 Eh
FINAL SINGLE POINT ENERGY      -401.289087712940

DIPOLE MOMENT
-------------
                                X             Y             Z
Electronic contribution:      4.55894      -4.27462       2.70969
Nuclear contribution   :     -5.89791       4.41620      -3.46795
                        -----------------------------------------
Total Dipole Moment    :     -1.33897       0.14157      -0.75825
                        -----------------------------------------
Magnitude (a.u.)       :      1.54526
Magnitude (Debye)      :      3.92774

                             ****ORCA TERMINATED NORMALLY****
TOTAL RUN TIME: 0 days 0 hours 18 minutes 16 seconds 315 msec
