                         Program Version 3.0.3 - RELEASE   -
|  1> ! RI-MP2 RIJK def2-TZVP def2-TZVP/C def2-TZVP/JK TIGHTSCF
|  2> % maxcore 2000
|  3> % mp2 density relaxed end
|  4> *xyz 0 1
|  5>  C        0.0348469814     1.5385112734     0.0678289542
|  6>  C        0.0097064726     0.0394353067    -0.0253282374
|  7>  C        0.6516155468    -0.7998824309    -1.1819329492
|  8>  C        0.6464489173    -1.8027596547     0.0067671625
|  9>  O        0.9256352651    -0.6686799130     0.8885497061
| 10>  C       -0.8658396139    -2.0086282926     0.2304661727
| 11>  C       -1.3024827853    -0.7495743297     0.2082795535
| 12>  H        1.0430590041     1.9222437559    -0.1087879269
| 13>  H       -0.6399216953     1.9777675885    -0.6740408482
| 14>  H       -0.2889295055     1.8656440051     1.0610089907
| 15>  H        0.0519422150    -1.0251378819    -2.0664687151
| 16>  H        1.6559802040    -0.4528192781    -1.4389978374
| 17>  H        1.3375035095    -2.6382951443     0.1065642390
| 18>  H       -1.3915851580    -2.9436318342     0.3560534531
| 19>  H       -2.2949533778    -0.3356840802     0.3143898623
| 20> *
| 21>
| 22>                          ****END OF INPUT****

CARTESIAN COORDINATES (ANGSTROEM)
---------------------------------
  C      0.034847    1.538511    0.067829
  C      0.009706    0.039435   -0.025328
  C      0.651616   -0.799882   -1.181933
  C      0.646449   -1.802760    0.006767
  O      0.925635   -0.668680    0.888550
  C     -0.865840   -2.008628    0.230466
  C     -1.302483   -0.749574    0.208280
  H      1.043059    1.922244   -0.108788
  H     -0.639922    1.977768   -0.674041
  H     -0.288930    1.865644    1.061009
  H      0.051942   -1.025138   -2.066469
  H      1.655980   -0.452819   -1.438998
  H      1.337504   -2.638295    0.106564
  H     -1.391585   -2.943632    0.356053
  H     -2.294953   -0.335684    0.314390

 Total Charge           Charge          ....    0
 Multiplicity           Mult            ....    1
 Number of Electrons    NEL             ....   52
 Basis Dimension        Dim             ....  265

ORBITAL ENERGIES
----------------

  NO   OCC          E(Eh)            E(eV)
   0   2.0000     -20.540989      -558.9487
   1   2.0000     -11.297895      -307.4314
   2   2.0000     -11.291377      -307.2540
   3   2.0000     -11.232635      -305.6555
   4   2.0000     -11.232007      -305.6385
   5   2.0000     -11.229993      -305.5836
   6   2.0000     -11.222179      -305.3710
   7   2.0000      -1.384377       -37.6708
   8   2.0000      -1.092119       -29.7181
   9   2.0000      -1.016016       -27.6472
  10   2.0000      -0.967580       -26.3292
  11   2.0000      -0.879698       -23.9378
  12   2.0000      -0.760217       -20.6866
  13   2.0000      -0.738233       -20.0883
  14   2.0000      -0.678637       -18.4667
  15   2.0000      -0.650917       -17.7124
  16   2.0000      -0.598380       -16.2827
  17   2.0000      -0.582709       -15.8563
  18   2.0000      -0.568797       -15.4777
  19   2.0000      -0.548691       -14.9306
  20   2.0000      -0.519292       -14.1307
  21   2.0000      -0.492285       -13.3957
  22   2.0000      -0.481170       -13.0933
  23   2.0000      -0.444933       -12.1073
  24   2.0000      -0.414830       -11.2881
  25   2.0000      -0.350145        -9.5279
  26   0.0000       0.133965         3.6454
  27   0.0000       0.144699         3.9375
  28   0.0000       0.167497         4.5578
  29   0.0000       0.183227         4.9859
  30   0.0000       0.192095         5.2272

MULLIKEN ATOMIC CHARGES
-----------------------
   0 C :   -0.431240
   1 C :    0.172226
   2 C :   -0.148397
   3 C :    0.027993
   4 O :   -0.295193
   5 C :   -0.195213
   6 C :   -0.194707
   7 H :    0.143820
   8 H :    0.135474
   9 H :    0.145685
  10 H :    0.112797
  11 H :    0.115210
  12 H :    0.138727
  13 H :    0.137254
  14 H :    0.135566
Sum of atomic charges:   -0.0000000

LOEWDIN ATOMIC CHARGES
----------------------
   0 C :   -0.270224
   1 C :   -0.301990
   2 C :   -0.170823
   3 C :   -0.240716
   4 O :    0.164700
   5 C :   -0.129227
   6 C :   -0.111235
   7 H :    0.132220
   8 H :    0.133427
   9 H :    0.135098
  10 H :    0.126657
  11 H :    0.133831
  12 H :    0.129397
  13 H :    0.133364
  14 H :    0.135520

  Mayer bond orders larger than 0.1
B(  0-C ,  1-C ) :   0.8460 B(  0-C ,  7-H ) :   0.9502 B(  0-C ,  8-H ) :   0.9365
B(  0-C ,  9-H ) :   0.9405 B(  1-C ,  2-C ) :   0.9181 B(  1-C ,  4-O ) :   0.9363
B(  1-C ,  6-C ) :   0.9111 B(  2-C ,  3-C ) :   0.9338 B(  2-C , 10-H ) :   0.9087
B(  2-C , 11-H ) :   0.9243 B(  3-C ,  4-O ) :   0.9237 B(  3-C ,  5-C ) :   0.9447
B(  3-C , 12-H ) :   0.9026 B(  5-C ,  6-C ) :   1.7838 B(  5-C , 13-H ) :   0.9279
B(  6-C , 14-H ) :   0.9288

MP2 TOTAL ENERGY:     -307.938010913 Eh
FINAL SINGLE POINT ENERGY      -307.938010912953

DIPOLE MOMENT
-------------
                                X             Y             Z
Electronic contribution:      0.45392      -2.99560       1.92395
Nuclear contribution   :     -0.82177       2.98092      -2.55252
                        -----------------------------------------
Total Dipole Moment    :     -0.36785      -0.01468      -0.62858
                        -----------------------------------------
Magnitude (a.u.)       :      0.72845
Magnitude (Debye)      :      1.85157

                             ****ORCA TERMINATED NORMALLY****
TOTAL RUN TIME: 0 days 0 hours 7 minutes 59 seconds 993 msec
