                         Program Version 3.0.3 - RELEASE   -
|  1> ! RI-MP2 RIJK def2-TZVP def2-TZVP/C def2-TZVP/JK TIGHTSCF
|  2> % maxcore 2000
|  3> % mp2 density relaxed end
|  4> *xyz 0 1
|  5>  C        0.0418083168     1.5530664351     0.1338045453
|  6>  C       -0.1368085849     0.0382906252    -0.0217318491
|  7>  C        0.6380455694    -0.5355879753    -1.1966909976
|  8>  C        2.1793269086    -0.6398788436    -1.1743335426
|  9>  C        2.6010531804    -1.6068365915    -0.0571770763
| 10>  C        1.5116677642    -2.6862557298    -0.2444662318
| 11>  C        2.7751305441    -2.7163548598    -1.0486966531
| 12>  N        2.1103707466    -1.8602050704    -2.1195264754
| 13>  C        0.7469580241    -2.0575890197    -1.4199350007
| 14>  H        1.0936763215     1.8151638314     0.2917570386
| 15>  H       -0.2998438772     2.0866314452    -0.7599448941
| 16>  H       -0.5267255508     1.9350187067     0.9873241567
| 17>  H        0.1799244534    -0.4669614634     0.8994898644
| 18>  H       -1.2025929623    -0.1939078487    -0.1468681999
| 19>  H        0.3382212223    -0.0663579122    -2.1421551304
| 20>  H        2.8364255348     0.1858028276    -1.4477804917
| 21>  H        3.0981479026    -1.4315732083     0.8875325313
| 22>  H        1.1796331530    -3.3314892809     0.5578477917
| 23>  H        3.5424876487    -3.4616623636    -1.2137564772
| 24>  H       -0.0202240653    -2.6367918041    -1.9346659880
| 25> *
| 26>
| 27>                          ****END OF INPUT****

CARTESIAN COORDINATES (ANGSTROEM)
---------------------------------
  C      0.041808    1.553066    0.133805
  C     -0.136809    0.038291   -0.021732
  C      0.638046   -0.535588   -1.196691
  C      2.179327   -0.639879   -1.174334
  C      2.601053   -1.606837   -0.057177
  C      1.511668   -2.686256   -0.244466
  C      2.775131   -2.716355   -1.048697
  N      2.110371   -1.860205   -2.119526
  C      0.746958   -2.057589   -1.419935
  H      1.093676    1.815164    0.291757
  H     -0.299844    2.086631   -0.759945
  H     -0.526726    1.935019    0.987324
  H      0.179924   -0.466961    0.899490
  H     -1.202593   -0.193908   -0.146868
  H      0.338221   -0.066358   -2.142155
  H      2.836426    0.185803   -1.447780
  H      3.098148   -1.431573    0.887533
  H      1.179633   -3.331489    0.557848
  H      3.542488   -3.461662   -1.213756
  H     -0.020224   -2.636792   -1.934666

 Total Charge           Charge          ....    0
 Multiplicity           Mult            ....    1
 Number of Electrons    NEL             ....   66
 Basis Dimension        Dim             ....  345

ORBITAL ENERGIES
----------------

  NO   OCC          E(Eh)            E(eV)
   0   2.0000     -15.549321      -423.1185
   1   2.0000     -11.259564      -306.3883
   2   2.0000     -11.259516      -306.3870
   3   2.0000     -11.258634      -306.3630
   4   2.0000     -11.236868      -305.7707
   5   2.0000     -11.236290      -305.7550
   6   2.0000     -11.226120      -305.4783
   7   2.0000     -11.221458      -305.3514
   8   2.0000     -11.215828      -305.1982
   9   2.0000      -1.315422       -35.7945
  10   2.0000      -1.078241       -29.3404
  11   2.0000      -1.033693       -28.1282
  12   2.0000      -0.962269       -26.1847
  13   2.0000      -0.949372       -25.8337
  14   2.0000      -0.853876       -23.2352
  15   2.0000      -0.782271       -21.2867
  16   2.0000      -0.746847       -20.3227
  17   2.0000      -0.713254       -19.4086
  18   2.0000      -0.695991       -18.9389
  19   2.0000      -0.644276       -17.5316
  20   2.0000      -0.620693       -16.8899
  21   2.0000      -0.598292       -16.2803
  22   2.0000      -0.580452       -15.7949
  23   2.0000      -0.547172       -14.8893
  24   2.0000      -0.528703       -14.3867
  25   2.0000      -0.505023       -13.7424
  26   2.0000      -0.481510       -13.1026
  27   2.0000      -0.474748       -12.9186
  28   2.0000      -0.447672       -12.1818
  29   2.0000      -0.434782       -11.8310
  30   2.0000      -0.427083       -11.6215
  31   2.0000      -0.376843       -10.2544
  32   2.0000      -0.352181        -9.5833
  33   0.0000       0.133382         3.6295
  34   0.0000       0.158121         4.3027
  35   0.0000       0.165637         4.5072
  36   0.0000       0.173246         4.7143
  37   0.0000       0.188728         5.1356

MULLIKEN ATOMIC CHARGES
-----------------------
   0 C :   -0.403245
   1 C :   -0.229072
   2 C :   -0.114139
   3 C :   -0.003594
   4 C :   -0.204684
   5 C :   -0.207783
   6 C :   -0.069163
   7 N :   -0.200001
   8 C :    0.032192
   9 H :    0.126244
  10 H :    0.127055
  11 H :    0.134863
  12 H :    0.120701
  13 H :    0.113151
  14 H :    0.106537
  15 H :    0.135369
  16 H :    0.132364
  17 H :    0.132501
  18 H :    0.139680
  19 H :    0.131025
Sum of atomic charges:    0.0000000

LOEWDIN ATOMIC CHARGES
----------------------
   0 C :   -0.315093
   1 C :   -0.271801
   2 C :   -0.210111
   3 C :   -0.167367
   4 C :   -0.157090
   5 C :   -0.157223
   6 C :   -0.172879
   7 N :    0.147059
   8 C :   -0.165393
   9 H :    0.121029
  10 H :    0.121492
  11 H :    0.120790
  12 H :    0.141535
  13 H :    0.139169
  14 H :    0.160746
  15 H :    0.132506
  16 H :    0.136080
  17 H :    0.136069
  18 H :    0.127913
  19 H :    0.132570

  Mayer bond orders larger than 0.1
B(  0-C ,  1-C ) :   0.9134 B(  0-C ,  9-H ) :   0.9395 B(  0-C , 10-H ) :   0.9395
B(  0-C , 11-H ) :   0.9409 B(  1-C ,  2-C ) :   0.8956 B(  1-C , 12-H ) :   0.9343
B(  1-C , 13-H ) :   0.9298 B(  2-C ,  3-C ) :   0.9741 B(  2-C ,  8-C ) :   0.9660
B(  2-C , 14-H ) :   0.8936 B(  3-C ,  4-C ) :   0.9172 B(  3-C ,  7-N ) :   0.9735
B(  3-C , 15-H ) :   0.8893 B(  4-C ,  5-C ) :   0.8578 B(  4-C ,  6-C ) :   0.9091
B(  4-C , 16-H ) :   0.9240 B(  5-C ,  6-C ) :   0.9089 B(  5-C ,  8-C ) :   0.9201
B(  5-C , 17-H ) :   0.9239 B(  6-C ,  7-N ) :   0.9522 B(  6-C , 18-H ) :   0.9047
B(  7-N ,  8-C ) :   0.9598 B(  8-C , 19-H ) :   0.8930

MP2 TOTAL ENERGY:     -365.262078086 Eh
FINAL SINGLE POINT ENERGY      -365.262078085585

DIPOLE MOMENT
-------------
                                X             Y             Z
Electronic contribution:      4.19170      -6.25754      -3.47869
Nuclear contribution   :     -4.39695       6.31951       4.23760
                        -----------------------------------------
Total Dipole Moment    :     -0.20526       0.06197       0.75891
                        -----------------------------------------
Magnitude (a.u.)       :      0.78862
Magnitude (Debye)      :      2.00451

                             ****ORCA TERMINATED NORMALLY****
TOTAL RUN TIME: 0 days 0 hours 21 minutes 16 seconds 729 msec
