                         Program Version 3.0.3 - RELEASE   -
|  1> ! RI-MP2 RIJK def2-TZVP def2-TZVP/C def2-TZVP/JK TIGHTSCF
|  2> % maxcore 2000
|  3> % mp2 density relaxed end
|  4> *xyz 0 1
|  5>  C        0.0294596934     1.4867168539     0.0243786845
|  6>  C       -0.0537416860    -0.0165202190    -0.0114810732
|  7>  C       -1.3095373189    -0.7438488507    -0.4688792842
|  8>  C       -0.8030591216    -2.1659522859    -0.2909470989
|  9>  C        0.6575547987    -2.2703563865    -0.8576342339
| 10>  C        0.9814888746    -3.1960810354     0.3511648620
| 11>  C       -0.0434549963    -2.2777635810     1.0786934384
| 12>  C        0.6169260407    -0.8888894463     1.0376354301
| 13>  C        1.1352373031    -0.8834421649    -0.3939187731
| 14>  H        1.0091724600     1.8226177083     0.3798876456
| 15>  H       -0.1266289895     1.9183704416    -0.9712513193
| 16>  H       -0.7283087368     1.9119796630     0.6928895245
| 17>  H       -2.1773982119    -0.5195804614     0.1636258922
| 18>  H       -1.5719143947    -0.5131897914    -1.5088282649
| 19>  H       -1.4659855000    -2.9951833881    -0.5341142587
| 20>  H        0.8619580474    -2.5634557228    -1.8878303463
| 21>  H        0.6091361142    -4.2157735718     0.2124477531
| 22>  H        2.0099715883    -3.2187892181     0.7234184084
| 23>  H       -0.5451826026    -2.5783308147     1.9989760055
| 24>  H        1.1728723466    -0.4745591476     1.8690051997
| 25>  H        2.0935522315    -0.4648855111    -0.6738568314
| 26> *
| 27>
| 28>                          ****END OF INPUT****

CARTESIAN COORDINATES (ANGSTROEM)
---------------------------------
  C      0.029460    1.486717    0.024379
  C     -0.053742   -0.016520   -0.011481
  C     -1.309537   -0.743849   -0.468879
  C     -0.803059   -2.165952   -0.290947
  C      0.657555   -2.270356   -0.857634
  C      0.981489   -3.196081    0.351165
  C     -0.043455   -2.277764    1.078693
  C      0.616926   -0.888889    1.037635
  C      1.135237   -0.883442   -0.393919
  H      1.009172    1.822618    0.379888
  H     -0.126629    1.918370   -0.971251
  H     -0.728309    1.911980    0.692890
  H     -2.177398   -0.519580    0.163626
  H     -1.571914   -0.513190   -1.508828
  H     -1.465985   -2.995183   -0.534114
  H      0.861958   -2.563456   -1.887830
  H      0.609136   -4.215774    0.212448
  H      2.009972   -3.218789    0.723418
  H     -0.545183   -2.578331    1.998976
  H      1.172872   -0.474559    1.869005
  H      2.093552   -0.464886   -0.673857

 Total Charge           Charge          ....    0
 Multiplicity           Mult            ....    1
 Number of Electrons    NEL             ....   66
 Basis Dimension        Dim             ....  351

ORBITAL ENERGIES
----------------

  NO   OCC          E(Eh)            E(eV)
   0   2.0000     -11.228810      -305.5515
   1   2.0000     -11.225344      -305.4571
   2   2.0000     -11.225293      -305.4558
   3   2.0000     -11.221095      -305.3415
   4   2.0000     -11.216440      -305.2149
   5   2.0000     -11.215810      -305.1977
   6   2.0000     -11.215023      -305.1763
   7   2.0000     -11.214452      -305.1607
   8   2.0000     -11.211579      -305.0826
   9   2.0000      -1.226754       -33.3817
  10   2.0000      -1.071888       -29.1676
  11   2.0000      -0.990660       -26.9572
  12   2.0000      -0.950407       -25.8619
  13   2.0000      -0.920681       -25.0530
  14   2.0000      -0.837413       -22.7872
  15   2.0000      -0.747334       -20.3360
  16   2.0000      -0.733615       -19.9627
  17   2.0000      -0.724541       -19.7158
  18   2.0000      -0.679816       -18.4987
  19   2.0000      -0.618890       -16.8408
  20   2.0000      -0.602099       -16.3840
  21   2.0000      -0.577941       -15.7266
  22   2.0000      -0.557412       -15.1680
  23   2.0000      -0.548639       -14.9292
  24   2.0000      -0.547797       -14.9063
  25   2.0000      -0.493101       -13.4180
  26   2.0000      -0.467268       -12.7150
  27   2.0000      -0.464739       -12.6462
  28   2.0000      -0.459310       -12.4985
  29   2.0000      -0.429063       -11.6754
  30   2.0000      -0.415098       -11.2954
  31   2.0000      -0.374893       -10.2014
  32   2.0000      -0.370575       -10.0839
  33   0.0000       0.139247         3.7891
  34   0.0000       0.158128         4.3029
  35   0.0000       0.165343         4.4992
  36   0.0000       0.177077         4.8185
  37   0.0000       0.191942         5.2230

MULLIKEN ATOMIC CHARGES
-----------------------
   0 C :   -0.444363
   1 C :    0.044146
   2 C :   -0.184198
   3 C :   -0.151453
   4 C :   -0.032055
   5 C :   -0.261568
   6 C :   -0.032053
   7 C :   -0.195409
   8 C :   -0.195426
   9 H :    0.131979
  10 H :    0.133133
  11 H :    0.133132
  12 H :    0.106396
  13 H :    0.106393
  14 H :    0.123594
  15 H :    0.122512
  16 H :    0.109130
  17 H :    0.111345
  18 H :    0.122511
  19 H :    0.126127
  20 H :    0.126128
Sum of atomic charges:    0.0000000

LOEWDIN ATOMIC CHARGES
----------------------
   0 C :   -0.268656
   1 C :   -0.221339
   2 C :   -0.187972
   3 C :   -0.163711
   4 C :   -0.159431
   5 C :   -0.195562
   6 C :   -0.159430
   7 C :   -0.130646
   8 C :   -0.130647
   9 H :    0.129487
  10 H :    0.127241
  11 H :    0.127239
  12 H :    0.141245
  13 H :    0.141244
  14 H :    0.144187
  15 H :    0.132969
  16 H :    0.133211
  17 H :    0.124544
  18 H :    0.132968
  19 H :    0.141530
  20 H :    0.141529

  Mayer bond orders larger than 0.1
B(  0-C ,  1-C ) :   0.8712 B(  0-C ,  9-H ) :   0.9404 B(  0-C , 10-H ) :   0.9442
B(  0-C , 11-H ) :   0.9442 B(  1-C ,  2-C ) :   0.9635 B(  1-C ,  7-C ) :   0.8650
B(  1-C ,  8-C ) :   0.8650 B(  2-C ,  3-C ) :   0.9739 B(  2-C , 12-H ) :   0.9089
B(  2-C , 13-H ) :   0.9089 B(  3-C ,  4-C ) :   0.9095 B(  3-C ,  6-C ) :   0.9095
B(  3-C , 14-H ) :   0.9208 B(  4-C ,  5-C ) :   0.9188 B(  4-C ,  8-C ) :   0.8883
B(  4-C , 15-H ) :   0.9131 B(  5-C ,  6-C ) :   0.9188 B(  5-C , 16-H ) :   0.9231
B(  5-C , 17-H ) :   0.9187 B(  6-C ,  7-C ) :   0.8883 B(  6-C , 18-H ) :   0.9131
B(  7-C ,  8-C ) :   0.8865 B(  7-C , 19-H ) :   0.9298 B(  8-C , 20-H ) :   0.9298

MP2 TOTAL ENERGY:     -349.311193688 Eh
FINAL SINGLE POINT ENERGY      -349.311193687569

DIPOLE MOMENT
-------------
                                X             Y             Z
Electronic contribution:      0.36761      -2.24736       0.12452
Nuclear contribution   :     -0.39931       2.29284      -0.13583
                        -----------------------------------------
Total Dipole Moment    :     -0.03170       0.04548      -0.01131
                        -----------------------------------------
Magnitude (a.u.)       :      0.05658
Magnitude (Debye)      :      0.14381

                             ****ORCA TERMINATED NORMALLY****
TOTAL RUN TIME: 0 days 0 hours 21 minutes 42 seconds 249 msec
