                         Program Version 3.0.3 - RELEASE   -
|  1> ! RI-MP2 RIJK def2-TZVP def2-TZVP/C def2-TZVP/JK TIGHTSCF
|  2> % maxcore 2000
|  3> % mp2 density relaxed end
|  4> *xyz 0 1
|  5>  O       -0.0157827972    -0.0044027895    -0.2557096362
|  6>  C        0.0189691500     1.1893385590    -0.2973099435
|  7>  O        0.9815604797     1.9140759777     0.2944975513
|  8>  C        0.9453044501     3.3487187131     0.1672816373
|  9>  C        1.0758231212     3.9996906888     1.5592401206
| 10>  C        1.7747386085     5.3525401294     1.3086731897
| 11>  C        2.6172863794     5.1287670343     0.0571704160
| 12>  C        3.4618638676     3.8842103776    -0.0003611585
| 13>  C        2.0992640703     3.8925111110    -0.6499542433
| 14>  H       -0.7326754379     1.8158690161    -0.8184700911
| 15>  H       -0.0039223108     3.6281787163    -0.3088039395
| 16>  H        0.1100533489     4.1018487390     2.0593595742
| 17>  H        1.6903659999     3.3452108292     2.1834995931
| 18>  H        1.0338520503     6.1356138490     1.1101710634
| 19>  H        2.3633726429     5.6789886513     2.1724555743
| 20>  H        2.9395373363     5.9946187488    -0.5101321348
| 21>  H        4.3146553830     3.8950323252    -0.6694787396
| 22>  H        3.6156067656     3.2947854428     0.8971012081
| 23>  H        2.0331683322     3.8351700806    -1.7304165614
| 24> *
| 25>
| 26>                          ****END OF INPUT****

CARTESIAN COORDINATES (ANGSTROEM)
---------------------------------
  O     -0.015783   -0.004403   -0.255710
  C      0.018969    1.189339   -0.297310
  O      0.981560    1.914076    0.294498
  C      0.945304    3.348719    0.167282
  C      1.075823    3.999691    1.559240
  C      1.774739    5.352540    1.308673
  C      2.617286    5.128767    0.057170
  C      3.461864    3.884210   -0.000361
  C      2.099264    3.892511   -0.649954
  H     -0.732675    1.815869   -0.818470
  H     -0.003922    3.628179   -0.308804
  H      0.110053    4.101849    2.059360
  H      1.690366    3.345211    2.183500
  H      1.033852    6.135614    1.110171
  H      2.363373    5.678989    2.172456
  H      2.939537    5.994619   -0.510132
  H      4.314655    3.895032   -0.669479
  H      3.615607    3.294785    0.897101
  H      2.033168    3.835170   -1.730417

 Total Charge           Charge          ....    0
 Multiplicity           Mult            ....    1
 Number of Electrons    NEL             ....   68
 Basis Dimension        Dim             ....  339

ORBITAL ENERGIES
----------------

  NO   OCC          E(Eh)            E(eV)
   0   2.0000     -20.602760      -560.6296
   1   2.0000     -20.544525      -559.0450
   2   2.0000     -11.378741      -309.6313
   3   2.0000     -11.309230      -307.7398
   4   2.0000     -11.243954      -305.9635
   5   2.0000     -11.241368      -305.8932
   6   2.0000     -11.237923      -305.7994
   7   2.0000     -11.236534      -305.7616
   8   2.0000     -11.235205      -305.7255
   9   2.0000      -1.457236       -39.6534
  10   2.0000      -1.367731       -37.2179
  11   2.0000      -1.188667       -32.3453
  12   2.0000      -1.045262       -28.4430
  13   2.0000      -0.982404       -26.7326
  14   2.0000      -0.869427       -23.6583
  15   2.0000      -0.850597       -23.1459
  16   2.0000      -0.795148       -21.6371
  17   2.0000      -0.778057       -21.1720
  18   2.0000      -0.715763       -19.4769
  19   2.0000      -0.711541       -19.3620
  20   2.0000      -0.661238       -17.9932
  21   2.0000      -0.641850       -17.4656
  22   2.0000      -0.619327       -16.8528
  23   2.0000      -0.607592       -16.5334
  24   2.0000      -0.567079       -15.4310
  25   2.0000      -0.547318       -14.8933
  26   2.0000      -0.537701       -14.6316
  27   2.0000      -0.523437       -14.2434
  28   2.0000      -0.497063       -13.5258
  29   2.0000      -0.488661       -13.2971
  30   2.0000      -0.457155       -12.4398
  31   2.0000      -0.447399       -12.1744
  32   2.0000      -0.422745       -11.5035
  33   2.0000      -0.410239       -11.1632
  34   0.0000       0.126147         3.4326
  35   0.0000       0.144405         3.9295
  36   0.0000       0.152968         4.1625
  37   0.0000       0.163506         4.4492
  38   0.0000       0.168064         4.5733

MULLIKEN ATOMIC CHARGES
-----------------------
   0 O :   -0.274681
   1 C :    0.189333
   2 O :   -0.194353
   3 C :    0.012982
   4 C :   -0.251335
   5 C :   -0.238296
   6 C :   -0.088902
   7 C :   -0.293698
   8 C :   -0.082516
   9 H :    0.066705
  10 H :    0.095363
  11 H :    0.133577
  12 H :    0.143074
  13 H :    0.118487
  14 H :    0.124423
  15 H :    0.127376
  16 H :    0.138283
  17 H :    0.143237
  18 H :    0.130940
Sum of atomic charges:   -0.0000000

LOEWDIN ATOMIC CHARGES
----------------------
   0 O :    0.114053
   1 C :   -0.458082
   2 O :    0.271597
   3 C :   -0.266794
   4 C :   -0.224908
   5 C :   -0.230701
   6 C :   -0.194802
   7 C :   -0.194917
   8 C :   -0.184970
   9 H :    0.099384
  10 H :    0.141529
  11 H :    0.137394
  12 H :    0.146231
  13 H :    0.140797
  14 H :    0.138372
  15 H :    0.143583
  16 H :    0.138169
  17 H :    0.139137
  18 H :    0.144928

  Mayer bond orders larger than 0.1
B(  0-O ,  1-C ) :   2.0261 B(  1-C ,  2-O ) :   1.0834 B(  1-C ,  9-H ) :   0.9151
B(  2-O ,  3-C ) :   0.8750 B(  3-C ,  4-C ) :   0.9267 B(  3-C ,  8-C ) :   0.9467
B(  3-C , 10-H ) :   0.9283 B(  4-C ,  5-C ) :   0.9267 B(  4-C , 11-H ) :   0.9272
B(  4-C , 12-H ) :   0.9371 B(  5-C ,  6-C ) :   0.9254 B(  5-C , 13-H ) :   0.9289
B(  5-C , 14-H ) :   0.9296 B(  6-C ,  7-C ) :   0.8965 B(  6-C ,  8-C ) :   0.8424
B(  6-C , 15-H ) :   0.9271 B(  7-C ,  8-C ) :   0.8879 B(  7-C , 16-H ) :   0.9339
B(  7-C , 17-H ) :   0.9204 B(  8-C , 18-H ) :   0.9210

MP2 TOTAL ENERGY:     -422.343982553 Eh
FINAL SINGLE POINT ENERGY      -422.343982552883

DIPOLE MOMENT
-------------
                                X             Y             Z
Electronic contribution:     -3.05881      -7.98004      -1.91923
Nuclear contribution   :      3.09994       9.74697       1.81692
                        -----------------------------------------
Total Dipole Moment    :      0.04113       1.76692      -0.10231
                        -----------------------------------------
Magnitude (a.u.)       :      1.77036
Magnitude (Debye)      :      4.49990

                             ****ORCA TERMINATED NORMALLY****
TOTAL RUN TIME: 0 days 0 hours 18 minutes 9 seconds 245 msec
