                         Program Version 3.0.3 - RELEASE   -
|  1> ! RI-MP2 RIJK def2-TZVP def2-TZVP/C def2-TZVP/JK TIGHTSCF
|  2> % maxcore 2000
|  3> % mp2 density relaxed end
|  4> *xyz 0 1
|  5>  C       -0.0253940769     1.5718346050    -0.1433208331
|  6>  C        0.0222267701     0.0646478477    -0.0100783008
|  7>  C        1.3289699934    -0.6929618179    -0.1414669741
|  8>  O        2.5261937476     0.0238478413    -0.2329923733
|  9>  C        0.6368054368    -0.6326382987     1.1934491941
| 10>  C        1.2583600853     0.1591205258     2.3366484727
| 11>  C        1.9885539999    -0.7069398933     3.2634348798
| 12>  N        2.5505399239    -1.4004441596     3.9971788443
| 13>  H        0.9305041906     2.0326251073     0.1158051683
| 14>  H       -0.2602074806     1.8583403962    -1.1742724721
| 15>  H       -0.7982843972     2.0064170678     0.4994324409
| 16>  H       -0.8474884469    -0.4433499107    -0.4191677007
| 17>  H        1.3287877855    -1.6446123781    -0.6711110127
| 18>  H        2.6064694756     0.3660645826    -1.1294725819
| 19>  H        0.1427820493    -1.5437596393     1.5150671406
| 20>  H        1.9555532619     0.9051817706     1.9473608073
| 21>  H        0.4873401216     0.6924348832     2.9051225308
| 22> *
| 23>
| 24>                          ****END OF INPUT****

CARTESIAN COORDINATES (ANGSTROEM)
---------------------------------
  C     -0.025394    1.571835   -0.143321
  C      0.022227    0.064648   -0.010078
  C      1.328970   -0.692962   -0.141467
  O      2.526194    0.023848   -0.232992
  C      0.636805   -0.632638    1.193449
  C      1.258360    0.159121    2.336648
  C      1.988554   -0.706940    3.263435
  N      2.550540   -1.400444    3.997179
  H      0.930504    2.032625    0.115805
  H     -0.260207    1.858340   -1.174272
  H     -0.798284    2.006417    0.499432
  H     -0.847488   -0.443350   -0.419168
  H      1.328788   -1.644612   -0.671111
  H      2.606469    0.366065   -1.129473
  H      0.142782   -1.543760    1.515067
  H      1.955553    0.905182    1.947361
  H      0.487340    0.692435    2.905123

 Total Charge           Charge          ....    0
 Multiplicity           Mult            ....    1
 Number of Electrons    NEL             ....   60
 Basis Dimension        Dim             ....  302

ORBITAL ENERGIES
----------------

  NO   OCC          E(Eh)            E(eV)
   0   2.0000     -20.579908      -560.0078
   1   2.0000     -15.559623      -423.3989
   2   2.0000     -11.298021      -307.4348
   3   2.0000     -11.278677      -306.9084
   4   2.0000     -11.265163      -306.5407
   5   2.0000     -11.255203      -306.2697
   6   2.0000     -11.250569      -306.1436
   7   2.0000     -11.235763      -305.7407
   8   2.0000      -1.390287       -37.8316
   9   2.0000      -1.210696       -32.9447
  10   2.0000      -1.161958       -31.6185
  11   2.0000      -1.036784       -28.2123
  12   2.0000      -0.978260       -26.6198
  13   2.0000      -0.820558       -22.3285
  14   2.0000      -0.793463       -21.5912
  15   2.0000      -0.735694       -20.0193
  16   2.0000      -0.686460       -18.6795
  17   2.0000      -0.677055       -18.4236
  18   2.0000      -0.635802       -17.3011
  19   2.0000      -0.610554       -16.6140
  20   2.0000      -0.588396       -16.0111
  21   2.0000      -0.562096       -15.2954
  22   2.0000      -0.559936       -15.2366
  23   2.0000      -0.546182       -14.8624
  24   2.0000      -0.523552       -14.2466
  25   2.0000      -0.510943       -13.9035
  26   2.0000      -0.454153       -12.3581
  27   2.0000      -0.451377       -12.2826
  28   2.0000      -0.420795       -11.4504
  29   2.0000      -0.406092       -11.0503
  30   0.0000       0.113742         3.0951
  31   0.0000       0.145945         3.9714
  32   0.0000       0.150094         4.0843
  33   0.0000       0.165248         4.4966
  34   0.0000       0.177219         4.8224

MULLIKEN ATOMIC CHARGES
-----------------------
   0 C :   -0.439720
   1 C :   -0.054248
   2 C :   -0.023143
   3 O :   -0.473462
   4 C :   -0.106716
   5 C :   -0.125922
   6 C :   -0.197254
   7 N :   -0.059155
   8 H :    0.146050
   9 H :    0.142991
  10 H :    0.138776
  11 H :    0.126109
  12 H :    0.120811
  13 H :    0.329198
  14 H :    0.142338
  15 H :    0.173860
  16 H :    0.159487
Sum of atomic charges:    0.0000000

LOEWDIN ATOMIC CHARGES
----------------------
   0 C :   -0.297155
   1 C :   -0.220575
   2 C :   -0.298172
   3 O :    0.004585
   4 C :   -0.181070
   5 C :   -0.221793
   6 C :   -0.184633
   7 N :    0.053139
   8 H :    0.127451
   9 H :    0.127930
  10 H :    0.128338
  11 H :    0.150495
  12 H :    0.132542
  13 H :    0.184502
  14 H :    0.156901
  15 H :    0.171428
  16 H :    0.166087

  Mayer bond orders larger than 0.1
B(  0-C ,  1-C ) :   0.8906 B(  0-C ,  8-H ) :   0.9380 B(  0-C ,  9-H ) :   0.9362
B(  0-C , 10-H ) :   0.9379 B(  1-C ,  2-C ) :   0.8694 B(  1-C ,  4-C ) :   0.8567
B(  1-C , 11-H ) :   0.9236 B(  2-C ,  3-O ) :   1.0110 B(  2-C ,  4-C ) :   0.8765
B(  2-C , 12-H ) :   0.9494 B(  3-O , 13-H ) :   0.8384 B(  4-C ,  5-C ) :   0.9004
B(  4-C , 14-H ) :   0.9227 B(  5-C ,  6-C ) :   0.9464 B(  5-C , 15-H ) :   0.8975
B(  5-C , 16-H ) :   0.9110 B(  6-C ,  7-N ) :   2.8905

MP2 TOTAL ENERGY:     -363.240516700 Eh
FINAL SINGLE POINT ENERGY      -363.240516699613

DIPOLE MOMENT
-------------
                                X             Y             Z
Electronic contribution:      4.60453      -4.40838       5.15650
Nuclear contribution   :     -5.73503       5.31733      -6.81392
                        -----------------------------------------
Total Dipole Moment    :     -1.13050       0.90895      -1.65742
                        -----------------------------------------
Magnitude (a.u.)       :      2.20256
Magnitude (Debye)      :      5.59846

                             ****ORCA TERMINATED NORMALLY****
TOTAL RUN TIME: 0 days 0 hours 11 minutes 46 seconds 963 msec
