                         Program Version 3.0.3 - RELEASE   -
|  1> ! RI-MP2 RIJK def2-TZVP def2-TZVP/C def2-TZVP/JK TIGHTSCF
|  2> % maxcore 2000
|  3> % mp2 density relaxed end
|  4> *xyz 0 1
|  5>  O        0.0287699112     1.5558484284    -0.0287940729
|  6>  C        0.0945312104     0.1394131880    -0.1536883565
|  7>  C       -1.2702578524    -0.5067862270     0.0004710395
|  8>  C       -1.4857341122    -2.0421110260     0.0305773046
|  9>  C       -0.4341479002    -2.7889226552     0.8701591934
| 10>  C       -0.2897167237    -2.1007642526     2.2124596448
| 11>  C       -1.0466537571    -1.0322786918     2.4666757147
| 12>  C       -2.0081350180    -0.6240747980     1.3712396001
| 13>  O       -2.6598134871    -1.8309248485     0.8651052972
| 14>  H       -0.1799038335     1.7568203010     0.8890664983
| 15>  H        0.4734610844    -0.0507079672    -1.1645680061
| 16>  H        0.8185175788    -0.2856771074     0.5538942280
| 17>  H       -1.9609699647    -0.0708507900    -0.7259495249
| 18>  H       -1.7253214780    -2.5571308454    -0.9038258421
| 19>  H       -0.7495355801    -3.8312961481     1.0079949661
| 20>  H        0.5295066449    -2.8261304505     0.3435063378
| 21>  H        0.4166974278    -2.5013016984     2.9337785905
| 22>  H       -0.9977631233    -0.4788622671     3.3987654927
| 23>  H       -2.7295301573     0.1421379658     1.6620316850
| 24> *
| 25>
| 26>                          ****END OF INPUT****

CARTESIAN COORDINATES (ANGSTROEM)
---------------------------------
  O      0.028770    1.555848   -0.028794
  C      0.094531    0.139413   -0.153688
  C     -1.270258   -0.506786    0.000471
  C     -1.485734   -2.042111    0.030577
  C     -0.434148   -2.788923    0.870159
  C     -0.289717   -2.100764    2.212460
  C     -1.046654   -1.032279    2.466676
  C     -2.008135   -0.624075    1.371240
  O     -2.659813   -1.830925    0.865105
  H     -0.179904    1.756820    0.889066
  H      0.473461   -0.050708   -1.164568
  H      0.818518   -0.285677    0.553894
  H     -1.960970   -0.070851   -0.725950
  H     -1.725321   -2.557131   -0.903826
  H     -0.749536   -3.831296    1.007995
  H      0.529507   -2.826130    0.343506
  H      0.416697   -2.501302    2.933779
  H     -0.997763   -0.478862    3.398765
  H     -2.729530    0.142138    1.662032

 Total Charge           Charge          ....    0
 Multiplicity           Mult            ....    1
 Number of Electrons    NEL             ....   68
 Basis Dimension        Dim             ....  339

ORBITAL ENERGIES
----------------

  NO   OCC          E(Eh)            E(eV)
   0   2.0000     -20.559194      -559.4441
   1   2.0000     -20.548708      -559.1588
   2   2.0000     -11.291867      -307.2673
   3   2.0000     -11.291177      -307.2485
   4   2.0000     -11.277502      -306.8764
   5   2.0000     -11.240951      -305.8818
   6   2.0000     -11.238530      -305.8159
   7   2.0000     -11.236448      -305.7593
   8   2.0000     -11.231489      -305.6244
   9   2.0000      -1.384814       -37.6827
  10   2.0000      -1.361460       -37.0472
  11   2.0000      -1.102488       -30.0002
  12   2.0000      -1.028135       -27.9770
  13   2.0000      -1.009730       -27.4761
  14   2.0000      -0.904690       -24.6179
  15   2.0000      -0.851029       -23.1577
  16   2.0000      -0.807215       -21.9654
  17   2.0000      -0.725203       -19.7338
  18   2.0000      -0.702283       -19.1101
  19   2.0000      -0.684656       -18.6304
  20   2.0000      -0.640608       -17.4318
  21   2.0000      -0.626170       -17.0389
  22   2.0000      -0.599510       -16.3135
  23   2.0000      -0.589499       -16.0411
  24   2.0000      -0.575272       -15.6539
  25   2.0000      -0.553014       -15.0483
  26   2.0000      -0.543668       -14.7940
  27   2.0000      -0.532753       -14.4970
  28   2.0000      -0.512823       -13.9546
  29   2.0000      -0.476247       -12.9593
  30   2.0000      -0.454177       -12.3588
  31   2.0000      -0.432364       -11.7652
  32   2.0000      -0.407441       -11.0870
  33   2.0000      -0.358117        -9.7449
  34   0.0000       0.116557         3.1717
  35   0.0000       0.135556         3.6887
  36   0.0000       0.145691         3.9645
  37   0.0000       0.165551         4.5049
  38   0.0000       0.175067         4.7638

MULLIKEN ATOMIC CHARGES
-----------------------
   0 O :   -0.471961
   1 C :   -0.050209
   2 C :   -0.125954
   3 C :    0.058809
   4 C :   -0.200690
   5 C :   -0.168858
   6 C :   -0.268719
   7 C :    0.114534
   8 O :   -0.323371
   9 H :    0.313881
  10 H :    0.116031
  11 H :    0.127476
  12 H :    0.111092
  13 H :    0.121569
  14 H :    0.131342
  15 H :    0.122019
  16 H :    0.129373
  17 H :    0.127517
  18 H :    0.136118
Sum of atomic charges:   -0.0000000

LOEWDIN ATOMIC CHARGES
----------------------
   0 O :   -0.047488
   1 C :   -0.326358
   2 C :   -0.208404
   3 C :   -0.239010
   4 C :   -0.229422
   5 C :   -0.149374
   6 C :   -0.156842
   7 C :   -0.236196
   8 O :    0.159351
   9 H :    0.173289
  10 H :    0.133024
  11 H :    0.124041
  12 H :    0.159563
  13 H :    0.134090
  14 H :    0.149009
  15 H :    0.145870
  16 H :    0.140323
  17 H :    0.139317
  18 H :    0.135216

  Mayer bond orders larger than 0.1
B(  0-O ,  1-C ) :   0.9114 B(  0-O ,  9-H ) :   0.8488 B(  1-C ,  2-C ) :   0.9291
B(  1-C , 10-H ) :   0.9221 B(  1-C , 11-H ) :   0.9290 B(  2-C ,  3-C ) :   0.9134
B(  2-C ,  7-C ) :   0.9118 B(  2-C , 12-H ) :   0.9266 B(  3-C ,  4-C ) :   0.9507
B(  3-C ,  8-O ) :   0.9375 B(  3-C , 13-H ) :   0.9142 B(  4-C ,  5-C ) :   0.9568
B(  4-C , 14-H ) :   0.9071 B(  4-C , 15-H ) :   0.9031 B(  5-C ,  6-C ) :   1.8014
B(  5-C , 16-H ) :   0.9355 B(  6-C ,  7-C ) :   0.9140 B(  6-C , 17-H ) :   0.9272
B(  7-C ,  8-O ) :   0.9310 B(  7-C , 18-H ) :   0.9158

MP2 TOTAL ENERGY:     -422.297092180 Eh
FINAL SINGLE POINT ENERGY      -422.297092179955

DIPOLE MOMENT
-------------
                                X             Y             Z
Electronic contribution:     -3.07202       0.65503       0.49751
Nuclear contribution   :      3.60361      -0.88772      -0.17773
                        -----------------------------------------
Total Dipole Moment    :      0.53159      -0.23269       0.31978
                        -----------------------------------------
Magnitude (a.u.)       :      0.66256
Magnitude (Debye)      :      1.68410

                             ****ORCA TERMINATED NORMALLY****
TOTAL RUN TIME: 0 days 0 hours 30 minutes 51 seconds 783 msec
