                         Program Version 3.0.3 - RELEASE   -
|  1> ! RI-MP2 RIJK def2-TZVP def2-TZVP/C def2-TZVP/JK TIGHTSCF
|  2> % maxcore 2000
|  3> % mp2 density relaxed end
|  4> *xyz 0 1
|  5>  O        0.4443142149     0.9906294327    -0.6760470075
|  6>  C        0.0885892331    -0.1730091951     0.0230692943
|  7>  C       -0.0123436886    -0.1632926665     1.5690299392
|  8>  C       -1.2348377411    -1.1167513106     1.4518600035
|  9>  C       -1.3790530780    -0.7165190350    -0.0470188905
| 10>  C       -2.4246435039     0.3763988193    -0.3121897335
| 11>  C       -3.8167349927    -0.2086310391    -0.3269075036
| 12>  O       -4.6865161151     0.0555446804     0.4630083068
| 13>  H       -0.0298964712     1.7341987586    -0.2894993371
| 14>  H        0.7852141351    -0.9440548037    -0.3191612082
| 15>  H        0.8575933929    -0.4988187949     2.1374234356
| 16>  H       -0.3048235221     0.8250586803     1.9406474550
| 17>  H       -0.9561908138    -2.1661786516     1.5726085536
| 18>  H       -2.0911945046    -0.9084367860     2.0966952155
| 19>  H       -1.5315492550    -1.5407206979    -0.7517536970
| 20>  H       -2.3950679744     1.1662035385     0.4458875913
| 21>  H       -2.2224252319     0.8237115045    -1.2953581555
| 22>  H       -3.9889421135    -0.9524597739    -1.1404075318
| 23> *
| 24>
| 25>                          ****END OF INPUT****

CARTESIAN COORDINATES (ANGSTROEM)
---------------------------------
  O      0.444314    0.990629   -0.676047
  C      0.088589   -0.173009    0.023069
  C     -0.012344   -0.163293    1.569030
  C     -1.234838   -1.116751    1.451860
  C     -1.379053   -0.716519   -0.047019
  C     -2.424644    0.376399   -0.312190
  C     -3.816735   -0.208631   -0.326908
  O     -4.686516    0.055545    0.463008
  H     -0.029896    1.734199   -0.289499
  H      0.785214   -0.944055   -0.319161
  H      0.857593   -0.498819    2.137423
  H     -0.304824    0.825059    1.940647
  H     -0.956191   -2.166179    1.572609
  H     -2.091195   -0.908437    2.096695
  H     -1.531549   -1.540721   -0.751754
  H     -2.395068    1.166204    0.445888
  H     -2.222425    0.823712   -1.295358
  H     -3.988942   -0.952460   -1.140408

 Total Charge           Charge          ....    0
 Multiplicity           Mult            ....    1
 Number of Electrons    NEL             ....   62
 Basis Dimension        Dim             ....  308

ORBITAL ENERGIES
----------------

  NO   OCC          E(Eh)            E(eV)
   0   2.0000     -20.567597      -559.6728
   1   2.0000     -20.559681      -559.4574
   2   2.0000     -11.334762      -308.4345
   3   2.0000     -11.290197      -307.2219
   4   2.0000     -11.247238      -306.0529
   5   2.0000     -11.246507      -306.0330
   6   2.0000     -11.234458      -305.7051
   7   2.0000     -11.233206      -305.6711
   8   2.0000      -1.398396       -38.0523
   9   2.0000      -1.376005       -37.4430
  10   2.0000      -1.143522       -31.1168
  11   2.0000      -1.032864       -28.1057
  12   2.0000      -0.898681       -24.4544
  13   2.0000      -0.891646       -24.2629
  14   2.0000      -0.808709       -22.0061
  15   2.0000      -0.768762       -20.9191
  16   2.0000      -0.699028       -19.0215
  17   2.0000      -0.673343       -18.3226
  18   2.0000      -0.668428       -18.1888
  19   2.0000      -0.632223       -17.2037
  20   2.0000      -0.607437       -16.5292
  21   2.0000      -0.591705       -16.1011
  22   2.0000      -0.569129       -15.4868
  23   2.0000      -0.564113       -15.3503
  24   2.0000      -0.547394       -14.8954
  25   2.0000      -0.518208       -14.1012
  26   2.0000      -0.478499       -13.0206
  27   2.0000      -0.468007       -12.7351
  28   2.0000      -0.449046       -12.2192
  29   2.0000      -0.434619       -11.8266
  30   2.0000      -0.410768       -11.1776
  31   0.0000       0.128250         3.4899
  32   0.0000       0.132158         3.5962
  33   0.0000       0.136601         3.7171
  34   0.0000       0.156340         4.2542
  35   0.0000       0.166326         4.5260

MULLIKEN ATOMIC CHARGES
-----------------------
   0 O :   -0.450936
   1 C :    0.031396
   2 C :   -0.235853
   3 C :   -0.259858
   4 C :   -0.043001
   5 C :   -0.250230
   6 C :    0.090989
   7 O :   -0.266572
   8 H :    0.318866
   9 H :    0.106358
  10 H :    0.129675
  11 H :    0.111333
  12 H :    0.126986
  13 H :    0.136463
  14 H :    0.113567
  15 H :    0.118015
  16 H :    0.146732
  17 H :    0.076071
Sum of atomic charges:    0.0000000

LOEWDIN ATOMIC CHARGES
----------------------
   0 O :   -0.006569
   1 C :   -0.315821
   2 C :   -0.230231
   3 C :   -0.218501
   4 C :   -0.215306
   5 C :   -0.251250
   6 C :   -0.294645
   7 O :    0.130673
   8 H :    0.174283
   9 H :    0.145257
  10 H :    0.126492
  11 H :    0.133969
  12 H :    0.135626
  13 H :    0.132694
  14 H :    0.142370
  15 H :    0.145463
  16 H :    0.154683
  17 H :    0.110814

  Mayer bond orders larger than 0.1
B(  0-O ,  1-C ) :   0.9831 B(  0-O ,  8-H ) :   0.8372 B(  1-C ,  2-C ) :   0.9500
B(  1-C ,  4-C ) :   0.8596 B(  1-C ,  9-H ) :   0.9342 B(  2-C ,  3-C ) :   0.9306
B(  2-C , 10-H ) :   0.9318 B(  2-C , 11-H ) :   0.9157 B(  3-C ,  4-C ) :   0.9014
B(  3-C , 12-H ) :   0.9301 B(  3-C , 13-H ) :   0.9207 B(  4-C ,  5-C ) :   0.8681
B(  4-C , 14-H ) :   0.9166 B(  5-C ,  6-C ) :   0.8855 B(  5-C , 15-H ) :   0.9002
B(  5-C , 16-H ) :   0.9134 B(  6-C ,  7-O ) :   1.9975 B(  6-C , 17-H ) :   0.9394

MP2 TOTAL ENERGY:     -384.300417262 Eh
FINAL SINGLE POINT ENERGY      -384.300417262419

DIPOLE MOMENT
-------------
                                X             Y             Z
Electronic contribution:     -3.53281       1.31156      -1.74711
Nuclear contribution   :      4.07156      -1.48688       1.70264
                        -----------------------------------------
Total Dipole Moment    :      0.53874      -0.17532      -0.04447
                        -----------------------------------------
Magnitude (a.u.)       :      0.56829
Magnitude (Debye)      :      1.44449

                             ****ORCA TERMINATED NORMALLY****
TOTAL RUN TIME: 0 days 0 hours 12 minutes 15 seconds 629 msec
