                         Program Version 3.0.3 - RELEASE   -
|  1> ! RI-MP2 RIJK def2-TZVP def2-TZVP/C def2-TZVP/JK TIGHTSCF
|  2> % maxcore 2000
|  3> % mp2 density relaxed end
|  4> *xyz 0 1
|  5>  N       -0.0387733472     1.4865646133     0.0806430103
|  6>  C        0.0195643991     0.0370362994    -0.0245054773
|  7>  C        0.2307543989    -0.6045978899     1.3823353602
|  8>  C       -1.3072485235    -0.6932544398     1.5429087703
|  9>  C       -1.4392743375    -0.5718896856    -0.0073516884
| 10>  C       -2.5077547341     0.2042408012    -0.5941688803
| 11>  C       -3.3852738362     0.8643776899    -1.0849393378
| 12>  C        0.8919805937    -0.4432659795    -1.1039899215
| 13>  N        1.5899351384    -0.8004227392    -1.9549087402
| 14>  H        0.8984449787     1.8743405283     0.1313227073
| 15>  H       -0.4931481422     1.8793220412    -0.7392482897
| 16>  H        0.7014761300    -1.5872487274     1.3093279302
| 17>  H        0.7821641797     0.0156840527     2.0897119108
| 18>  H       -1.7186087551    -1.5974829622     1.9921404404
| 19>  H       -1.7166182997     0.1856209357     2.0398931647
| 20>  H       -1.4023541510    -1.5674948911    -0.4595828768
| 21>  H       -4.1703249720     1.4365339730    -1.5145524021
| 22> *
| 23>
| 24>                          ****END OF INPUT****

CARTESIAN COORDINATES (ANGSTROEM)
---------------------------------
  N     -0.038773    1.486565    0.080643
  C      0.019564    0.037036   -0.024505
  C      0.230754   -0.604598    1.382335
  C     -1.307249   -0.693254    1.542909
  C     -1.439274   -0.571890   -0.007352
  C     -2.507755    0.204241   -0.594169
  C     -3.385274    0.864378   -1.084939
  C      0.891981   -0.443266   -1.103990
  N      1.589935   -0.800423   -1.954909
  H      0.898445    1.874341    0.131323
  H     -0.493148    1.879322   -0.739248
  H      0.701476   -1.587249    1.309328
  H      0.782164    0.015684    2.089712
  H     -1.718609   -1.597483    1.992140
  H     -1.716618    0.185621    2.039893
  H     -1.402354   -1.567495   -0.459583
  H     -4.170325    1.436534   -1.514552

 Total Charge           Charge          ....    0
 Multiplicity           Mult            ....    1
 Number of Electrons    NEL             ....   64
 Basis Dimension        Dim             ....  327

ORBITAL ENERGIES
----------------

  NO   OCC          E(Eh)            E(eV)
   0   2.0000     -15.574293      -423.7981
   1   2.0000     -15.570699      -423.7003
   2   2.0000     -11.324322      -308.1505
   3   2.0000     -11.282091      -307.0013
   4   2.0000     -11.271934      -306.7249
   5   2.0000     -11.253360      -306.2195
   6   2.0000     -11.249095      -306.1034
   7   2.0000     -11.246195      -306.0245
   8   2.0000     -11.236885      -305.7712
   9   2.0000      -1.251461       -34.0540
  10   2.0000      -1.209289       -32.9064
  11   2.0000      -1.130224       -30.7549
  12   2.0000      -1.047433       -28.5021
  13   2.0000      -0.944232       -25.6939
  14   2.0000      -0.941744       -25.6262
  15   2.0000      -0.814799       -22.1718
  16   2.0000      -0.747338       -20.3361
  17   2.0000      -0.735823       -20.0228
  18   2.0000      -0.691129       -18.8066
  19   2.0000      -0.684896       -18.6370
  20   2.0000      -0.621204       -16.9038
  21   2.0000      -0.592505       -16.1229
  22   2.0000      -0.566151       -15.4057
  23   2.0000      -0.549223       -14.9451
  24   2.0000      -0.532197       -14.4818
  25   2.0000      -0.512069       -13.9341
  26   2.0000      -0.502871       -13.6838
  27   2.0000      -0.466577       -12.6962
  28   2.0000      -0.453852       -12.3499
  29   2.0000      -0.431095       -11.7307
  30   2.0000      -0.395985       -10.7753
  31   2.0000      -0.393344       -10.7034
  32   0.0000       0.118877         3.2348
  33   0.0000       0.139064         3.7841
  34   0.0000       0.143930         3.9165
  35   0.0000       0.152042         4.1373
  36   0.0000       0.157843         4.2951

MULLIKEN ATOMIC CHARGES
-----------------------
   0 N :   -0.560018
   1 C :    0.347191
   2 C :   -0.243657
   3 C :   -0.184327
   4 C :   -0.191807
   5 C :   -0.071547
   6 C :   -0.143043
   7 C :   -0.271926
   8 N :   -0.049296
   9 H :    0.240942
  10 H :    0.251282
  11 H :    0.138285
  12 H :    0.129873
  13 H :    0.133148
  14 H :    0.133155
  15 H :    0.145760
  16 H :    0.195986
Sum of atomic charges:   -0.0000000

LOEWDIN ATOMIC CHARGES
----------------------
   0 N :   -0.080892
   1 C :   -0.303438
   2 C :   -0.177727
   3 C :   -0.189525
   4 C :   -0.166448
   5 C :   -0.093100
   6 C :   -0.085028
   7 C :   -0.163645
   8 N :    0.063817
   9 H :    0.164820
  10 H :    0.169503
  11 H :    0.144007
  12 H :    0.134558
  13 H :    0.129508
  14 H :    0.146175
  15 H :    0.178387
  16 H :    0.129030

  Mayer bond orders larger than 0.1
B(  0-N ,  1-C ) :   0.9618 B(  0-N ,  9-H ) :   0.8823 B(  0-N , 10-H ) :   0.8748
B(  1-C ,  2-C ) :   0.8782 B(  1-C ,  4-C ) :   0.8373 B(  1-C ,  7-C ) :   0.9346
B(  2-C ,  3-C ) :   0.9558 B(  2-C , 11-H ) :   0.9205 B(  2-C , 12-H ) :   0.9113
B(  3-C ,  4-C ) :   0.9218 B(  3-C , 13-H ) :   0.9286 B(  3-C , 14-H ) :   0.9103
B(  4-C ,  5-C ) :   1.1766 B(  4-C , 15-H ) :   0.9201 B(  5-C ,  6-C ) :   2.5939
B(  6-C , 16-H ) :   0.8864 B(  7-C ,  8-N ) :   2.8792

MP2 TOTAL ENERGY:     -380.155212810 Eh
FINAL SINGLE POINT ENERGY      -380.155212810374

DIPOLE MOMENT
-------------
                                X             Y             Z
Electronic contribution:      1.34625      -0.49868      -4.91549
Nuclear contribution   :     -1.94743       0.86917       5.79255
                        -----------------------------------------
Total Dipole Moment    :     -0.60118       0.37049       0.87707
                        -----------------------------------------
Magnitude (a.u.)       :      1.12602
Magnitude (Debye)      :      2.86211

                             ****ORCA TERMINATED NORMALLY****
TOTAL RUN TIME: 0 days 0 hours 17 minutes 0 seconds 892 msec
