                         Program Version 3.0.3 - RELEASE   -
|  1> ! RI-MP2 RIJK def2-TZVP def2-TZVP/C def2-TZVP/JK TIGHTSCF
|  2> % maxcore 2000
|  3> % mp2 density relaxed end
|  4> *xyz 0 1
|  5>  C       -0.0031944470     1.4850158870    -0.0013993727
|  6>  C        0.0067236133     0.0331280553    -0.0020682711
|  7>  C        0.0148673445    -1.1777575856    -0.0023586769
|  8>  C        0.0243127377    -2.5367311501    -0.0025537062
|  9>  C        0.0255012483    -3.7493732482     0.0021990519
| 10>  C        0.0408718859    -5.1781327068    -0.0035788818
| 11>  C       -0.4111801388    -5.9566355492     1.2256690037
| 12>  C       -1.2663277285    -5.9609304477    -0.0042278496
| 13>  H        1.0157618112     1.8888035358    -0.0120605803
| 14>  H       -0.5268500894     1.8815537535    -0.8788864916
| 15>  H       -0.5052265355     1.8776957680     0.8903614090
| 16>  H        0.8550754987    -5.6243667128    -0.5680673918
| 17>  H        0.1487090279    -6.8511016238     1.4740814323
| 18>  H       -0.7446856334    -5.3767131661     2.0776524549
| 19>  H       -2.1830046628    -5.3839259836     0.0089947180
| 20>  H       -1.3013256219    -6.8583992958    -0.6113357779
| 21> *
| 22>
| 23>                          ****END OF INPUT****

CARTESIAN COORDINATES (ANGSTROEM)
---------------------------------
  C     -0.003194    1.485016   -0.001399
  C      0.006724    0.033128   -0.002068
  C      0.014867   -1.177758   -0.002359
  C      0.024313   -2.536731   -0.002554
  C      0.025501   -3.749373    0.002199
  C      0.040872   -5.178133   -0.003579
  C     -0.411180   -5.956636    1.225669
  C     -1.266328   -5.960930   -0.004228
  H      1.015762    1.888804   -0.012061
  H     -0.526850    1.881554   -0.878886
  H     -0.505227    1.877696    0.890361
  H      0.855075   -5.624367   -0.568067
  H      0.148709   -6.851102    1.474081
  H     -0.744686   -5.376713    2.077652
  H     -2.183005   -5.383926    0.008995
  H     -1.301326   -6.858399   -0.611336

 Total Charge           Charge          ....    0
 Multiplicity           Mult            ....    1
 Number of Electrons    NEL             ....   56
 Basis Dimension        Dim             ....  296

ORBITAL ENERGIES
----------------

  NO   OCC          E(Eh)            E(eV)
   0   2.0000     -11.260575      -306.4158
   1   2.0000     -11.252186      -306.1875
   2   2.0000     -11.241966      -305.9094
   3   2.0000     -11.241702      -305.9023
   4   2.0000     -11.241272      -305.8906
   5   2.0000     -11.241232      -305.8895
   6   2.0000     -11.235327      -305.7288
   7   2.0000     -11.234110      -305.6957
   8   2.0000      -1.161053       -31.5939
   9   2.0000      -1.079621       -29.3780
  10   2.0000      -1.032373       -28.0923
  11   2.0000      -0.963701       -26.2236
  12   2.0000      -0.876200       -23.8426
  13   2.0000      -0.834261       -22.7014
  14   2.0000      -0.787233       -21.4217
  15   2.0000      -0.700024       -19.0486
  16   2.0000      -0.655560       -17.8387
  17   2.0000      -0.634522       -17.2662
  18   2.0000      -0.592397       -16.1199
  19   2.0000      -0.592126       -16.1126
  20   2.0000      -0.562161       -15.2972
  21   2.0000      -0.529365       -14.4048
  22   2.0000      -0.493587       -13.4312
  23   2.0000      -0.475574       -12.9410
  24   2.0000      -0.440103       -11.9758
  25   2.0000      -0.430728       -11.7207
  26   2.0000      -0.332395        -9.0449
  27   2.0000      -0.319896        -8.7048
  28   0.0000       0.125139         3.4052
  29   0.0000       0.132081         3.5941
  30   0.0000       0.136248         3.7075
  31   0.0000       0.160283         4.3615
  32   0.0000       0.170276         4.6335

MULLIKEN ATOMIC CHARGES
-----------------------
   0 C :   -0.461121
   1 C :    0.005424
   2 C :   -0.035168
   3 C :    0.015893
   4 C :   -0.041217
   5 C :   -0.217488
   6 C :   -0.232534
   7 C :   -0.232585
   8 H :    0.165854
   9 H :    0.165774
  10 H :    0.165812
  11 H :    0.142145
  12 H :    0.135755
  13 H :    0.143841
  14 H :    0.143860
  15 H :    0.135756
Sum of atomic charges:   -0.0000000

LOEWDIN ATOMIC CHARGES
----------------------
   0 C :   -0.292626
   1 C :   -0.060260
   2 C :   -0.078717
   3 C :   -0.063523
   4 C :   -0.019690
   5 C :   -0.213667
   6 C :   -0.204540
   7 C :   -0.204513
   8 H :    0.143594
   9 H :    0.143283
  10 H :    0.143520
  11 H :    0.163594
  12 H :    0.133279
  13 H :    0.138490
  14 H :    0.138495
  15 H :    0.133282

  Mayer bond orders larger than 0.1
B(  0-C ,  1-C ) :   0.8159 B(  0-C ,  8-H ) :   0.9447 B(  0-C ,  9-H ) :   0.9454
B(  0-C , 10-H ) :   0.9465 B(  1-C ,  2-C ) :   2.5717 B(  1-C ,  4-C ) :   0.1153
B(  2-C ,  3-C ) :   1.2991 B(  3-C ,  4-C ) :   2.4985 B(  3-C ,  5-C ) :  -0.1200
B(  4-C ,  5-C ) :   1.0435 B(  5-C ,  6-C ) :   0.8596 B(  5-C ,  7-C ) :   0.8595
B(  5-C , 11-H ) :   0.9305 B(  6-C ,  7-C ) :   0.9004 B(  6-C , 12-H ) :   0.9303
B(  6-C , 13-H ) :   0.9320 B(  7-C , 14-H ) :   0.9320 B(  7-C , 15-H ) :   0.9303

MP2 TOTAL ENERGY:     -308.811545179 Eh
FINAL SINGLE POINT ENERGY      -308.811545179187

DIPOLE MOMENT
-------------
                                X             Y             Z
Electronic contribution:      1.36897       1.15879      -0.95625
Nuclear contribution   :     -1.44815      -1.21611       1.01186
                        -----------------------------------------
Total Dipole Moment    :     -0.07918      -0.05732       0.05561
                        -----------------------------------------
Magnitude (a.u.)       :      0.11246
Magnitude (Debye)      :      0.28586

                             ****ORCA TERMINATED NORMALLY****
TOTAL RUN TIME: 0 days 0 hours 9 minutes 42 seconds 961 msec
