                         Program Version 3.0.3 - RELEASE   -
|  1> ! RI-MP2 RIJK def2-TZVP def2-TZVP/C def2-TZVP/JK TIGHTSCF
|  2> % maxcore 2000
|  3> % mp2 density relaxed end
|  4> *xyz 0 1
|  5>  C       -0.3109524251     1.4509126331    -0.2755104703
|  6>  C       -0.0071235096    -0.0155249127    -0.0513720448
|  7>  C        0.9878237278    -0.7192479815    -0.8945555896
|  8>  O        1.3202089013    -0.3118600031     0.4244270729
|  9>  C       -1.0603166670    -0.7966194104     0.5483035941
| 10>  C       -1.9777362047    -1.4094457328     1.0416686187
| 11>  C       -3.0367412789    -2.1732257057     1.6493978767
| 12>  O       -4.2151374764    -1.9365727981     1.5125907084
| 13>  H        0.5503441534     1.9426284442    -0.7335197015
| 14>  H       -1.1808696754     1.5668094954    -0.9282206986
| 15>  H       -0.5301032380     1.9435064827     0.6758628953
| 16>  H        0.8995759086    -1.7926553044    -1.0496053208
| 17>  H        1.4641075603    -0.1608307323    -1.6997210299
| 18>  H       -2.6823180564    -3.0200475544     2.2710800995
| 19> *
| 20>
| 21>                          ****END OF INPUT****

CARTESIAN COORDINATES (ANGSTROEM)
---------------------------------
  C     -0.310952    1.450913   -0.275510
  C     -0.007124   -0.015525   -0.051372
  C      0.987824   -0.719248   -0.894556
  O      1.320209   -0.311860    0.424427
  C     -1.060317   -0.796619    0.548304
  C     -1.977736   -1.409446    1.041669
  C     -3.036741   -2.173226    1.649398
  O     -4.215137   -1.936573    1.512591
  H      0.550344    1.942628   -0.733520
  H     -1.180870    1.566809   -0.928221
  H     -0.530103    1.943506    0.675863
  H      0.899576   -1.792655   -1.049605
  H      1.464108   -0.160831   -1.699721
  H     -2.682318   -3.020048    2.271080

 Total Charge           Charge          ....    0
 Multiplicity           Mult            ....    1
 Number of Electrons    NEL             ....   58
 Basis Dimension        Dim             ....  284

ORBITAL ENERGIES
----------------

  NO   OCC          E(Eh)            E(eV)
   0   2.0000     -20.594067      -560.3931
   1   2.0000     -20.573909      -559.8445
   2   2.0000     -11.364013      -309.2305
   3   2.0000     -11.337383      -308.5059
   4   2.0000     -11.309964      -307.7598
   5   2.0000     -11.274441      -306.7931
   6   2.0000     -11.256778      -306.3125
   7   2.0000     -11.246073      -306.0212
   8   2.0000      -1.439581       -39.1730
   9   2.0000      -1.409049       -38.3422
  10   2.0000      -1.094180       -29.7742
  11   2.0000      -1.031749       -28.0753
  12   2.0000      -0.938894       -25.5486
  13   2.0000      -0.921747       -25.0820
  14   2.0000      -0.856642       -23.3104
  15   2.0000      -0.739972       -20.1357
  16   2.0000      -0.720124       -19.5956
  17   2.0000      -0.681315       -18.5395
  18   2.0000      -0.663073       -18.0431
  19   2.0000      -0.617290       -16.7973
  20   2.0000      -0.587753       -15.9936
  21   2.0000      -0.572625       -15.5819
  22   2.0000      -0.560850       -15.2615
  23   2.0000      -0.552088       -15.0231
  24   2.0000      -0.489390       -13.3170
  25   2.0000      -0.474428       -12.9099
  26   2.0000      -0.459794       -12.5116
  27   2.0000      -0.421980       -11.4826
  28   2.0000      -0.398357       -10.8399
  29   0.0000       0.070060         1.9064
  30   0.0000       0.137471         3.7408
  31   0.0000       0.145355         3.9553
  32   0.0000       0.171223         4.6592
  33   0.0000       0.174835         4.7575

MULLIKEN ATOMIC CHARGES
-----------------------
   0 C :   -0.400954
   1 C :   -0.018993
   2 C :   -0.042053
   3 O :   -0.309243
   4 C :    0.052909
   5 C :    0.130875
   6 C :    0.033115
   7 O :   -0.251415
   8 H :    0.144195
   9 H :    0.147597
  10 H :    0.148283
  11 H :    0.129768
  12 H :    0.124099
  13 H :    0.111818
Sum of atomic charges:   -0.0000000

LOEWDIN ATOMIC CHARGES
----------------------
   0 C :   -0.244636
   1 C :   -0.335547
   2 C :   -0.224189
   3 O :    0.184342
   4 C :    0.015285
   5 C :   -0.040395
   6 C :   -0.291796
   7 O :    0.149816
   8 H :    0.135032
   9 H :    0.137492
  10 H :    0.136736
  11 H :    0.126814
  12 H :    0.124646
  13 H :    0.126400

  Mayer bond orders larger than 0.1
B(  0-C ,  1-C ) :   0.9425 B(  0-C ,  8-H ) :   0.9319 B(  0-C ,  9-H ) :   0.9303
B(  0-C , 10-H ) :   0.9326 B(  1-C ,  2-C ) :   0.9735 B(  1-C ,  3-O ) :   0.9197
B(  1-C ,  4-C ) :   1.1031 B(  1-C ,  5-C ) :  -0.1953 B(  2-C ,  3-O ) :   0.8935
B(  2-C , 11-H ) :   0.9106 B(  2-C , 12-H ) :   0.9105 B(  4-C ,  5-C ) :   2.6586
B(  5-C ,  6-C ) :   0.8433 B(  5-C , 13-H ) :  -0.1047 B(  6-C ,  7-O ) :   2.0084
B(  6-C , 13-H ) :   1.0037

MP2 TOTAL ENERGY:     -381.842416785 Eh
FINAL SINGLE POINT ENERGY      -381.842416785491

DIPOLE MOMENT
-------------
                                X             Y             Z
Electronic contribution:     -3.58432      -4.35550       3.41827
Nuclear contribution   :      4.36240       4.50137      -4.10726
                        -----------------------------------------
Total Dipole Moment    :      0.77808       0.14587      -0.68899
                        -----------------------------------------
Magnitude (a.u.)       :      1.04947
Magnitude (Debye)      :      2.66755

                             ****ORCA TERMINATED NORMALLY****
TOTAL RUN TIME: 0 days 0 hours 8 minutes 56 seconds 99 msec
