                         Program Version 3.0.3 - RELEASE   -
|  1> ! RI-MP2 RIJK def2-TZVP def2-TZVP/C def2-TZVP/JK TIGHTSCF
|  2> % maxcore 2000
|  3> % mp2 density relaxed end
|  4> *xyz 0 1
|  5>  O       -0.0603156495    -0.0121130620    -0.0579373099
|  6>  C       -0.0291675254     1.1865580390    -0.0174103167
|  7>  N       -1.0201500179     2.1494015862    -0.0541850461
|  8>  C       -0.1364972957     3.3043911257     0.1116088227
|  9>  C        0.1287716803     3.8805716259     1.5183490297
| 10>  C        1.6776882635     4.0355924979     1.4142089106
| 11>  N        1.7171203621     2.5080054102     1.4108787204
| 12>  C        0.5125363685     2.6234042089     2.3303713379
| 13>  C        1.0654208620     2.2901436739     0.0927076378
| 14>  H       -2.0229918328     2.0527840588     0.0157511418
| 15>  H       -0.2230683168     4.0573593227    -0.6740761551
| 16>  H       -0.5303103505     4.6644810849     1.8951940233
| 17>  H        2.1051238142     4.5092488603     0.5251721450
| 18>  H        2.1514912485     4.4259212509     2.3171726839
| 19>  H        0.8532802273     2.8523867505     3.3413653691
| 20>  H       -0.1523090859     1.7585058328     2.3507889174
| 21>  H        1.7881100680     2.3343626336    -0.7212494517
| 22> *
| 23>
| 24>                          ****END OF INPUT****

CARTESIAN COORDINATES (ANGSTROEM)
---------------------------------
  O     -0.060316   -0.012113   -0.057937
  C     -0.029168    1.186558   -0.017410
  N     -1.020150    2.149402   -0.054185
  C     -0.136497    3.304391    0.111609
  C      0.128772    3.880572    1.518349
  C      1.677688    4.035592    1.414209
  N      1.717120    2.508005    1.410879
  C      0.512536    2.623404    2.330371
  C      1.065421    2.290144    0.092708
  H     -2.022992    2.052784    0.015751
  H     -0.223068    4.057359   -0.674076
  H     -0.530310    4.664481    1.895194
  H      2.105124    4.509249    0.525172
  H      2.151491    4.425921    2.317173
  H      0.853280    2.852387    3.341365
  H     -0.152309    1.758506    2.350789
  H      1.788110    2.334363   -0.721249

 Total Charge           Charge          ....    0
 Multiplicity           Mult            ....    1
 Number of Electrons    NEL             ....   66
 Basis Dimension        Dim             ....  327

ORBITAL ENERGIES
----------------

  NO   OCC          E(Eh)            E(eV)
   0   2.0000     -20.530571      -558.6652
   1   2.0000     -15.587698      -424.1628
   2   2.0000     -15.576234      -423.8509
   3   2.0000     -11.354061      -308.9597
   4   2.0000     -11.285798      -307.1022
   5   2.0000     -11.277709      -306.8821
   6   2.0000     -11.274790      -306.8026
   7   2.0000     -11.266496      -306.5770
   8   2.0000     -11.255019      -306.2646
   9   2.0000      -1.392982       -37.9050
  10   2.0000      -1.310562       -35.6622
  11   2.0000      -1.240662       -33.7601
  12   2.0000      -1.019818       -27.7507
  13   2.0000      -0.989373       -26.9222
  14   2.0000      -0.931134       -25.3374
  15   2.0000      -0.865735       -23.5578
  16   2.0000      -0.789289       -21.4776
  17   2.0000      -0.757410       -20.6102
  18   2.0000      -0.695870       -18.9356
  19   2.0000      -0.682855       -18.5814
  20   2.0000      -0.673814       -18.3354
  21   2.0000      -0.656204       -17.8562
  22   2.0000      -0.590990       -16.0817
  23   2.0000      -0.570755       -15.5310
  24   2.0000      -0.554348       -15.0846
  25   2.0000      -0.533097       -14.5063
  26   2.0000      -0.523573       -14.2471
  27   2.0000      -0.502505       -13.6739
  28   2.0000      -0.488638       -13.2965
  29   2.0000      -0.472781       -12.8650
  30   2.0000      -0.414885       -11.2896
  31   2.0000      -0.405105       -11.0235
  32   2.0000      -0.386582       -10.5194
  33   0.0000       0.131519         3.5788
  34   0.0000       0.137728         3.7478
  35   0.0000       0.158389         4.3100
  36   0.0000       0.161787         4.4025
  37   0.0000       0.179285         4.8786

MULLIKEN ATOMIC CHARGES
-----------------------
   0 O :   -0.291299
   1 C :    0.160957
   2 N :   -0.330508
   3 C :   -0.056322
   4 C :   -0.019611
   5 C :   -0.219493
   6 N :   -0.182294
   7 C :   -0.229352
   8 C :   -0.001522
   9 H :    0.236808
  10 H :    0.130204
  11 H :    0.131229
  12 H :    0.127010
  13 H :    0.134707
  14 H :    0.134839
  15 H :    0.142425
  16 H :    0.132220
Sum of atomic charges:   -0.0000000

LOEWDIN ATOMIC CHARGES
----------------------
   0 O :    0.116842
   1 C :   -0.425408
   2 N :    0.139799
   3 C :   -0.221938
   4 C :   -0.212200
   5 C :   -0.211670
   6 N :    0.107167
   7 C :   -0.221563
   8 C :   -0.190763
   9 H :    0.170603
  10 H :    0.139139
  11 H :    0.133329
  12 H :    0.127715
  13 H :    0.134125
  14 H :    0.136666
  15 H :    0.131912
  16 H :    0.146244

  Mayer bond orders larger than 0.1
B(  0-O ,  1-C ) :   2.0487 B(  1-C ,  2-N ) :   1.1530 B(  1-C ,  8-C ) :   0.8387
B(  2-N ,  3-C ) :   0.9323 B(  2-N ,  9-H ) :   0.8526 B(  3-C ,  4-C ) :   0.8748
B(  3-C ,  8-C ) :   0.8765 B(  3-C , 10-H ) :   0.9326 B(  4-C ,  5-C ) :   0.8920
B(  4-C ,  7-C ) :   0.9297 B(  4-C , 11-H ) :   0.9059 B(  5-C ,  6-N ) :   0.9011
B(  5-C , 12-H ) :   0.9259 B(  5-C , 13-H ) :   0.9216 B(  6-N ,  7-C ) :   0.9116
B(  6-N ,  8-C ) :   0.9187 B(  7-C , 14-H ) :   0.9301 B(  7-C , 15-H ) :   0.9187
B(  8-C , 16-H ) :   0.9236

MP2 TOTAL ENERGY:     -417.281465753 Eh
FINAL SINGLE POINT ENERGY      -417.281465752908

DIPOLE MOMENT
-------------
                                X             Y             Z
Electronic contribution:     -1.26631      -4.99518      -2.69309
Nuclear contribution   :      0.60508       6.83599       2.87614
                        -----------------------------------------
Total Dipole Moment    :     -0.66123       1.84081       0.18305
                        -----------------------------------------
Magnitude (a.u.)       :      1.96452
Magnitude (Debye)      :      4.99341

                             ****ORCA TERMINATED NORMALLY****
TOTAL RUN TIME: 0 days 0 hours 19 minutes 47 seconds 772 msec
