                         Program Version 3.0.3 - RELEASE   -
|  1> ! RI-MP2 RIJK def2-TZVP def2-TZVP/C def2-TZVP/JK TIGHTSCF
|  2> % maxcore 2000
|  3> % mp2 density relaxed end
|  4> *xyz 0 1
|  5>  C       -0.0242969941     1.5058471619    -0.0367811411
|  6>  C       -0.0318720243     0.0515291449    -0.0153129449
|  7>  C       -0.0359883940    -1.1535352960     0.0073578387
|  8>  C       -0.0046996053    -2.5704745620     0.0576096555
|  9>  C       -0.3558199038    -3.4834495415    -1.1409822795
| 10>  C       -1.1284230338    -3.6123648795     0.1266746285
| 11>  N       -0.3771862326    -4.3482980640     1.1433439984
| 12>  C        0.7229064212    -3.4713722023     1.0707003146
| 13>  O        1.7899501166    -3.4801126315     1.6076397223
| 14>  H        0.7511880105     1.9013507381     0.6283867942
| 15>  H        0.1739321308     1.8910432800    -1.0431528041
| 16>  H       -0.9849509162     1.9156803440     0.2947219193
| 17>  H       -0.8340540342    -2.9549106228    -1.9599233884
| 18>  H        0.3358336029    -4.2668799436    -1.4371739663
| 19>  H       -2.1870829681    -3.4256270986     0.2438832118
| 20>  H       -0.2717252454    -5.3571324369     1.1397472210
| 21> *
| 22>
| 23>                          ****END OF INPUT****

CARTESIAN COORDINATES (ANGSTROEM)
---------------------------------
  C     -0.024297    1.505847   -0.036781
  C     -0.031872    0.051529   -0.015313
  C     -0.035988   -1.153535    0.007358
  C     -0.004700   -2.570475    0.057610
  C     -0.355820   -3.483450   -1.140982
  C     -1.128423   -3.612365    0.126675
  N     -0.377186   -4.348298    1.143344
  C      0.722906   -3.471372    1.070700
  O      1.789950   -3.480113    1.607640
  H      0.751188    1.901351    0.628387
  H      0.173932    1.891043   -1.043153
  H     -0.984951    1.915680    0.294722
  H     -0.834054   -2.954911   -1.959923
  H      0.335834   -4.266880   -1.437174
  H     -2.187083   -3.425627    0.243883
  H     -0.271725   -5.357132    1.139747

 Total Charge           Charge          ....    0
 Multiplicity           Mult            ....    1
 Number of Electrons    NEL             ....   64
 Basis Dimension        Dim             ....  321

ORBITAL ENERGIES
----------------

  NO   OCC          E(Eh)            E(eV)
   0   2.0000     -20.542340      -558.9855
   1   2.0000     -15.589437      -424.2102
   2   2.0000     -11.364773      -309.2512
   3   2.0000     -11.299384      -307.4719
   4   2.0000     -11.283560      -307.0413
   5   2.0000     -11.268972      -306.6443
   6   2.0000     -11.251490      -306.1686
   7   2.0000     -11.236515      -305.7611
   8   2.0000     -11.229570      -305.5721
   9   2.0000      -1.403940       -38.2031
  10   2.0000      -1.297857       -35.3165
  11   2.0000      -1.117095       -30.3977
  12   2.0000      -1.059551       -28.8319
  13   2.0000      -0.975709       -26.5504
  14   2.0000      -0.909989       -24.7621
  15   2.0000      -0.849427       -23.1141
  16   2.0000      -0.806400       -21.9433
  17   2.0000      -0.706722       -19.2309
  18   2.0000      -0.684433       -18.6244
  19   2.0000      -0.673231       -18.3195
  20   2.0000      -0.637608       -17.3502
  21   2.0000      -0.597524       -16.2595
  22   2.0000      -0.592562       -16.1244
  23   2.0000      -0.591314       -16.0905
  24   2.0000      -0.580128       -15.7861
  25   2.0000      -0.555772       -15.1233
  26   2.0000      -0.515994       -14.0409
  27   2.0000      -0.474287       -12.9060
  28   2.0000      -0.446541       -12.1510
  29   2.0000      -0.415346       -11.3021
  30   2.0000      -0.365786        -9.9535
  31   2.0000      -0.352757        -9.5990
  32   0.0000       0.135394         3.6843
  33   0.0000       0.137600         3.7443
  34   0.0000       0.147341         4.0094
  35   0.0000       0.157968         4.2985
  36   0.0000       0.178369         4.8537

MULLIKEN ATOMIC CHARGES
-----------------------
   0 C :   -0.477096
   1 C :    0.100286
   2 C :   -0.053409
   3 C :   -0.167541
   4 C :   -0.223440
   5 C :   -0.000817
   6 N :   -0.316806
   7 C :    0.236307
   8 O :   -0.273117
   9 H :    0.169506
  10 H :    0.162901
  11 H :    0.163218
  12 H :    0.141159
  13 H :    0.150612
  14 H :    0.153041
  15 H :    0.235197
Sum of atomic charges:    0.0000000

LOEWDIN ATOMIC CHARGES
----------------------
   0 C :   -0.292141
   1 C :   -0.077559
   2 C :   -0.052452
   3 C :   -0.155017
   4 C :   -0.149907
   5 C :   -0.186787
   6 N :    0.111476
   7 C :   -0.371055
   8 O :    0.144597
   9 H :    0.144760
  10 H :    0.141398
  11 H :    0.141664
  12 H :    0.147579
  13 H :    0.138703
  14 H :    0.141500
  15 H :    0.173242

  Mayer bond orders larger than 0.1
B(  0-C ,  1-C ) :   0.8429 B(  0-C ,  9-H ) :   0.9446 B(  0-C , 10-H ) :   0.9457
B(  0-C , 11-H ) :   0.9469 B(  1-C ,  2-C ) :   2.6055 B(  1-C ,  3-C ) :  -0.2209
B(  2-C ,  3-C ) :   1.2696 B(  3-C ,  4-C ) :   0.7802 B(  3-C ,  5-C ) :   0.8046
B(  3-C ,  7-C ) :   0.8183 B(  4-C ,  5-C ) :   0.9181 B(  4-C , 12-H ) :   0.9178
B(  4-C , 13-H ) :   0.9147 B(  5-C ,  6-N ) :   0.9670 B(  5-C , 14-H ) :   0.9093
B(  6-N ,  7-C ) :   1.1091 B(  6-N , 15-H ) :   0.8525 B(  7-C ,  8-O ) :   2.0554

MP2 TOTAL ENERGY:     -400.011180243 Eh
FINAL SINGLE POINT ENERGY      -400.011180243242

DIPOLE MOMENT
-------------
                                X             Y             Z
Electronic contribution:      2.25587      -5.46697       3.20563
Nuclear contribution   :     -3.35004       5.48615      -4.16940
                        -----------------------------------------
Total Dipole Moment    :     -1.09418       0.01917      -0.96377
                        -----------------------------------------
Magnitude (a.u.)       :      1.45823
Magnitude (Debye)      :      3.70654

                             ****ORCA TERMINATED NORMALLY****
TOTAL RUN TIME: 0 days 0 hours 14 minutes 58 seconds 672 msec
