                         Program Version 3.0.3 - RELEASE   -
|  1> ! RI-MP2 RIJK def2-TZVP def2-TZVP/C def2-TZVP/JK TIGHTSCF
|  2> % maxcore 2000
|  3> % mp2 density relaxed end
|  4> *xyz 0 1
|  5>  N       -0.2456477270    -1.1741811260     0.1360815122
|  6>  C       -0.1342056151    -0.0233975600     0.0954782708
|  7>  C        0.0020882602     1.4106387089     0.0150741411
|  8>  C        0.5240275908     2.1543213490     1.2119342479
|  9>  N        1.3309323222     2.0419025487     0.0137661331
| 10>  C        2.4948698889     1.1939424461     0.0608039644
| 11>  C        3.3054251256     1.0807347669    -1.1995181359
| 12>  C        3.8288020185     1.8824511754    -0.0315660261
| 13>  H       -0.7270669397     1.8860041598    -0.6347501534
| 14>  H        0.1228918601     3.1388842320     1.4346666373
| 15>  H        0.7968428734     1.5540036045     2.0776182242
| 16>  H        2.4278253824     0.3086205314     0.6940279778
| 17>  H        3.7607823441     0.1237320516    -1.4255518105
| 18>  H        2.9479160676     1.6333725211    -2.0603214524
| 19>  H        3.8155267185     2.9620930188    -0.1234359470
| 20>  H        4.6488321697     1.4817144916     0.5531472865
| 21> *
| 22>
| 23>                          ****END OF INPUT****

CARTESIAN COORDINATES (ANGSTROEM)
---------------------------------
  N     -0.245648   -1.174181    0.136082
  C     -0.134206   -0.023398    0.095478
  C      0.002088    1.410639    0.015074
  C      0.524028    2.154321    1.211934
  N      1.330932    2.041903    0.013766
  C      2.494870    1.193942    0.060804
  C      3.305425    1.080735   -1.199518
  C      3.828802    1.882451   -0.031566
  H     -0.727067    1.886004   -0.634750
  H      0.122892    3.138884    1.434667
  H      0.796843    1.554004    2.077618
  H      2.427825    0.308621    0.694028
  H      3.760782    0.123732   -1.425552
  H      2.947916    1.633373   -2.060321
  H      3.815527    2.962093   -0.123436
  H      4.648832    1.481714    0.553147

 Total Charge           Charge          ....    0
 Multiplicity           Mult            ....    1
 Number of Electrons    NEL             ....   58
 Basis Dimension        Dim             ....  296

ORBITAL ENERGIES
----------------

  NO   OCC          E(Eh)            E(eV)
   0   2.0000     -15.597928      -424.4412
   1   2.0000     -15.576677      -423.8629
   2   2.0000     -11.314291      -307.8775
   3   2.0000     -11.290844      -307.2395
   4   2.0000     -11.279972      -306.9436
   5   2.0000     -11.272773      -306.7477
   6   2.0000     -11.234025      -305.6934
   7   2.0000     -11.232413      -305.6495
   8   2.0000      -1.316548       -35.8251
   9   2.0000      -1.220272       -33.2053
  10   2.0000      -1.149984       -31.2926
  11   2.0000      -0.970974       -26.4215
  12   2.0000      -0.912086       -24.8191
  13   2.0000      -0.832912       -22.6647
  14   2.0000      -0.817577       -22.2474
  15   2.0000      -0.727575       -19.7983
  16   2.0000      -0.714739       -19.4490
  17   2.0000      -0.646935       -17.6040
  18   2.0000      -0.616024       -16.7629
  19   2.0000      -0.585384       -15.9291
  20   2.0000      -0.572814       -15.5871
  21   2.0000      -0.558304       -15.1922
  22   2.0000      -0.531926       -14.4744
  23   2.0000      -0.522467       -14.2170
  24   2.0000      -0.473803       -12.8928
  25   2.0000      -0.466701       -12.6996
  26   2.0000      -0.447395       -12.1742
  27   2.0000      -0.411091       -11.1864
  28   2.0000      -0.392714       -10.6863
  29   0.0000       0.140060         3.8112
  30   0.0000       0.148182         4.0322
  31   0.0000       0.155414         4.2290
  32   0.0000       0.159593         4.3427
  33   0.0000       0.167950         4.5701

MULLIKEN ATOMIC CHARGES
-----------------------
   0 N :   -0.055888
   1 C :   -0.191123
   2 C :    0.023525
   3 C :   -0.143773
   4 N :   -0.195057
   5 C :   -0.070966
   6 C :   -0.237750
   7 C :   -0.244318
   8 H :    0.160641
   9 H :    0.146739
  10 H :    0.139709
  11 H :    0.124119
  12 H :    0.137495
  13 H :    0.136020
  14 H :    0.135910
  15 H :    0.134719
Sum of atomic charges:    0.0000000

LOEWDIN ATOMIC CHARGES
----------------------
   0 N :    0.068960
   1 C :   -0.183296
   2 C :   -0.235812
   3 C :   -0.207139
   4 N :    0.157107
   5 C :   -0.274303
   6 C :   -0.219477
   7 C :   -0.221731
   8 H :    0.163580
   9 H :    0.131163
  10 H :    0.134800
  11 H :    0.143378
  12 H :    0.134171
  13 H :    0.138198
  14 H :    0.137837
  15 H :    0.132565

  Mayer bond orders larger than 0.1
B(  0-N ,  1-C ) :   2.8250 B(  1-C ,  2-C ) :   0.9628 B(  2-C ,  3-C ) :   0.8979
B(  2-C ,  4-N ) :   0.9105 B(  2-C ,  8-H ) :   0.9032 B(  3-C ,  4-N ) :   0.8790
B(  3-C ,  9-H ) :   0.9216 B(  3-C , 10-H ) :   0.9159 B(  4-N ,  5-C ) :   0.9476
B(  5-C ,  6-C ) :   0.8890 B(  5-C ,  7-C ) :   0.8820 B(  5-C , 11-H ) :   0.9140
B(  6-C ,  7-C ) :   0.9252 B(  6-C , 12-H ) :   0.9258 B(  6-C , 13-H ) :   0.9276
B(  7-C , 14-H ) :   0.9235 B(  7-C , 15-H ) :   0.9267

MP2 TOTAL ENERGY:     -342.136492276 Eh
FINAL SINGLE POINT ENERGY      -342.136492275912

DIPOLE MOMENT
-------------
                                X             Y             Z
Electronic contribution:     -5.71448      -2.98787       0.10529
Nuclear contribution   :      6.03064       4.09534       0.17531
                        -----------------------------------------
Total Dipole Moment    :      0.31616       1.10747       0.28059
                        -----------------------------------------
Magnitude (a.u.)       :      1.18541
Magnitude (Debye)      :      3.01306

                             ****ORCA TERMINATED NORMALLY****
TOTAL RUN TIME: 0 days 0 hours 11 minutes 47 seconds 750 msec
