                         Program Version 3.0.3 - RELEASE   -
|  1> ! RI-MP2 RIJK def2-TZVP def2-TZVP/C def2-TZVP/JK TIGHTSCF
|  2> % maxcore 2000
|  3> % mp2 density relaxed end
|  4> *xyz 0 1
|  5>  C        0.0116916599     1.4031941852     0.1342631780
|  6>  N       -0.1010686935    -0.0235704381    -0.1002242283
|  7>  C        0.5766655132    -0.6138990838    -1.1245316028
|  8>  C        1.2534597176    -0.0767784943    -2.1596014417
|  9>  C        1.7376158957    -1.1504493053    -3.0143990833
| 10>  O        1.3439717438    -2.3651202784    -2.4509995363
| 11>  C        0.5966483799    -2.1169812872    -1.2724076038
| 12>  N        2.4037585413    -1.0442556527    -4.0827529099
| 13>  C        2.8064015291    -2.2383734376    -4.8026945918
| 14>  H        1.0446320953     1.7185891733     0.3409270737
| 15>  H       -0.3403333184     1.9509024326    -0.7460198590
| 16>  H       -0.6188069785     1.6801129292     0.9814132963
| 17>  H       -0.2717938128    -0.5950327946     0.7118058564
| 18>  H        1.4391140982     0.9622352457    -2.3779416702
| 19>  H        1.0793462617    -2.6144178879    -0.4181554280
| 20>  H       -0.4160603196    -2.5314041213    -1.3757779183
| 21>  H        2.6360436182    -2.0848442710    -5.8744263252
| 22>  H        3.8853382594    -2.4012742166    -4.6773363374
| 23>  H        2.2869839792    -3.1526147973    -4.4921089084
| 24> *
| 25>
| 26>                          ****END OF INPUT****

CARTESIAN COORDINATES (ANGSTROEM)
---------------------------------
  C      0.011692    1.403194    0.134263
  N     -0.101069   -0.023570   -0.100224
  C      0.576666   -0.613899   -1.124532
  C      1.253460   -0.076778   -2.159601
  C      1.737616   -1.150449   -3.014399
  O      1.343972   -2.365120   -2.451000
  C      0.596648   -2.116981   -1.272408
  N      2.403759   -1.044256   -4.082753
  C      2.806402   -2.238373   -4.802695
  H      1.044632    1.718589    0.340927
  H     -0.340333    1.950902   -0.746020
  H     -0.618807    1.680113    0.981413
  H     -0.271794   -0.595033    0.711806
  H      1.439114    0.962235   -2.377942
  H      1.079346   -2.614418   -0.418155
  H     -0.416060   -2.531404   -1.375778
  H      2.636044   -2.084844   -5.874426
  H      3.885338   -2.401274   -4.677336
  H      2.286984   -3.152615   -4.492109

 Total Charge           Charge          ....    0
 Multiplicity           Mult            ....    1
 Number of Electrons    NEL             ....   68
 Basis Dimension        Dim             ....  339

ORBITAL ENERGIES
----------------

  NO   OCC          E(Eh)            E(eV)
   0   2.0000     -20.580958      -560.0363
   1   2.0000     -15.593597      -424.3234
   2   2.0000     -15.513047      -422.1315
   3   2.0000     -11.317544      -307.9660
   4   2.0000     -11.303210      -307.5760
   5   2.0000     -11.297200      -307.4125
   6   2.0000     -11.273969      -306.7803
   7   2.0000     -11.221441      -305.3509
   8   2.0000     -11.215059      -305.1773
   9   2.0000      -1.417458       -38.5710
  10   2.0000      -1.264907       -34.4199
  11   2.0000      -1.192710       -32.4553
  12   2.0000      -1.069474       -29.1019
  13   2.0000      -0.987745       -26.8779
  14   2.0000      -0.936073       -25.4718
  15   2.0000      -0.902178       -24.5495
  16   2.0000      -0.795075       -21.6351
  17   2.0000      -0.762208       -20.7407
  18   2.0000      -0.693933       -18.8829
  19   2.0000      -0.677937       -18.4476
  20   2.0000      -0.660965       -17.9858
  21   2.0000      -0.640938       -17.4408
  22   2.0000      -0.621114       -16.9014
  23   2.0000      -0.610427       -16.6106
  24   2.0000      -0.567326       -15.4377
  25   2.0000      -0.563609       -15.3366
  26   2.0000      -0.546282       -14.8651
  27   2.0000      -0.523655       -14.2494
  28   2.0000      -0.511193       -13.9103
  29   2.0000      -0.507919       -13.8212
  30   2.0000      -0.477644       -12.9973
  31   2.0000      -0.390708       -10.6317
  32   2.0000      -0.388360       -10.5678
  33   2.0000      -0.306679        -8.3452
  34   0.0000       0.117153         3.1879
  35   0.0000       0.137245         3.7346
  36   0.0000       0.146768         3.9938
  37   0.0000       0.158856         4.3227
  38   0.0000       0.180838         4.9208

MULLIKEN ATOMIC CHARGES
-----------------------
   0 C :   -0.290984
   1 N :   -0.352408
   2 C :    0.189071
   3 C :   -0.314768
   4 C :    0.193751
   5 O :   -0.291795
   6 C :   -0.039196
   7 N :   -0.254103
   8 C :   -0.266778
   9 H :    0.141094
  10 H :    0.148814
  11 H :    0.145197
  12 H :    0.235475
  13 H :    0.137520
  14 H :    0.116078
  15 H :    0.124545
  16 H :    0.129851
  17 H :    0.125840
  18 H :    0.122796
Sum of atomic charges:    0.0000000

LOEWDIN ATOMIC CHARGES
----------------------
   0 C :   -0.314073
   1 N :    0.066193
   2 C :   -0.245506
   3 C :   -0.147070
   4 C :   -0.360724
   5 O :    0.225363
   6 C :   -0.243129
   7 N :    0.062419
   8 C :   -0.339984
   9 H :    0.113749
  10 H :    0.123600
  11 H :    0.120690
  12 H :    0.185765
  13 H :    0.148939
  14 H :    0.131787
  15 H :    0.134205
  16 H :    0.114303
  17 H :    0.116061
  18 H :    0.107412

  Mayer bond orders larger than 0.1
B(  0-C ,  1-N ) :   0.8999 B(  0-C ,  9-H ) :   0.9352 B(  0-C , 10-H ) :   0.9324
B(  0-C , 11-H ) :   0.9330 B(  1-N ,  2-C ) :   1.1139 B(  1-N , 12-H ) :   0.8759
B(  2-C ,  3-C ) :   1.5906 B(  2-C ,  6-C ) :   0.9553 B(  3-C ,  4-C ) :   1.0377
B(  3-C , 13-H ) :   0.9316 B(  4-C ,  5-O ) :   0.9937 B(  4-C ,  7-N ) :   1.9586
B(  5-O ,  6-C ) :   0.9467 B(  6-C , 14-H ) :   0.9077 B(  6-C , 15-H ) :   0.9147
B(  7-N ,  8-C ) :   0.8628 B(  8-C , 16-H ) :   0.9406 B(  8-C , 17-H ) :   0.9319
B(  8-C , 18-H ) :   0.9290

MP2 TOTAL ENERGY:     -418.506505010 Eh
FINAL SINGLE POINT ENERGY      -418.506505009818

DIPOLE MOMENT
-------------
                                X             Y             Z
Electronic contribution:      0.12669      -1.91717      -0.96616
Nuclear contribution   :     -0.97451       2.08970       2.72438
                        -----------------------------------------
Total Dipole Moment    :     -0.84783       0.17253       1.75821
                        -----------------------------------------
Magnitude (a.u.)       :      1.95956
Magnitude (Debye)      :      4.98082

                             ****ORCA TERMINATED NORMALLY****
TOTAL RUN TIME: 0 days 0 hours 16 minutes 27 seconds 376 msec
