                         Program Version 3.0.3 - RELEASE   -
|  1> ! RI-MP2 RIJK def2-TZVP def2-TZVP/C def2-TZVP/JK TIGHTSCF
|  2> % maxcore 2000
|  3> % mp2 density relaxed end
|  4> *xyz 0 1
|  5>  C        0.0059813830     1.5146317019     0.0645842827
|  6>  C        0.0151795754    -0.0045659880     0.1260692072
|  7>  O        0.1438421462    -0.6113190891     1.1722989533
|  8>  N       -0.1495205108    -0.6345167437    -1.0823780450
|  9>  C       -0.1982709690    -2.0624915457    -1.2179483680
| 10>  C       -1.3666254471    -2.6973845498    -2.0102652009
| 11>  O       -0.4477355395    -3.4481500546    -2.8273413340
| 12>  C        0.6865481720    -2.7388464573    -2.2924621247
| 13>  H        0.0964933022     1.9147120114    -0.9488150793
| 14>  H       -0.9274976932     1.8803347486     0.5031911861
| 15>  H        0.8262307716     1.8934911759     0.6775708641
| 16>  H       -0.2526576515    -0.0716805500    -1.9116148757
| 17>  H       -0.0694271952    -2.4745794231    -0.2181841060
| 18>  H       -2.0552472870    -3.3436980525    -1.4553363104
| 19>  H       -1.9493931795    -1.9727470692    -2.5984104019
| 20>  H        1.1173159444    -2.0346885121    -3.0199114711
| 21>  H        1.4731636780    -3.4149602527    -1.9403907062
| 22> *
| 23>
| 24>                          ****END OF INPUT****

CARTESIAN COORDINATES (ANGSTROEM)
---------------------------------
  C      0.005981    1.514632    0.064584
  C      0.015180   -0.004566    0.126069
  O      0.143842   -0.611319    1.172299
  N     -0.149521   -0.634517   -1.082378
  C     -0.198271   -2.062492   -1.217948
  C     -1.366625   -2.697385   -2.010265
  O     -0.447736   -3.448150   -2.827341
  C      0.686548   -2.738846   -2.292462
  H      0.096493    1.914712   -0.948815
  H     -0.927498    1.880335    0.503191
  H      0.826231    1.893491    0.677571
  H     -0.252658   -0.071681   -1.911615
  H     -0.069427   -2.474579   -0.218184
  H     -2.055247   -3.343698   -1.455336
  H     -1.949393   -1.972747   -2.598410
  H      1.117316   -2.034689   -3.019911
  H      1.473164   -3.414960   -1.940391

 Total Charge           Charge          ....    0
 Multiplicity           Mult            ....    1
 Number of Electrons    NEL             ....   62
 Basis Dimension        Dim             ....  302

ORBITAL ENERGIES
----------------

  NO   OCC          E(Eh)            E(eV)
   0   2.0000     -20.555832      -559.3526
   1   2.0000     -20.520089      -558.3800
   2   2.0000     -15.594419      -424.3457
   3   2.0000     -11.357954      -309.0656
   4   2.0000     -11.285667      -307.0986
   5   2.0000     -11.285645      -307.0980
   6   2.0000     -11.276825      -306.8580
   7   2.0000     -11.244293      -305.9728
   8   2.0000      -1.391048       -37.8523
   9   2.0000      -1.383944       -37.6590
  10   2.0000      -1.240186       -33.7472
  11   2.0000      -1.034970       -28.1630
  12   2.0000      -0.978432       -26.6245
  13   2.0000      -0.943588       -25.6763
  14   2.0000      -0.808099       -21.9895
  15   2.0000      -0.800968       -21.7955
  16   2.0000      -0.708241       -19.2722
  17   2.0000      -0.692456       -18.8427
  18   2.0000      -0.664896       -18.0927
  19   2.0000      -0.635470       -17.2920
  20   2.0000      -0.609750       -16.5922
  21   2.0000      -0.604367       -16.4456
  22   2.0000      -0.578480       -15.7412
  23   2.0000      -0.569870       -15.5070
  24   2.0000      -0.556004       -15.1296
  25   2.0000      -0.541745       -14.7416
  26   2.0000      -0.489643       -13.3239
  27   2.0000      -0.482099       -13.1186
  28   2.0000      -0.433031       -11.7834
  29   2.0000      -0.420076       -11.4309
  30   2.0000      -0.393352       -10.7036
  31   0.0000       0.118445         3.2231
  32   0.0000       0.152446         4.1483
  33   0.0000       0.163940         4.4610
  34   0.0000       0.170516         4.6400
  35   0.0000       0.177050         4.8178

MULLIKEN ATOMIC CHARGES
-----------------------
   0 C :   -0.414016
   1 C :    0.326385
   2 O :   -0.378217
   3 N :   -0.365926
   4 C :   -0.029053
   5 C :   -0.014342
   6 O :   -0.322018
   7 C :   -0.014323
   8 H :    0.116741
   9 H :    0.153848
  10 H :    0.157230
  11 H :    0.233279
  12 H :    0.158044
  13 H :    0.112645
  14 H :    0.083575
  15 H :    0.083573
  16 H :    0.112575
Sum of atomic charges:   -0.0000000

LOEWDIN ATOMIC CHARGES
----------------------
   0 C :   -0.278460
   1 C :   -0.471263
   2 O :    0.078879
   3 N :    0.118863
   4 C :   -0.263554
   5 C :   -0.256107
   6 O :    0.111748
   7 C :   -0.255982
   8 H :    0.120439
   9 H :    0.140199
  10 H :    0.139571
  11 H :    0.186185
  12 H :    0.159799
  13 H :    0.119759
  14 H :    0.115037
  15 H :    0.115102
  16 H :    0.119786

  Mayer bond orders larger than 0.1
B(  0-C ,  1-C ) :   0.8923 B(  0-C ,  8-H ) :   0.9392 B(  0-C ,  9-H ) :   0.9160
B(  0-C , 10-H ) :   0.9307 B(  1-C ,  2-O ) :   1.8830 B(  1-C ,  3-N ) :   1.1349
B(  3-N ,  4-C ) :   0.8553 B(  3-N , 11-H ) :   0.8682 B(  4-C ,  5-C ) :   0.9697
B(  4-C ,  7-C ) :   0.9663 B(  4-C , 12-H ) :   0.9099 B(  5-C ,  6-O ) :   0.9617
B(  5-C , 13-H ) :   0.9241 B(  5-C , 14-H ) :   0.8922 B(  6-O ,  7-C ) :   0.9616
B(  7-C , 15-H ) :   0.8924 B(  7-C , 16-H ) :   0.9238

MP2 TOTAL ENERGY:     -400.354425606 Eh
FINAL SINGLE POINT ENERGY      -400.354425606363

DIPOLE MOMENT
-------------
                                X             Y             Z
Electronic contribution:      0.13753      -3.13212       0.90091
Nuclear contribution   :     -0.23897       4.08449      -1.67667
                        -----------------------------------------
Total Dipole Moment    :     -0.10144       0.95237      -0.77576
                        -----------------------------------------
Magnitude (a.u.)       :      1.23252
Magnitude (Debye)      :      3.13282

                             ****ORCA TERMINATED NORMALLY****
TOTAL RUN TIME: 0 days 0 hours 10 minutes 45 seconds 803 msec
