                         Program Version 3.0.3 - RELEASE   -
|  1> ! RI-MP2 RIJK def2-TZVP def2-TZVP/C def2-TZVP/JK TIGHTSCF
|  2> % maxcore 2000
|  3> % mp2 density relaxed end
|  4> *xyz 0 1
|  5>  C        0.2080320124     1.7029660559    -0.3040638095
|  6>  C       -0.0749029691     0.2785820634     0.1690270403
|  7>  C        0.4311485846    -0.7583483683    -0.8345176987
|  8>  O        0.0665250518    -1.9046598113    -0.8770692917
|  9>  C        0.6019548334    -0.0263594982     1.5282660889
| 10>  C        0.0396093167    -1.2044344453     2.2902696802
| 11>  O        1.5193854249     0.6487134244     1.9265816833
| 12>  H        1.2850909624     1.8783971392    -0.3620083005
| 13>  H       -0.2330993171     1.8838554141    -1.2889000557
| 14>  H       -0.2038456254     2.4331825443     0.3963277780
| 15>  H       -1.1473717672     0.0853423621     0.2871842661
| 16>  H        1.2038907659    -0.3720482455    -1.5360164195
| 17>  H       -0.1226501650    -2.0522682419     1.6181431374
| 18>  H        0.7050671333    -1.4746036653     3.1109518803
| 19>  H       -0.9407803217    -0.9292413176     2.6983305311
| 20> *
| 21>
| 22>                          ****END OF INPUT****

CARTESIAN COORDINATES (ANGSTROEM)
---------------------------------
  C      0.208032    1.702966   -0.304064
  C     -0.074903    0.278582    0.169027
  C      0.431149   -0.758348   -0.834518
  O      0.066525   -1.904660   -0.877069
  C      0.601955   -0.026359    1.528266
  C      0.039609   -1.204434    2.290270
  O      1.519385    0.648713    1.926582
  H      1.285091    1.878397   -0.362008
  H     -0.233099    1.883855   -1.288900
  H     -0.203846    2.433183    0.396328
  H     -1.147372    0.085342    0.287184
  H      1.203891   -0.372048   -1.536016
  H     -0.122650   -2.052268    1.618143
  H      0.705067   -1.474604    3.110952
  H     -0.940780   -0.929241    2.698331

 Total Charge           Charge          ....    0
 Multiplicity           Mult            ....    1
 Number of Electrons    NEL             ....   54
 Basis Dimension        Dim             ....  265

ORBITAL ENERGIES
----------------

  NO   OCC          E(Eh)            E(eV)
   0   2.0000     -20.575009      -559.8745
   1   2.0000     -20.559209      -559.4445
   2   2.0000     -11.351001      -308.8764
   3   2.0000     -11.346618      -308.7572
   4   2.0000     -11.265524      -306.5505
   5   2.0000     -11.237472      -305.7871
   6   2.0000     -11.237183      -305.7793
   7   2.0000      -1.415763       -38.5249
   8   2.0000      -1.403926       -38.2028
   9   2.0000      -1.096798       -29.8454
  10   2.0000      -1.013478       -27.5781
  11   2.0000      -0.912774       -24.8379
  12   2.0000      -0.832255       -22.6468
  13   2.0000      -0.747931       -20.3522
  14   2.0000      -0.683099       -18.5881
  15   2.0000      -0.668847       -18.2003
  16   2.0000      -0.666114       -18.1259
  17   2.0000      -0.634799       -17.2738
  18   2.0000      -0.593927       -16.1616
  19   2.0000      -0.582942       -15.8627
  20   2.0000      -0.558385       -15.1944
  21   2.0000      -0.546801       -14.8792
  22   2.0000      -0.533912       -14.5285
  23   2.0000      -0.520860       -14.1733
  24   2.0000      -0.510856       -13.9011
  25   2.0000      -0.439983       -11.9725
  26   2.0000      -0.415267       -11.3000
  27   0.0000       0.097298         2.6476
  28   0.0000       0.130994         3.5645
  29   0.0000       0.149558         4.0697
  30   0.0000       0.153693         4.1822
  31   0.0000       0.178333         4.8527

MULLIKEN ATOMIC CHARGES
-----------------------
   0 C :   -0.411886
   1 C :   -0.009123
   2 C :    0.061389
   3 O :   -0.262113
   4 C :    0.196550
   5 C :   -0.431104
   6 O :   -0.279611
   7 H :    0.150502
   8 H :    0.142951
   9 H :    0.143987
  10 H :    0.120422
  11 H :    0.102705
  12 H :    0.176467
  13 H :    0.151900
  14 H :    0.146964
Sum of atomic charges:   -0.0000000

LOEWDIN ATOMIC CHARGES
----------------------
   0 C :   -0.287163
   1 C :   -0.254460
   2 C :   -0.263833
   3 O :    0.140076
   4 C :   -0.323920
   5 C :   -0.275311
   6 O :    0.163274
   7 H :    0.133646
   8 H :    0.126812
   9 H :    0.131768
  10 H :    0.170286
  11 H :    0.120352
  12 H :    0.142860
  13 H :    0.133948
  14 H :    0.141666

  Mayer bond orders larger than 0.1
B(  0-C ,  1-C ) :   0.9080 B(  0-C ,  7-H ) :   0.9201 B(  0-C ,  8-H ) :   0.9404
B(  0-C ,  9-H ) :   0.9347 B(  1-C ,  2-C ) :   0.8207 B(  1-C ,  4-C ) :   0.8478
B(  1-C , 10-H ) :   0.9005 B(  2-C ,  3-O ) :   1.9684 B(  2-C , 11-H ) :   0.9364
B(  4-C ,  5-C ) :   0.9389 B(  4-C ,  6-O ) :   1.9851 B(  5-C , 12-H ) :   0.9075
B(  5-C , 13-H ) :   0.9345 B(  5-C , 14-H ) :   0.9107

MP2 TOTAL ENERGY:     -345.115315701 Eh
FINAL SINGLE POINT ENERGY      -345.115315700671

DIPOLE MOMENT
-------------
                                X             Y             Z
Electronic contribution:      1.91910      -2.40353      -0.55801
Nuclear contribution   :     -2.50512       2.75320       0.42243
                        -----------------------------------------
Total Dipole Moment    :     -0.58602       0.34967      -0.13558
                        -----------------------------------------
Magnitude (a.u.)       :      0.69575
Magnitude (Debye)      :      1.76847

                             ****ORCA TERMINATED NORMALLY****
TOTAL RUN TIME: 0 days 0 hours 7 minutes 24 seconds 103 msec
