                         Program Version 3.0.3 - RELEASE   -
|  1> ! RI-MP2 RIJK def2-TZVP def2-TZVP/C def2-TZVP/JK TIGHTSCF
|  2> % maxcore 2000
|  3> % mp2 density relaxed end
|  4> *xyz 0 1
|  5>  C        0.1061401585     1.2636743623    -0.2120542664
|  6>  O        0.2858306991    -0.1289242121    -0.1042446830
|  7>  C        0.6416834969    -0.5341309907     1.1973019066
|  8>  C        0.8043964228    -2.0460828213     1.1805255514
|  9>  C        1.1875691238    -2.6138936064     2.5210314968
| 10>  O        1.3569030536    -1.9644815955     3.5284752052
| 11>  C        1.3765512257    -4.1359548266     2.6094444357
| 12>  O        1.2353800387    -4.8800432803     1.6759273556
| 13>  H        1.0267265276     1.8147240753     0.0369935246
| 14>  H       -0.1652285269     1.4784884895    -1.2482578228
| 15>  H       -0.6976820387     1.6241133292     0.4490903689
| 16>  H        1.5792027439    -0.0528123383     1.5190079446
| 17>  H       -0.1297087334    -0.2412538090     1.9275611783
| 18>  H       -0.1195254727    -2.5342870381     0.8450590971
| 19>  H        1.5591600712    -2.3491636658     0.4436470086
| 20>  H        1.6576896999    -4.4724752321     3.6298878189
| 21> *
| 22>
| 23>                          ****END OF INPUT****

CARTESIAN COORDINATES (ANGSTROEM)
---------------------------------
  C      0.106140    1.263674   -0.212054
  O      0.285831   -0.128924   -0.104245
  C      0.641683   -0.534131    1.197302
  C      0.804396   -2.046083    1.180526
  C      1.187569   -2.613894    2.521031
  O      1.356903   -1.964482    3.528475
  C      1.376551   -4.135955    2.609444
  O      1.235380   -4.880043    1.675927
  H      1.026727    1.814724    0.036994
  H     -0.165229    1.478488   -1.248258
  H     -0.697682    1.624113    0.449090
  H      1.579203   -0.052812    1.519008
  H     -0.129709   -0.241254    1.927561
  H     -0.119525   -2.534287    0.845059
  H      1.559160   -2.349164    0.443647
  H      1.657690   -4.472475    3.629888

 Total Charge           Charge          ....    0
 Multiplicity           Mult            ....    1
 Number of Electrons    NEL             ....   62
 Basis Dimension        Dim             ....  296

ORBITAL ENERGIES
----------------

  NO   OCC          E(Eh)            E(eV)
   0   2.0000     -20.597011      -560.4732
   1   2.0000     -20.587351      -560.2103
   2   2.0000     -20.564876      -559.5987
   3   2.0000     -11.358907      -309.0916
   4   2.0000     -11.357494      -309.0531
   5   2.0000     -11.288024      -307.1628
   6   2.0000     -11.277057      -306.8643
   7   2.0000     -11.251066      -306.1571
   8   2.0000      -1.437471       -39.1156
   9   2.0000      -1.419373       -38.6231
  10   2.0000      -1.386519       -37.7291
  11   2.0000      -1.071956       -29.1694
  12   2.0000      -0.967213       -26.3192
  13   2.0000      -0.918412       -24.9912
  14   2.0000      -0.856586       -23.3089
  15   2.0000      -0.763062       -20.7640
  16   2.0000      -0.707276       -19.2460
  17   2.0000      -0.696940       -18.9647
  18   2.0000      -0.687368       -18.7042
  19   2.0000      -0.661071       -17.9886
  20   2.0000      -0.639667       -17.4062
  21   2.0000      -0.624933       -17.0053
  22   2.0000      -0.608047       -16.5458
  23   2.0000      -0.572622       -15.5818
  24   2.0000      -0.532773       -14.4975
  25   2.0000      -0.527086       -14.3427
  26   2.0000      -0.515980       -14.0405
  27   2.0000      -0.510275       -13.8853
  28   2.0000      -0.490873       -13.3573
  29   2.0000      -0.432978       -11.7819
  30   2.0000      -0.423332       -11.5194
  31   0.0000       0.053587         1.4582
  32   0.0000       0.134053         3.6478
  33   0.0000       0.153973         4.1898
  34   0.0000       0.179192         4.8761
  35   0.0000       0.184801         5.0287

MULLIKEN ATOMIC CHARGES
-----------------------
   0 C :   -0.214050
   1 O :   -0.302287
   2 C :   -0.039968
   3 C :   -0.211569
   4 C :    0.198152
   5 O :   -0.269360
   6 C :    0.085527
   7 O :   -0.238462
   8 H :    0.113781
   9 H :    0.140977
  10 H :    0.113782
  11 H :    0.102488
  12 H :    0.102478
  13 H :    0.152155
  14 H :    0.152160
  15 H :    0.114195
Sum of atomic charges:    0.0000000

LOEWDIN ATOMIC CHARGES
----------------------
   0 C :   -0.358448
   1 O :    0.133668
   2 C :   -0.322286
   3 C :   -0.237333
   4 C :   -0.323070
   5 O :    0.178969
   6 C :   -0.254765
   7 O :    0.165018
   8 H :    0.102291
   9 H :    0.114211
  10 H :    0.102290
  11 H :    0.124351
  12 H :    0.124350
  13 H :    0.164878
  14 H :    0.164881
  15 H :    0.120993

  Mayer bond orders larger than 0.1
B(  0-C ,  1-O ) :   0.9148 B(  0-C ,  8-H ) :   0.9375 B(  0-C ,  9-H ) :   0.9389
B(  0-C , 10-H ) :   0.9375 B(  1-O ,  2-C ) :   0.9720 B(  2-C ,  3-C ) :   0.9486
B(  2-C , 11-H ) :   0.9235 B(  2-C , 12-H ) :   0.9235 B(  3-C ,  4-C ) :   0.9088
B(  3-C , 13-H ) :   0.8911 B(  3-C , 14-H ) :   0.8911 B(  4-C ,  5-O ) :   1.9232
B(  4-C ,  6-C ) :   0.8698 B(  6-C ,  7-O ) :   1.9839 B(  6-C , 15-H ) :   0.9348

MP2 TOTAL ENERGY:     -420.207165520 Eh
FINAL SINGLE POINT ENERGY      -420.207165519526

DIPOLE MOMENT
-------------
                                X             Y             Z
Electronic contribution:      2.00407      -8.78920       4.32456
Nuclear contribution   :     -2.05534       9.32047      -4.29331
                        -----------------------------------------
Total Dipole Moment    :     -0.05128       0.53127       0.03125
                        -----------------------------------------
Magnitude (a.u.)       :      0.53465
Magnitude (Debye)      :      1.35897

                             ****ORCA TERMINATED NORMALLY****
TOTAL RUN TIME: 0 days 0 hours 9 minutes 7 seconds 866 msec
