                         Program Version 3.0.3 - RELEASE   -
|  1> ! RI-MP2 RIJK def2-TZVP def2-TZVP/C def2-TZVP/JK TIGHTSCF
|  2> % maxcore 2000
|  3> % mp2 density relaxed end
|  4> *xyz 0 1
|  5>  O        0.0159315881     1.4205532260     0.2450996656
|  6>  C        0.0138307260     0.0477026971    -0.1075163740
|  7>  C       -1.3488788388    -0.5565390036     0.0094392164
|  8>  C       -2.0503176292    -1.0561122811     1.2284008021
|  9>  C       -1.9028109660    -1.9646848034     0.0225044442
| 10>  C       -2.8525044089    -1.4647203499    -1.0709003410
| 11>  O       -2.3350990218    -0.1150538770    -0.9565716369
| 12>  C       -2.5934537068    -2.0257569565    -2.3995166478
| 13>  N       -2.3929822176    -2.4868732272    -3.4396011278
| 14>  H       -0.5431726115     1.8811513530    -0.3902491859
| 15>  H        0.3940538783    -0.1075205313    -1.1278639313
| 16>  H        0.6935958204    -0.4568570318     0.5864423917
| 17>  H       -1.4087040051    -1.3213236403     2.0627810725
| 18>  H       -3.0189662564    -0.6477667029     1.5017783041
| 19>  H       -1.4123859097    -2.9274919480     0.0346919949
| 20>  H       -3.9269236910    -1.5133517032    -0.8587474869
| 21> *
| 22>
| 23>                          ****END OF INPUT****

CARTESIAN COORDINATES (ANGSTROEM)
---------------------------------
  O      0.015932    1.420553    0.245100
  C      0.013831    0.047703   -0.107516
  C     -1.348879   -0.556539    0.009439
  C     -2.050318   -1.056112    1.228401
  C     -1.902811   -1.964685    0.022504
  C     -2.852504   -1.464720   -1.070900
  O     -2.335099   -0.115054   -0.956572
  C     -2.593454   -2.025757   -2.399517
  N     -2.392982   -2.486873   -3.439601
  H     -0.543173    1.881151   -0.390249
  H      0.394054   -0.107521   -1.127864
  H      0.693596   -0.456857    0.586442
  H     -1.408704   -1.321324    2.062781
  H     -3.018966   -0.647767    1.501778
  H     -1.412386   -2.927492    0.034692
  H     -3.926924   -1.513352   -0.858747

 Total Charge           Charge          ....    0
 Multiplicity           Mult            ....    1
 Number of Electrons    NEL             ....   66
 Basis Dimension        Dim             ....  321

ORBITAL ENERGIES
----------------

  NO   OCC          E(Eh)            E(eV)
   0   2.0000     -20.594464      -560.4038
   1   2.0000     -20.570622      -559.7551
   2   2.0000     -15.586271      -424.1240
   3   2.0000     -11.355930      -309.0106
   4   2.0000     -11.320871      -308.0566
   5   2.0000     -11.300427      -307.5003
   6   2.0000     -11.283395      -307.0368
   7   2.0000     -11.277284      -306.8705
   8   2.0000     -11.262335      -306.4637
   9   2.0000      -1.434733       -39.0411
  10   2.0000      -1.374411       -37.3996
  11   2.0000      -1.229981       -33.4695
  12   2.0000      -1.154388       -31.4125
  13   2.0000      -1.036820       -28.2133
  14   2.0000      -0.966575       -26.3018
  15   2.0000      -0.858020       -23.3479
  16   2.0000      -0.785059       -21.3625
  17   2.0000      -0.756517       -20.5859
  18   2.0000      -0.710830       -19.3427
  19   2.0000      -0.694051       -18.8861
  20   2.0000      -0.687675       -18.7126
  21   2.0000      -0.637501       -17.3473
  22   2.0000      -0.611109       -16.6291
  23   2.0000      -0.588385       -16.0108
  24   2.0000      -0.570375       -15.5207
  25   2.0000      -0.555825       -15.1248
  26   2.0000      -0.543179       -14.7807
  27   2.0000      -0.513653       -13.9772
  28   2.0000      -0.488623       -13.2961
  29   2.0000      -0.481118       -13.0919
  30   2.0000      -0.464444       -12.6382
  31   2.0000      -0.436767       -11.8850
  32   2.0000      -0.416230       -11.3262
  33   0.0000       0.125452         3.4137
  34   0.0000       0.133237         3.6256
  35   0.0000       0.145676         3.9640
  36   0.0000       0.158377         4.3096
  37   0.0000       0.161473         4.3939

MULLIKEN ATOMIC CHARGES
-----------------------
   0 O :   -0.462374
   1 C :   -0.006613
   2 C :    0.085823
   3 C :   -0.230771
   4 C :   -0.204153
   5 C :    0.262363
   6 O :   -0.332314
   7 C :   -0.228867
   8 N :   -0.045298
   9 H :    0.328283
  10 H :    0.124815
  11 H :    0.112486
  12 H :    0.144271
  13 H :    0.144148
  14 H :    0.163709
  15 H :    0.144491
Sum of atomic charges:    0.0000000

LOEWDIN ATOMIC CHARGES
----------------------
   0 O :   -0.034765
   1 C :   -0.308278
   2 C :   -0.281320
   3 C :   -0.169373
   4 C :   -0.140104
   5 C :   -0.242689
   6 O :    0.196463
   7 C :   -0.154951
   8 N :    0.080762
   9 H :    0.181863
  10 H :    0.131521
  11 H :    0.141620
  12 H :    0.150499
  13 H :    0.141075
  14 H :    0.147343
  15 H :    0.160336

  Mayer bond orders larger than 0.1
B(  0-O ,  1-C ) :   0.9313 B(  0-O ,  9-H ) :   0.8391 B(  1-C ,  2-C ) :   0.9480
B(  1-C , 10-H ) :   0.9253 B(  1-C , 11-H ) :   0.9136 B(  2-C ,  3-C ) :   0.8704
B(  2-C ,  4-C ) :   0.8559 B(  2-C ,  6-O ) :   0.9114 B(  3-C ,  4-C ) :   0.8831
B(  3-C , 12-H ) :   0.9238 B(  3-C , 13-H ) :   0.9063 B(  4-C ,  5-C ) :   0.9000
B(  4-C , 14-H ) :   0.9075 B(  5-C ,  6-O ) :   0.8964 B(  5-C ,  7-C ) :   0.9224
B(  5-C , 15-H ) :   0.8942 B(  7-C ,  8-N ) :   2.8486

MP2 TOTAL ENERGY:     -437.122060699 Eh
FINAL SINGLE POINT ENERGY      -437.122060699027

DIPOLE MOMENT
-------------
                                X             Y             Z
Electronic contribution:     -2.49553      -0.91501      -4.98899
Nuclear contribution   :      2.31998       0.68319       6.18288
                        -----------------------------------------
Total Dipole Moment    :     -0.17554      -0.23182       1.19389
                        -----------------------------------------
Magnitude (a.u.)       :      1.22879
Magnitude (Debye)      :      3.12334

                             ****ORCA TERMINATED NORMALLY****
TOTAL RUN TIME: 0 days 0 hours 15 minutes 2 seconds 730 msec
