                         Program Version 3.0.3 - RELEASE   -
|  1> ! RI-MP2 RIJK def2-TZVP def2-TZVP/C def2-TZVP/JK TIGHTSCF
|  2> % maxcore 2000
|  3> % mp2 density relaxed end
|  4> *xyz 0 1
|  5>  C       -0.1195166791     1.6232846549     0.1374456705
|  6>  C       -0.0880911902     0.0947382637     0.0568143560
|  7>  C        0.8062523789    -0.5321655569     1.1338131999
|  8>  O        0.3390625776    -0.1426949197     2.4293003989
|  9>  C        0.1774212721    -1.2842835356     3.2651141477
| 10>  C        0.4905905076    -2.4570151575     2.3842379443
| 11>  C        0.8447595674    -2.0474818062     1.1681518516
| 12>  C        1.2652840421    -2.8908147479    -0.0037539045
| 13>  C        0.1009766237    -3.3134946096    -0.9197780898
| 14>  H        0.8801198514     2.0466460952    -0.0129582522
| 15>  H       -0.7795851309     2.0453025156    -0.6264651600
| 16>  H       -0.4755442685     1.9460662991     1.1188584411
| 17>  H       -1.1008842107    -0.3108017591     0.1681146050
| 18>  H        0.2797754176    -0.2181877036    -0.9285891801
| 19>  H        1.8313774839    -0.1391429658     0.9924154358
| 20>  H        0.8589686083    -1.2207096449     4.1300684944
| 21>  H       -0.8474691401    -1.3059866039     3.6677007303
| 22>  H        0.4489507953    -3.4833408387     2.7300182206
| 23>  H        2.0110729648    -2.3460339035    -0.5967946475
| 24>  H        1.7655854804    -3.7926346660     0.3663211267
| 25>  H        0.4669285511    -3.9293048136    -1.7475222605
| 26>  H       -0.6366289308    -3.8970933272    -0.3607562334
| 27>  H       -0.4139533219    -2.4482594389    -1.3459027248
| 28> *
| 29>
| 30>                          ****END OF INPUT****

CARTESIAN COORDINATES (ANGSTROEM)
---------------------------------
  C     -0.119517    1.623285    0.137446
  C     -0.088091    0.094738    0.056814
  C      0.806252   -0.532166    1.133813
  O      0.339063   -0.142695    2.429300
  C      0.177421   -1.284284    3.265114
  C      0.490591   -2.457015    2.384238
  C      0.844760   -2.047482    1.168152
  C      1.265284   -2.890815   -0.003754
  C      0.100977   -3.313495   -0.919778
  H      0.880120    2.046646   -0.012958
  H     -0.779585    2.045303   -0.626465
  H     -0.475544    1.946066    1.118858
  H     -1.100884   -0.310802    0.168115
  H      0.279775   -0.218188   -0.928589
  H      1.831377   -0.139143    0.992415
  H      0.858969   -1.220710    4.130068
  H     -0.847469   -1.305987    3.667701
  H      0.448951   -3.483341    2.730018
  H      2.011073   -2.346034   -0.596795
  H      1.765585   -3.792635    0.366321
  H      0.466929   -3.929305   -1.747522
  H     -0.636629   -3.897093   -0.360756
  H     -0.413953   -2.448259   -1.345903

 Total Charge           Charge          ....    0
 Multiplicity           Mult            ....    1
 Number of Electrons    NEL             ....   70
 Basis Dimension        Dim             ....  363

ORBITAL ENERGIES
----------------

  NO   OCC          E(Eh)            E(eV)
   0   2.0000     -20.543093      -559.0060
   1   2.0000     -11.276757      -306.8561
   2   2.0000     -11.272331      -306.7357
   3   2.0000     -11.234020      -305.6932
   4   2.0000     -11.231092      -305.6136
   5   2.0000     -11.220590      -305.3278
   6   2.0000     -11.219823      -305.3069
   7   2.0000     -11.217473      -305.2430
   8   2.0000     -11.205373      -304.9137
   9   2.0000      -1.369941       -37.2780
  10   2.0000      -1.098257       -29.8851
  11   2.0000      -1.049551       -28.5597
  12   2.0000      -1.012269       -27.5452
  13   2.0000      -0.955710       -26.0062
  14   2.0000      -0.870807       -23.6959
  15   2.0000      -0.843299       -22.9473
  16   2.0000      -0.782891       -21.3036
  17   2.0000      -0.735466       -20.0131
  18   2.0000      -0.669339       -18.2136
  19   2.0000      -0.653987       -17.7959
  20   2.0000      -0.620393       -16.8818
  21   2.0000      -0.609078       -16.5738
  22   2.0000      -0.581387       -15.8203
  23   2.0000      -0.569613       -15.5000
  24   2.0000      -0.560848       -15.2614
  25   2.0000      -0.543371       -14.7859
  26   2.0000      -0.526371       -14.3233
  27   2.0000      -0.510557       -13.8930
  28   2.0000      -0.504932       -13.7399
  29   2.0000      -0.490740       -13.3537
  30   2.0000      -0.485267       -13.2048
  31   2.0000      -0.471392       -12.8272
  32   2.0000      -0.451686       -12.2910
  33   2.0000      -0.420953       -11.4547
  34   2.0000      -0.337669        -9.1884
  35   0.0000       0.129761         3.5310
  36   0.0000       0.157530         4.2866
  37   0.0000       0.160101         4.3566
  38   0.0000       0.163389         4.4460
  39   0.0000       0.170512         4.6399

MULLIKEN ATOMIC CHARGES
-----------------------
   0 C :   -0.384305
   1 C :   -0.210853
   2 C :    0.084722
   3 O :   -0.338483
   4 C :    0.025199
   5 C :   -0.238151
   6 C :    0.039813
   7 C :   -0.260631
   8 C :   -0.380879
   9 H :    0.116016
  10 H :    0.129335
  11 H :    0.145544
  12 H :    0.112427
  13 H :    0.097517
  14 H :    0.087115
  15 H :    0.100464
  16 H :    0.102687
  17 H :    0.130446
  18 H :    0.123716
  19 H :    0.128748
  20 H :    0.130769
  21 H :    0.128310
  22 H :    0.130476
Sum of atomic charges:   -0.0000000

LOEWDIN ATOMIC CHARGES
----------------------
   0 C :   -0.317430
   1 C :   -0.272232
   2 C :   -0.267724
   3 O :    0.172632
   4 C :   -0.288638
   5 C :   -0.142995
   6 C :   -0.151713
   7 C :   -0.251174
   8 C :   -0.308071
   9 H :    0.120183
  10 H :    0.119275
  11 H :    0.126555
  12 H :    0.138916
  13 H :    0.136880
  14 H :    0.144058
  15 H :    0.124205
  16 H :    0.124452
  17 H :    0.140557
  18 H :    0.143959
  19 H :    0.146009
  20 H :    0.120498
  21 H :    0.122261
  22 H :    0.119538

  Mayer bond orders larger than 0.1
B(  0-C ,  1-C ) :   0.9195 B(  0-C ,  9-H ) :   0.9352 B(  0-C , 10-H ) :   0.9412
B(  0-C , 11-H ) :   0.9387 B(  1-C ,  2-C ) :   0.9079 B(  1-C , 12-H ) :   0.9301
B(  1-C , 13-H ) :   0.9281 B(  2-C ,  3-O ) :   0.9154 B(  2-C ,  6-C ) :   0.9459
B(  2-C , 14-H ) :   0.9001 B(  3-O ,  4-C ) :   0.9399 B(  4-C ,  5-C ) :   0.9853
B(  4-C , 15-H ) :   0.9180 B(  4-C , 16-H ) :   0.9109 B(  5-C ,  6-C ) :   1.7503
B(  5-C , 17-H ) :   0.9159 B(  6-C ,  7-C ) :   0.8593 B(  7-C ,  8-C ) :   0.9155
B(  7-C , 18-H ) :   0.9391 B(  7-C , 19-H ) :   0.9431 B(  8-C , 20-H ) :   0.9363
B(  8-C , 21-H ) :   0.9383 B(  8-C , 22-H ) :   0.9356

MP2 TOTAL ENERGY:     -387.621344812 Eh
FINAL SINGLE POINT ENERGY      -387.621344811596

DIPOLE MOMENT
-------------
                                X             Y             Z
Electronic contribution:      1.43787      -0.18089       6.48814
Nuclear contribution   :     -1.33932      -0.44726      -6.75797
                        -----------------------------------------
Total Dipole Moment    :      0.09855      -0.62815      -0.26983
                        -----------------------------------------
Magnitude (a.u.)       :      0.69072
Magnitude (Debye)      :      1.75566

                             ****ORCA TERMINATED NORMALLY****
TOTAL RUN TIME: 0 days 0 hours 21 minutes 11 seconds 831 msec
