                         Program Version 3.0.3 - RELEASE   -
|  1> ! RI-MP2 RIJK def2-TZVP def2-TZVP/C def2-TZVP/JK TIGHTSCF
|  2> % maxcore 2000
|  3> % mp2 density relaxed end
|  4> *xyz 0 1
|  5>  C       -0.1279473194     1.5386416266    -0.0273986129
|  6>  C       -0.0204895001     0.0120642459    -0.0361361158
|  7>  C        0.7507620385    -0.5292342125    -1.2408450374
|  8>  O        2.0922980723    -0.0458352482    -1.2880129218
|  9>  C        0.7630010429    -2.0707351605    -1.2833534952
| 10>  O       -0.5718811724    -2.5832332031    -1.2723132250
| 11>  C       -0.7769729736    -3.4644394481    -2.3760886329
| 12>  C        0.5084870756    -3.4210605607    -3.1528762956
| 13>  C        1.3824346208    -2.6395160273    -2.5304503863
| 14>  H        0.8624273269     2.0006343497    -0.0699711093
| 15>  H       -0.6963068117     1.8967234705    -0.8928515687
| 16>  H       -0.6349099468     1.8943773769     0.8745691643
| 17>  H        0.4804588739    -0.3359815053     0.8807407408
| 18>  H       -1.0135151868    -0.4482885065    -0.0336154208
| 19>  H        0.2858129632    -0.1690438987    -2.1668139153
| 20>  H        2.4988833555    -0.2358554401    -0.4346251386
| 21>  H        1.2929136797    -2.4224836735    -0.3770620649
| 22>  H       -1.0126192744    -4.4768927315    -2.0099495318
| 23>  H       -1.6426482492    -3.1244361494    -2.9646709393
| 24>  H        0.6594542671    -3.9637828704    -4.0773959159
| 25>  H        2.3909802781    -2.3991546041    -2.8361710976
| 26> *
| 27>
| 28>                          ****END OF INPUT****

CARTESIAN COORDINATES (ANGSTROEM)
---------------------------------
  C     -0.127947    1.538642   -0.027399
  C     -0.020490    0.012064   -0.036136
  C      0.750762   -0.529234   -1.240845
  O      2.092298   -0.045835   -1.288013
  C      0.763001   -2.070735   -1.283353
  O     -0.571881   -2.583233   -1.272313
  C     -0.776973   -3.464439   -2.376089
  C      0.508487   -3.421061   -3.152876
  C      1.382435   -2.639516   -2.530450
  H      0.862427    2.000634   -0.069971
  H     -0.696307    1.896723   -0.892852
  H     -0.634910    1.894377    0.874569
  H      0.480459   -0.335982    0.880741
  H     -1.013515   -0.448289   -0.033615
  H      0.285813   -0.169044   -2.166814
  H      2.498883   -0.235855   -0.434625
  H      1.292914   -2.422484   -0.377062
  H     -1.012619   -4.476893   -2.009950
  H     -1.642648   -3.124436   -2.964671
  H      0.659454   -3.963783   -4.077396
  H      2.390980   -2.399155   -2.836171

 Total Charge           Charge          ....    0
 Multiplicity           Mult            ....    1
 Number of Electrons    NEL             ....   70
 Basis Dimension        Dim             ....  351

ORBITAL ENERGIES
----------------

  NO   OCC          E(Eh)            E(eV)
   0   2.0000     -20.557034      -559.3853
   1   2.0000     -20.554121      -559.3061
   2   2.0000     -11.283064      -307.0278
   3   2.0000     -11.280955      -306.9704
   4   2.0000     -11.275872      -306.8321
   5   2.0000     -11.233467      -305.6782
   6   2.0000     -11.229941      -305.5822
   7   2.0000     -11.218175      -305.2621
   8   2.0000     -11.209550      -305.0274
   9   2.0000      -1.381644       -37.5964
  10   2.0000      -1.360628       -37.0246
  11   2.0000      -1.073822       -29.2202
  12   2.0000      -1.056406       -28.7463
  13   2.0000      -1.000742       -27.2316
  14   2.0000      -0.907569       -24.6962
  15   2.0000      -0.830415       -22.5967
  16   2.0000      -0.797138       -21.6912
  17   2.0000      -0.764667       -20.8077
  18   2.0000      -0.701574       -19.0908
  19   2.0000      -0.674597       -18.3567
  20   2.0000      -0.648936       -17.6584
  21   2.0000      -0.633234       -17.2312
  22   2.0000      -0.606943       -16.5158
  23   2.0000      -0.583115       -15.8674
  24   2.0000      -0.574821       -15.6417
  25   2.0000      -0.553995       -15.0750
  26   2.0000      -0.531880       -14.4732
  27   2.0000      -0.525280       -14.2936
  28   2.0000      -0.505376       -13.7520
  29   2.0000      -0.495902       -13.4942
  30   2.0000      -0.478889       -13.0312
  31   2.0000      -0.475280       -12.9330
  32   2.0000      -0.444862       -12.1053
  33   2.0000      -0.428477       -11.6594
  34   2.0000      -0.351294        -9.5592
  35   0.0000       0.133057         3.6207
  36   0.0000       0.154703         4.2097
  37   0.0000       0.155171         4.2224
  38   0.0000       0.159520         4.3407
  39   0.0000       0.182770         4.9734

MULLIKEN ATOMIC CHARGES
-----------------------
   0 C :   -0.370841
   1 C :   -0.220902
   2 C :    0.048204
   3 O :   -0.476330
   4 C :    0.153456
   5 O :   -0.343245
   6 C :    0.005527
   7 C :   -0.166965
   8 C :   -0.222017
   9 H :    0.128140
  10 H :    0.122345
  11 H :    0.132722
  12 H :    0.094111
  13 H :    0.135757
  14 H :    0.089222
  15 H :    0.311613
  16 H :    0.086206
  17 H :    0.105306
  18 H :    0.108561
  19 H :    0.137574
  20 H :    0.141555
Sum of atomic charges:   -0.0000000

LOEWDIN ATOMIC CHARGES
----------------------
   0 C :   -0.319003
   1 C :   -0.284658
   2 C :   -0.327276
   3 O :   -0.014917
   4 C :   -0.284525
   5 O :    0.172744
   6 C :   -0.284319
   7 C :   -0.164885
   8 C :   -0.141240
   9 H :    0.121795
  10 H :    0.121993
  11 H :    0.120242
  12 H :    0.134333
  13 H :    0.146967
  14 H :    0.148969
  15 H :    0.174789
  16 H :    0.140881
  17 H :    0.125601
  18 H :    0.126140
  19 H :    0.140345
  20 H :    0.146023

  Mayer bond orders larger than 0.1
B(  0-C ,  1-C ) :   0.9232 B(  0-C ,  9-H ) :   0.9346 B(  0-C , 10-H ) :   0.9382
B(  0-C , 11-H ) :   0.9430 B(  1-C ,  2-C ) :   0.9625 B(  1-C , 12-H ) :   0.9091
B(  1-C , 13-H ) :   0.9313 B(  2-C ,  3-O ) :   0.8926 B(  2-C ,  4-C ) :   0.9274
B(  2-C , 14-H ) :   0.9076 B(  3-O , 15-H ) :   0.8409 B(  4-C ,  5-O ) :   0.9079
B(  4-C ,  8-C ) :   0.9388 B(  4-C , 16-H ) :   0.8880 B(  5-O ,  6-C ) :   0.9380
B(  6-C ,  7-C ) :   0.9805 B(  6-C , 17-H ) :   0.9167 B(  6-C , 18-H ) :   0.9111
B(  7-C ,  8-C ) :   1.7975 B(  7-C , 19-H ) :   0.9182 B(  8-C , 20-H ) :   0.9178

MP2 TOTAL ENERGY:     -423.520905297 Eh
FINAL SINGLE POINT ENERGY      -423.520905297115

DIPOLE MOMENT
-------------
                                X             Y             Z
Electronic contribution:      1.87055      -5.24485      -2.80907
Nuclear contribution   :     -1.79407       4.84116       2.84869
                        -----------------------------------------
Total Dipole Moment    :      0.07649      -0.40369       0.03963
                        -----------------------------------------
Magnitude (a.u.)       :      0.41278
Magnitude (Debye)      :      1.04920

                             ****ORCA TERMINATED NORMALLY****
TOTAL RUN TIME: 0 days 0 hours 16 minutes 24 seconds 65 msec
