                         Program Version 3.0.3 - RELEASE   -
|  1> ! RI-MP2 RIJK def2-TZVP def2-TZVP/C def2-TZVP/JK TIGHTSCF
|  2> % maxcore 2000
|  3> % mp2 density relaxed end
|  4> *xyz 0 1
|  5>  C       -0.0752555274     1.4596647639     0.0104488442
|  6>  C        0.0749984618    -0.0333491472    -0.0396186971
|  7>  C        0.2769621085    -0.7992813232    -1.3442860990
|  8>  C        0.2138231048    -2.2126430044    -0.7366014454
|  9>  O        0.3271332148    -3.2386111110    -1.6809547145
| 10>  C        1.2675225263    -2.1153720590     0.3971679107
| 11>  C        0.6909949993    -0.8650004530     1.0396025375
| 12>  N       -0.7937999913    -0.8567181719     0.8554491589
| 13>  C       -1.0868930614    -2.0865331654     0.0893897961
| 14>  H        0.8230308204     1.9586738669    -0.3700550515
| 15>  H       -0.9260386088     1.7899324160    -0.5960906120
| 16>  H       -0.2462625993     1.7928832914     1.0376305255
| 17>  H       -0.5189016674    -0.6267064891    -2.0755961310
| 18>  H        1.2417482321    -0.5883722291    -1.8157963920
| 19>  H        0.2748904140    -4.0818524315    -1.2187828699
| 20>  H        1.2585631100    -2.9884987095     1.0599982524
| 21>  H        2.2817246781    -1.9736166064     0.0119551849
| 22>  H        1.0662145431    -0.4487537825     1.9677236154
| 23>  H       -1.9749800633    -1.9506963539    -0.5350107338
| 24>  H       -1.2558612442    -2.9290521610     0.7700661507
| 25> *
| 26>
| 27>                          ****END OF INPUT****

CARTESIAN COORDINATES (ANGSTROEM)
---------------------------------
  C     -0.075256    1.459665    0.010449
  C      0.074998   -0.033349   -0.039619
  C      0.276962   -0.799281   -1.344286
  C      0.213823   -2.212643   -0.736601
  O      0.327133   -3.238611   -1.680955
  C      1.267523   -2.115372    0.397168
  C      0.690995   -0.865000    1.039603
  N     -0.793800   -0.856718    0.855449
  C     -1.086893   -2.086533    0.089390
  H      0.823031    1.958674   -0.370055
  H     -0.926039    1.789932   -0.596091
  H     -0.246263    1.792883    1.037631
  H     -0.518902   -0.626706   -2.075596
  H      1.241748   -0.588372   -1.815796
  H      0.274890   -4.081852   -1.218783
  H      1.258563   -2.988499    1.059998
  H      2.281725   -1.973617    0.011955
  H      1.066215   -0.448754    1.967724
  H     -1.974980   -1.950696   -0.535011
  H     -1.255861   -2.929052    0.770066

 Total Charge           Charge          ....    0
 Multiplicity           Mult            ....    1
 Number of Electrons    NEL             ....   68
 Basis Dimension        Dim             ....  345

ORBITAL ENERGIES
----------------

  NO   OCC          E(Eh)            E(eV)
   0   2.0000     -20.566230      -559.6356
   1   2.0000     -15.554994      -423.2729
   2   2.0000     -11.288278      -307.1697
   3   2.0000     -11.260798      -306.4219
   4   2.0000     -11.254053      -306.2384
   5   2.0000     -11.246364      -306.0291
   6   2.0000     -11.228928      -305.5547
   7   2.0000     -11.224149      -305.4246
   8   2.0000     -11.218269      -305.2646
   9   2.0000      -1.377139       -37.4739
  10   2.0000      -1.295494       -35.2522
  11   2.0000      -1.049677       -28.5632
  12   2.0000      -1.024822       -27.8868
  13   2.0000      -0.988176       -26.8896
  14   2.0000      -0.928752       -25.2726
  15   2.0000      -0.788464       -21.4552
  16   2.0000      -0.780322       -21.2336
  17   2.0000      -0.747417       -20.3382
  18   2.0000      -0.698281       -19.0012
  19   2.0000      -0.652938       -17.7674
  20   2.0000      -0.646493       -17.5920
  21   2.0000      -0.615188       -16.7401
  22   2.0000      -0.589154       -16.0317
  23   2.0000      -0.565951       -15.4003
  24   2.0000      -0.558971       -15.2104
  25   2.0000      -0.542557       -14.7637
  26   2.0000      -0.530133       -14.4257
  27   2.0000      -0.526237       -14.3196
  28   2.0000      -0.508742       -13.8436
  29   2.0000      -0.474349       -12.9077
  30   2.0000      -0.438729       -11.9384
  31   2.0000      -0.425821       -11.5872
  32   2.0000      -0.415775       -11.3138
  33   2.0000      -0.365917        -9.9571
  34   0.0000       0.126297         3.4367
  35   0.0000       0.145003         3.9457
  36   0.0000       0.173927         4.7328
  37   0.0000       0.177971         4.8428
  38   0.0000       0.182202         4.9580

MULLIKEN ATOMIC CHARGES
-----------------------
   0 C :   -0.450653
   1 C :    0.137811
   2 C :   -0.218162
   3 C :    0.176072
   4 O :   -0.453965
   5 C :   -0.242808
   6 C :   -0.114445
   7 N :   -0.235800
   8 C :   -0.164706
   9 H :    0.128864
  10 H :    0.131293
  11 H :    0.144206
  12 H :    0.122298
  13 H :    0.123232
  14 H :    0.321655
  15 H :    0.115139
  16 H :    0.124912
  17 H :    0.126280
  18 H :    0.119928
  19 H :    0.108850
Sum of atomic charges:    0.0000000

LOEWDIN ATOMIC CHARGES
----------------------
   0 C :   -0.268258
   1 C :   -0.269470
   2 C :   -0.163670
   3 C :   -0.376642
   4 O :    0.022111
   5 C :   -0.203564
   6 C :   -0.193873
   7 N :    0.142216
   8 C :   -0.237964
   9 H :    0.128198
  10 H :    0.129117
  11 H :    0.133835
  12 H :    0.144794
  13 H :    0.146376
  14 H :    0.181382
  15 H :    0.137150
  16 H :    0.144178
  17 H :    0.137771
  18 H :    0.135494
  19 H :    0.130818

  Mayer bond orders larger than 0.1
B(  0-C ,  1-C ) :   0.8643 B(  0-C ,  9-H ) :   0.9388 B(  0-C , 10-H ) :   0.9417
B(  0-C , 11-H ) :   0.9484 B(  1-C ,  2-C ) :   0.9567 B(  1-C ,  6-C ) :   0.8590
B(  1-C ,  7-N ) :   0.8266 B(  2-C ,  3-C ) :   0.8997 B(  2-C , 12-H ) :   0.9171
B(  2-C , 13-H ) :   0.9107 B(  3-C ,  4-O ) :   1.0230 B(  3-C ,  5-C ) :   0.9118
B(  3-C ,  8-C ) :   0.9227 B(  4-O , 14-H ) :   0.8385 B(  5-C ,  6-C ) :   0.9350
B(  5-C , 15-H ) :   0.9128 B(  5-C , 16-H ) :   0.9119 B(  6-C ,  7-N ) :   0.8998
B(  6-C , 17-H ) :   0.9173 B(  7-N ,  8-C ) :   0.9554 B(  8-C , 18-H ) :   0.9278
B(  8-C , 19-H ) :   0.9173

MP2 TOTAL ENERGY:     -402.471695857 Eh
FINAL SINGLE POINT ENERGY      -402.471695856671

DIPOLE MOMENT
-------------
                                X             Y             Z
Electronic contribution:     -0.47108      -3.52175      -0.17531
Nuclear contribution   :      0.86551       3.23132       0.28299
                        -----------------------------------------
Total Dipole Moment    :      0.39442      -0.29043       0.10768
                        -----------------------------------------
Magnitude (a.u.)       :      0.50151
Magnitude (Debye)      :      1.27473

                             ****ORCA TERMINATED NORMALLY****
TOTAL RUN TIME: 0 days 0 hours 19 minutes 4 seconds 431 msec
