                         Program Version 3.0.3 - RELEASE   -
|  1> ! RI-MP2 RIJK def2-TZVP def2-TZVP/C def2-TZVP/JK TIGHTSCF
|  2> % maxcore 2000
|  3> % mp2 density relaxed end
|  4> *xyz 0 1
|  5>  O       -0.0526274007     1.4444286272    -0.0308660183
|  6>  C        0.0208112113     0.0262816987    -0.0198248666
|  7>  C       -1.4075948062    -0.5178760591     0.0433856903
|  8>  C       -1.4229842822    -2.0450017108    -0.1004868203
|  9>  O       -2.7087005399    -2.5770757919     0.1602198498
| 10>  C       -3.1199707244    -2.3832426966     1.4999442938
| 11>  C       -2.8460979020    -0.9948867283     2.0080383324
| 12>  C       -2.0902772387    -0.1331952119     1.3326032173
| 13>  H        0.8411616320     1.7938717268     0.0265089947
| 14>  H        0.5201750192    -0.3514457767    -0.9272550554
| 15>  H        0.5924417703    -0.3365176388     0.8494787471
| 16>  H       -1.9507107306    -0.0746961106    -0.8034406064
| 17>  H       -1.1678674280    -2.3511331686    -1.1194797333
| 18>  H       -0.6779481623    -2.4892413642     0.5830729979
| 19>  H       -4.1959410714    -2.5949539125     1.5189445483
| 20>  H       -2.6401795136    -3.1277909086     2.1634239975
| 21>  H       -3.3006855866    -0.7260519165     2.9582437733
| 22>  H       -1.9186622162     0.8753983823     1.6952897279
| 23> *
| 24>
| 25>                          ****END OF INPUT****

CARTESIAN COORDINATES (ANGSTROEM)
---------------------------------
  O     -0.052627    1.444429   -0.030866
  C      0.020811    0.026282   -0.019825
  C     -1.407595   -0.517876    0.043386
  C     -1.422984   -2.045002   -0.100487
  O     -2.708701   -2.577076    0.160220
  C     -3.119971   -2.383243    1.499944
  C     -2.846098   -0.994887    2.008038
  C     -2.090277   -0.133195    1.332603
  H      0.841162    1.793872    0.026509
  H      0.520175   -0.351446   -0.927255
  H      0.592442   -0.336518    0.849479
  H     -1.950711   -0.074696   -0.803441
  H     -1.167867   -2.351133   -1.119480
  H     -0.677948   -2.489241    0.583073
  H     -4.195941   -2.594954    1.518945
  H     -2.640180   -3.127791    2.163424
  H     -3.300686   -0.726052    2.958244
  H     -1.918662    0.875398    1.695290

 Total Charge           Charge          ....    0
 Multiplicity           Mult            ....    1
 Number of Electrons    NEL             ....   62
 Basis Dimension        Dim             ....  308

ORBITAL ENERGIES
----------------

  NO   OCC          E(Eh)            E(eV)
   0   2.0000     -20.561892      -559.5175
   1   2.0000     -20.552771      -559.2693
   2   2.0000     -11.282527      -307.0132
   3   2.0000     -11.276595      -306.8518
   4   2.0000     -11.274915      -306.8060
   5   2.0000     -11.230409      -305.5950
   6   2.0000     -11.225264      -305.4550
   7   2.0000     -11.222848      -305.3892
   8   2.0000      -1.375944       -37.4413
   9   2.0000      -1.366185       -37.1758
  10   2.0000      -1.092925       -29.7400
  11   2.0000      -1.039246       -28.2793
  12   2.0000      -0.932743       -25.3812
  13   2.0000      -0.874441       -23.7947
  14   2.0000      -0.828953       -22.5570
  15   2.0000      -0.725676       -19.7467
  16   2.0000      -0.709378       -19.3032
  17   2.0000      -0.681080       -18.5331
  18   2.0000      -0.646043       -17.5797
  19   2.0000      -0.632642       -17.2151
  20   2.0000      -0.628934       -17.1142
  21   2.0000      -0.575858       -15.6699
  22   2.0000      -0.566249       -15.4084
  23   2.0000      -0.553289       -15.0558
  24   2.0000      -0.540035       -14.6951
  25   2.0000      -0.513094       -13.9620
  26   2.0000      -0.486051       -13.2261
  27   2.0000      -0.459477       -12.5030
  28   2.0000      -0.447320       -12.1722
  29   2.0000      -0.410959       -11.1828
  30   2.0000      -0.350170        -9.5286
  31   0.0000       0.129305         3.5186
  32   0.0000       0.148383         4.0377
  33   0.0000       0.161807         4.4030
  34   0.0000       0.174761         4.7555
  35   0.0000       0.177429         4.8281

MULLIKEN ATOMIC CHARGES
-----------------------
   0 O :   -0.469755
   1 C :   -0.106074
   2 C :    0.077017
   3 C :   -0.098580
   4 O :   -0.312238
   5 C :   -0.005679
   6 C :   -0.158381
   7 C :   -0.256076
   8 H :    0.317496
   9 H :    0.100844
  10 H :    0.102363
  11 H :    0.098754
  12 H :    0.127099
  13 H :    0.093222
  14 H :    0.128706
  15 H :    0.097852
  16 H :    0.125861
  17 H :    0.137571
Sum of atomic charges:   -0.0000000

LOEWDIN ATOMIC CHARGES
----------------------
   0 O :   -0.044263
   1 C :   -0.324481
   2 C :   -0.255938
   3 C :   -0.285994
   4 O :    0.159965
   5 C :   -0.309337
   6 C :   -0.178611
   7 C :   -0.147173
   8 H :    0.173421
   9 H :    0.118679
  10 H :    0.118740
  11 H :    0.164041
  12 H :    0.131062
  13 H :    0.124760
  14 H :    0.136595
  15 H :    0.125978
  16 H :    0.143560
  17 H :    0.148998

  Mayer bond orders larger than 0.1
B(  0-O ,  1-C ) :   1.0120 B(  0-O ,  8-H ) :   0.8468 B(  1-C ,  2-C ) :   0.9058
B(  1-C ,  9-H ) :   0.9290 B(  1-C , 10-H ) :   0.9172 B(  2-C ,  3-C ) :   0.9248
B(  2-C ,  7-C ) :   0.9187 B(  2-C , 11-H ) :   0.8982 B(  3-C ,  4-O ) :   0.9255
B(  3-C , 12-H ) :   0.9243 B(  3-C , 13-H ) :   0.9339 B(  4-O ,  5-C ) :   0.9433
B(  5-C ,  6-C ) :   0.9226 B(  5-C , 14-H ) :   0.9226 B(  5-C , 15-H ) :   0.9319
B(  6-C ,  7-C ) :   1.7928 B(  6-C , 16-H ) :   0.9190 B(  7-C , 17-H ) :   0.9290

MP2 TOTAL ENERGY:     -384.299659303 Eh
FINAL SINGLE POINT ENERGY      -384.299659302800

DIPOLE MOMENT
-------------
                                X             Y             Z
Electronic contribution:     -1.64862       0.57837      -0.71888
Nuclear contribution   :      2.47884      -0.55593       1.05195
                        -----------------------------------------
Total Dipole Moment    :      0.83022       0.02244       0.33307
                        -----------------------------------------
Magnitude (a.u.)       :      0.89482
Magnitude (Debye)      :      2.27446

                             ****ORCA TERMINATED NORMALLY****
TOTAL RUN TIME: 0 days 0 hours 12 minutes 26 seconds 626 msec
