                         Program Version 3.0.3 - RELEASE   -
|  1> ! RI-MP2 RIJK def2-TZVP def2-TZVP/C def2-TZVP/JK TIGHTSCF
|  2> % maxcore 2000
|  3> % mp2 density relaxed end
|  4> *xyz 0 1
|  5>  C        2.3005968409     0.5630422925    -0.6113884960
|  6>  C        0.9631304116     0.5734901160     0.1368524219
|  7>  C        0.9216571634    -0.4093697110     1.3030431852
|  8>  C       -0.3834505310    -0.6090186265     2.1275640814
|  9>  C       -0.0714226350    -2.1309727787     2.2394916559
| 10>  C       -0.8860973160    -3.0304528478     1.2840970151
| 11>  C        0.1786349324    -2.8024682877     0.1614781090
| 12>  C       -0.3175977730    -2.2506682756    -1.1707379564
| 13>  C        1.0545922319    -1.9553213692     1.1563573082
| 14>  H        2.5083346761    -0.4229193252    -1.0409312690
| 15>  H        2.3072785635     1.2903740772    -1.4292620811
| 16>  H        3.1311448286     0.8095877705     0.0599368815
| 17>  H        0.7778677230     1.5812067600     0.5339068925
| 18>  H        0.1471548696     0.3747786732    -0.5646494946
| 19>  H        1.7153888771    -0.1178225655     2.0047048238
| 20>  H       -0.4412513129    -0.0520834006     3.0664249744
| 21>  H       -1.2984204962    -0.4069289361     1.5596756014
| 22>  H        0.1340740061    -2.5029935137     3.2441462259
| 23>  H       -0.9632490347    -4.0731322440     1.6045885974
| 24>  H       -1.8958122671    -2.6703318535     1.0579692059
| 25>  H        0.7138542837    -3.7359765213    -0.0423034477
| 26>  H        0.5090521092    -1.9519823681    -1.8242811070
| 27>  H       -0.8961046545    -3.0171349472    -1.6998616540
| 28>  H       -0.9752275015    -1.3861917405    -1.0409771345
| 29>  H        2.0643813548    -2.3512789370     1.2846258009
| 30> *
| 31>
| 32>                          ****END OF INPUT****

CARTESIAN COORDINATES (ANGSTROEM)
---------------------------------
  C      2.300597    0.563042   -0.611388
  C      0.963130    0.573490    0.136852
  C      0.921657   -0.409370    1.303043
  C     -0.383451   -0.609019    2.127564
  C     -0.071423   -2.130973    2.239492
  C     -0.886097   -3.030453    1.284097
  C      0.178635   -2.802468    0.161478
  C     -0.317598   -2.250668   -1.170738
  C      1.054592   -1.955321    1.156357
  H      2.508335   -0.422919   -1.040931
  H      2.307279    1.290374   -1.429262
  H      3.131145    0.809588    0.059937
  H      0.777868    1.581207    0.533907
  H      0.147155    0.374779   -0.564649
  H      1.715389   -0.117823    2.004705
  H     -0.441251   -0.052083    3.066425
  H     -1.298420   -0.406929    1.559676
  H      0.134074   -2.502994    3.244146
  H     -0.963249   -4.073132    1.604589
  H     -1.895812   -2.670332    1.057969
  H      0.713854   -3.735977   -0.042303
  H      0.509052   -1.951982   -1.824281
  H     -0.896105   -3.017135   -1.699862
  H     -0.975228   -1.386192   -1.040977
  H      2.064381   -2.351279    1.284626

 Total Charge           Charge          ....    0
 Multiplicity           Mult            ....    1
 Number of Electrons    NEL             ....   70
 Basis Dimension        Dim             ....  375

ORBITAL ENERGIES
----------------

  NO   OCC          E(Eh)            E(eV)
   0   2.0000     -11.222724      -305.3858
   1   2.0000     -11.219278      -305.2921
   2   2.0000     -11.217028      -305.2308
   3   2.0000     -11.214934      -305.1739
   4   2.0000     -11.212023      -305.0946
   5   2.0000     -11.211685      -305.0855
   6   2.0000     -11.210497      -305.0531
   7   2.0000     -11.209402      -305.0233
   8   2.0000     -11.208972      -305.0116
   9   2.0000      -1.156309       -31.4648
  10   2.0000      -1.051452       -28.6115
  11   2.0000      -1.008987       -27.4559
  12   2.0000      -0.947009       -25.7694
  13   2.0000      -0.895539       -24.3688
  14   2.0000      -0.861328       -23.4379
  15   2.0000      -0.796494       -21.6737
  16   2.0000      -0.773711       -21.0537
  17   2.0000      -0.693180       -18.8624
  18   2.0000      -0.667008       -18.1502
  19   2.0000      -0.611273       -16.6336
  20   2.0000      -0.605371       -16.4730
  21   2.0000      -0.587696       -15.9920
  22   2.0000      -0.574422       -15.6308
  23   2.0000      -0.559273       -15.2186
  24   2.0000      -0.545837       -14.8530
  25   2.0000      -0.534948       -14.5567
  26   2.0000      -0.513027       -13.9602
  27   2.0000      -0.499883       -13.6025
  28   2.0000      -0.483115       -13.1462
  29   2.0000      -0.469219       -12.7681
  30   2.0000      -0.450640       -12.2625
  31   2.0000      -0.429886       -11.6978
  32   2.0000      -0.420276       -11.4363
  33   2.0000      -0.392059       -10.6685
  34   2.0000      -0.383926       -10.4471
  35   0.0000       0.132075         3.5940
  36   0.0000       0.154989         4.2175
  37   0.0000       0.156476         4.2579
  38   0.0000       0.162374         4.4184
  39   0.0000       0.182341         4.9617

MULLIKEN ATOMIC CHARGES
-----------------------
   0 C :   -0.406718
   1 C :   -0.174669
   2 C :   -0.111088
   3 C :   -0.253729
   4 C :   -0.041743
   5 C :   -0.281738
   6 C :   -0.062811
   7 C :   -0.421817
   8 C :   -0.053424
   9 H :    0.125515
  10 H :    0.133564
  11 H :    0.122676
  12 H :    0.108813
  13 H :    0.098083
  14 H :    0.086324
  15 H :    0.117782
  16 H :    0.102194
  17 H :    0.108595
  18 H :    0.113231
  19 H :    0.104615
  20 H :    0.090096
  21 H :    0.129436
  22 H :    0.134888
  23 H :    0.122631
  24 H :    0.109293
Sum of atomic charges:   -0.0000000

LOEWDIN ATOMIC CHARGES
----------------------
   0 C :   -0.317184
   1 C :   -0.281717
   2 C :   -0.220338
   3 C :   -0.196346
   4 C :   -0.177600
   5 C :   -0.206015
   6 C :   -0.228259
   7 C :   -0.303083
   8 C :   -0.146500
   9 H :    0.119313
  10 H :    0.120307
  11 H :    0.120474
  12 H :    0.137961
  13 H :    0.133091
  14 H :    0.156901
  15 H :    0.125180
  16 H :    0.131719
  17 H :    0.130378
  18 H :    0.128725
  19 H :    0.127396
  20 H :    0.148005
  21 H :    0.122707
  22 H :    0.124641
  23 H :    0.118808
  24 H :    0.131434

  Mayer bond orders larger than 0.1
B(  0-C ,  1-C ) :   0.9172 B(  0-C ,  9-H ) :   0.9405 B(  0-C , 10-H ) :   0.9407
B(  0-C , 11-H ) :   0.9392 B(  1-C ,  2-C ) :   0.9086 B(  1-C , 12-H ) :   0.9333
B(  1-C , 13-H ) :   0.9270 B(  2-C ,  3-C ) :   0.9432 B(  2-C ,  8-C ) :   0.8982
B(  2-C , 14-H ) :   0.9192 B(  3-C ,  4-C ) :   0.9243 B(  3-C , 15-H ) :   0.9213
B(  3-C , 16-H ) :   0.9105 B(  4-C ,  5-C ) :   0.9112 B(  4-C ,  8-C ) :   0.9239
B(  4-C , 17-H ) :   0.9126 B(  5-C ,  6-C ) :   0.9363 B(  5-C , 18-H ) :   0.9186
B(  5-C , 19-H ) :   0.9149 B(  6-C ,  7-C ) :   0.9047 B(  6-C ,  8-C ) :   0.9172
B(  6-C , 20-H ) :   0.9220 B(  7-C , 21-H ) :   0.9404 B(  7-C , 22-H ) :   0.9365
B(  7-C , 23-H ) :   0.9394 B(  8-C , 24-H ) :   0.9230

MP2 TOTAL ENERGY:     -351.681348465 Eh
FINAL SINGLE POINT ENERGY      -351.681348464667

DIPOLE MOMENT
-------------
                                X             Y             Z
Electronic contribution:     -0.65043      -2.30694       4.09298
Nuclear contribution   :      0.69714       2.27972      -4.08775
                        -----------------------------------------
Total Dipole Moment    :      0.04671      -0.02723       0.00524
                        -----------------------------------------
Magnitude (a.u.)       :      0.05432
Magnitude (Debye)      :      0.13806

                             ****ORCA TERMINATED NORMALLY****
TOTAL RUN TIME: 0 days 0 hours 37 minutes 23 seconds 677 msec
