                         Program Version 3.0.3 - RELEASE   -
|  1> ! RI-MP2 RIJK def2-TZVP def2-TZVP/C def2-TZVP/JK TIGHTSCF
|  2> % maxcore 2000
|  3> % mp2 density relaxed end
|  4> *xyz 0 1
|  5>  O       -0.0838675771     0.3310729592     1.0974581624
|  6>  C       -0.1086312870     1.2373689393     0.3104360498
|  7>  O       -1.3223692376     1.7548615759    -0.0658442716
|  8>  C       -1.6091888064     2.0926382186    -1.4166204241
|  9>  O       -1.0003076807     3.2529815138    -1.8801666733
| 10>  C        0.2994648279     3.0627087617    -2.4133080162
| 11>  C        1.3560998481     2.7930603318    -1.3664342715
| 12>  C        1.2867308593     3.4213199117    -0.0159317480
| 13>  C        1.1439084911     1.9036875578    -0.1521895735
| 14>  H       -1.3631607127     1.2378547332    -2.0649755157
| 15>  H       -2.6849219620     2.2732971885    -1.4201995142
| 16>  H        0.2835826823     2.2475480582    -3.1539990390
| 17>  H        0.5406900758     3.9898159606    -2.9434786974
| 18>  H        2.3461516317     2.6856679069    -1.8031156775
| 19>  H        2.1885139630     3.7952991161     0.4537990174
| 20>  H        0.3781476019     3.9619906013     0.2221037764
| 21>  H        2.0034248222     1.3213418255     0.1571061360
| 22> *
| 23>
| 24>                          ****END OF INPUT****

CARTESIAN COORDINATES (ANGSTROEM)
---------------------------------
  O     -0.083868    0.331073    1.097458
  C     -0.108631    1.237369    0.310436
  O     -1.322369    1.754862   -0.065844
  C     -1.609189    2.092638   -1.416620
  O     -1.000308    3.252982   -1.880167
  C      0.299465    3.062709   -2.413308
  C      1.356100    2.793060   -1.366434
  C      1.286731    3.421320   -0.015932
  C      1.143908    1.903688   -0.152190
  H     -1.363161    1.237855   -2.064976
  H     -2.684922    2.273297   -1.420200
  H      0.283583    2.247548   -3.153999
  H      0.540690    3.989816   -2.943479
  H      2.346152    2.685668   -1.803116
  H      2.188514    3.795299    0.453799
  H      0.378148    3.961991    0.222104
  H      2.003425    1.321342    0.157106

 Total Charge           Charge          ....    0
 Multiplicity           Mult            ....    1
 Number of Electrons    NEL             ....   68
 Basis Dimension        Dim             ....  327

ORBITAL ENERGIES
----------------

  NO   OCC          E(Eh)            E(eV)
   0   2.0000     -20.594096      -560.3938
   1   2.0000     -20.587100      -560.2035
   2   2.0000     -20.541035      -558.9500
   3   2.0000     -11.382913      -309.7448
   4   2.0000     -11.355716      -309.0047
   5   2.0000     -11.304432      -307.6092
   6   2.0000     -11.265807      -306.5582
   7   2.0000     -11.261233      -306.4337
   8   2.0000     -11.252661      -306.2005
   9   2.0000      -1.463121       -39.8135
  10   2.0000      -1.410887       -38.3922
  11   2.0000      -1.352874       -36.8136
  12   2.0000      -1.176827       -32.0231
  13   2.0000      -1.006860       -27.3981
  14   2.0000      -0.953823       -25.9548
  15   2.0000      -0.892347       -24.2820
  16   2.0000      -0.811440       -22.0804
  17   2.0000      -0.782099       -21.2820
  18   2.0000      -0.734952       -19.9991
  19   2.0000      -0.720745       -19.6125
  20   2.0000      -0.686249       -18.6738
  21   2.0000      -0.675846       -18.3907
  22   2.0000      -0.643431       -17.5086
  23   2.0000      -0.605729       -16.4827
  24   2.0000      -0.597317       -16.2538
  25   2.0000      -0.588666       -16.0184
  26   2.0000      -0.557095       -15.1593
  27   2.0000      -0.533223       -14.5097
  28   2.0000      -0.515498       -14.0274
  29   2.0000      -0.480433       -13.0732
  30   2.0000      -0.471077       -12.8187
  31   2.0000      -0.462892       -12.5959
  32   2.0000      -0.428604       -11.6629
  33   2.0000      -0.425479       -11.5779
  34   0.0000       0.127951         3.4817
  35   0.0000       0.138572         3.7707
  36   0.0000       0.165552         4.5049
  37   0.0000       0.168824         4.5939
  38   0.0000       0.181656         4.9431

MULLIKEN ATOMIC CHARGES
-----------------------
   0 O :   -0.266762
   1 C :    0.254943
   2 O :   -0.243462
   3 C :    0.044809
   4 O :   -0.297229
   5 C :   -0.051416
   6 C :   -0.091556
   7 C :   -0.270838
   8 C :   -0.168453
   9 H :    0.112412
  10 H :    0.141143
  11 H :    0.114697
  12 H :    0.132549
  13 H :    0.132931
  14 H :    0.148223
  15 H :    0.161581
  16 H :    0.146427
Sum of atomic charges:   -0.0000000

LOEWDIN ATOMIC CHARGES
----------------------
   0 O :    0.152602
   1 C :   -0.456138
   2 O :    0.235399
   3 C :   -0.375729
   4 O :    0.178775
   5 C :   -0.297240
   6 C :   -0.212747
   7 C :   -0.175556
   8 C :   -0.169570
   9 H :    0.115086
  10 H :    0.129651
  11 H :    0.127805
  12 H :    0.139418
  13 H :    0.159648
  14 H :    0.136381
  15 H :    0.147365
  16 H :    0.164850

  Mayer bond orders larger than 0.1
B(  0-O ,  1-C ) :   2.0276 B(  1-C ,  2-O ) :   1.0536 B(  1-C ,  8-C ) :   0.9832
B(  2-O ,  3-C ) :   0.9054 B(  3-C ,  4-O ) :   0.9914 B(  3-C ,  9-H ) :   0.9323
B(  3-C , 10-H ) :   0.9344 B(  4-O ,  5-C ) :   0.8981 B(  5-C ,  6-C ) :   0.9202
B(  5-C , 11-H ) :   0.9449 B(  5-C , 12-H ) :   0.9263 B(  6-C ,  7-C ) :   0.8948
B(  6-C ,  8-C ) :   0.8335 B(  6-C , 13-H ) :   0.9115 B(  7-C ,  8-C ) :   0.8199
B(  7-C , 14-H ) :   0.9259 B(  7-C , 15-H ) :   0.9160 B(  8-C , 16-H ) :   0.9235

MP2 TOTAL ENERGY:     -458.239908633 Eh
FINAL SINGLE POINT ENERGY      -458.239908632939

DIPOLE MOMENT
-------------
                                X             Y             Z
Electronic contribution:     -3.07351      -3.00741       3.60612
Nuclear contribution   :      3.80176       3.68102      -4.90921
                        -----------------------------------------
Total Dipole Moment    :      0.72825       0.67362      -1.30309
                        -----------------------------------------
Magnitude (a.u.)       :      1.63773
Magnitude (Debye)      :      4.16278

                             ****ORCA TERMINATED NORMALLY****
TOTAL RUN TIME: 0 days 0 hours 16 minutes 36 seconds 509 msec
