                         Program Version 3.0.3 - RELEASE   -
|  1> ! RI-MP2 RIJK def2-TZVP def2-TZVP/C def2-TZVP/JK TIGHTSCF
|  2> % maxcore 2000
|  3> % mp2 density relaxed end
|  4> *xyz 0 1
|  5>  C        0.2454286556     1.6598907067     0.3103754842
|  6>  C        0.2487934693     0.1329854320     0.3812789938
|  7>  C        0.4373058579    -0.5349523969    -0.9977323016
|  8>  C        1.7190690900    -0.1987871488    -1.6163119093
|  9>  C        2.7856782732     0.0741905835    -2.0981924940
| 10>  C        0.3241488252    -2.0625055509    -0.8833743212
| 11>  O        0.4393906218    -2.6918170719     0.1353555104
| 12>  O        0.0730379301    -2.6075698579    -2.0854788544
| 13>  C       -0.0075184211    -4.0394395008    -2.1056943530
| 14>  H        1.1870831975     2.0382991514    -0.0977345821
| 15>  H       -0.5673919683     2.0288883657    -0.3254624164
| 16>  H        0.1098845743     2.0908177652     1.3065802501
| 17>  H        1.0399301071    -0.2229680980     1.0468249991
| 18>  H       -0.6947361583    -0.2308527995     0.8015445788
| 19>  H       -0.3637466038    -0.2098047988    -1.6748236332
| 20>  H        3.7227726611     0.3166389633    -2.5349455176
| 21>  H        0.9336644767    -4.4811363602    -1.7691572527
| 22>  H       -0.8130942810    -4.3888531264    -1.4550897541
| 23>  H       -0.2079528171    -4.3097431976    -3.1422235267
| 24> *
| 25>
| 26>                          ****END OF INPUT****

CARTESIAN COORDINATES (ANGSTROEM)
---------------------------------
  C      0.245429    1.659891    0.310375
  C      0.248793    0.132985    0.381279
  C      0.437306   -0.534952   -0.997732
  C      1.719069   -0.198787   -1.616312
  C      2.785678    0.074191   -2.098192
  C      0.324149   -2.062506   -0.883374
  O      0.439391   -2.691817    0.135356
  O      0.073038   -2.607570   -2.085479
  C     -0.007518   -4.039440   -2.105694
  H      1.187083    2.038299   -0.097735
  H     -0.567392    2.028888   -0.325462
  H      0.109885    2.090818    1.306580
  H      1.039930   -0.222968    1.046825
  H     -0.694736   -0.230853    0.801545
  H     -0.363747   -0.209805   -1.674824
  H      3.722773    0.316639   -2.534946
  H      0.933664   -4.481136   -1.769157
  H     -0.813094   -4.388853   -1.455090
  H     -0.207953   -4.309743   -3.142224

 Total Charge           Charge          ....    0
 Multiplicity           Mult            ....    1
 Number of Electrons    NEL             ....   68
 Basis Dimension        Dim             ....  339

ORBITAL ENERGIES
----------------

  NO   OCC          E(Eh)            E(eV)
   0   2.0000     -20.606699      -560.7368
   1   2.0000     -20.548929      -559.1648
   2   2.0000     -11.385210      -309.8073
   3   2.0000     -11.287729      -307.1547
   4   2.0000     -11.277023      -306.8634
   5   2.0000     -11.242736      -305.9304
   6   2.0000     -11.234108      -305.6956
   7   2.0000     -11.230203      -305.5893
   8   2.0000     -11.217895      -305.2544
   9   2.0000      -1.466504       -39.9056
  10   2.0000      -1.366301       -37.1789
  11   2.0000      -1.116675       -30.3863
  12   2.0000      -1.023372       -27.8474
  13   2.0000      -0.997283       -27.1374
  14   2.0000      -0.944315       -25.6961
  15   2.0000      -0.835454       -22.7339
  16   2.0000      -0.786564       -21.4035
  17   2.0000      -0.735242       -20.0070
  18   2.0000      -0.708363       -19.2755
  19   2.0000      -0.688040       -18.7225
  20   2.0000      -0.680108       -18.5067
  21   2.0000      -0.651142       -17.7185
  22   2.0000      -0.600698       -16.3458
  23   2.0000      -0.598209       -16.2781
  24   2.0000      -0.576180       -15.6786
  25   2.0000      -0.542136       -14.7523
  26   2.0000      -0.536028       -14.5861
  27   2.0000      -0.508657       -13.8413
  28   2.0000      -0.503403       -13.6983
  29   2.0000      -0.490260       -13.3407
  30   2.0000      -0.467300       -12.7159
  31   2.0000      -0.465275       -12.6608
  32   2.0000      -0.393711       -10.7134
  33   2.0000      -0.391920       -10.6647
  34   0.0000       0.128875         3.5069
  35   0.0000       0.151463         4.1215
  36   0.0000       0.157676         4.2906
  37   0.0000       0.162320         4.4170
  38   0.0000       0.172705         4.6996

MULLIKEN ATOMIC CHARGES
-----------------------
   0 C :   -0.399895
   1 C :   -0.181588
   2 C :   -0.096962
   3 C :   -0.086335
   4 C :   -0.163123
   5 C :    0.321804
   6 O :   -0.320205
   7 O :   -0.249837
   8 C :   -0.229143
   9 H :    0.145138
  10 H :    0.120426
  11 H :    0.138215
  12 H :    0.129427
  13 H :    0.121546
  14 H :    0.128331
  15 H :    0.191805
  16 H :    0.143136
  17 H :    0.140869
  18 H :    0.146391
Sum of atomic charges:    0.0000000

LOEWDIN ATOMIC CHARGES
----------------------
   0 C :   -0.311938
   1 C :   -0.247120
   2 C :   -0.213398
   3 C :   -0.082270
   4 C :   -0.090446
   5 C :   -0.446724
   6 O :    0.140045
   7 O :    0.239977
   8 C :   -0.305545
   9 H :    0.127216
  10 H :    0.121388
  11 H :    0.123631
  12 H :    0.147458
  13 H :    0.142983
  14 H :    0.181699
  15 H :    0.127817
  16 H :    0.115364
  17 H :    0.114315
  18 H :    0.115549

  Mayer bond orders larger than 0.1
B(  0-C ,  1-C ) :   0.9124 B(  0-C ,  9-H ) :   0.9370 B(  0-C , 10-H ) :   0.9342
B(  0-C , 11-H ) :   0.9420 B(  1-C ,  2-C ) :   0.9067 B(  1-C , 12-H ) :   0.9214
B(  1-C , 13-H ) :   0.9329 B(  2-C ,  3-C ) :   1.0927 B(  2-C ,  5-C ) :   0.8836
B(  2-C , 14-H ) :   0.9232 B(  3-C ,  4-C ) :   2.6111 B(  4-C , 15-H ) :   0.8955
B(  5-C ,  6-O ) :   1.9254 B(  5-C ,  7-O ) :   1.1471 B(  7-O ,  8-C ) :   0.8393
B(  8-C , 16-H ) :   0.9384 B(  8-C , 17-H ) :   0.9388 B(  8-C , 18-H ) :   0.9338

MP2 TOTAL ENERGY:     -422.312110866 Eh
FINAL SINGLE POINT ENERGY      -422.312110865995

DIPOLE MOMENT
-------------
                                X             Y             Z
Electronic contribution:      1.79224      -4.33257      -2.31577
Nuclear contribution   :     -2.00799       4.33973       1.81002
                        -----------------------------------------
Total Dipole Moment    :     -0.21575       0.00715      -0.50576
                        -----------------------------------------
Magnitude (a.u.)       :      0.54990
Magnitude (Debye)      :      1.39773

                             ****ORCA TERMINATED NORMALLY****
TOTAL RUN TIME: 0 days 0 hours 17 minutes 39 seconds 579 msec
