                         Program Version 3.0.3 - RELEASE   -
|  1> ! RI-MP2 RIJK def2-TZVP def2-TZVP/C def2-TZVP/JK TIGHTSCF
|  2> % maxcore 2000
|  3> % mp2 density relaxed end
|  4> *xyz 0 1
|  5>  C       -0.1235449516     1.4037422752    -1.2867900074
|  6>  N        0.0772008257     0.1740080123    -0.5308206812
|  7>  C        1.2060030963    -0.6207394086    -0.9354411531
|  8>  C        1.9489420893    -1.1943343116     0.2767480328
|  9>  O        1.6951782239    -0.8711592435     1.4065836009
| 10>  C        0.8633509624    -1.7968738399    -1.8585855131
| 11>  O        1.7407595115    -2.4403585561    -2.3949123233
| 12>  C       -0.5914875718    -2.1803142549    -2.0442596776
| 13>  O       -0.7146998568    -3.2982996626    -2.8718314545
| 14>  H        0.7583715076     2.0669168852    -1.3026617168
| 15>  H       -0.3827726851     1.1717355801    -2.3257455782
| 16>  H       -0.9612910402     1.9576993372    -0.8555544564
| 17>  H        0.1565144884     0.3576407705     0.4647058263
| 18>  H        1.9871851541    -0.0508336127    -1.4757983980
| 19>  H        2.7404025965    -1.9245175687     0.0226588976
| 20>  H       -1.0246460079    -2.3530057110    -1.0456171980
| 21>  H       -1.1356523493    -1.3139047713    -2.4501266832
| 22>  H        0.1917896171    -3.5500572898    -3.1076753370
| 23> *
| 24>
| 25>                          ****END OF INPUT****

CARTESIAN COORDINATES (ANGSTROEM)
---------------------------------
  C     -0.123545    1.403742   -1.286790
  N      0.077201    0.174008   -0.530821
  C      1.206003   -0.620739   -0.935441
  C      1.948942   -1.194334    0.276748
  O      1.695178   -0.871159    1.406584
  C      0.863351   -1.796874   -1.858586
  O      1.740760   -2.440359   -2.394912
  C     -0.591488   -2.180314   -2.044260
  O     -0.714700   -3.298300   -2.871831
  H      0.758372    2.066917   -1.302662
  H     -0.382773    1.171736   -2.325746
  H     -0.961291    1.957699   -0.855554
  H      0.156514    0.357641    0.464706
  H      1.987185   -0.050834   -1.475798
  H      2.740403   -1.924518    0.022659
  H     -1.024646   -2.353006   -1.045617
  H     -1.135652   -1.313905   -2.450127
  H      0.191790   -3.550057   -3.107675

 Total Charge           Charge          ....    0
 Multiplicity           Mult            ....    1
 Number of Electrons    NEL             ....   70
 Basis Dimension        Dim             ....  333

ORBITAL ENERGIES
----------------

  NO   OCC          E(Eh)            E(eV)
   0   2.0000     -20.587296      -560.2088
   1   2.0000     -20.579587      -559.9990
   2   2.0000     -20.559951      -559.4647
   3   2.0000     -15.570526      -423.6955
   4   2.0000     -11.361200      -309.1540
   5   2.0000     -11.358970      -309.0933
   6   2.0000     -11.304499      -307.6111
   7   2.0000     -11.296889      -307.4040
   8   2.0000     -11.269159      -306.6494
   9   2.0000      -1.432981       -38.9934
  10   2.0000      -1.426744       -38.8237
  11   2.0000      -1.366553       -37.1858
  12   2.0000      -1.242519       -33.8107
  13   2.0000      -1.050300       -28.5801
  14   2.0000      -0.980351       -26.6767
  15   2.0000      -0.916992       -24.9526
  16   2.0000      -0.834696       -22.7132
  17   2.0000      -0.774971       -21.0880
  18   2.0000      -0.727863       -19.8062
  19   2.0000      -0.719913       -19.5898
  20   2.0000      -0.689643       -18.7661
  21   2.0000      -0.679058       -18.4781
  22   2.0000      -0.655700       -17.8425
  23   2.0000      -0.636353       -17.3160
  24   2.0000      -0.614290       -16.7157
  25   2.0000      -0.608559       -16.5597
  26   2.0000      -0.578024       -15.7288
  27   2.0000      -0.554938       -15.1006
  28   2.0000      -0.550749       -14.9866
  29   2.0000      -0.542142       -14.7524
  30   2.0000      -0.528659       -14.3855
  31   2.0000      -0.464773       -12.6471
  32   2.0000      -0.457418       -12.4470
  33   2.0000      -0.444651       -12.0996
  34   2.0000      -0.397573       -10.8185
  35   0.0000       0.093266         2.5379
  36   0.0000       0.124572         3.3898
  37   0.0000       0.130013         3.5378
  38   0.0000       0.159492         4.3400
  39   0.0000       0.168805         4.5934

MULLIKEN ATOMIC CHARGES
-----------------------
   0 C :   -0.299345
   1 N :   -0.383797
   2 C :    0.038314
   3 C :    0.086725
   4 O :   -0.267739
   5 C :    0.136113
   6 O :   -0.322310
   7 C :    0.016202
   8 O :   -0.481123
   9 H :    0.121599
  10 H :    0.131020
  11 H :    0.147056
  12 H :    0.233139
  13 H :    0.131210
  14 H :    0.129850
  15 H :    0.130755
  16 H :    0.117661
  17 H :    0.334672
Sum of atomic charges:   -0.0000000

LOEWDIN ATOMIC CHARGES
----------------------
   0 C :   -0.344107
   1 N :   -0.008970
   2 C :   -0.292061
   3 C :   -0.255301
   4 O :    0.145414
   5 C :   -0.307686
   6 O :    0.144011
   7 C :   -0.334495
   8 O :   -0.031647
   9 H :    0.104019
  10 H :    0.114327
  11 H :    0.120622
  12 H :    0.177135
  13 H :    0.173007
  14 H :    0.128654
  15 H :    0.144387
  16 H :    0.141410
  17 H :    0.181279

  Mayer bond orders larger than 0.1
B(  0-C ,  1-N ) :   0.9149 B(  0-C ,  9-H ) :   0.9296 B(  0-C , 10-H ) :   0.9368
B(  0-C , 11-H ) :   0.9385 B(  1-N ,  2-C ) :   1.0061 B(  1-N , 12-H ) :   0.8596
B(  2-C ,  3-C ) :   0.8380 B(  2-C ,  5-C ) :   0.8430 B(  2-C , 13-H ) :   0.9095
B(  3-C ,  4-O ) :   1.9510 B(  3-C , 14-H ) :   0.9331 B(  5-C ,  6-O ) :   1.8863
B(  5-C ,  7-C ) :   0.9702 B(  7-C ,  8-O ) :   1.0028 B(  7-C , 15-H ) :   0.9045
B(  7-C , 16-H ) :   0.8917 B(  8-O , 17-H ) :   0.8084

MP2 TOTAL ENERGY:     -475.474655859 Eh
FINAL SINGLE POINT ENERGY      -475.474655858766

DIPOLE MOMENT
-------------
                                X             Y             Z
Electronic contribution:      3.65266      -5.77070       1.55285
Nuclear contribution   :     -3.38538       6.83313      -1.56931
                        -----------------------------------------
Total Dipole Moment    :      0.26728       1.06243      -0.01646
                        -----------------------------------------
Magnitude (a.u.)       :      1.09566
Magnitude (Debye)      :      2.78495

                             ****ORCA TERMINATED NORMALLY****
TOTAL RUN TIME: 0 days 0 hours 15 minutes 34 seconds 474 msec
