                         Program Version 3.0.3 - RELEASE   -
|  1> ! RI-MP2 RIJK def2-TZVP def2-TZVP/C def2-TZVP/JK TIGHTSCF
|  2> % maxcore 2000
|  3> % mp2 density relaxed end
|  4> *xyz 0 1
|  5>  O        0.2659794031     1.3558880100     0.0148207841
|  6>  C        0.0839616218    -0.0119766263     0.2046207826
|  7>  C       -1.3683266164    -0.4148491624     0.0087414916
|  8>  O       -2.2166105418     0.4241922636    -0.1683907786
|  9>  C       -1.7074797538    -1.9230000623     0.0492284572
| 10>  O       -2.9974627536    -2.1601581910     0.4964286037
| 11>  C       -1.5029662527    -2.4927560974    -1.3542281323
| 12>  O       -2.4239688079    -2.9812290610    -1.9562947023
| 13>  H       -0.6258957493     1.7234503427    -0.0900002355
| 14>  H        0.7165531228    -0.5944944117    -0.4875522705
| 15>  H        0.3783166796    -0.3293498196     1.2213071736
| 16>  H       -0.9669340861    -2.4123725121     0.7054272988
| 17>  H       -3.4945233647    -2.4847010766    -0.2712679166
| 18>  H       -0.4837648410    -2.4284900859    -1.7821112657
| 19> *
| 20>
| 21>                          ****END OF INPUT****

CARTESIAN COORDINATES (ANGSTROEM)
---------------------------------
  O      0.265979    1.355888    0.014821
  C      0.083962   -0.011977    0.204621
  C     -1.368327   -0.414849    0.008741
  O     -2.216611    0.424192   -0.168391
  C     -1.707480   -1.923000    0.049228
  O     -2.997463   -2.160158    0.496429
  C     -1.502966   -2.492756   -1.354228
  O     -2.423969   -2.981229   -1.956295
  H     -0.625896    1.723450   -0.090000
  H      0.716553   -0.594494   -0.487552
  H      0.378317   -0.329350    1.221307
  H     -0.966934   -2.412373    0.705427
  H     -3.494523   -2.484701   -0.271268
  H     -0.483765   -2.428490   -1.782111

 Total Charge           Charge          ....    0
 Multiplicity           Mult            ....    1
 Number of Electrons    NEL             ....   62
 Basis Dimension        Dim             ....  284

ORBITAL ENERGIES
----------------

  NO   OCC          E(Eh)            E(eV)
   0   2.0000     -20.603663      -560.6542
   1   2.0000     -20.587240      -560.2073
   2   2.0000     -20.584493      -560.1325
   3   2.0000     -20.574673      -559.8653
   4   2.0000     -11.376238      -309.5632
   5   2.0000     -11.365756      -309.2780
   6   2.0000     -11.337249      -308.5022
   7   2.0000     -11.316832      -307.9466
   8   2.0000      -1.453559       -39.5533
   9   2.0000      -1.437613       -39.1194
  10   2.0000      -1.393804       -37.9273
  11   2.0000      -1.379544       -37.5393
  12   2.0000      -1.070237       -29.1226
  13   2.0000      -0.979872       -26.6637
  14   2.0000      -0.856479       -23.3060
  15   2.0000      -0.792330       -21.5604
  16   2.0000      -0.759410       -20.6646
  17   2.0000      -0.745683       -20.2911
  18   2.0000      -0.711694       -19.3662
  19   2.0000      -0.685059       -18.6414
  20   2.0000      -0.672711       -18.3054
  21   2.0000      -0.646177       -17.5834
  22   2.0000      -0.626797       -17.0560
  23   2.0000      -0.577199       -15.7064
  24   2.0000      -0.565749       -15.3948
  25   2.0000      -0.558328       -15.1929
  26   2.0000      -0.550101       -14.9690
  27   2.0000      -0.512997       -13.9594
  28   2.0000      -0.474024       -12.8988
  29   2.0000      -0.471172       -12.8212
  30   2.0000      -0.438408       -11.9297
  31   0.0000       0.078967         2.1488
  32   0.0000       0.118513         3.2249
  33   0.0000       0.127564         3.4712
  34   0.0000       0.151266         4.1162
  35   0.0000       0.161267         4.3883

MULLIKEN ATOMIC CHARGES
-----------------------
   0 O :   -0.476609
   1 C :   -0.054868
   2 C :    0.215946
   3 O :   -0.285860
   4 C :    0.059841
   5 O :   -0.450094
   6 C :    0.085995
   7 O :   -0.271786
   8 H :    0.338183
   9 H :    0.118047
  10 H :    0.128379
  11 H :    0.136159
  12 H :    0.341645
  13 H :    0.115021
Sum of atomic charges:    0.0000000

LOEWDIN ATOMIC CHARGES
----------------------
   0 O :   -0.024439
   1 C :   -0.340713
   2 C :   -0.314264
   3 O :    0.174172
   4 C :   -0.347734
   5 O :    0.029409
   6 C :   -0.262716
   7 O :    0.149698
   8 H :    0.185587
   9 H :    0.135818
  10 H :    0.139948
  11 H :    0.162879
  12 H :    0.190107
  13 H :    0.122247

  Mayer bond orders larger than 0.1
B(  0-O ,  1-C ) :   1.0163 B(  0-O ,  8-H ) :   0.8053 B(  1-C ,  2-C ) :   0.9225
B(  1-C ,  9-H ) :   0.9039 B(  1-C , 10-H ) :   0.8992 B(  2-C ,  3-O ) :   1.9178
B(  2-C ,  4-C ) :   0.8005 B(  4-C ,  5-O ) :   1.1171 B(  4-C ,  6-C ) :   0.8666
B(  4-C , 11-H ) :   0.9211 B(  5-O , 12-H ) :   0.8024 B(  6-C ,  7-O ) :   1.9291
B(  6-C , 13-H ) :   0.9181

MP2 TOTAL ENERGY:     -456.127810382 Eh
FINAL SINGLE POINT ENERGY      -456.127810381553

DIPOLE MOMENT
-------------
                                X             Y             Z
Electronic contribution:     -3.34868      -0.25596      -1.21515
Nuclear contribution   :      4.19069      -0.46319       1.22466
                        -----------------------------------------
Total Dipole Moment    :      0.84201      -0.71915       0.00951
                        -----------------------------------------
Magnitude (a.u.)       :      1.10736
Magnitude (Debye)      :      2.81468

                             ****ORCA TERMINATED NORMALLY****
TOTAL RUN TIME: 0 days 0 hours 9 minutes 43 seconds 284 msec
