                         Program Version 3.0.3 - RELEASE   -
|  1> ! RI-MP2 RIJK def2-TZVP def2-TZVP/C def2-TZVP/JK TIGHTSCF
|  2> % maxcore 2000
|  3> % mp2 density relaxed end
|  4> *xyz 0 1
|  5>  O        0.0865605959     1.3883915218     0.0790813089
|  6>  C        0.0085689730    -0.0026985577     0.0159938645
|  7>  C       -1.3273793668    -0.7195740888     0.0392411116
|  8>  C       -2.5958576585     0.1292532440     0.0638666247
|  9>  C       -2.9644842524     0.6441955393    -1.3295051259
| 10>  O       -1.8178613332     1.1539206848    -2.0101804952
| 11>  C       -0.9384176740     0.1008657678    -2.4051984937
| 12>  C       -0.4605166115    -0.7166549204    -1.2219560954
| 13>  H       -0.5228808514     1.7467287077    -0.5828343001
| 14>  H        0.8220153192    -0.4451378554     0.5820329206
| 15>  H       -1.3701069150    -1.6479688234     0.5995422708
| 16>  H       -3.4326194701    -0.4514869102     0.4641107526
| 17>  H       -2.4482813388     0.9838908978     0.7357246503
| 18>  H       -3.4125085810    -0.1593150027    -1.9346375092
| 19>  H       -3.6796863664     1.4695274462    -1.2761173407
| 20>  H       -1.4502887336    -0.5467810774    -3.1348134903
| 21>  H       -0.1011898834     0.5894215603    -2.9150392307
| 22>  H        0.0371087780    -1.6431464336    -1.4946680127
| 23> *
| 24>
| 25>                          ****END OF INPUT****

CARTESIAN COORDINATES (ANGSTROEM)
---------------------------------
  O      0.086561    1.388392    0.079081
  C      0.008569   -0.002699    0.015994
  C     -1.327379   -0.719574    0.039241
  C     -2.595858    0.129253    0.063867
  C     -2.964484    0.644196   -1.329505
  O     -1.817861    1.153921   -2.010180
  C     -0.938418    0.100866   -2.405198
  C     -0.460517   -0.716655   -1.221956
  H     -0.522881    1.746729   -0.582834
  H      0.822015   -0.445138    0.582033
  H     -1.370107   -1.647969    0.599542
  H     -3.432619   -0.451487    0.464111
  H     -2.448281    0.983891    0.735725
  H     -3.412509   -0.159315   -1.934638
  H     -3.679686    1.469527   -1.276117
  H     -1.450289   -0.546781   -3.134813
  H     -0.101190    0.589422   -2.915039
  H      0.037109   -1.643146   -1.494668

 Total Charge           Charge          ....    0
 Multiplicity           Mult            ....    1
 Number of Electrons    NEL             ....   62
 Basis Dimension        Dim             ....  308

ORBITAL ENERGIES
----------------

  NO   OCC          E(Eh)            E(eV)
   0   2.0000     -20.567920      -559.6815
   1   2.0000     -20.548201      -559.1450
   2   2.0000     -11.285755      -307.1010
   3   2.0000     -11.281250      -306.9784
   4   2.0000     -11.278409      -306.9011
   5   2.0000     -11.233543      -305.6802
   6   2.0000     -11.231947      -305.6368
   7   2.0000     -11.229622      -305.5735
   8   2.0000      -1.389757       -37.8172
   9   2.0000      -1.357502       -36.9395
  10   2.0000      -1.137718       -30.9589
  11   2.0000      -1.040304       -28.3081
  12   2.0000      -0.935737       -25.4627
  13   2.0000      -0.876763       -23.8579
  14   2.0000      -0.806396       -21.9431
  15   2.0000      -0.753552       -20.5052
  16   2.0000      -0.705362       -19.1939
  17   2.0000      -0.687742       -18.7144
  18   2.0000      -0.656839       -17.8735
  19   2.0000      -0.627366       -17.0715
  20   2.0000      -0.609612       -16.5884
  21   2.0000      -0.584432       -15.9032
  22   2.0000      -0.555935       -15.1278
  23   2.0000      -0.551957       -15.0195
  24   2.0000      -0.540077       -14.6962
  25   2.0000      -0.528082       -14.3699
  26   2.0000      -0.513669       -13.9776
  27   2.0000      -0.466989       -12.7074
  28   2.0000      -0.431250       -11.7349
  29   2.0000      -0.397652       -10.8207
  30   2.0000      -0.373097       -10.1525
  31   0.0000       0.134865         3.6699
  32   0.0000       0.160563         4.3691
  33   0.0000       0.167054         4.5458
  34   0.0000       0.177816         4.8386
  35   0.0000       0.193446         5.2639

MULLIKEN ATOMIC CHARGES
-----------------------
   0 O :   -0.463962
   1 C :    0.007829
   2 C :   -0.103431
   3 C :   -0.268604
   4 C :   -0.077692
   5 O :   -0.353024
   6 C :   -0.051148
   7 C :   -0.141585
   8 H :    0.334095
   9 H :    0.119487
  10 H :    0.128990
  11 H :    0.122535
  12 H :    0.145531
  13 H :    0.103325
  14 H :    0.127148
  15 H :    0.108398
  16 H :    0.136131
  17 H :    0.125978
Sum of atomic charges:    0.0000000

LOEWDIN ATOMIC CHARGES
----------------------
   0 O :    0.003798
   1 C :   -0.296121
   2 C :   -0.190331
   3 C :   -0.255590
   4 C :   -0.307390
   5 O :    0.136677
   6 C :   -0.297320
   7 C :   -0.210507
   8 H :    0.175819
   9 H :    0.140044
  10 H :    0.145727
  11 H :    0.144402
  12 H :    0.145437
  13 H :    0.123134
  14 H :    0.129578
  15 H :    0.126651
  16 H :    0.136142
  17 H :    0.149850

  Mayer bond orders larger than 0.1
B(  0-O ,  1-C ) :   1.0203 B(  0-O ,  8-H ) :   0.8029 B(  1-C ,  2-C ) :   0.8650
B(  1-C ,  7-C ) :   0.8911 B(  1-C ,  9-H ) :   0.9510 B(  2-C ,  3-C ) :   0.8894
B(  2-C ,  7-C ) :   0.8484 B(  2-C , 10-H ) :   0.9163 B(  3-C ,  4-C ) :   0.9530
B(  3-C , 11-H ) :   0.9238 B(  3-C , 12-H ) :   0.9274 B(  4-C ,  5-O ) :   0.8832
B(  4-C , 13-H ) :   0.9404 B(  4-C , 14-H ) :   0.9313 B(  5-O ,  6-C ) :   0.8724
B(  6-C ,  7-C ) :   0.9201 B(  6-C , 15-H ) :   0.9371 B(  6-C , 16-H ) :   0.9323
B(  7-C , 17-H ) :   0.9065

MP2 TOTAL ENERGY:     -384.294503361 Eh
FINAL SINGLE POINT ENERGY      -384.294503361134

DIPOLE MOMENT
-------------
                                X             Y             Z
Electronic contribution:      2.29308       2.00030       0.05998
Nuclear contribution   :     -2.84726      -2.84608      -0.34898
                        -----------------------------------------
Total Dipole Moment    :     -0.55418      -0.84577      -0.28900
                        -----------------------------------------
Magnitude (a.u.)       :      1.05165
Magnitude (Debye)      :      2.67308

                             ****ORCA TERMINATED NORMALLY****
TOTAL RUN TIME: 0 days 0 hours 12 minutes 52 seconds 128 msec
