                         Program Version 3.0.3 - RELEASE   -
|  1> ! RI-MP2 RIJK def2-TZVP def2-TZVP/C def2-TZVP/JK TIGHTSCF
|  2> % maxcore 2000
|  3> % mp2 density relaxed end
|  4> *xyz 0 1
|  5>  O        0.3649459640     1.2993215658    -0.5869607447
|  6>  C        0.1151944488     0.0102116287    -0.0687196937
|  7>  C        0.9483585773    -1.0214200559    -0.8249646492
|  8>  O        2.3409644320    -0.7169629212    -0.6730665540
|  9>  C        2.9957754647    -0.2015431696    -1.7338448504
| 10>  O        4.1267484654     0.1751655537    -1.6691436684
| 11>  C        0.1579659042    -0.1649408870     1.4787723846
| 12>  C       -1.1923660175    -0.9292776264     1.3925379815
| 13>  C       -1.3868734628    -0.3631718119    -0.0413826838
| 14>  H        1.2519583492     1.5607756810    -0.3134174948
| 15>  H        0.7957821767    -2.0311757713    -0.4332603569
| 16>  H        0.6734154051    -1.0066268083    -1.8870402349
| 17>  H        2.3762317777    -0.1789383208    -2.6503287124
| 18>  H        1.0221018035    -0.6816924368     1.9019815634
| 19>  H        0.0450671296     0.8068333468     1.9654980642
| 20>  H       -1.0604541932    -2.0143409156     1.3992139203
| 21>  H       -1.9530157657    -0.6729072237     2.1314194152
| 22>  H       -1.9891457686     0.5475497582    -0.0527258418
| 23>  H       -1.7518773505    -1.0403680060    -0.8188138444
| 24> *
| 25>
| 26>                          ****END OF INPUT****

CARTESIAN COORDINATES (ANGSTROEM)
---------------------------------
  O      0.364946    1.299322   -0.586961
  C      0.115194    0.010212   -0.068720
  C      0.948359   -1.021420   -0.824965
  O      2.340964   -0.716963   -0.673067
  C      2.995775   -0.201543   -1.733845
  O      4.126748    0.175166   -1.669144
  C      0.157966   -0.164941    1.478772
  C     -1.192366   -0.929278    1.392538
  C     -1.386873   -0.363172   -0.041383
  H      1.251958    1.560776   -0.313417
  H      0.795782   -2.031176   -0.433260
  H      0.673415   -1.006627   -1.887040
  H      2.376232   -0.178938   -2.650329
  H      1.022102   -0.681692    1.901982
  H      0.045067    0.806833    1.965498
  H     -1.060454   -2.014341    1.399214
  H     -1.953016   -0.672907    2.131419
  H     -1.989146    0.547550   -0.052726
  H     -1.751877   -1.040368   -0.818814

 Total Charge           Charge          ....    0
 Multiplicity           Mult            ....    1
 Number of Electrons    NEL             ....   70
 Basis Dimension        Dim             ....  339

ORBITAL ENERGIES
----------------

  NO   OCC          E(Eh)            E(eV)
   0   2.0000     -20.614392      -560.9461
   1   2.0000     -20.570548      -559.7531
   2   2.0000     -20.554659      -559.3207
   3   2.0000     -11.387101      -309.8588
   4   2.0000     -11.307730      -307.6990
   5   2.0000     -11.300914      -307.5135
   6   2.0000     -11.236774      -305.7682
   7   2.0000     -11.235058      -305.7215
   8   2.0000     -11.233115      -305.6686
   9   2.0000      -1.468104       -39.9492
  10   2.0000      -1.387041       -37.7433
  11   2.0000      -1.371011       -37.3071
  12   2.0000      -1.140996       -31.0481
  13   2.0000      -1.004209       -27.3259
  14   2.0000      -0.921620       -25.0786
  15   2.0000      -0.878342       -23.9009
  16   2.0000      -0.849561       -23.1177
  17   2.0000      -0.767316       -20.8797
  18   2.0000      -0.733137       -19.9497
  19   2.0000      -0.713228       -19.4079
  20   2.0000      -0.691842       -18.8260
  21   2.0000      -0.675100       -18.3704
  22   2.0000      -0.646260       -17.5856
  23   2.0000      -0.616375       -16.7724
  24   2.0000      -0.591947       -16.1077
  25   2.0000      -0.583007       -15.8644
  26   2.0000      -0.561836       -15.2883
  27   2.0000      -0.540149       -14.6982
  28   2.0000      -0.522356       -14.2140
  29   2.0000      -0.494191       -13.4476
  30   2.0000      -0.491396       -13.3716
  31   2.0000      -0.475023       -12.9260
  32   2.0000      -0.463165       -12.6034
  33   2.0000      -0.447833       -12.1862
  34   2.0000      -0.426292       -11.6000
  35   0.0000       0.128207         3.4887
  36   0.0000       0.143843         3.9142
  37   0.0000       0.149339         4.0637
  38   0.0000       0.161127         4.3845
  39   0.0000       0.164088         4.4651

MULLIKEN ATOMIC CHARGES
-----------------------
   0 O :   -0.471716
   1 C :    0.264484
   2 C :   -0.141615
   3 O :   -0.228451
   4 C :    0.175230
   5 O :   -0.268493
   6 C :   -0.266918
   7 C :   -0.261511
   8 C :   -0.248445
   9 H :    0.332615
  10 H :    0.142798
  11 H :    0.123741
  12 H :    0.084284
  13 H :    0.136446
  14 H :    0.123383
  15 H :    0.126029
  16 H :    0.124030
  17 H :    0.132008
  18 H :    0.122101
Sum of atomic charges:   -0.0000000

LOEWDIN ATOMIC CHARGES
----------------------
   0 O :    0.016162
   1 C :   -0.379801
   2 C :   -0.259755
   3 O :    0.243077
   4 C :   -0.460233
   5 O :    0.119866
   6 C :   -0.206633
   7 C :   -0.238853
   8 C :   -0.195836
   9 H :    0.182128
  10 H :    0.139960
  11 H :    0.131976
  12 H :    0.104555
  13 H :    0.130889
  14 H :    0.140487
  15 H :    0.131511
  16 H :    0.126349
  17 H :    0.145558
  18 H :    0.128596

  Mayer bond orders larger than 0.1
B(  0-O ,  1-C ) :   1.0004 B(  0-O ,  9-H ) :   0.8315 B(  1-C ,  2-C ) :   0.9010
B(  1-C ,  6-C ) :   0.9144 B(  1-C ,  8-C ) :   0.8581 B(  2-C ,  3-O ) :   0.8457
B(  2-C , 10-H ) :   0.9251 B(  2-C , 11-H ) :   0.9429 B(  3-O ,  4-C ) :   1.0624
B(  4-C ,  5-O ) :   2.0228 B(  4-C , 12-H ) :   0.9163 B(  6-C ,  7-C ) :   0.9415
B(  6-C , 13-H ) :   0.9242 B(  6-C , 14-H ) :   0.9201 B(  7-C ,  8-C ) :   0.9319
B(  7-C , 15-H ) :   0.9311 B(  7-C , 16-H ) :   0.9277 B(  8-C , 17-H ) :   0.9152
B(  8-C , 18-H ) :   0.9314

MP2 TOTAL ENERGY:     -459.439672213 Eh
FINAL SINGLE POINT ENERGY      -459.439672212729

DIPOLE MOMENT
-------------
                                X             Y             Z
Electronic contribution:      8.52385       1.99684      -4.05803
Nuclear contribution   :     -9.75199      -2.61944       4.24990
                        -----------------------------------------
Total Dipole Moment    :     -1.22814      -0.62261       0.19187
                        -----------------------------------------
Magnitude (a.u.)       :      1.39025
Magnitude (Debye)      :      3.53373

                             ****ORCA TERMINATED NORMALLY****
TOTAL RUN TIME: 0 days 0 hours 17 minutes 44 seconds 702 msec
