                         Program Version 3.0.3 - RELEASE   -
|  1> ! RI-MP2 RIJK def2-TZVP def2-TZVP/C def2-TZVP/JK TIGHTSCF
|  2> % maxcore 2000
|  3> % mp2 density relaxed end
|  4> *xyz 0 1
|  5>  C       -0.4187758156     1.7107259937     0.1177242520
|  6>  C       -0.1042382665     0.2355011806    -0.1327993487
|  7>  O        0.9600558650    -0.2194632384     0.6955127577
|  8>  C       -1.3566126732    -0.6427823194     0.0089044060
|  9>  C       -1.0545482009    -2.1414485280    -0.0447576330
| 10>  C       -0.6961266640    -2.7582344114     1.2996293737
| 11>  O       -0.5099624792    -2.1342129355     2.3134456106
| 12>  C       -2.1401767939    -2.9818431402    -0.7128186445
| 13>  O       -3.1034398981    -2.5335486080    -1.2737235680
| 14>  H        0.4874981109     2.3114364569     0.0060871343
| 15>  H       -1.1729519246     2.0821120837    -0.5844254403
| 16>  H       -0.8015641046     1.8562975215     1.1345645431
| 17>  H        0.2810098879     0.1272850051    -1.1564074660
| 18>  H        0.5959115411    -0.3919311482     1.5734000173
| 19>  H       -1.8499669853    -0.4195364316     0.9624256840
| 20>  H       -2.0730434914    -0.4014123423    -0.7812637139
| 21>  H       -0.1540588848    -2.3386003572    -0.6575552066
| 22>  H       -0.6077144067    -3.8668450504     1.2953121528
| 23>  H       -1.9666254063    -4.0806164611    -0.6623699506
| 24> *
| 25>
| 26>                          ****END OF INPUT****

CARTESIAN COORDINATES (ANGSTROEM)
---------------------------------
  C     -0.418776    1.710726    0.117724
  C     -0.104238    0.235501   -0.132799
  O      0.960056   -0.219463    0.695513
  C     -1.356613   -0.642782    0.008904
  C     -1.054548   -2.141449   -0.044758
  C     -0.696127   -2.758234    1.299629
  O     -0.509962   -2.134213    2.313446
  C     -2.140177   -2.981843   -0.712819
  O     -3.103440   -2.533549   -1.273724
  H      0.487498    2.311436    0.006087
  H     -1.172952    2.082112   -0.584425
  H     -0.801564    1.856298    1.134565
  H      0.281010    0.127285   -1.156407
  H      0.595912   -0.391931    1.573400
  H     -1.849967   -0.419536    0.962426
  H     -2.073043   -0.401412   -0.781264
  H     -0.154059   -2.338600   -0.657555
  H     -0.607714   -3.866845    1.295312
  H     -1.966625   -4.080616   -0.662370

 Total Charge           Charge          ....    0
 Multiplicity           Mult            ....    1
 Number of Electrons    NEL             ....   70
 Basis Dimension        Dim             ....  339

ORBITAL ENERGIES
----------------

  NO   OCC          E(Eh)            E(eV)
   0   2.0000     -20.583973      -560.1184
   1   2.0000     -20.581630      -560.0546
   2   2.0000     -20.549290      -559.1746
   3   2.0000     -11.362637      -309.1931
   4   2.0000     -11.358927      -309.0921
   5   2.0000     -11.286267      -307.1149
   6   2.0000     -11.276644      -306.8531
   7   2.0000     -11.237913      -305.7992
   8   2.0000     -11.217444      -305.2422
   9   2.0000      -1.425898       -38.8007
  10   2.0000      -1.421109       -38.6703
  11   2.0000      -1.358553       -36.9681
  12   2.0000      -1.110846       -30.2277
  13   2.0000      -1.030179       -28.0326
  14   2.0000      -0.939745       -25.5718
  15   2.0000      -0.852143       -23.1880
  16   2.0000      -0.829279       -22.5658
  17   2.0000      -0.781735       -21.2721
  18   2.0000      -0.720901       -19.6167
  19   2.0000      -0.698745       -19.0138
  20   2.0000      -0.672173       -18.2908
  21   2.0000      -0.660163       -17.9640
  22   2.0000      -0.644524       -17.5384
  23   2.0000      -0.635847       -17.3023
  24   2.0000      -0.588563       -16.0156
  25   2.0000      -0.576851       -15.6969
  26   2.0000      -0.554403       -15.0861
  27   2.0000      -0.547777       -14.9058
  28   2.0000      -0.538959       -14.6658
  29   2.0000      -0.518179       -14.1004
  30   2.0000      -0.513352       -13.9690
  31   2.0000      -0.470978       -12.8160
  32   2.0000      -0.457443       -12.4477
  33   2.0000      -0.440078       -11.9751
  34   2.0000      -0.432876       -11.7792
  35   0.0000       0.089869         2.4455
  36   0.0000       0.132426         3.6035
  37   0.0000       0.134959         3.6724
  38   0.0000       0.141940         3.8624
  39   0.0000       0.156755         4.2655

MULLIKEN ATOMIC CHARGES
-----------------------
   0 C :   -0.377052
   1 C :    0.082175
   2 O :   -0.480774
   3 C :   -0.338565
   4 C :    0.042435
   5 C :    0.077778
   6 O :   -0.292495
   7 C :    0.083229
   8 O :   -0.251988
   9 H :    0.144344
  10 H :    0.123675
  11 H :    0.120840
  12 H :    0.091187
  13 H :    0.326394
  14 H :    0.141125
  15 H :    0.161679
  16 H :    0.146424
  17 H :    0.102949
  18 H :    0.096641
Sum of atomic charges:    0.0000000

LOEWDIN ATOMIC CHARGES
----------------------
   0 C :   -0.300111
   1 C :   -0.377237
   2 O :   -0.020183
   3 C :   -0.225040
   4 C :   -0.260132
   5 C :   -0.263734
   6 O :    0.134568
   7 C :   -0.268367
   8 O :    0.149970
   9 H :    0.126710
  10 H :    0.125661
  11 H :    0.122781
  12 H :    0.142265
  13 H :    0.174168
  14 H :    0.150328
  15 H :    0.154907
  16 H :    0.196630
  17 H :    0.119743
  18 H :    0.117073

  Mayer bond orders larger than 0.1
B(  0-C ,  1-C ) :   0.9421 B(  0-C ,  9-H ) :   0.9416 B(  0-C , 10-H ) :   0.9313
B(  0-C , 11-H ) :   0.9281 B(  1-C ,  2-O ) :   0.9277 B(  1-C ,  3-C ) :   0.9397
B(  1-C , 12-H ) :   0.9273 B(  2-O , 13-H ) :   0.8260 B(  3-C ,  4-C ) :   0.8671
B(  3-C , 14-H ) :   0.9206 B(  3-C , 15-H ) :   0.9159 B(  4-C ,  5-C ) :   0.8611
B(  4-C ,  7-C ) :   0.8251 B(  4-C , 16-H ) :   0.8658 B(  5-C ,  6-O ) :   1.9188
B(  5-C , 17-H ) :   0.9386 B(  7-C ,  8-O ) :   1.9954 B(  7-C , 18-H ) :   0.9431

MP2 TOTAL ENERGY:     -459.442936907 Eh
FINAL SINGLE POINT ENERGY      -459.442936906828

DIPOLE MOMENT
-------------
                                X             Y             Z
Electronic contribution:     -1.76880      -7.36405       1.22500
Nuclear contribution   :      1.77301       6.88234      -1.47386
                        -----------------------------------------
Total Dipole Moment    :      0.00422      -0.48170      -0.24886
                        -----------------------------------------
Magnitude (a.u.)       :      0.54221
Magnitude (Debye)      :      1.37818

                             ****ORCA TERMINATED NORMALLY****
TOTAL RUN TIME: 0 days 0 hours 18 minutes 53 seconds 303 msec
