                         Program Version 3.0.3 - RELEASE   -
|  1> ! RI-MP2 RIJK def2-TZVP def2-TZVP/C def2-TZVP/JK TIGHTSCF
|  2> % maxcore 2000
|  3> % mp2 density relaxed end
|  4> *xyz 0 1
|  5>  C        0.1298385511     1.5287293234    -0.2782927461
|  6>  C        0.0736445419     0.0417483047     0.0028871007
|  7>  C        1.3253410285    -0.7965872400     0.0563770927
|  8>  C        0.5133589936    -0.5828840923     1.3117329252
|  9>  C        1.0640214505     0.2285267003     2.4494039738
| 10>  O        1.9081943103    -0.6153305993     3.2279948558
| 11>  C        2.4311662285     0.0448999321     4.3495047415
| 12>  C        3.2731922043    -0.8836556661     5.1105436989
| 13>  N        3.9421307713    -1.5901098717     5.7319275231
| 14>  H        1.0421947871     1.9893980625     0.1113586174
| 15>  H        0.1129013101     1.7122608864    -1.3580689856
| 16>  H       -0.7252680896     2.0557225231     0.1597781118
| 17>  H       -0.7901437243    -0.4456669417    -0.4420361882
| 18>  H        1.3279136921    -1.7806958354    -0.3982328696
| 19>  H        2.2760584642    -0.2758199467    -0.0100420609
| 20>  H       -0.0765321029    -1.4300546862     1.6498183798
| 21>  H        1.6393533533     1.0938019912     2.0860708407
| 22>  H        0.2506756439     0.6195148332     3.0839503710
| 23>  H        3.0438594513     0.9166340609     4.0633576572
| 24>  H        1.6339319047     0.4180484717     5.0145912109
| 25> *
| 26>
| 27>                          ****END OF INPUT****

CARTESIAN COORDINATES (ANGSTROEM)
---------------------------------
  C      0.129839    1.528729   -0.278293
  C      0.073645    0.041748    0.002887
  C      1.325341   -0.796587    0.056377
  C      0.513359   -0.582884    1.311733
  C      1.064021    0.228527    2.449404
  O      1.908194   -0.615331    3.227995
  C      2.431166    0.044900    4.349505
  C      3.273192   -0.883656    5.110544
  N      3.942131   -1.590110    5.731928
  H      1.042195    1.989398    0.111359
  H      0.112901    1.712261   -1.358069
  H     -0.725268    2.055723    0.159778
  H     -0.790144   -0.445667   -0.442036
  H      1.327914   -1.780696   -0.398233
  H      2.276058   -0.275820   -0.010042
  H     -0.076532   -1.430055    1.649818
  H      1.639353    1.093802    2.086071
  H      0.250676    0.619515    3.083950
  H      3.043859    0.916634    4.063358
  H      1.633932    0.418048    5.014591

 Total Charge           Charge          ....    0
 Multiplicity           Mult            ....    1
 Number of Electrons    NEL             ....   68
 Basis Dimension        Dim             ....  345

ORBITAL ENERGIES
----------------

  NO   OCC          E(Eh)            E(eV)
   0   2.0000     -20.586942      -560.1992
   1   2.0000     -15.575026      -423.8180
   2   2.0000     -11.339660      -308.5678
   3   2.0000     -11.298489      -307.4475
   4   2.0000     -11.275312      -306.8168
   5   2.0000     -11.243215      -305.9434
   6   2.0000     -11.239336      -305.8379
   7   2.0000     -11.229866      -305.5802
   8   2.0000     -11.229052      -305.5580
   9   2.0000      -1.410490       -38.3814
  10   2.0000      -1.220522       -33.2121
  11   2.0000      -1.160797       -31.5869
  12   2.0000      -1.035195       -28.1691
  13   2.0000      -0.976099       -26.5610
  14   2.0000      -0.934649       -25.4331
  15   2.0000      -0.813559       -22.1381
  16   2.0000      -0.779778       -21.2188
  17   2.0000      -0.719141       -19.5688
  18   2.0000      -0.709970       -19.3193
  19   2.0000      -0.695245       -18.9186
  20   2.0000      -0.667001       -18.1500
  21   2.0000      -0.618293       -16.8246
  22   2.0000      -0.596313       -16.2265
  23   2.0000      -0.575127       -15.6500
  24   2.0000      -0.565737       -15.3945
  25   2.0000      -0.555540       -15.1170
  26   2.0000      -0.538779       -14.6609
  27   2.0000      -0.512229       -13.9385
  28   2.0000      -0.495484       -13.4828
  29   2.0000      -0.476957       -12.9787
  30   2.0000      -0.472650       -12.8615
  31   2.0000      -0.449054       -12.2194
  32   2.0000      -0.415645       -11.3103
  33   2.0000      -0.414043       -11.2667
  34   0.0000       0.118842         3.2339
  35   0.0000       0.139028         3.7832
  36   0.0000       0.152012         4.1365
  37   0.0000       0.160303         4.3621
  38   0.0000       0.171657         4.6710

MULLIKEN ATOMIC CHARGES
-----------------------
   0 C :   -0.397813
   1 C :   -0.085962
   2 C :   -0.287367
   3 C :   -0.052618
   4 C :   -0.108200
   5 O :   -0.261615
   6 C :    0.021646
   7 C :   -0.146845
   8 N :   -0.057518
   9 H :    0.118806
  10 H :    0.139437
  11 H :    0.133299
  12 H :    0.120792
  13 H :    0.137598
  14 H :    0.125759
  15 H :    0.126519
  16 H :    0.098221
  17 H :    0.106516
  18 H :    0.133090
  19 H :    0.136254
Sum of atomic charges:    0.0000000

LOEWDIN ATOMIC CHARGES
----------------------
   0 C :   -0.296381
   1 C :   -0.230327
   2 C :   -0.202684
   3 C :   -0.213109
   4 C :   -0.294547
   5 O :    0.177900
   6 C :   -0.319679
   7 C :   -0.178023
   8 N :    0.070679
   9 H :    0.121703
  10 H :    0.128218
  11 H :    0.125192
  12 H :    0.149281
  13 H :    0.133176
  14 H :    0.137068
  15 H :    0.152735
  16 H :    0.124869
  17 H :    0.125783
  18 H :    0.143964
  19 H :    0.144181

  Mayer bond orders larger than 0.1
B(  0-C ,  1-C ) :   0.9145 B(  0-C ,  9-H ) :   0.9361 B(  0-C , 10-H ) :   0.9367
B(  0-C , 11-H ) :   0.9386 B(  1-C ,  2-C ) :   0.8991 B(  1-C ,  3-C ) :   0.8572
B(  1-C , 12-H ) :   0.9285 B(  2-C ,  3-C ) :   0.8749 B(  2-C , 13-H ) :   0.9280
B(  2-C , 14-H ) :   0.9277 B(  3-C ,  4-C ) :   0.9601 B(  3-C , 15-H ) :   0.9275
B(  4-C ,  5-O ) :   0.9265 B(  4-C , 16-H ) :   0.9182 B(  4-C , 17-H ) :   0.9236
B(  5-O ,  6-C ) :   0.9833 B(  6-C ,  7-C ) :   0.9380 B(  6-C , 18-H ) :   0.9044
B(  6-C , 19-H ) :   0.9066 B(  7-C ,  8-N ) :   2.8500

MP2 TOTAL ENERGY:     -402.435904955 Eh
FINAL SINGLE POINT ENERGY      -402.435904954923

DIPOLE MOMENT
-------------
                                X             Y             Z
Electronic contribution:      6.38269      -5.89473      10.85065
Nuclear contribution   :     -7.45301       7.21736     -11.78541
                        -----------------------------------------
Total Dipole Moment    :     -1.07032       1.32263      -0.93476
                        -----------------------------------------
Magnitude (a.u.)       :      1.94132
Magnitude (Debye)      :      4.93443

                             ****ORCA TERMINATED NORMALLY****
TOTAL RUN TIME: 0 days 0 hours 16 minutes 32 seconds 413 msec
