                         Program Version 3.0.3 - RELEASE   -
|  1> ! RI-MP2 RIJK def2-TZVP def2-TZVP/C def2-TZVP/JK TIGHTSCF
|  2> % maxcore 2000
|  3> % mp2 density relaxed end
|  4> *xyz 0 1
|  5>  C        0.8887451037     0.7810533361    -0.6094152543
|  6>  C       -0.0190619829    -0.3836982700    -0.2080982319
|  7>  N        0.5964098014    -1.2685410181     0.7679084991
|  8>  C        0.1937683803    -1.3312146455     2.0596758789
|  9>  O       -0.7308951728    -0.6859740692     2.5226647062
| 10>  C        0.9871894131    -2.2963604989     2.9803788717
| 11>  C       -0.0016206607    -3.2366367117     3.7037968780
| 12>  C        2.0589678277    -3.0324143613     2.3184610530
| 13>  C        2.9337237088    -3.6475176202     1.7661120298
| 14>  H        1.8272112103     0.4233191918    -1.0467851693
| 15>  H        0.3918725608     1.4124851087    -1.3527759723
| 16>  H        1.1319169623     1.3986554118     0.2598813672
| 17>  H       -0.9378571872    -0.0146932785     0.2524424348
| 18>  H       -0.2983046660    -0.9683575206    -1.0930959892
| 19>  H        1.3854179391    -1.8349920750     0.4949917867
| 20>  H        1.4360042735    -1.6381970007     3.7362576802
| 21>  H       -0.7918384444    -2.6346320705     4.1547383039
| 22>  H       -0.4515892292    -3.9395477426     2.9972441080
| 23>  H        0.5130225141    -3.8092663504     4.4786879870
| 24>  H        3.7133168881    -4.1935113352     1.2945818626
| 25> *
| 26>
| 27>                          ****END OF INPUT****

CARTESIAN COORDINATES (ANGSTROEM)
---------------------------------
  C      0.888745    0.781053   -0.609415
  C     -0.019062   -0.383698   -0.208098
  N      0.596410   -1.268541    0.767908
  C      0.193768   -1.331215    2.059676
  O     -0.730895   -0.685974    2.522665
  C      0.987189   -2.296360    2.980379
  C     -0.001621   -3.236637    3.703797
  C      2.058968   -3.032414    2.318461
  C      2.933724   -3.647518    1.766112
  H      1.827211    0.423319   -1.046785
  H      0.391873    1.412485   -1.352776
  H      1.131917    1.398655    0.259881
  H     -0.937857   -0.014693    0.252442
  H     -0.298305   -0.968358   -1.093096
  H      1.385418   -1.834992    0.494992
  H      1.436004   -1.638197    3.736258
  H     -0.791838   -2.634632    4.154738
  H     -0.451589   -3.939548    2.997244
  H      0.513023   -3.809266    4.478688
  H      3.713317   -4.193511    1.294582

 Total Charge           Charge          ....    0
 Multiplicity           Mult            ....    1
 Number of Electrons    NEL             ....   68
 Basis Dimension        Dim             ....  345

ORBITAL ENERGIES
----------------

  NO   OCC          E(Eh)            E(eV)
   0   2.0000     -20.512632      -558.1771
   1   2.0000     -15.581869      -424.0042
   2   2.0000     -11.351548      -308.8913
   3   2.0000     -11.274510      -306.7950
   4   2.0000     -11.262920      -306.4796
   5   2.0000     -11.250425      -306.1396
   6   2.0000     -11.239373      -305.8389
   7   2.0000     -11.228617      -305.5462
   8   2.0000     -11.221402      -305.3499
   9   2.0000      -1.380724       -37.5714
  10   2.0000      -1.233549       -33.5666
  11   2.0000      -1.104239       -30.0479
  12   2.0000      -1.021344       -27.7922
  13   2.0000      -1.010179       -27.4884
  14   2.0000      -0.904409       -24.6102
  15   2.0000      -0.854795       -23.2601
  16   2.0000      -0.790160       -21.5013
  17   2.0000      -0.747464       -20.3395
  18   2.0000      -0.704720       -19.1764
  19   2.0000      -0.673462       -18.3258
  20   2.0000      -0.636049       -17.3078
  21   2.0000      -0.617767       -16.8103
  22   2.0000      -0.604233       -16.4420
  23   2.0000      -0.586699       -15.9649
  24   2.0000      -0.551221       -14.9995
  25   2.0000      -0.540284       -14.7019
  26   2.0000      -0.537765       -14.6333
  27   2.0000      -0.521070       -14.1790
  28   2.0000      -0.504371       -13.7246
  29   2.0000      -0.499524       -13.5927
  30   2.0000      -0.443418       -12.0660
  31   2.0000      -0.404534       -11.0079
  32   2.0000      -0.392647       -10.6845
  33   2.0000      -0.387874       -10.5546
  34   0.0000       0.125357         3.4111
  35   0.0000       0.146593         3.9890
  36   0.0000       0.154525         4.2049
  37   0.0000       0.161679         4.3995
  38   0.0000       0.174977         4.7614

MULLIKEN ATOMIC CHARGES
-----------------------
   0 C :   -0.382541
   1 C :   -0.118205
   2 N :   -0.300959
   3 C :    0.220061
   4 O :   -0.381839
   5 C :   -0.051664
   6 C :   -0.391763
   7 C :   -0.096887
   8 C :   -0.174377
   9 H :    0.116697
  10 H :    0.129845
  11 H :    0.140989
  12 H :    0.157048
  13 H :    0.124438
  14 H :    0.251664
  15 H :    0.129794
  16 H :    0.165699
  17 H :    0.128623
  18 H :    0.138128
  19 H :    0.195251
Sum of atomic charges:   -0.0000000

LOEWDIN ATOMIC CHARGES
----------------------
   0 C :   -0.318868
   1 C :   -0.298341
   2 N :    0.124579
   3 C :   -0.429960
   4 O :    0.075962
   5 C :   -0.231089
   6 C :   -0.261495
   7 C :   -0.100052
   8 C :   -0.103488
   9 H :    0.118226
  10 H :    0.124507
  11 H :    0.125578
  12 H :    0.146572
  13 H :    0.130765
  14 H :    0.195809
  15 H :    0.183685
  16 H :    0.134843
  17 H :    0.128134
  18 H :    0.126236
  19 H :    0.128398

  Mayer bond orders larger than 0.1
B(  0-C ,  1-C ) :   0.9223 B(  0-C ,  9-H ) :   0.9351 B(  0-C , 10-H ) :   0.9353
B(  0-C , 11-H ) :   0.9378 B(  1-C ,  2-N ) :   0.8301 B(  1-C , 12-H ) :   0.9223
B(  1-C , 13-H ) :   0.9354 B(  2-N ,  3-C ) :   1.2365 B(  2-N , 14-H ) :   0.8539
B(  3-C ,  4-O ) :   1.8907 B(  3-C ,  5-C ) :   0.8607 B(  5-C ,  6-C ) :   0.8997
B(  5-C ,  7-C ) :   1.0696 B(  5-C , 15-H ) :   0.9057 B(  6-C , 16-H ) :   0.9281
B(  6-C , 17-H ) :   0.9294 B(  6-C , 18-H ) :   0.9348 B(  7-C ,  8-C ) :   2.6288
B(  8-C , 19-H ) :   0.8935

MP2 TOTAL ENERGY:     -402.456327360 Eh
FINAL SINGLE POINT ENERGY      -402.456327359978

DIPOLE MOMENT
-------------
                                X             Y             Z
Electronic contribution:      0.77774      -2.32276       3.17526
Nuclear contribution   :      0.05162       1.89532      -3.97922
                        -----------------------------------------
Total Dipole Moment    :      0.82937      -0.42743      -0.80396
                        -----------------------------------------
Magnitude (a.u.)       :      1.23162
Magnitude (Debye)      :      3.13054

                             ****ORCA TERMINATED NORMALLY****
TOTAL RUN TIME: 0 days 0 hours 17 minutes 7 seconds 749 msec
