                         Program Version 3.0.3 - RELEASE   -
|  1> ! RI-MP2 RIJK def2-TZVP def2-TZVP/C def2-TZVP/JK TIGHTSCF
|  2> % maxcore 2000
|  3> % mp2 density relaxed end
|  4> *xyz 0 1
|  5>  C       -0.0187948255     1.4675046929     0.0168386066
|  6>  N        0.0018055659     0.0184087675    -0.0551715529
|  7>  C        0.0919242567    -0.8144658319    -1.1068390470
|  8>  N        0.0718652256    -2.0571787691    -0.6771820644
|  9>  N       -0.0336444973    -1.9704844173     0.6756597574
| 10>  N       -0.0763933344    -0.7395986844     1.0611628978
| 11>  H        0.9049950182     1.8845215687    -0.3914884021
| 12>  H       -0.8742542461     1.8661501666    -0.5338515193
| 13>  H       -0.1057298811     1.7372065982     1.0688694353
| 14>  H        0.1677404681    -0.4913845910    -2.1323734915
| 15> *
| 16>
| 17>                          ****END OF INPUT****

CARTESIAN COORDINATES (ANGSTROEM)
---------------------------------
  C     -0.018795    1.467505    0.016839
  N      0.001806    0.018409   -0.055172
  C      0.091924   -0.814466   -1.106839
  N      0.071865   -2.057179   -0.677182
  N     -0.033644   -1.970484    0.675660
  N     -0.076393   -0.739599    1.061163
  H      0.904995    1.884522   -0.391488
  H     -0.874254    1.866150   -0.533852
  H     -0.105730    1.737207    1.068869
  H      0.167740   -0.491385   -2.132373

 Total Charge           Charge          ....    0
 Multiplicity           Mult            ....    1
 Number of Electrons    NEL             ....   44
 Basis Dimension        Dim             ....  210

ORBITAL ENERGIES
----------------

  NO   OCC          E(Eh)            E(eV)
   0   2.0000     -15.676085      -426.5680
   1   2.0000     -15.653336      -425.9489
   2   2.0000     -15.638551      -425.5466
   3   2.0000     -15.596719      -424.4083
   4   2.0000     -11.325872      -308.1926
   5   2.0000     -11.305122      -307.6280
   6   2.0000      -1.484987       -40.4086
   7   2.0000      -1.264391       -34.4058
   8   2.0000      -1.186209       -32.2784
   9   2.0000      -1.017785       -27.6953
  10   2.0000      -0.888690       -24.1825
  11   2.0000      -0.851490       -23.1702
  12   2.0000      -0.741396       -20.1744
  13   2.0000      -0.697695       -18.9852
  14   2.0000      -0.656486       -17.8639
  15   2.0000      -0.609471       -16.5845
  16   2.0000      -0.604880       -16.4596
  17   2.0000      -0.558096       -15.1866
  18   2.0000      -0.471724       -12.8363
  19   2.0000      -0.462702       -12.5908
  20   2.0000      -0.430311       -11.7094
  21   2.0000      -0.410845       -11.1797
  22   0.0000       0.121815         3.3148
  23   0.0000       0.123512         3.3609
  24   0.0000       0.166045         4.5183
  25   0.0000       0.167823         4.5667
  26   0.0000       0.189588         5.1590

MULLIKEN ATOMIC CHARGES
-----------------------
   0 C :   -0.332070
   1 N :    0.080458
   2 C :   -0.021668
   3 N :   -0.180066
   4 N :   -0.097859
   5 N :   -0.133412
   6 H :    0.163585
   7 H :    0.163556
   8 H :    0.185687
   9 H :    0.171788
Sum of atomic charges:   -0.0000000

LOEWDIN ATOMIC CHARGES
----------------------
   0 C :   -0.265314
   1 N :    0.148789
   2 C :   -0.330505
   3 N :    0.005047
   4 N :   -0.059887
   5 N :   -0.036424
   6 H :    0.128967
   7 H :    0.128977
   8 H :    0.139188
   9 H :    0.141162

  Mayer bond orders larger than 0.1
B(  0-C ,  1-N ) :   0.8435 B(  0-C ,  6-H ) :   0.9266 B(  0-C ,  7-H ) :   0.9266
B(  0-C ,  8-H ) :   0.9237 B(  1-N ,  2-C ) :   1.2152 B(  1-N ,  5-N ) :   1.0175
B(  2-C ,  3-N ) :   1.5093 B(  2-C ,  9-H ) :   0.9188 B(  3-N ,  4-N ) :   1.0906
B(  4-N ,  5-N ) :   1.3198

MP2 TOTAL ENERGY:     -297.020629175 Eh
FINAL SINGLE POINT ENERGY      -297.020629174757

DIPOLE MOMENT
-------------
                                X             Y             Z
Electronic contribution:     -0.01766      -4.86942       0.88814
Nuclear contribution   :      0.06606       7.06940      -1.81424
                        -----------------------------------------
Total Dipole Moment    :      0.04839       2.19998      -0.92610
                        -----------------------------------------
Magnitude (a.u.)       :      2.38745
Magnitude (Debye)      :      6.06841

                             ****ORCA TERMINATED NORMALLY****
TOTAL RUN TIME: 0 days 0 hours 3 minutes 59 seconds 699 msec
