                         Program Version 3.0.3 - RELEASE   -
|  1> ! RI-MP2 RIJK def2-TZVP def2-TZVP/C def2-TZVP/JK TIGHTSCF
|  2> % maxcore 2000
|  3> % mp2 density relaxed end
|  4> *xyz 0 1
|  5>  N       -0.4455098921     0.8893168407     0.7924186352
|  6>  C       -0.1935970580    -0.1893175768     0.1884523691
|  7>  C       -1.0724190451    -0.8547717099    -0.8494809035
|  8>  C       -0.5437930676    -2.3015812021    -0.8952995949
|  9>  C        0.9309767468    -2.0805283606    -0.4998223989
| 10>  O        0.9315494740    -0.9456459370     0.3798261292
| 11>  C       -1.2628175530    -3.2096741107     0.0801893250
| 12>  C       -2.4210022550    -4.0238771500    -0.3578149598
| 13>  N       -1.1356554102    -4.6716689519    -0.0278153125
| 14>  H        0.3166714290     1.1293842340     1.4289544180
| 15>  H       -2.1272791988    -0.7707918807    -0.5861983987
| 16>  H       -0.9280385517    -0.3522938523    -1.8121659011
| 17>  H       -0.6141943950    -2.7320196450    -1.9000335311
| 18>  H        1.3673597568    -2.9243068108     0.0400659379
| 19>  H        1.5557033433    -1.8561873402    -1.3736308497
| 20>  H       -1.2496876986    -2.8587230289     1.1114667208
| 21>  H       -3.2329833509    -4.2395083616     0.3303280958
| 22>  H       -2.7188788947    -3.9628233461    -1.4020490764
| 23>  H       -0.6487102195    -4.9123268500    -0.8892424845
| 24> *
| 25>
| 26>                          ****END OF INPUT****

CARTESIAN COORDINATES (ANGSTROEM)
---------------------------------
  N     -0.445510    0.889317    0.792419
  C     -0.193597   -0.189318    0.188452
  C     -1.072419   -0.854772   -0.849481
  C     -0.543793   -2.301581   -0.895300
  C      0.930977   -2.080528   -0.499822
  O      0.931549   -0.945646    0.379826
  C     -1.262818   -3.209674    0.080189
  C     -2.421002   -4.023877   -0.357815
  N     -1.135655   -4.671669   -0.027815
  H      0.316671    1.129384    1.428954
  H     -2.127279   -0.770792   -0.586198
  H     -0.928039   -0.352294   -1.812166
  H     -0.614194   -2.732020   -1.900034
  H      1.367360   -2.924307    0.040066
  H      1.555703   -1.856187   -1.373631
  H     -1.249688   -2.858723    1.111467
  H     -3.232983   -4.239508    0.330328
  H     -2.718879   -3.962823   -1.402049
  H     -0.648710   -4.912327   -0.889242

 Total Charge           Charge          ....    0
 Multiplicity           Mult            ....    1
 Number of Electrons    NEL             ....   68
 Basis Dimension        Dim             ....  339

ORBITAL ENERGIES
----------------

  NO   OCC          E(Eh)            E(eV)
   0   2.0000     -20.595034      -560.4194
   1   2.0000     -15.567629      -423.6167
   2   2.0000     -15.529822      -422.5879
   3   2.0000     -11.336867      -308.4918
   4   2.0000     -11.299938      -307.4870
   5   2.0000     -11.271614      -306.7162
   6   2.0000     -11.264596      -306.5252
   7   2.0000     -11.260601      -306.4165
   8   2.0000     -11.249698      -306.1199
   9   2.0000      -1.431297       -38.9476
  10   2.0000      -1.271852       -34.6089
  11   2.0000      -1.194061       -32.4920
  12   2.0000      -1.095992       -29.8235
  13   2.0000      -0.976169       -26.5629
  14   2.0000      -0.914143       -24.8751
  15   2.0000      -0.875004       -23.8101
  16   2.0000      -0.808257       -21.9938
  17   2.0000      -0.772835       -21.0299
  18   2.0000      -0.712144       -19.3784
  19   2.0000      -0.701515       -19.0892
  20   2.0000      -0.662675       -18.0323
  21   2.0000      -0.649512       -17.6741
  22   2.0000      -0.641381       -17.4529
  23   2.0000      -0.600255       -16.3338
  24   2.0000      -0.554621       -15.0920
  25   2.0000      -0.544304       -14.8113
  26   2.0000      -0.532940       -14.5020
  27   2.0000      -0.521431       -14.1889
  28   2.0000      -0.500108       -13.6086
  29   2.0000      -0.478663       -13.0251
  30   2.0000      -0.466443       -12.6925
  31   2.0000      -0.434346       -11.8192
  32   2.0000      -0.403855       -10.9895
  33   2.0000      -0.390766       -10.6333
  34   0.0000       0.121330         3.3016
  35   0.0000       0.138292         3.7631
  36   0.0000       0.156973         4.2714
  37   0.0000       0.164832         4.4853
  38   0.0000       0.175378         4.7723

MULLIKEN ATOMIC CHARGES
-----------------------
   0 N :   -0.374321
   1 C :    0.075977
   2 C :   -0.164075
   3 C :   -0.075467
   4 C :   -0.044829
   5 O :   -0.260374
   6 C :   -0.119652
   7 C :   -0.182152
   8 N :   -0.357023
   9 H :    0.223877
  10 H :    0.147226
  11 H :    0.141888
  12 H :    0.115247
  13 H :    0.140713
  14 H :    0.113861
  15 H :    0.145950
  16 H :    0.130136
  17 H :    0.126677
  18 H :    0.216343
Sum of atomic charges:    0.0000000

LOEWDIN ATOMIC CHARGES
----------------------
   0 N :   -0.062829
   1 C :   -0.409215
   2 C :   -0.188804
   3 C :   -0.245328
   4 C :   -0.244369
   5 O :    0.231676
   6 C :   -0.262747
   7 C :   -0.262048
   8 N :   -0.018447
   9 H :    0.168550
  10 H :    0.156612
  11 H :    0.156235
  12 H :    0.155239
  13 H :    0.135107
  14 H :    0.126220
  15 H :    0.152466
  16 H :    0.126244
  17 H :    0.122028
  18 H :    0.163406

  Mayer bond orders larger than 0.1
B(  0-N ,  1-C ) :   2.0786 B(  0-N ,  9-H ) :   0.8556 B(  1-C ,  2-C ) :   0.9254
B(  1-C ,  5-O ) :   1.0736 B(  2-C ,  3-C ) :   0.8993 B(  2-C , 10-H ) :   0.9142
B(  2-C , 11-H ) :   0.9107 B(  3-C ,  4-C ) :   0.9094 B(  3-C ,  6-C ) :   0.9299
B(  3-C , 12-H ) :   0.9122 B(  4-C ,  5-O ) :   0.8835 B(  4-C , 13-H ) :   0.9272
B(  4-C , 14-H ) :   0.9237 B(  6-C ,  7-C ) :   0.9412 B(  6-C ,  8-N ) :   0.9212
B(  6-C , 15-H ) :   0.9025 B(  7-C ,  8-N ) :   0.9337 B(  7-C , 16-H ) :   0.9197
B(  7-C , 17-H ) :   0.9176 B(  8-N , 18-H ) :   0.8730

MP2 TOTAL ENERGY:     -418.492055513 Eh
FINAL SINGLE POINT ENERGY      -418.492055513304

DIPOLE MOMENT
-------------
                                X             Y             Z
Electronic contribution:      2.62693       3.25652       2.40054
Nuclear contribution   :     -2.51401      -3.88044      -3.51206
                        -----------------------------------------
Total Dipole Moment    :      0.11292      -0.62392      -1.11152
                        -----------------------------------------
Magnitude (a.u.)       :      1.27965
Magnitude (Debye)      :      3.25261

                             ****ORCA TERMINATED NORMALLY****
TOTAL RUN TIME: 0 days 0 hours 17 minutes 42 seconds 472 msec
