                         Program Version 3.0.3 - RELEASE   -
|  1> ! RI-MP2 RIJK def2-TZVP def2-TZVP/C def2-TZVP/JK TIGHTSCF
|  2> % maxcore 2000
|  3> % mp2 density relaxed end
|  4> *xyz 0 1
|  5>  N       -0.0045012922     1.3489716413     0.0822481785
|  6>  C        0.0319544271     0.0019286278    -0.1639236616
|  7>  O        1.0582456847    -0.5800914819    -0.4590274421
|  8>  C       -1.2869063286    -0.7192547470    -0.0736806238
|  9>  C       -2.5314862002    -0.0905156161    -0.1292830612
| 10>  C       -3.6812331862    -0.8718734342    -0.0443425134
| 11>  N       -3.6680444609    -2.1992119654     0.0932251129
| 12>  C       -2.4708569636    -2.7934873807     0.1358430007
| 13>  C       -1.2645558764    -2.1079926526     0.0504914111
| 14>  H        0.8902867008     1.8099900497     0.1399490239
| 15>  H       -0.7630718352     1.7557846191     0.6025015312
| 16>  H       -2.6225150836     0.9810655051    -0.2692005624
| 17>  H       -4.6617243939    -0.4040044102    -0.0927114318
| 18>  H       -2.4782681128    -3.8754270982     0.2428042514
| 19>  H       -0.3124979690    -2.6237214669     0.0754575266
| 20> *
| 21>
| 22>                          ****END OF INPUT****

CARTESIAN COORDINATES (ANGSTROEM)
---------------------------------
  N     -0.004501    1.348972    0.082248
  C      0.031954    0.001929   -0.163924
  O      1.058246   -0.580091   -0.459027
  C     -1.286906   -0.719255   -0.073681
  C     -2.531486   -0.090516   -0.129283
  C     -3.681233   -0.871873   -0.044343
  N     -3.668044   -2.199212    0.093225
  C     -2.470857   -2.793487    0.135843
  C     -1.264556   -2.107993    0.050491
  H      0.890287    1.809990    0.139949
  H     -0.763072    1.755785    0.602502
  H     -2.622515    0.981066   -0.269201
  H     -4.661724   -0.404004   -0.092711
  H     -2.478268   -3.875427    0.242804
  H     -0.312498   -2.623721    0.075458

 Total Charge           Charge          ....    0
 Multiplicity           Mult            ....    1
 Number of Electrons    NEL             ....   64
 Basis Dimension        Dim             ....  315

ORBITAL ENERGIES
----------------

  NO   OCC          E(Eh)            E(eV)
   0   2.0000     -20.534298      -558.7667
   1   2.0000     -15.596253      -424.3956
   2   2.0000     -15.579171      -423.9308
   3   2.0000     -11.370580      -309.4092
   4   2.0000     -11.285699      -307.0995
   5   2.0000     -11.282674      -307.0172
   6   2.0000     -11.276999      -306.8628
   7   2.0000     -11.260816      -306.4224
   8   2.0000     -11.251333      -306.1643
   9   2.0000      -1.398585       -38.0574
  10   2.0000      -1.271124       -34.5890
  11   2.0000      -1.225643       -33.3515
  12   2.0000      -1.110557       -30.2198
  13   2.0000      -1.045835       -28.4586
  14   2.0000      -0.913017       -24.8445
  15   2.0000      -0.871253       -23.7080
  16   2.0000      -0.809327       -22.0229
  17   2.0000      -0.759903       -20.6780
  18   2.0000      -0.708310       -19.2741
  19   2.0000      -0.679468       -18.4893
  20   2.0000      -0.664139       -18.0721
  21   2.0000      -0.644779       -17.5453
  22   2.0000      -0.611451       -16.6384
  23   2.0000      -0.602646       -16.3988
  24   2.0000      -0.589503       -16.0412
  25   2.0000      -0.546615       -14.8741
  26   2.0000      -0.529696       -14.4137
  27   2.0000      -0.453837       -12.3495
  28   2.0000      -0.435884       -11.8610
  29   2.0000      -0.426075       -11.5941
  30   2.0000      -0.395350       -10.7580
  31   2.0000      -0.358544        -9.7565
  32   0.0000       0.065301         1.7769
  33   0.0000       0.106121         2.8877
  34   0.0000       0.126068         3.4305
  35   0.0000       0.161862         4.4045
  36   0.0000       0.174190         4.7400

MULLIKEN ATOMIC CHARGES
-----------------------
   0 N :   -0.474908
   1 C :    0.254042
   2 O :   -0.339212
   3 C :    0.026437
   4 C :   -0.139241
   5 C :   -0.040042
   6 N :   -0.238655
   7 C :   -0.018948
   8 C :   -0.118323
   9 H :    0.263081
  10 H :    0.261137
  11 H :    0.128886
  12 H :    0.133313
  13 H :    0.136017
  14 H :    0.166415
Sum of atomic charges:   -0.0000000

LOEWDIN ATOMIC CHARGES
----------------------
   0 N :   -0.016320
   1 C :   -0.433211
   2 O :    0.101814
   3 C :   -0.114039
   4 C :   -0.121020
   5 C :   -0.206058
   6 N :    0.134620
   7 C :   -0.199037
   8 C :   -0.089798
   9 H :    0.177447
  10 H :    0.171365
  11 H :    0.149157
  12 H :    0.140889
  13 H :    0.141640
  14 H :    0.162551

  Mayer bond orders larger than 0.1
B(  0-N ,  1-C ) :   1.1873 B(  0-N ,  9-H ) :   0.8589 B(  0-N , 10-H ) :   0.8650
B(  1-C ,  2-O ) :   1.9731 B(  1-C ,  3-C ) :   0.8897 B(  3-C ,  4-C ) :   1.2906
B(  3-C ,  8-C ) :   1.3375 B(  4-C ,  5-C ) :   1.3289 B(  4-C , 11-H ) :   0.9143
B(  5-C ,  6-N ) :   1.3985 B(  5-C , 12-H ) :   0.9463 B(  6-N ,  7-C ) :   1.3740
B(  7-C ,  8-C ) :   1.3031 B(  7-C , 13-H ) :   0.9447 B(  8-C , 14-H ) :   0.9023

MP2 TOTAL ENERGY:     -416.183114324 Eh
FINAL SINGLE POINT ENERGY      -416.183114323606

DIPOLE MOMENT
-------------
                                X             Y             Z
Electronic contribution:      0.84792      -1.31618      -0.45661
Nuclear contribution   :     -1.04455       2.52736       0.96848
                        -----------------------------------------
Total Dipole Moment    :     -0.19664       1.21118       0.51187
                        -----------------------------------------
Magnitude (a.u.)       :      1.32953
Magnitude (Debye)      :      3.37939

                             ****ORCA TERMINATED NORMALLY****
TOTAL RUN TIME: 0 days 0 hours 14 minutes 38 seconds 233 msec
