                         Program Version 3.0.3 - RELEASE   -
|  1> ! RI-MP2 RIJK def2-TZVP def2-TZVP/C def2-TZVP/JK TIGHTSCF
|  2> % maxcore 2000
|  3> % mp2 density relaxed end
|  4> *xyz 0 1
|  5>  O       -0.0994421349     1.2895003828    -0.7880675235
|  6>  C        0.0059051925     0.1491591039     0.0482876884
|  7>  C       -1.3011092078    -0.6084405511     0.1317767837
|  8>  C       -1.6466693155    -1.6587576785    -0.9015531576
|  9>  C       -1.4069481527    -2.0627463593     0.5332499532
| 10>  C       -0.2101848823    -2.8946011799     0.9188569828
| 11>  O       -0.5287164873    -4.2939425828     0.8289061752
| 12>  C       -0.1153549476    -4.9645500667    -0.2614256576
| 13>  O       -0.3879601416    -6.1094337538    -0.4611354801
| 14>  H       -0.4221668745     0.9890222215    -1.6445069610
| 15>  H        0.8189361341    -0.5138301561    -0.2877837730
| 16>  H        0.2906390676     0.5352733123     1.0331359885
| 17>  H       -2.1237137161     0.0193314044     0.4636110849
| 18>  H       -2.6556712893    -1.7061237351    -1.2945225522
| 19>  H       -0.8763858537    -1.9159053821    -1.6245726725
| 20>  H       -2.2912160708    -2.3201400087     1.1092381106
| 21>  H        0.6601247155    -2.6730879158     0.2902401869
| 22>  H        0.0743429053    -2.7272664251     1.9614697039
| 23>  H        0.5107864691    -4.3450316098    -0.9347121506
| 24> *
| 25>
| 26>                          ****END OF INPUT****

CARTESIAN COORDINATES (ANGSTROEM)
---------------------------------
  O     -0.099442    1.289500   -0.788068
  C      0.005905    0.149159    0.048288
  C     -1.301109   -0.608441    0.131777
  C     -1.646669   -1.658758   -0.901553
  C     -1.406948   -2.062746    0.533250
  C     -0.210185   -2.894601    0.918857
  O     -0.528716   -4.293943    0.828906
  C     -0.115355   -4.964550   -0.261426
  O     -0.387960   -6.109434   -0.461135
  H     -0.422167    0.989022   -1.644507
  H      0.818936   -0.513830   -0.287784
  H      0.290639    0.535273    1.033136
  H     -2.123714    0.019331    0.463611
  H     -2.655671   -1.706124   -1.294523
  H     -0.876386   -1.915905   -1.624573
  H     -2.291216   -2.320140    1.109238
  H      0.660125   -2.673088    0.290240
  H      0.074343   -2.727266    1.961470
  H      0.510786   -4.345032   -0.934712

 Total Charge           Charge          ....    0
 Multiplicity           Mult            ....    1
 Number of Electrons    NEL             ....   70
 Basis Dimension        Dim             ....  339

ORBITAL ENERGIES
----------------

  NO   OCC          E(Eh)            E(eV)
   0   2.0000     -20.611245      -560.8605
   1   2.0000     -20.567133      -559.6602
   2   2.0000     -20.551855      -559.2444
   3   2.0000     -11.385605      -309.8181
   4   2.0000     -11.316000      -307.9240
   5   2.0000     -11.294346      -307.3348
   6   2.0000     -11.258757      -306.3664
   7   2.0000     -11.255151      -306.2682
   8   2.0000     -11.250334      -306.1372
   9   2.0000      -1.464526       -39.8518
  10   2.0000      -1.375225       -37.4218
  11   2.0000      -1.372519       -37.3481
  12   2.0000      -1.175666       -31.9915
  13   2.0000      -1.005433       -27.3592
  14   2.0000      -0.958347       -26.0780
  15   2.0000      -0.854076       -23.2406
  16   2.0000      -0.834087       -22.6967
  17   2.0000      -0.801519       -21.8104
  18   2.0000      -0.739805       -20.1311
  19   2.0000      -0.708622       -19.2826
  20   2.0000      -0.688461       -18.7340
  21   2.0000      -0.678526       -18.4636
  22   2.0000      -0.659648       -17.9499
  23   2.0000      -0.622863       -16.9490
  24   2.0000      -0.618279       -16.8242
  25   2.0000      -0.597350       -16.2547
  26   2.0000      -0.562596       -15.3090
  27   2.0000      -0.548504       -14.9255
  28   2.0000      -0.535592       -14.5742
  29   2.0000      -0.518785       -14.1168
  30   2.0000      -0.478565       -13.0224
  31   2.0000      -0.461306       -12.5528
  32   2.0000      -0.458369       -12.4729
  33   2.0000      -0.434337       -11.8189
  34   2.0000      -0.430732       -11.7208
  35   0.0000       0.119941         3.2638
  36   0.0000       0.135026         3.6743
  37   0.0000       0.137519         3.7421
  38   0.0000       0.150001         4.0817
  39   0.0000       0.166156         4.5213

MULLIKEN ATOMIC CHARGES
-----------------------
   0 O :   -0.464336
   1 C :   -0.012187
   2 C :   -0.152541
   3 C :   -0.307983
   4 C :   -0.087771
   5 C :   -0.132670
   6 O :   -0.204788
   7 C :    0.212801
   8 O :   -0.270774
   9 H :    0.316998
  10 H :    0.088299
  11 H :    0.122117
  12 H :    0.132517
  13 H :    0.148993
  14 H :    0.131802
  15 H :    0.138517
  16 H :    0.130117
  17 H :    0.145276
  18 H :    0.065611
Sum of atomic charges:    0.0000000

LOEWDIN ATOMIC CHARGES
----------------------
   0 O :   -0.043377
   1 C :   -0.331103
   2 C :   -0.217039
   3 C :   -0.209644
   4 C :   -0.211398
   5 C :   -0.273644
   6 O :    0.247037
   7 C :   -0.455106
   8 O :    0.120297
   9 H :    0.175495
  10 H :    0.116797
  11 H :    0.133844
  12 H :    0.154731
  13 H :    0.135912
  14 H :    0.135256
  15 H :    0.157514
  16 H :    0.126727
  17 H :    0.138525
  18 H :    0.099178

  Mayer bond orders larger than 0.1
B(  0-O ,  1-C ) :   0.9241 B(  0-O ,  9-H ) :   0.8436 B(  1-C ,  2-C ) :   0.9410
B(  1-C , 10-H ) :   0.9248 B(  1-C , 11-H ) :   0.9277 B(  2-C ,  3-C ) :   0.8755
B(  2-C ,  4-C ) :   0.8213 B(  2-C , 12-H ) :   0.9271 B(  3-C ,  4-C ) :   0.8694
B(  3-C , 13-H ) :   0.9234 B(  3-C , 14-H ) :   0.9307 B(  4-C ,  5-C ) :   0.9271
B(  4-C , 15-H ) :   0.9214 B(  5-C ,  6-O ) :   0.8391 B(  5-C , 16-H ) :   0.9545
B(  5-C , 17-H ) :   0.9299 B(  6-O ,  7-C ) :   1.0775 B(  7-C ,  8-O ) :   2.0180
B(  7-C , 18-H ) :   0.9114

MP2 TOTAL ENERGY:     -459.424608300 Eh
FINAL SINGLE POINT ENERGY      -459.424608300289

DIPOLE MOMENT
-------------
                                X             Y             Z
Electronic contribution:      0.08297      -7.17093       0.61528
Nuclear contribution   :      0.02548       8.21896      -0.73058
                        -----------------------------------------
Total Dipole Moment    :      0.10845       1.04803      -0.11530
                        -----------------------------------------
Magnitude (a.u.)       :      1.05992
Magnitude (Debye)      :      2.69410

                             ****ORCA TERMINATED NORMALLY****
TOTAL RUN TIME: 0 days 0 hours 23 minutes 57 seconds 654 msec
