                         Program Version 3.0.3 - RELEASE   -
|  1> ! RI-MP2 RIJK def2-TZVP def2-TZVP/C def2-TZVP/JK TIGHTSCF
|  2> % maxcore 2000
|  3> % mp2 density relaxed end
|  4> *xyz 0 1
|  5>  C       -0.3899085144     1.5283958724    -0.1439088246
|  6>  C       -0.0032125049     0.0592438671    -0.0246082216
|  7>  C        0.9564900044    -0.6121452803    -1.0404977870
|  8>  C        2.3463284022     0.0653566476    -1.1565744945
|  9>  C        2.7981799388    -0.5952454745     0.1714198144
| 10>  C        2.2362695987     0.0797924529     1.4490751775
| 11>  C        2.4799802953     1.5547283232     1.7446125107
| 12>  C        0.8304194802    -0.5247406322     1.1553057085
| 13>  C        1.5163300355    -1.5029641148     0.1266015956
| 14>  H        0.4754965969     2.1813199563    -0.2781953975
| 15>  H       -1.0512615495     1.6814059630    -1.0046972033
| 16>  H       -0.9269677327     1.8696056584     0.7484072619
| 17>  H       -0.9259875560    -0.5364238043    -0.0394938474
| 18>  H        0.5161511535    -0.9994738063    -1.9611242253
| 19>  H        2.9046776567    -0.3535102151    -1.9992280191
| 20>  H        2.3882598634     1.1571740039    -1.2355205716
| 21>  H        3.8227788203    -0.9691318391     0.2147893426
| 22>  H        2.6225882725    -0.5038634044     2.2956325285
| 23>  H        2.2525769952     2.1976305037     0.8912470124
| 24>  H        1.8686277448     1.8952444116     2.5880469666
| 25>  H        3.5301427323     1.7234476169     2.0100355679
| 26>  H        0.2585397466    -0.8452308970     2.0288294495
| 27>  H        1.4954642302    -2.5892978592     0.1734608261
| 28> *
| 29>
| 30>                          ****END OF INPUT****

CARTESIAN COORDINATES (ANGSTROEM)
---------------------------------
  C     -0.389909    1.528396   -0.143909
  C     -0.003213    0.059244   -0.024608
  C      0.956490   -0.612145   -1.040498
  C      2.346328    0.065357   -1.156574
  C      2.798180   -0.595245    0.171420
  C      2.236270    0.079792    1.449075
  C      2.479980    1.554728    1.744613
  C      0.830419   -0.524741    1.155306
  C      1.516330   -1.502964    0.126602
  H      0.475497    2.181320   -0.278195
  H     -1.051262    1.681406   -1.004697
  H     -0.926968    1.869606    0.748407
  H     -0.925988   -0.536424   -0.039494
  H      0.516151   -0.999474   -1.961124
  H      2.904678   -0.353510   -1.999228
  H      2.388260    1.157174   -1.235521
  H      3.822779   -0.969132    0.214789
  H      2.622588   -0.503863    2.295633
  H      2.252577    2.197631    0.891247
  H      1.868628    1.895244    2.588047
  H      3.530143    1.723448    2.010036
  H      0.258540   -0.845231    2.028829
  H      1.495464   -2.589298    0.173461

 Total Charge           Charge          ....    0
 Multiplicity           Mult            ....    1
 Number of Electrons    NEL             ....   68
 Basis Dimension        Dim             ....  363

ORBITAL ENERGIES
----------------

  NO   OCC          E(Eh)            E(eV)
   0   2.0000     -11.221454      -305.3513
   1   2.0000     -11.221416      -305.3503
   2   2.0000     -11.220284      -305.3195
   3   2.0000     -11.218365      -305.2672
   4   2.0000     -11.218242      -305.2639
   5   2.0000     -11.218167      -305.2618
   6   2.0000     -11.213183      -305.1262
   7   2.0000     -11.206787      -304.9522
   8   2.0000     -11.206785      -304.9521
   9   2.0000      -1.190570       -32.3970
  10   2.0000      -1.032831       -28.1048
  11   2.0000      -1.010732       -27.5034
  12   2.0000      -0.955166       -25.9914
  13   2.0000      -0.909058       -24.7367
  14   2.0000      -0.831889       -22.6368
  15   2.0000      -0.780942       -21.2505
  16   2.0000      -0.766795       -20.8655
  17   2.0000      -0.695930       -18.9372
  18   2.0000      -0.654938       -17.8218
  19   2.0000      -0.612324       -16.6622
  20   2.0000      -0.584898       -15.9159
  21   2.0000      -0.583348       -15.8737
  22   2.0000      -0.575874       -15.6703
  23   2.0000      -0.555407       -15.1134
  24   2.0000      -0.550962       -14.9924
  25   2.0000      -0.533259       -14.5107
  26   2.0000      -0.509585       -13.8665
  27   2.0000      -0.491281       -13.3684
  28   2.0000      -0.448365       -12.2006
  29   2.0000      -0.426496       -11.6055
  30   2.0000      -0.424910       -11.5624
  31   2.0000      -0.416126       -11.3234
  32   2.0000      -0.381681       -10.3861
  33   2.0000      -0.377492       -10.2721
  34   0.0000       0.133713         3.6385
  35   0.0000       0.155816         4.2400
  36   0.0000       0.158002         4.2995
  37   0.0000       0.168556         4.5866
  38   0.0000       0.192896         5.2490

MULLIKEN ATOMIC CHARGES
-----------------------
   0 C :   -0.385136
   1 C :   -0.177401
   2 C :    0.070747
   3 C :   -0.375614
   4 C :    0.070747
   5 C :   -0.177401
   6 C :   -0.385134
   7 C :    0.072989
   8 C :   -0.337279
   9 H :    0.111569
  10 H :    0.130963
  11 H :    0.130427
  12 H :    0.087154
  13 H :    0.113609
  14 H :    0.116176
  15 H :    0.120366
  16 H :    0.113609
  17 H :    0.087153
  18 H :    0.111568
  19 H :    0.130427
  20 H :    0.130963
  21 H :    0.114531
  22 H :    0.124968
Sum of atomic charges:    0.0000000

LOEWDIN ATOMIC CHARGES
----------------------
   0 C :   -0.298483
   1 C :   -0.225058
   2 C :   -0.164804
   3 C :   -0.201508
   4 C :   -0.164804
   5 C :   -0.225058
   6 C :   -0.298483
   7 C :   -0.142733
   8 C :   -0.106896
   9 H :    0.117072
  10 H :    0.124520
  11 H :    0.125543
  12 H :    0.159451
  13 H :    0.128920
  14 H :    0.138374
  15 H :    0.122655
  16 H :    0.128920
  17 H :    0.159451
  18 H :    0.117073
  19 H :    0.125542
  20 H :    0.124520
  21 H :    0.129998
  22 H :    0.125789

  Mayer bond orders larger than 0.1
B(  0-C ,  1-C ) :   0.9057 B(  0-C ,  9-H ) :   0.9346 B(  0-C , 10-H ) :   0.9377
B(  0-C , 11-H ) :   0.9400 B(  1-C ,  2-C ) :   0.8958 B(  1-C ,  3-C ) :   0.1012
B(  1-C ,  5-C ) :   0.1023 B(  1-C ,  7-C ) :   0.8731 B(  1-C , 12-H ) :   0.9193
B(  2-C ,  3-C ) :   0.8466 B(  2-C ,  8-C ) :   0.8707 B(  2-C , 13-H ) :   0.9162
B(  3-C ,  4-C ) :   0.8466 B(  3-C ,  5-C ) :   0.1012 B(  3-C , 14-H ) :   0.9128
B(  3-C , 15-H ) :   0.9370 B(  4-C ,  5-C ) :   0.8958 B(  4-C ,  8-C ) :   0.8707
B(  4-C , 16-H ) :   0.9162 B(  5-C ,  6-C ) :   0.9057 B(  5-C ,  7-C ) :   0.8731
B(  5-C , 17-H ) :   0.9193 B(  6-C , 18-H ) :   0.9346 B(  6-C , 19-H ) :   0.9400
B(  6-C , 20-H ) :   0.9377 B(  7-C ,  8-C ) :   0.8743 B(  7-C , 21-H ) :   0.9173
B(  8-C , 22-H ) :   0.8954

MP2 TOTAL ENERGY:     -350.470120996 Eh
FINAL SINGLE POINT ENERGY      -350.470120996119

DIPOLE MOMENT
-------------
                                X             Y             Z
Electronic contribution:      0.50859      -4.89815      -0.70458
Nuclear contribution   :     -0.52672       4.83579       0.73300
                        -----------------------------------------
Total Dipole Moment    :     -0.01813      -0.06236       0.02842
                        -----------------------------------------
Magnitude (a.u.)       :      0.07089
Magnitude (Debye)      :      0.18019

                             ****ORCA TERMINATED NORMALLY****
TOTAL RUN TIME: 0 days 0 hours 23 minutes 31 seconds 10 msec
