                         Program Version 3.0.3 - RELEASE   -
|  1> ! RI-MP2 RIJK def2-TZVP def2-TZVP/C def2-TZVP/JK TIGHTSCF
|  2> % maxcore 2000
|  3> % mp2 density relaxed end
|  4> *xyz 0 1
|  5>  C       -0.3217548947     1.4797579236    -0.0242359214
|  6>  C        0.0477362291    -0.0014996887     0.0083368387
|  7>  C        0.8556791947    -0.4993529528    -1.2010400293
|  8>  C        1.3595521194    -1.8800463028    -0.7521432122
|  9>  C        1.6076150365    -1.7726291079     0.7916545695
| 10>  C        0.9377453253    -2.9421202500     1.5303654845
| 11>  C        3.1112769890    -1.7643536904     1.1087350948
| 12>  C        0.9499725961    -0.4121127204     1.1868524292
| 13>  H        0.5771081594     2.1052671304    -0.0822917589
| 14>  H       -0.9484595035     1.7165624186    -0.8909873501
| 15>  H       -0.8738561047     1.7753291007     0.8745473686
| 16>  H       -0.8797215813    -0.5910634309     0.0584142893
| 17>  H        0.2737115827    -0.5337370184    -2.1276900617
| 18>  H        1.7002691918     0.1814234621    -1.3755444948
| 19>  H        0.5888138342    -2.6335950387    -0.9518167723
| 20>  H        2.2577615385    -2.2005020476    -1.2891415950
| 21>  H        1.3189479674    -3.9053721800     1.1721113918
| 22>  H        1.1247672742    -2.8899801264     2.6091014374
| 23>  H       -0.1474327934    -2.9385479545     1.3787058182
| 24>  H        3.6305481768    -0.9809519360     0.5454116651
| 25>  H        3.2903635905    -1.5806864645     2.1745316600
| 26>  H        3.5756691337    -2.7237157868     0.8531415047
| 27>  H        1.7267304230     0.3526462595     1.3191364813
| 28>  H        0.4060288753    -0.4748254678     2.1352943326
| 29> *
| 30>
| 31>                          ****END OF INPUT****

CARTESIAN COORDINATES (ANGSTROEM)
---------------------------------
  C     -0.321755    1.479758   -0.024236
  C      0.047736   -0.001500    0.008337
  C      0.855679   -0.499353   -1.201040
  C      1.359552   -1.880046   -0.752143
  C      1.607615   -1.772629    0.791655
  C      0.937745   -2.942120    1.530365
  C      3.111277   -1.764354    1.108735
  C      0.949973   -0.412113    1.186852
  H      0.577108    2.105267   -0.082292
  H     -0.948460    1.716562   -0.890987
  H     -0.873856    1.775329    0.874547
  H     -0.879722   -0.591063    0.058414
  H      0.273712   -0.533737   -2.127690
  H      1.700269    0.181423   -1.375544
  H      0.588814   -2.633595   -0.951817
  H      2.257762   -2.200502   -1.289142
  H      1.318948   -3.905372    1.172111
  H      1.124767   -2.889980    2.609101
  H     -0.147433   -2.938548    1.378706
  H      3.630548   -0.980952    0.545412
  H      3.290364   -1.580686    2.174532
  H      3.575669   -2.723716    0.853142
  H      1.726730    0.352646    1.319136
  H      0.406029   -0.474825    2.135294

 Total Charge           Charge          ....    0
 Multiplicity           Mult            ....    1
 Number of Electrons    NEL             ....   64
 Basis Dimension        Dim             ....  344

ORBITAL ENERGIES
----------------

  NO   OCC          E(Eh)            E(eV)
   0   2.0000     -11.227561      -305.5175
   1   2.0000     -11.217980      -305.2567
   2   2.0000     -11.210350      -305.0491
   3   2.0000     -11.209286      -305.0202
   4   2.0000     -11.208603      -305.0016
   5   2.0000     -11.207842      -304.9809
   6   2.0000     -11.207223      -304.9640
   7   2.0000     -11.207198      -304.9634
   8   2.0000      -1.131493       -30.7895
   9   2.0000      -1.040363       -28.3097
  10   2.0000      -0.974634       -26.5211
  11   2.0000      -0.925275       -25.1780
  12   2.0000      -0.917998       -24.9800
  13   2.0000      -0.851192       -23.1621
  14   2.0000      -0.760543       -20.6954
  15   2.0000      -0.722888       -19.6708
  16   2.0000      -0.647644       -17.6233
  17   2.0000      -0.617251       -16.7962
  18   2.0000      -0.588388       -16.0108
  19   2.0000      -0.578938       -15.7537
  20   2.0000      -0.572766       -15.5858
  21   2.0000      -0.560098       -15.2410
  22   2.0000      -0.548805       -14.9337
  23   2.0000      -0.530901       -14.4465
  24   2.0000      -0.509724       -13.8703
  25   2.0000      -0.495259       -13.4767
  26   2.0000      -0.467157       -12.7120
  27   2.0000      -0.456658       -12.4263
  28   2.0000      -0.443410       -12.0658
  29   2.0000      -0.441522       -12.0144
  30   2.0000      -0.434198       -11.8151
  31   2.0000      -0.428171       -11.6511
  32   0.0000       0.129327         3.5192
  33   0.0000       0.152282         4.1438
  34   0.0000       0.157931         4.2975
  35   0.0000       0.174119         4.7380
  36   0.0000       0.197143         5.3645

MULLIKEN ATOMIC CHARGES
-----------------------
   0 C :   -0.395807
   1 C :   -0.032364
   2 C :   -0.237302
   3 C :   -0.262546
   4 C :    0.202789
   5 C :   -0.449630
   6 C :   -0.442022
   7 C :   -0.307259
   8 H :    0.119041
   9 H :    0.130059
  10 H :    0.130308
  11 H :    0.082544
  12 H :    0.118474
  13 H :    0.101179
  14 H :    0.113365
  15 H :    0.120715
  16 H :    0.130576
  17 H :    0.127494
  18 H :    0.130013
  19 H :    0.129567
  20 H :    0.128942
  21 H :    0.128729
  22 H :    0.112291
  23 H :    0.120841
Sum of atomic charges:   -0.0000000

LOEWDIN ATOMIC CHARGES
----------------------
   0 C :   -0.298467
   1 C :   -0.276935
   2 C :   -0.237812
   3 C :   -0.211944
   4 C :   -0.301468
   5 C :   -0.280049
   6 C :   -0.280092
   7 C :   -0.193695
   8 H :    0.122114
   9 H :    0.122661
  10 H :    0.123012
  11 H :    0.150725
  12 H :    0.132239
  13 H :    0.137462
  14 H :    0.138994
  15 H :    0.134716
  16 H :    0.123813
  17 H :    0.122905
  18 H :    0.123294
  19 H :    0.123474
  20 H :    0.123867
  21 H :    0.122977
  22 H :    0.141731
  23 H :    0.136478

  Mayer bond orders larger than 0.1
B(  0-C ,  1-C ) :   0.9049 B(  0-C ,  8-H ) :   0.9334 B(  0-C ,  9-H ) :   0.9424
B(  0-C , 10-H ) :   0.9413 B(  1-C ,  2-C ) :   0.9328 B(  1-C ,  7-C ) :   0.9322
B(  1-C , 11-H ) :   0.9259 B(  2-C ,  3-C ) :   0.9486 B(  2-C , 12-H ) :   0.9274
B(  2-C , 13-H ) :   0.9224 B(  3-C ,  4-C ) :   0.8790 B(  3-C , 14-H ) :   0.9312
B(  3-C , 15-H ) :   0.9287 B(  4-C ,  5-C ) :   0.8945 B(  4-C ,  6-C ) :   0.8942
B(  4-C ,  7-C ) :   0.8905 B(  5-C , 16-H ) :   0.9410 B(  5-C , 17-H ) :   0.9395
B(  5-C , 18-H ) :   0.9355 B(  6-C , 19-H ) :   0.9361 B(  6-C , 20-H ) :   0.9406
B(  6-C , 21-H ) :   0.9391 B(  7-C , 22-H ) :   0.9293 B(  7-C , 23-H ) :   0.9232

MP2 TOTAL ENERGY:     -313.728969440 Eh
FINAL SINGLE POINT ENERGY      -313.728969439977

DIPOLE MOMENT
-------------
                                X             Y             Z
Electronic contribution:     -0.46563      -0.21276      -0.90330
Nuclear contribution   :      0.42224       0.21125       0.88839
                        -----------------------------------------
Total Dipole Moment    :     -0.04340      -0.00151      -0.01491
                        -----------------------------------------
Magnitude (a.u.)       :      0.04591
Magnitude (Debye)      :      0.11670

                             ****ORCA TERMINATED NORMALLY****
TOTAL RUN TIME: 0 days 0 hours 16 minutes 16 seconds 780 msec
