                         Program Version 3.0.3 - RELEASE   -
|  1> ! RI-MP2 RIJK def2-TZVP def2-TZVP/C def2-TZVP/JK TIGHTSCF
|  2> % maxcore 2000
|  3> % mp2 density relaxed end
|  4> *xyz 0 1
|  5>  C        0.2322707730     1.6858004693     0.5211008430
|  6>  C        0.0870106649     0.1886078521     0.3714470229
|  7>  C        1.2257380386    -0.6193972918    -0.2299911391
|  8>  C        0.8756640478    -0.7855003860     1.2143391482
|  9>  O        1.8225209953    -0.3545332299     2.1614916564
| 10>  C        1.4340358762    -0.5813889402     3.4922423833
| 11>  C        2.3717727243    -0.0625649969     4.5487883886
| 12>  C        1.0339816754     0.6135274384     4.3195973817
| 13>  O        0.9872333539     1.8695281439     3.7185933503
| 14>  H        1.2800439574     1.9663887257     0.6725211096
| 15>  H       -0.1071099743     2.1987651059    -0.3848058733
| 16>  H       -0.3488811397     2.0678780539     1.3659729726
| 17>  H       -0.9183229308    -0.1413212477     0.1206067498
| 18>  H        1.0185021640    -1.4320160428    -0.9174508970
| 19>  H        2.1403674018    -0.0738467618    -0.4394103604
| 20>  H        0.3767705577    -1.7077754474     1.5079953830
| 21>  H        0.9416240109    -1.5395080822     3.6510662630
| 22>  H        2.5340416810    -0.6604287669     5.4390857716
| 23>  H        3.2432553263     0.4764545977     4.1915216020
| 24>  H        0.2552791075     0.5040330980     5.0680160148
| 25>  H        1.3731746085     1.7703490388     2.8392538189
| 26> *
| 27>
| 28>                          ****END OF INPUT****

CARTESIAN COORDINATES (ANGSTROEM)
---------------------------------
  C      0.232271    1.685800    0.521101
  C      0.087011    0.188608    0.371447
  C      1.225738   -0.619397   -0.229991
  C      0.875664   -0.785500    1.214339
  O      1.822521   -0.354533    2.161492
  C      1.434036   -0.581389    3.492242
  C      2.371773   -0.062565    4.548788
  C      1.033982    0.613527    4.319597
  O      0.987233    1.869528    3.718593
  H      1.280044    1.966389    0.672521
  H     -0.107110    2.198765   -0.384806
  H     -0.348881    2.067878    1.365973
  H     -0.918323   -0.141321    0.120607
  H      1.018502   -1.432016   -0.917451
  H      2.140367   -0.073847   -0.439410
  H      0.376771   -1.707775    1.507995
  H      0.941624   -1.539508    3.651066
  H      2.534042   -0.660429    5.439086
  H      3.243255    0.476455    4.191522
  H      0.255279    0.504033    5.068016
  H      1.373175    1.770349    2.839254

 Total Charge           Charge          ....    0
 Multiplicity           Mult            ....    1
 Number of Electrons    NEL             ....   70
 Basis Dimension        Dim             ....  351

ORBITAL ENERGIES
----------------

  NO   OCC          E(Eh)            E(eV)
   0   2.0000     -20.575575      -559.8899
   1   2.0000     -20.555535      -559.3445
   2   2.0000     -11.287329      -307.1438
   3   2.0000     -11.287075      -307.1369
   4   2.0000     -11.282407      -307.0099
   5   2.0000     -11.236180      -305.7520
   6   2.0000     -11.225354      -305.4574
   7   2.0000     -11.223301      -305.4016
   8   2.0000     -11.220625      -305.3287
   9   2.0000      -1.401483       -38.1363
  10   2.0000      -1.362620       -37.0788
  11   2.0000      -1.151439       -31.3322
  12   2.0000      -1.107419       -30.1344
  13   2.0000      -0.969101       -26.3706
  14   2.0000      -0.841818       -22.9070
  15   2.0000      -0.831164       -22.6171
  16   2.0000      -0.815131       -22.1808
  17   2.0000      -0.781606       -21.2686
  18   2.0000      -0.723051       -19.6752
  19   2.0000      -0.691970       -18.8295
  20   2.0000      -0.660058       -17.9611
  21   2.0000      -0.628473       -17.1016
  22   2.0000      -0.617994       -16.8165
  23   2.0000      -0.576277       -15.6813
  24   2.0000      -0.568391       -15.4667
  25   2.0000      -0.562248       -15.2995
  26   2.0000      -0.549014       -14.9394
  27   2.0000      -0.543258       -14.7828
  28   2.0000      -0.536468       -14.5980
  29   2.0000      -0.511238       -13.9115
  30   2.0000      -0.499496       -13.5920
  31   2.0000      -0.424928       -11.5629
  32   2.0000      -0.419676       -11.4200
  33   2.0000      -0.391782       -10.6609
  34   2.0000      -0.367308        -9.9950
  35   0.0000       0.144883         3.9425
  36   0.0000       0.154082         4.1928
  37   0.0000       0.164699         4.4817
  38   0.0000       0.177774         4.8375
  39   0.0000       0.188366         5.1257

MULLIKEN ATOMIC CHARGES
-----------------------
   0 C :   -0.483934
   1 C :   -0.042343
   2 C :   -0.275914
   3 C :    0.033356
   4 O :   -0.310118
   5 C :    0.003955
   6 C :   -0.264160
   7 C :    0.052450
   8 O :   -0.452406
   9 H :    0.131551
  10 H :    0.140620
  11 H :    0.166217
  12 H :    0.116185
  13 H :    0.134186
  14 H :    0.135537
  15 H :    0.098141
  16 H :    0.104774
  17 H :    0.129374
  18 H :    0.141969
  19 H :    0.117491
  20 H :    0.323068
Sum of atomic charges:    0.0000000

LOEWDIN ATOMIC CHARGES
----------------------
   0 C :   -0.303820
   1 C :   -0.236830
   2 C :   -0.208932
   3 C :   -0.287083
   4 O :    0.212277
   5 C :   -0.299930
   6 C :   -0.217448
   7 C :   -0.320023
   8 O :    0.005968
   9 H :    0.124367
  10 H :    0.127908
  11 H :    0.128790
  12 H :    0.146713
  13 H :    0.131483
  14 H :    0.141249
  15 H :    0.135640
  16 H :    0.132829
  17 H :    0.133098
  18 H :    0.142732
  19 H :    0.135774
  20 H :    0.175237

  Mayer bond orders larger than 0.1
B(  0-C ,  1-C ) :   0.8929 B(  0-C ,  9-H ) :   0.9393 B(  0-C , 10-H ) :   0.9320
B(  0-C , 11-H ) :   0.9357 B(  1-C ,  2-C ) :   0.8879 B(  1-C ,  3-C ) :   0.8777
B(  1-C , 12-H ) :   0.9214 B(  2-C ,  3-C ) :   0.8859 B(  2-C , 13-H ) :   0.9214
B(  2-C , 14-H ) :   0.9223 B(  3-C ,  4-O ) :   0.9348 B(  3-C , 15-H ) :   0.9268
B(  4-O ,  5-C ) :   0.9342 B(  5-C ,  6-C ) :   0.8845 B(  5-C ,  7-C ) :   0.8979
B(  5-C , 16-H ) :   0.9180 B(  6-C ,  7-C ) :   0.8752 B(  6-C , 17-H ) :   0.9136
B(  6-C , 18-H ) :   0.9190 B(  7-C ,  8-O ) :   0.9873 B(  7-C , 19-H ) :   0.9358
B(  8-O , 20-H ) :   0.8227

MP2 TOTAL ENERGY:     -423.462126368 Eh
FINAL SINGLE POINT ENERGY      -423.462126367517

DIPOLE MOMENT
-------------
                                X             Y             Z
Electronic contribution:      1.32964      -1.02030       3.33411
Nuclear contribution   :     -1.58393       0.33592      -3.62472
                        -----------------------------------------
Total Dipole Moment    :     -0.25428      -0.68438      -0.29061
                        -----------------------------------------
Magnitude (a.u.)       :      0.78580
Magnitude (Debye)      :      1.99735

                             ****ORCA TERMINATED NORMALLY****
TOTAL RUN TIME: 0 days 0 hours 16 minutes 30 seconds 321 msec
