                         Program Version 3.0.3 - RELEASE   -
|  1> ! RI-MP2 RIJK def2-TZVP def2-TZVP/C def2-TZVP/JK TIGHTSCF
|  2> % maxcore 2000
|  3> % mp2 density relaxed end
|  4> *xyz 0 1
|  5>  O       -0.4401799209     0.2404601435     0.2908133599
|  6>  C        0.0068820699     1.3571275241     0.2269024302
|  7>  C        1.4065854695     1.7068126149    -0.2369019970
|  8>  C        1.3872207348     2.7543590948    -1.3322539375
|  9>  C        0.8614805738     2.3754046561    -2.7142925070
| 10>  C        1.3264891197     3.5165099269    -3.6488608125
| 11>  C        2.6095933286     4.0820556643    -2.9916623437
| 12>  C        2.4373685071     3.7976863267    -1.5092398205
| 13>  N        1.1513858214     4.1389684692    -0.8792626999
| 14>  H       -0.6042709388     2.2417723591     0.5156836532
| 15>  H        1.9412805335     2.1197144905     0.6280141357
| 16>  H        1.9108062965     0.7909572246    -0.5603351180
| 17>  H        1.3124240287     1.4202507631    -3.0101746856
| 18>  H       -0.2247628171     2.2309133324    -2.7347538663
| 19>  H        1.4997464417     3.1713950743    -4.6706618737
| 20>  H        0.5577322144     4.2930084361    -3.7160761375
| 21>  H        3.4999421932     3.5526239743    -3.3520709060
| 22>  H        2.7589693821     5.1450578095    -3.2101799640
| 23>  H        3.2997812916     3.8682883075    -0.8519283509
| 24>  H        0.5470497402     4.6483214881    -1.5194738587
| 25> *
| 26>
| 27>                          ****END OF INPUT****

CARTESIAN COORDINATES (ANGSTROEM)
---------------------------------
  O     -0.440180    0.240460    0.290813
  C      0.006882    1.357128    0.226902
  C      1.406585    1.706813   -0.236902
  C      1.387221    2.754359   -1.332254
  C      0.861481    2.375405   -2.714293
  C      1.326489    3.516510   -3.648861
  C      2.609593    4.082056   -2.991662
  C      2.437369    3.797686   -1.509240
  N      1.151386    4.138968   -0.879263
  H     -0.604271    2.241772    0.515684
  H      1.941281    2.119714    0.628014
  H      1.910806    0.790957   -0.560335
  H      1.312424    1.420251   -3.010175
  H     -0.224763    2.230913   -2.734754
  H      1.499746    3.171395   -4.670662
  H      0.557732    4.293008   -3.716076
  H      3.499942    3.552624   -3.352071
  H      2.758969    5.145058   -3.210180
  H      3.299781    3.868288   -0.851928
  H      0.547050    4.648321   -1.519474

 Total Charge           Charge          ....    0
 Multiplicity           Mult            ....    1
 Number of Electrons    NEL             ....   68
 Basis Dimension        Dim             ....  345

ORBITAL ENERGIES
----------------

  NO   OCC          E(Eh)            E(eV)
   0   2.0000     -20.552699      -559.2674
   1   2.0000     -15.563076      -423.4928
   2   2.0000     -11.326673      -308.2144
   3   2.0000     -11.275085      -306.8107
   4   2.0000     -11.264787      -306.5304
   5   2.0000     -11.240533      -305.8705
   6   2.0000     -11.237945      -305.8000
   7   2.0000     -11.237722      -305.7940
   8   2.0000     -11.237020      -305.7749
   9   2.0000      -1.391131       -37.8546
  10   2.0000      -1.283338       -34.9214
  11   2.0000      -1.077398       -29.3175
  12   2.0000      -1.044320       -28.4174
  13   2.0000      -0.968215       -26.3465
  14   2.0000      -0.901090       -24.5199
  15   2.0000      -0.811113       -22.0715
  16   2.0000      -0.791533       -21.5387
  17   2.0000      -0.756471       -20.5846
  18   2.0000      -0.695831       -18.9345
  19   2.0000      -0.655002       -17.8235
  20   2.0000      -0.647660       -17.6237
  21   2.0000      -0.637653       -17.3514
  22   2.0000      -0.620952       -16.8970
  23   2.0000      -0.593114       -16.1395
  24   2.0000      -0.558160       -15.1883
  25   2.0000      -0.535046       -14.5593
  26   2.0000      -0.524548       -14.2737
  27   2.0000      -0.499240       -13.5850
  28   2.0000      -0.496235       -13.5032
  29   2.0000      -0.488949       -13.3050
  30   2.0000      -0.461316       -12.5531
  31   2.0000      -0.447020       -12.1640
  32   2.0000      -0.424310       -11.5461
  33   2.0000      -0.383987       -10.4488
  34   0.0000       0.122195         3.3251
  35   0.0000       0.140915         3.8345
  36   0.0000       0.147003         4.0002
  37   0.0000       0.162458         4.4207
  38   0.0000       0.168049         4.5728

MULLIKEN ATOMIC CHARGES
-----------------------
   0 O :   -0.267338
   1 C :    0.076044
   2 C :   -0.147232
   3 C :    0.066721
   4 C :   -0.226125
   5 C :   -0.294183
   6 C :   -0.185801
   7 C :   -0.094108
   8 N :   -0.372943
   9 H :    0.092406
  10 H :    0.135416
  11 H :    0.116649
  12 H :    0.120138
  13 H :    0.134474
  14 H :    0.136102
  15 H :    0.130419
  16 H :    0.114696
  17 H :    0.126102
  18 H :    0.123273
  19 H :    0.215291
Sum of atomic charges:   -0.0000000

LOEWDIN ATOMIC CHARGES
----------------------
   0 O :    0.127480
   1 C :   -0.287178
   2 C :   -0.221005
   3 C :   -0.285107
   4 C :   -0.214267
   5 C :   -0.252440
   6 C :   -0.241693
   7 C :   -0.230508
   8 N :    0.035422
   9 H :    0.114524
  10 H :    0.162230
  11 H :    0.149229
  12 H :    0.147033
  13 H :    0.140822
  14 H :    0.136789
  15 H :    0.132670
  16 H :    0.143421
  17 H :    0.137263
  18 H :    0.139706
  19 H :    0.165609

  Mayer bond orders larger than 0.1
B(  0-O ,  1-C ) :   1.9934 B(  1-C ,  2-C ) :   0.8795 B(  1-C ,  9-H ) :   0.9398
B(  2-C ,  3-C ) :   0.8769 B(  2-C , 10-H ) :   0.9137 B(  2-C , 11-H ) :   0.9061
B(  3-C ,  4-C ) :   0.9534 B(  3-C ,  7-C ) :   0.8617 B(  3-C ,  8-N ) :   0.8575
B(  4-C ,  5-C ) :   0.9071 B(  4-C , 12-H ) :   0.9186 B(  4-C , 13-H ) :   0.9282
B(  5-C ,  6-C ) :   0.9199 B(  5-C , 14-H ) :   0.9319 B(  5-C , 15-H ) :   0.9465
B(  6-C ,  7-C ) :   0.9424 B(  6-C , 16-H ) :   0.9133 B(  6-C , 17-H ) :   0.9310
B(  7-C ,  8-N ) :   0.9517 B(  7-C , 18-H ) :   0.9149 B(  8-N , 19-H ) :   0.8683

MP2 TOTAL ENERGY:     -402.461772923 Eh
FINAL SINGLE POINT ENERGY      -402.461772923014

DIPOLE MOMENT
-------------
                                X             Y             Z
Electronic contribution:     -2.73861      -3.34909       5.55552
Nuclear contribution   :      3.39668       4.10612      -6.47619
                        -----------------------------------------
Total Dipole Moment    :      0.65807       0.75703      -0.92067
                        -----------------------------------------
Magnitude (a.u.)       :      1.36153
Magnitude (Debye)      :      3.46074

                             ****ORCA TERMINATED NORMALLY****
TOTAL RUN TIME: 0 days 0 hours 19 minutes 47 seconds 366 msec
