                         Program Version 3.0.3 - RELEASE   -
|  1> ! RI-MP2 RIJK def2-TZVP def2-TZVP/C def2-TZVP/JK TIGHTSCF
|  2> % maxcore 2000
|  3> % mp2 density relaxed end
|  4> *xyz 0 1
|  5>  C       -0.6020333625     1.5794259769    -0.2662037250
|  6>  C       -0.2144237480     0.1064342974    -0.1835014966
|  7>  C        1.0155978087    -0.4431382035    -1.0047398233
|  8>  C        1.8272419577     0.4902959752    -1.8849070786
|  9>  O        1.0248137930     0.8261972554    -3.0129362265
| 10>  C        1.6397049655    -0.9409934926     0.3029494845
| 11>  C        1.7971376181     0.1807607541     1.2988059737
| 12>  C        0.4373576477    -0.4319210344     1.1080130205
| 13>  C       -0.3234668346    -1.0910471784     2.2235595465
| 14>  H        0.2105498796     2.2404963481     0.0518671250
| 15>  H       -0.8644313090     1.8479106836    -1.2934124911
| 16>  H       -1.4636013275     1.7905895684     0.3769967755
| 17>  H       -1.0927896523    -0.5002364465    -0.4275190336
| 18>  H        0.6922604831    -1.2802842213    -1.6306415153
| 19>  H        2.1250257939     1.3932414048    -1.3322077602
| 20>  H        2.7540865159    -0.0205614591    -2.1947716039
| 21>  H        1.5060337242     1.4670804074    -3.5442555405
| 22>  H        2.1818225685    -1.8735740431     0.4159945625
| 23>  H        2.2957000788    -0.1002783894     2.2218764437
| 24>  H        2.0200237743     1.1953818158     0.9799621081
| 25>  H       -0.9135915680    -0.3607979872     2.7913029854
| 26>  H       -1.0175712699    -1.8485728638     1.8405754029
| 27>  H        0.3530467629    -1.5842069078     2.9299012660
| 28> *
| 29>
| 30>                          ****END OF INPUT****

CARTESIAN COORDINATES (ANGSTROEM)
---------------------------------
  C     -0.602033    1.579426   -0.266204
  C     -0.214424    0.106434   -0.183501
  C      1.015598   -0.443138   -1.004740
  C      1.827242    0.490296   -1.884907
  O      1.024814    0.826197   -3.012936
  C      1.639705   -0.940993    0.302949
  C      1.797138    0.180761    1.298806
  C      0.437358   -0.431921    1.108013
  C     -0.323467   -1.091047    2.223560
  H      0.210550    2.240496    0.051867
  H     -0.864431    1.847911   -1.293412
  H     -1.463601    1.790590    0.376997
  H     -1.092790   -0.500236   -0.427519
  H      0.692260   -1.280284   -1.630642
  H      2.125026    1.393241   -1.332208
  H      2.754087   -0.020561   -2.194772
  H      1.506034    1.467080   -3.544256
  H      2.181823   -1.873574    0.415995
  H      2.295700   -0.100278    2.221876
  H      2.020024    1.195382    0.979962
  H     -0.913592   -0.360798    2.791303
  H     -1.017571   -1.848573    1.840575
  H      0.353047   -1.584207    2.929901

 Total Charge           Charge          ....    0
 Multiplicity           Mult            ....    1
 Number of Electrons    NEL             ....   70
 Basis Dimension        Dim             ....  363

ORBITAL ENERGIES
----------------

  NO   OCC          E(Eh)            E(eV)
   0   2.0000     -20.551342      -559.2304
   1   2.0000     -11.268359      -306.6276
   2   2.0000     -11.229831      -305.5792
   3   2.0000     -11.223117      -305.3965
   4   2.0000     -11.222239      -305.3727
   5   2.0000     -11.221543      -305.3537
   6   2.0000     -11.219864      -305.3080
   7   2.0000     -11.214720      -305.1680
   8   2.0000     -11.202205      -304.8275
   9   2.0000      -1.354290       -36.8521
  10   2.0000      -1.187580       -32.3157
  11   2.0000      -1.021230       -27.7891
  12   2.0000      -0.987177       -26.8624
  13   2.0000      -0.950821       -25.8731
  14   2.0000      -0.890192       -24.2234
  15   2.0000      -0.811376       -22.0787
  16   2.0000      -0.764451       -20.8018
  17   2.0000      -0.702853       -19.1256
  18   2.0000      -0.693980       -18.8842
  19   2.0000      -0.658127       -17.9086
  20   2.0000      -0.622910       -16.9502
  21   2.0000      -0.604442       -16.4477
  22   2.0000      -0.585823       -15.9411
  23   2.0000      -0.566780       -15.4229
  24   2.0000      -0.557734       -15.1767
  25   2.0000      -0.541484       -14.7345
  26   2.0000      -0.534997       -14.5580
  27   2.0000      -0.522632       -14.2215
  28   2.0000      -0.509434       -13.8624
  29   2.0000      -0.476867       -12.9762
  30   2.0000      -0.455863       -12.4047
  31   2.0000      -0.442510       -12.0413
  32   2.0000      -0.416053       -11.3214
  33   2.0000      -0.393913       -10.7189
  34   2.0000      -0.360803        -9.8180
  35   0.0000       0.134134         3.6500
  36   0.0000       0.143721         3.9109
  37   0.0000       0.164467         4.4754
  38   0.0000       0.170604         4.6424
  39   0.0000       0.179817         4.8931

MULLIKEN ATOMIC CHARGES
-----------------------
   0 C :   -0.406956
   1 C :   -0.062386
   2 C :   -0.054977
   3 C :   -0.086769
   4 O :   -0.471507
   5 C :   -0.116198
   6 C :   -0.321666
   7 C :    0.082110
   8 C :   -0.416899
   9 H :    0.108573
  10 H :    0.149219
  11 H :    0.128939
  12 H :    0.093781
  13 H :    0.100646
  14 H :    0.091319
  15 H :    0.103239
  16 H :    0.314107
  17 H :    0.124163
  18 H :    0.126825
  19 H :    0.125260
  20 H :    0.133999
  21 H :    0.128590
  22 H :    0.126587
Sum of atomic charges:   -0.0000000

LOEWDIN ATOMIC CHARGES
----------------------
   0 C :   -0.295326
   1 C :   -0.181206
   2 C :   -0.192623
   3 C :   -0.327915
   4 O :   -0.049857
   5 C :   -0.146277
   6 C :   -0.191475
   7 C :   -0.207606
   8 C :   -0.276125
   9 H :    0.119321
  10 H :    0.128525
  11 H :    0.123486
  12 H :    0.152906
  13 H :    0.155787
  14 H :    0.115644
  15 H :    0.119176
  16 H :    0.170635
  17 H :    0.133769
  18 H :    0.140034
  19 H :    0.125848
  20 H :    0.128366
  21 H :    0.126223
  22 H :    0.128692

  Mayer bond orders larger than 0.1
B(  0-C ,  1-C ) :   0.9019 B(  0-C ,  9-H ) :   0.9364 B(  0-C , 10-H ) :   0.9367
B(  0-C , 11-H ) :   0.9340 B(  1-C ,  2-C ) :   0.9892 B(  1-C ,  7-C ) :   0.9366
B(  1-C , 12-H ) :   0.9224 B(  2-C ,  3-C ) :   0.9154 B(  2-C ,  5-C ) :   0.9395
B(  2-C , 13-H ) :   0.9165 B(  3-C ,  4-O ) :   1.0100 B(  3-C , 14-H ) :   0.9260
B(  3-C , 15-H ) :   0.9290 B(  4-O , 16-H ) :   0.8486 B(  5-C ,  6-C ) :   0.8575
B(  5-C ,  7-C ) :   0.8005 B(  5-C , 17-H ) :   0.9188 B(  6-C ,  7-C ) :   0.8919
B(  6-C , 18-H ) :   0.9317 B(  6-C , 19-H ) :   0.9183 B(  7-C ,  8-C ) :   0.8926
B(  8-C , 20-H ) :   0.9394 B(  8-C , 21-H ) :   0.9427 B(  8-C , 22-H ) :   0.9359

MP2 TOTAL ENERGY:     -387.590036636 Eh
FINAL SINGLE POINT ENERGY      -387.590036635607

DIPOLE MOMENT
-------------
                                X             Y             Z
Electronic contribution:      1.77451      -1.14462      -3.86122
Nuclear contribution   :     -1.35237       1.29487       3.97104
                        -----------------------------------------
Total Dipole Moment    :      0.42215       0.15025       0.10982
                        -----------------------------------------
Magnitude (a.u.)       :      0.46135
Magnitude (Debye)      :      1.17266

                             ****ORCA TERMINATED NORMALLY****
TOTAL RUN TIME: 0 days 0 hours 33 minutes 16 seconds 269 msec
