                         Program Version 3.0.3 - RELEASE   -
|  1> ! RI-MP2 RIJK def2-TZVP def2-TZVP/C def2-TZVP/JK TIGHTSCF
|  2> % maxcore 2000
|  3> % mp2 density relaxed end
|  4> *xyz 0 1
|  5>  C        0.2945859031     1.4525608977    -0.1951862742
|  6>  C       -0.1157050846     0.0112930715     0.1264494620
|  7>  O        0.0552649212    -0.7867121022    -1.0613562064
|  8>  C        0.9863901432    -1.7688259787    -1.1765583007
|  9>  N        1.0161704832    -2.5281461136    -2.1910259431
| 10>  C        2.0162080362    -1.9276630812    -0.0814915636
| 11>  C        1.5705966309    -1.4242816298     1.2660938163
| 12>  C        2.2994769457    -1.9537439240     2.4669022038
| 13>  C        0.5862855255    -0.5321797204     1.3333428288
| 14>  H        1.3702257397     1.5112156316    -0.3857258988
| 15>  H       -0.2409988439     1.8089863001    -1.0792830704
| 16>  H        0.0577095610     2.1118810100     0.6457549497
| 17>  H       -1.1989817232    -0.0050503093     0.3075916982
| 18>  H        0.2645951831    -2.2757000912    -2.8362909664
| 19>  H        2.2919485256    -2.9852805434    -0.0474204051
| 20>  H        2.9303010026    -1.3972916959    -0.3880944415
| 21>  H        3.3773605202    -1.7618176212     2.3886546147
| 22>  H        1.9378127806    -1.4991658172     3.3927636232
| 23>  H        2.1833661896    -3.0418695993     2.5479790222
| 24>  H        0.2577302702    -0.1296377937     2.2879592913
| 25> *
| 26>
| 27>                          ****END OF INPUT****

CARTESIAN COORDINATES (ANGSTROEM)
---------------------------------
  C      0.294586    1.452561   -0.195186
  C     -0.115705    0.011293    0.126449
  O      0.055265   -0.786712   -1.061356
  C      0.986390   -1.768826   -1.176558
  N      1.016170   -2.528146   -2.191026
  C      2.016208   -1.927663   -0.081492
  C      1.570597   -1.424282    1.266094
  C      2.299477   -1.953744    2.466902
  C      0.586286   -0.532180    1.333343
  H      1.370226    1.511216   -0.385726
  H     -0.240999    1.808986   -1.079283
  H      0.057710    2.111881    0.645755
  H     -1.198982   -0.005050    0.307592
  H      0.264595   -2.275700   -2.836291
  H      2.291949   -2.985281   -0.047420
  H      2.930301   -1.397292   -0.388094
  H      3.377361   -1.761818    2.388655
  H      1.937813   -1.499166    3.392764
  H      2.183366   -3.041870    2.547979
  H      0.257730   -0.129638    2.287959

 Total Charge           Charge          ....    0
 Multiplicity           Mult            ....    1
 Number of Electrons    NEL             ....   68
 Basis Dimension        Dim             ....  345

ORBITAL ENERGIES
----------------

  NO   OCC          E(Eh)            E(eV)
   0   2.0000     -20.585786      -560.1677
   1   2.0000     -15.518587      -422.2822
   2   2.0000     -11.333446      -308.3987
   3   2.0000     -11.304036      -307.5984
   4   2.0000     -11.252190      -306.1877
   5   2.0000     -11.243851      -305.9607
   6   2.0000     -11.234117      -305.6959
   7   2.0000     -11.232691      -305.6571
   8   2.0000     -11.227525      -305.5165
   9   2.0000      -1.418935       -38.6112
  10   2.0000      -1.188462       -32.3397
  11   2.0000      -1.122420       -30.5426
  12   2.0000      -1.044748       -28.4290
  13   2.0000      -0.976962       -26.5845
  14   2.0000      -0.947022       -25.7698
  15   2.0000      -0.860469       -23.4146
  16   2.0000      -0.797842       -21.7104
  17   2.0000      -0.705260       -19.1911
  18   2.0000      -0.695353       -18.9215
  19   2.0000      -0.679187       -18.4816
  20   2.0000      -0.639155       -17.3923
  21   2.0000      -0.617789       -16.8109
  22   2.0000      -0.598431       -16.2841
  23   2.0000      -0.576415       -15.6850
  24   2.0000      -0.568273       -15.4635
  25   2.0000      -0.557642       -15.1742
  26   2.0000      -0.551901       -15.0180
  27   2.0000      -0.529899       -14.4193
  28   2.0000      -0.513036       -13.9604
  29   2.0000      -0.506203       -13.7745
  30   2.0000      -0.467908       -12.7324
  31   2.0000      -0.428577       -11.6622
  32   2.0000      -0.383514       -10.4360
  33   2.0000      -0.356578        -9.7030
  34   0.0000       0.120801         3.2872
  35   0.0000       0.142886         3.8881
  36   0.0000       0.150745         4.1020
  37   0.0000       0.166811         4.5392
  38   0.0000       0.181163         4.9297

MULLIKEN ATOMIC CHARGES
-----------------------
   0 C :   -0.383601
   1 C :    0.124183
   2 O :   -0.253167
   3 C :    0.100207
   4 N :   -0.375238
   5 C :   -0.153410
   6 C :    0.001063
   7 C :   -0.413516
   8 C :   -0.205760
   9 H :    0.129054
  10 H :    0.143079
  11 H :    0.127799
  12 H :    0.106127
  13 H :    0.214933
  14 H :    0.148323
  15 H :    0.141489
  16 H :    0.140023
  17 H :    0.134596
  18 H :    0.145070
  19 H :    0.128745
Sum of atomic charges:   -0.0000000

LOEWDIN ATOMIC CHARGES
----------------------
   0 C :   -0.283104
   1 C :   -0.300118
   2 O :    0.266559
   3 C :   -0.404927
   4 N :   -0.068639
   5 C :   -0.183587
   6 C :   -0.191324
   7 C :   -0.266224
   8 C :   -0.139000
   9 H :    0.126453
  10 H :    0.127124
  11 H :    0.127844
  12 H :    0.151330
  13 H :    0.163695
  14 H :    0.163598
  15 H :    0.164199
  16 H :    0.132548
  17 H :    0.129711
  18 H :    0.133367
  19 H :    0.150493

  Mayer bond orders larger than 0.1
B(  0-C ,  1-C ) :   0.9176 B(  0-C ,  9-H ) :   0.9297 B(  0-C , 10-H ) :   0.9337
B(  0-C , 11-H ) :   0.9312 B(  1-C ,  2-O ) :   0.8898 B(  1-C ,  8-C ) :   0.9241
B(  1-C , 12-H ) :   0.9296 B(  2-O ,  3-C ) :   1.1010 B(  3-C ,  4-N ) :   2.0603
B(  3-C ,  5-C ) :   0.9338 B(  4-N , 13-H ) :   0.8579 B(  5-C ,  6-C ) :   0.9254
B(  5-C , 14-H ) :   0.9208 B(  5-C , 15-H ) :   0.8864 B(  6-C ,  7-C ) :   0.9001
B(  6-C ,  8-C ) :   1.7606 B(  7-C , 16-H ) :   0.9294 B(  7-C , 17-H ) :   0.9472
B(  7-C , 18-H ) :   0.9271 B(  8-C , 19-H ) :   0.9126

MP2 TOTAL ENERGY:     -402.478267674 Eh
FINAL SINGLE POINT ENERGY      -402.478267673987

DIPOLE MOMENT
-------------
                                X             Y             Z
Electronic contribution:     -2.55462      -2.66743      -4.97194
Nuclear contribution   :      2.49051       3.48278       6.04213
                        -----------------------------------------
Total Dipole Moment    :     -0.06411       0.81535       1.07018
                        -----------------------------------------
Magnitude (a.u.)       :      1.34692
Magnitude (Debye)      :      3.42360

                             ****ORCA TERMINATED NORMALLY****
TOTAL RUN TIME: 0 days 0 hours 18 minutes 14 seconds 201 msec
