                         Program Version 3.0.3 - RELEASE   -
|  1> ! RI-MP2 RIJK def2-TZVP def2-TZVP/C def2-TZVP/JK TIGHTSCF
|  2> % maxcore 2000
|  3> % mp2 density relaxed end
|  4> *xyz 0 1
|  5>  C        0.1124280427     1.4524363355     0.1887021975
|  6>  N       -0.0479627790     0.0575376970    -0.2188931320
|  7>  C       -1.2051554330    -0.6658087166    -0.0862293596
|  8>  C       -1.1905691885    -2.0219874001     0.0882092504
|  9>  N       -2.3685494782    -2.7106661545     0.1234353723
| 10>  N       -3.5788148902    -2.1597450811     0.0416646934
| 11>  N       -3.6642155201    -0.8941338006    -0.1052968712
| 12>  C       -2.5381003930    -0.0444874392    -0.2186350244
| 13>  O       -2.7150592852     1.1443250061    -0.4278327911
| 14>  H        1.0153899388     1.8457397505    -0.2853381764
| 15>  H       -0.7544114160     2.0196954510    -0.1408666335
| 16>  H        0.2152645947     1.5609903099     1.2781328972
| 17>  H        0.7890018605    -0.4965177700    -0.1004587460
| 18>  H       -0.2864328000    -2.6124221781     0.1862326953
| 19>  H       -2.3887443735    -3.7119835200     0.2387193379
| 20> *
| 21>
| 22>                          ****END OF INPUT****

CARTESIAN COORDINATES (ANGSTROEM)
---------------------------------
  C      0.112428    1.452436    0.188702
  N     -0.047963    0.057538   -0.218893
  C     -1.205155   -0.665809   -0.086229
  C     -1.190569   -2.021987    0.088209
  N     -2.368549   -2.710666    0.123435
  N     -3.578815   -2.159745    0.041665
  N     -3.664216   -0.894134   -0.105297
  C     -2.538100   -0.044487   -0.218635
  O     -2.715059    1.144325   -0.427833
  H      1.015390    1.845740   -0.285338
  H     -0.754411    2.019695   -0.140867
  H      0.215265    1.560990    1.278133
  H      0.789002   -0.496518   -0.100459
  H     -0.286433   -2.612422    0.186233
  H     -2.388744   -3.711984    0.238719

 Total Charge           Charge          ....    0
 Multiplicity           Mult            ....    1
 Number of Electrons    NEL             ....   66
 Basis Dimension        Dim             ....  315

ORBITAL ENERGIES
----------------

  NO   OCC          E(Eh)            E(eV)
   0   2.0000     -20.522976      -558.4586
   1   2.0000     -15.699442      -427.2035
   2   2.0000     -15.676443      -426.5777
   3   2.0000     -15.609209      -424.7482
   4   2.0000     -15.582193      -424.0130
   5   2.0000     -11.356188      -309.0176
   6   2.0000     -11.311143      -307.7919
   7   2.0000     -11.308046      -307.7076
   8   2.0000     -11.252023      -306.1831
   9   2.0000      -1.447006       -39.3750
  10   2.0000      -1.375429       -37.4273
  11   2.0000      -1.260110       -34.2893
  12   2.0000      -1.237505       -33.6742
  13   2.0000      -1.095111       -29.7995
  14   2.0000      -0.966368       -26.2962
  15   2.0000      -0.913705       -24.8632
  16   2.0000      -0.901589       -24.5335
  17   2.0000      -0.797644       -21.7050
  18   2.0000      -0.768323       -20.9071
  19   2.0000      -0.691274       -18.8105
  20   2.0000      -0.681244       -18.5376
  21   2.0000      -0.661527       -18.0011
  22   2.0000      -0.629291       -17.1239
  23   2.0000      -0.607536       -16.5319
  24   2.0000      -0.603507       -16.4223
  25   2.0000      -0.551995       -15.0205
  26   2.0000      -0.550575       -14.9819
  27   2.0000      -0.539804       -14.6888
  28   2.0000      -0.489143       -13.3102
  29   2.0000      -0.468626       -12.7520
  30   2.0000      -0.421197       -11.4613
  31   2.0000      -0.402324       -10.9478
  32   2.0000      -0.308825        -8.4036
  33   0.0000       0.087102         2.3702
  34   0.0000       0.101699         2.7674
  35   0.0000       0.106181         2.8893
  36   0.0000       0.128654         3.5009
  37   0.0000       0.165956         4.5159

MULLIKEN ATOMIC CHARGES
-----------------------
   0 C :   -0.285193
   1 N :   -0.314389
   2 C :    0.100416
   3 C :   -0.128710
   4 N :   -0.054493
   5 N :   -0.110133
   6 N :   -0.101159
   7 C :    0.157349
   8 O :   -0.350756
   9 H :    0.133739
  10 H :    0.197798
  11 H :    0.120739
  12 H :    0.217483
  13 H :    0.146807
  14 H :    0.270504
Sum of atomic charges:   -0.0000000

LOEWDIN ATOMIC CHARGES
----------------------
   0 C :   -0.313389
   1 N :    0.080122
   2 C :   -0.219658
   3 C :   -0.206888
   4 N :    0.109228
   5 N :   -0.038601
   6 N :    0.044233
   7 C :   -0.440095
   8 O :    0.098249
   9 H :    0.116677
  10 H :    0.133955
  11 H :    0.107826
  12 H :    0.183310
  13 H :    0.144729
  14 H :    0.200303

  Mayer bond orders larger than 0.1
B(  0-C ,  1-N ) :   0.8664 B(  0-C ,  9-H ) :   0.9316 B(  0-C , 10-H ) :   0.9190
B(  0-C , 11-H ) :   0.9301 B(  1-N ,  2-C ) :   1.1759 B(  1-N , 12-H ) :   0.8821
B(  2-C ,  3-C ) :   1.4060 B(  2-C ,  7-C ) :   0.9903 B(  3-C ,  4-N ) :   1.1263
B(  3-C , 13-H ) :   0.9049 B(  4-N ,  5-N ) :   1.0404 B(  4-N , 14-H ) :   0.8665
B(  5-N ,  6-N ) :   1.3226 B(  6-N ,  7-C ) :   1.2242 B(  7-C ,  8-O ) :   1.8595

MP2 TOTAL ENERGY:     -449.360024303 Eh
FINAL SINGLE POINT ENERGY      -449.360024302889

DIPOLE MOMENT
-------------
                                X             Y             Z
Electronic contribution:     -6.85291      -3.90922      -0.94071
Nuclear contribution   :      9.27916       2.19967       1.46591
                        -----------------------------------------
Total Dipole Moment    :      2.42626      -1.70955       0.52520
                        -----------------------------------------
Magnitude (a.u.)       :      3.01415
Magnitude (Debye)      :      7.66136

                             ****ORCA TERMINATED NORMALLY****
TOTAL RUN TIME: 0 days 0 hours 16 minutes 18 seconds 998 msec
