                         Program Version 3.0.3 - RELEASE   -
|  1> ! RI-MP2 RIJK def2-TZVP def2-TZVP/C def2-TZVP/JK TIGHTSCF
|  2> % maxcore 2000
|  3> % mp2 density relaxed end
|  4> *xyz 0 1
|  5>  C       -0.2597809838     1.4877299230    -0.0638954584
|  6>  C        0.0587833175    -0.0087076303     0.0583213278
|  7>  C        0.8505521893    -0.5344614108    -1.1401678045
|  8>  N        0.7859707426    -0.3084629346     1.2895254766
|  9>  C        0.1504263031    -0.4458625577     2.4880084439
| 10>  O       -1.0580961753    -0.4498691766     2.6271656030
| 11>  N        1.0714416405    -0.5555388548     3.5669206116
| 12>  C        1.6513248817    -1.8713303408     3.8659658731
| 13>  C        0.6209206781    -1.2612902988     4.7526695359
| 14>  H        0.6602343527     2.0815175736    -0.1153201578
| 15>  H       -0.8424237876     1.6871244215    -0.9692764976
| 16>  H       -0.8410856903     1.8204615367     0.7994397695
| 17>  H       -0.8862542642    -0.5540184633     0.1375343248
| 18>  H        1.8159019034    -0.0209476095    -1.2309784853
| 19>  H        1.0422641231    -1.6070818956    -1.0458984994
| 20>  H        0.2990032738    -0.3614303733    -2.0685469929
| 21>  H        1.7752765476    -0.1147934014     1.3193474870
| 22>  H        1.3445747859    -2.7070020046     3.2418285832
| 23>  H        2.7004549790    -1.8688482330     4.1483709385
| 24>  H        0.9145973076    -0.8128217967     5.6969336244
| 25>  H       -0.3850575647    -1.6680359130     4.7173510667
| 26> *
| 27>
| 28>                          ****END OF INPUT****

CARTESIAN COORDINATES (ANGSTROEM)
---------------------------------
  C     -0.259781    1.487730   -0.063895
  C      0.058783   -0.008708    0.058321
  C      0.850552   -0.534461   -1.140168
  N      0.785971   -0.308463    1.289525
  C      0.150426   -0.445863    2.488008
  O     -1.058096   -0.449869    2.627166
  N      1.071442   -0.555539    3.566921
  C      1.651325   -1.871330    3.865966
  C      0.620921   -1.261290    4.752670
  H      0.660234    2.081518   -0.115320
  H     -0.842424    1.687124   -0.969276
  H     -0.841086    1.820462    0.799440
  H     -0.886254   -0.554018    0.137534
  H      1.815902   -0.020948   -1.230978
  H      1.042264   -1.607082   -1.045898
  H      0.299003   -0.361430   -2.068547
  H      1.775277   -0.114793    1.319347
  H      1.344575   -2.707002    3.241829
  H      2.700455   -1.868848    4.148371
  H      0.914597   -0.812822    5.696934
  H     -0.385058   -1.668036    4.717351

 Total Charge           Charge          ....    0
 Multiplicity           Mult            ....    1
 Number of Electrons    NEL             ....   70
 Basis Dimension        Dim             ....  351

ORBITAL ENERGIES
----------------

  NO   OCC          E(Eh)            E(eV)
   0   2.0000     -20.513761      -558.2078
   1   2.0000     -15.577851      -423.8949
   2   2.0000     -15.574078      -423.7922
   3   2.0000     -11.368093      -309.3415
   4   2.0000     -11.275762      -306.8291
   5   2.0000     -11.266674      -306.5818
   6   2.0000     -11.264031      -306.5099
   7   2.0000     -11.222842      -305.3891
   8   2.0000     -11.212453      -305.1064
   9   2.0000      -1.393676       -37.9239
  10   2.0000      -1.280938       -34.8561
  11   2.0000      -1.228994       -33.4426
  12   2.0000      -1.051682       -28.6177
  13   2.0000      -0.951619       -25.8949
  14   2.0000      -0.938022       -25.5249
  15   2.0000      -0.857166       -23.3247
  16   2.0000      -0.814004       -22.1502
  17   2.0000      -0.780067       -21.2267
  18   2.0000      -0.726923       -19.7806
  19   2.0000      -0.677477       -18.4351
  20   2.0000      -0.656455       -17.8630
  21   2.0000      -0.618214       -16.8225
  22   2.0000      -0.613016       -16.6810
  23   2.0000      -0.592500       -16.1227
  24   2.0000      -0.548151       -14.9159
  25   2.0000      -0.544189       -14.8081
  26   2.0000      -0.538054       -14.6412
  27   2.0000      -0.537553       -14.6276
  28   2.0000      -0.511421       -13.9165
  29   2.0000      -0.495742       -13.4898
  30   2.0000      -0.489973       -13.3328
  31   2.0000      -0.479232       -13.0406
  32   2.0000      -0.436268       -11.8715
  33   2.0000      -0.402418       -10.9504
  34   2.0000      -0.386253       -10.5105
  35   0.0000       0.128878         3.5069
  36   0.0000       0.158637         4.3167
  37   0.0000       0.166359         4.5268
  38   0.0000       0.174739         4.7549
  39   0.0000       0.186773         5.0823

MULLIKEN ATOMIC CHARGES
-----------------------
   0 C :   -0.394656
   1 C :    0.039143
   2 C :   -0.385293
   3 N :   -0.340363
   4 C :    0.359075
   5 O :   -0.383598
   6 N :   -0.247173
   7 C :   -0.183049
   8 C :   -0.163103
   9 H :    0.110777
  10 H :    0.125126
  11 H :    0.158175
  12 H :    0.117706
  13 H :    0.119753
  14 H :    0.139923
  15 H :    0.133311
  16 H :    0.238747
  17 H :    0.137277
  18 H :    0.132139
  19 H :    0.134648
  20 H :    0.151439
Sum of atomic charges:   -0.0000000

LOEWDIN ATOMIC CHARGES
----------------------
   0 C :   -0.294041
   1 C :   -0.327353
   2 C :   -0.296325
   3 N :    0.124363
   4 C :   -0.527577
   5 O :    0.077507
   6 N :    0.126845
   7 C :   -0.246270
   8 C :   -0.245810
   9 H :    0.120057
  10 H :    0.124469
  11 H :    0.130709
  12 H :    0.156880
  13 H :    0.121634
  14 H :    0.124682
  15 H :    0.127988
  16 H :    0.190736
  17 H :    0.127968
  18 H :    0.123956
  19 H :    0.126633
  20 H :    0.132949

  Mayer bond orders larger than 0.1
B(  0-C ,  1-C ) :   0.9336 B(  0-C ,  9-H ) :   0.9249 B(  0-C , 10-H ) :   0.9347
B(  0-C , 11-H ) :   0.9383 B(  1-C ,  2-C ) :   0.9175 B(  1-C ,  3-N ) :   0.8554
B(  1-C , 12-H ) :   0.9235 B(  2-C , 13-H ) :   0.9273 B(  2-C , 14-H ) :   0.9390
B(  2-C , 15-H ) :   0.9385 B(  3-N ,  4-C ) :   1.1676 B(  3-N , 16-H ) :   0.8617
B(  4-C ,  5-O ) :   1.9065 B(  4-C ,  6-N ) :   0.9697 B(  6-N ,  7-C ) :   0.8470
B(  6-N ,  8-C ) :   0.8887 B(  7-C ,  8-C ) :   0.9534 B(  7-C , 17-H ) :   0.9195
B(  7-C , 18-H ) :   0.9261 B(  8-C , 19-H ) :   0.9253 B(  8-C , 20-H ) :   0.9215

MP2 TOTAL ENERGY:     -419.716009572 Eh
FINAL SINGLE POINT ENERGY      -419.716009571869

DIPOLE MOMENT
-------------
                                X             Y             Z
Electronic contribution:     -1.38520      -1.30280       7.28158
Nuclear contribution   :      2.39953       0.96804      -7.72788
                        -----------------------------------------
Total Dipole Moment    :      1.01433      -0.33475      -0.44630
                        -----------------------------------------
Magnitude (a.u.)       :      1.15763
Magnitude (Debye)      :      2.94246

                             ****ORCA TERMINATED NORMALLY****
TOTAL RUN TIME: 0 days 0 hours 18 minutes 8 seconds 986 msec
