                         Program Version 3.0.3 - RELEASE   -
|  1> ! RI-MP2 RIJK def2-TZVP def2-TZVP/C def2-TZVP/JK TIGHTSCF
|  2> % maxcore 2000
|  3> % mp2 density relaxed end
|  4> *xyz 0 1
|  5>  C       -0.3055627086     1.4698315494     0.0474241888
|  6>  C       -0.0031592469    -0.0235205885    -0.0287720570
|  7>  C        0.6975376759    -0.3777043199    -1.3469506942
|  8>  O        0.8055570562    -1.7636502484    -1.5941985585
|  9>  C        1.7032038075    -2.5251712786    -0.8382453522
| 10>  C        2.8867699094    -1.9976038271    -0.0674022038
| 11>  C        1.6965907258    -2.5987328347     0.6640859097
| 12>  C        0.8086802328    -1.6953137069     1.5025475619
| 13>  O        0.7980469808    -0.3378566633     1.1055949512
| 14>  H        0.6192311368     2.0519979686    -0.0192625776
| 15>  H       -0.9689207809     1.7775506173    -0.7660430462
| 16>  H       -0.7860518322     1.7059817225     0.9996089092
| 17>  H       -0.9407280231    -0.6011684527     0.0202716456
| 18>  H        0.1035358547     0.0121520029    -2.1805914995
| 19>  H        1.6814669185     0.1124144461    -1.3775887817
| 20>  H        1.8567646350    -3.4639335049    -1.3612733099
| 21>  H        3.8201031239    -2.5469059403    -0.1240628341
| 22>  H        3.0017527306    -0.9268718363     0.0465695686
| 23>  H        1.8151862093    -3.5892138852     1.0981953097
| 24>  H       -0.2200210927    -2.0926942386     1.5149165340
| 25>  H        1.1725182473    -1.6930711415     2.5364665060
| 26> *
| 27>
| 28>                          ****END OF INPUT****

CARTESIAN COORDINATES (ANGSTROEM)
---------------------------------
  C     -0.305563    1.469832    0.047424
  C     -0.003159   -0.023521   -0.028772
  C      0.697538   -0.377704   -1.346951
  O      0.805557   -1.763650   -1.594199
  C      1.703204   -2.525171   -0.838245
  C      2.886770   -1.997604   -0.067402
  C      1.696591   -2.598733    0.664086
  C      0.808680   -1.695314    1.502548
  O      0.798047   -0.337857    1.105595
  H      0.619231    2.051998   -0.019263
  H     -0.968921    1.777551   -0.766043
  H     -0.786052    1.705982    0.999609
  H     -0.940728   -0.601168    0.020272
  H      0.103536    0.012152   -2.180591
  H      1.681467    0.112414   -1.377589
  H      1.856765   -3.463934   -1.361273
  H      3.820103   -2.546906   -0.124063
  H      3.001753   -0.926872    0.046570
  H      1.815186   -3.589214    1.098195
  H     -0.220021   -2.092694    1.514917
  H      1.172518   -1.693071    2.536467

 Total Charge           Charge          ....    0
 Multiplicity           Mult            ....    1
 Number of Electrons    NEL             ....   70
 Basis Dimension        Dim             ....  351

ORBITAL ENERGIES
----------------

  NO   OCC          E(Eh)            E(eV)
   0   2.0000     -20.558125      -559.4150
   1   2.0000     -20.553221      -559.2816
   2   2.0000     -11.281429      -306.9833
   3   2.0000     -11.280014      -306.9448
   4   2.0000     -11.278075      -306.8920
   5   2.0000     -11.273281      -306.7616
   6   2.0000     -11.228125      -305.5328
   7   2.0000     -11.222070      -305.3680
   8   2.0000     -11.217333      -305.2392
   9   2.0000      -1.388838       -37.7922
  10   2.0000      -1.365684       -37.1622
  11   2.0000      -1.137200       -30.9448
  12   2.0000      -1.045614       -28.4526
  13   2.0000      -0.955263       -25.9940
  14   2.0000      -0.927150       -25.2290
  15   2.0000      -0.836389       -22.7593
  16   2.0000      -0.776593       -21.1322
  17   2.0000      -0.771286       -20.9877
  18   2.0000      -0.709045       -19.2941
  19   2.0000      -0.692767       -18.8512
  20   2.0000      -0.660786       -17.9809
  21   2.0000      -0.624630       -16.9971
  22   2.0000      -0.607305       -16.5256
  23   2.0000      -0.596116       -16.2211
  24   2.0000      -0.572883       -15.5889
  25   2.0000      -0.557577       -15.1725
  26   2.0000      -0.540013       -14.6945
  27   2.0000      -0.527251       -14.3472
  28   2.0000      -0.512363       -13.9421
  29   2.0000      -0.507553       -13.8112
  30   2.0000      -0.479850       -13.0574
  31   2.0000      -0.463789       -12.6203
  32   2.0000      -0.421075       -11.4580
  33   2.0000      -0.403750       -10.9866
  34   2.0000      -0.373522       -10.1641
  35   0.0000       0.144000         3.9184
  36   0.0000       0.148959         4.0534
  37   0.0000       0.166333         4.5262
  38   0.0000       0.183174         4.9844
  39   0.0000       0.188602         5.1321

MULLIKEN ATOMIC CHARGES
-----------------------
   0 C :   -0.376034
   1 C :    0.067768
   2 C :   -0.073187
   3 O :   -0.299086
   4 C :    0.028655
   5 C :   -0.314593
   6 C :   -0.108635
   7 C :   -0.056512
   8 O :   -0.312278
   9 H :    0.129856
  10 H :    0.125750
  11 H :    0.140151
  12 H :    0.071163
  13 H :    0.126163
  14 H :    0.107992
  15 H :    0.119897
  16 H :    0.131176
  17 H :    0.151184
  18 H :    0.116858
  19 H :    0.100946
  20 H :    0.122766
Sum of atomic charges:    0.0000000

LOEWDIN ATOMIC CHARGES
----------------------
   0 C :   -0.289833
   1 C :   -0.352332
   2 C :   -0.303866
   3 O :    0.192312
   4 C :   -0.291072
   5 C :   -0.215361
   6 C :   -0.223819
   7 C :   -0.303341
   8 O :    0.180587
   9 H :    0.127372
  10 H :    0.126150
  11 H :    0.128052
  12 H :    0.137505
  13 H :    0.137162
  14 H :    0.126995
  15 H :    0.143421
  16 H :    0.130613
  17 H :    0.139560
  18 H :    0.149307
  19 H :    0.125954
  20 H :    0.134634

  Mayer bond orders larger than 0.1
B(  0-C ,  1-C ) :   0.9108 B(  0-C ,  9-H ) :   0.9317 B(  0-C , 10-H ) :   0.9339
B(  0-C , 11-H ) :   0.9362 B(  1-C ,  2-C ) :   0.9189 B(  1-C ,  8-O ) :   0.9213
B(  1-C , 12-H ) :   0.9301 B(  2-C ,  3-O ) :   0.9219 B(  2-C , 13-H ) :   0.9193
B(  2-C , 14-H ) :   0.9346 B(  3-O ,  4-C ) :   0.9834 B(  4-C ,  5-C ) :   0.8855
B(  4-C ,  6-C ) :   0.8751 B(  4-C , 15-H ) :   0.9483 B(  5-C ,  6-C ) :   0.8405
B(  5-C , 16-H ) :   0.9203 B(  5-C , 17-H ) :   0.9176 B(  6-C ,  7-C ) :   0.9301
B(  6-C , 18-H ) :   0.9099 B(  7-C ,  8-O ) :   0.9286 B(  7-C , 19-H ) :   0.9394
B(  7-C , 20-H ) :   0.9287

MP2 TOTAL ENERGY:     -423.496039107 Eh
FINAL SINGLE POINT ENERGY      -423.496039106505

DIPOLE MOMENT
-------------
                                X             Y             Z
Electronic contribution:      0.63675      -3.30382      -0.94561
Nuclear contribution   :     -0.67726       3.26563       1.08131
                        -----------------------------------------
Total Dipole Moment    :     -0.04051      -0.03819       0.13570
                        -----------------------------------------
Magnitude (a.u.)       :      0.14668
Magnitude (Debye)      :      0.37283

                             ****ORCA TERMINATED NORMALLY****
TOTAL RUN TIME: 0 days 0 hours 18 minutes 31 seconds 32 msec
