                         Program Version 3.0.3 - RELEASE   -
|  1> ! RI-MP2 RIJK def2-TZVP def2-TZVP/C def2-TZVP/JK TIGHTSCF
|  2> % maxcore 2000
|  3> % mp2 density relaxed end
|  4> *xyz 0 1
|  5>  C        0.0397586458     1.3889349968     0.0341532545
|  6>  O       -0.0009974287    -0.0259214612     0.0182230630
|  7>  C       -1.2712664215    -0.5481598476     0.0104347172
|  8>  C       -2.3944636623    -0.3795193421    -1.0997584805
|  9>  C       -2.3555699357    -1.9162701067    -1.3024348489
| 10>  C       -1.5196417908    -2.0910997461    -0.0076299599
| 11>  C       -2.3591792342    -1.9460268268     1.2885151292
| 12>  C       -2.3975563339    -0.4050259761     1.1210830177
| 13>  C       -3.3787487606     0.0591754509     0.0144759005
| 14>  H        1.0923175184     1.6799265558     0.0386020374
| 15>  H       -0.4458332133     1.8171545624    -0.8541018540
| 16>  H       -0.4478359757     1.7971259737     0.9307097213
| 17>  H       -2.3180961923     0.2494180019    -1.9874631005
| 18>  H       -3.3154463879    -2.4404037268    -1.3575450818
| 19>  H       -1.7638286240    -2.1780487420    -2.1845571430
| 20>  H       -0.7151518819    -2.8263197391    -0.0149527751
| 21>  H       -3.3191876070    -2.4712603730     1.3288990297
| 22>  H       -1.7698881956    -2.2280094357     2.1660376779
| 23>  H       -2.3236545202     0.2033765615     2.0231897850
| 24>  H       -3.4940074190     1.1476464593     0.0268232876
| 25>  H       -4.3753612496    -0.3948915992     0.0078658225
| 26> *
| 27>
| 28>                          ****END OF INPUT****

CARTESIAN COORDINATES (ANGSTROEM)
---------------------------------
  C      0.039759    1.388935    0.034153
  O     -0.000997   -0.025921    0.018223
  C     -1.271266   -0.548160    0.010435
  C     -2.394464   -0.379519   -1.099758
  C     -2.355570   -1.916270   -1.302435
  C     -1.519642   -2.091100   -0.007630
  C     -2.359179   -1.946027    1.288515
  C     -2.397556   -0.405026    1.121083
  C     -3.378749    0.059175    0.014476
  H      1.092318    1.679927    0.038602
  H     -0.445833    1.817155   -0.854102
  H     -0.447836    1.797126    0.930710
  H     -2.318096    0.249418   -1.987463
  H     -3.315446   -2.440404   -1.357545
  H     -1.763829   -2.178049   -2.184557
  H     -0.715152   -2.826320   -0.014953
  H     -3.319188   -2.471260    1.328899
  H     -1.769888   -2.228009    2.166038
  H     -2.323655    0.203377    2.023190
  H     -3.494007    1.147646    0.026823
  H     -4.375361   -0.394892    0.007866

 Total Charge           Charge          ....    0
 Multiplicity           Mult            ....    1
 Number of Electrons    NEL             ....   68
 Basis Dimension        Dim             ....  351

ORBITAL ENERGIES
----------------

  NO   OCC          E(Eh)            E(eV)
   0   2.0000     -20.561697      -559.5122
   1   2.0000     -11.278904      -306.9146
   2   2.0000     -11.272163      -306.7311
   3   2.0000     -11.220948      -305.3375
   4   2.0000     -11.220896      -305.3361
   5   2.0000     -11.218515      -305.2713
   6   2.0000     -11.218423      -305.2688
   7   2.0000     -11.216855      -305.2261
   8   2.0000     -11.216746      -305.2232
   9   2.0000      -1.385280       -37.6954
  10   2.0000      -1.185467       -32.2582
  11   2.0000      -0.997397       -27.1405
  12   2.0000      -0.996053       -27.1040
  13   2.0000      -0.945506       -25.7285
  14   2.0000      -0.848160       -23.0796
  15   2.0000      -0.797800       -21.7092
  16   2.0000      -0.797524       -21.7017
  17   2.0000      -0.709238       -19.2993
  18   2.0000      -0.679678       -18.4950
  19   2.0000      -0.645287       -17.5591
  20   2.0000      -0.637159       -17.3380
  21   2.0000      -0.598644       -16.2899
  22   2.0000      -0.590565       -16.0701
  23   2.0000      -0.583934       -15.8896
  24   2.0000      -0.551332       -15.0025
  25   2.0000      -0.551035       -14.9944
  26   2.0000      -0.519691       -14.1415
  27   2.0000      -0.484168       -13.1749
  28   2.0000      -0.459095       -12.4926
  29   2.0000      -0.451282       -12.2800
  30   2.0000      -0.437855       -11.9146
  31   2.0000      -0.432190       -11.7605
  32   2.0000      -0.378927       -10.3111
  33   2.0000      -0.359528        -9.7833
  34   0.0000       0.134775         3.6674
  35   0.0000       0.159175         4.3314
  36   0.0000       0.167944         4.5700
  37   0.0000       0.171598         4.6694
  38   0.0000       0.182399         4.9633

MULLIKEN ATOMIC CHARGES
-----------------------
   0 C :   -0.207176
   1 O :   -0.283360
   2 C :    0.049306
   3 C :   -0.038297
   4 C :   -0.297928
   5 C :   -0.007115
   6 C :   -0.297938
   7 C :   -0.038265
   8 C :   -0.293451
   9 H :    0.143290
  10 H :    0.117172
  11 H :    0.117176
  12 H :    0.120047
  13 H :    0.109934
  14 H :    0.118549
  15 H :    0.114348
  16 H :    0.109933
  17 H :    0.118550
  18 H :    0.120041
  19 H :    0.115783
  20 H :    0.109401
Sum of atomic charges:    0.0000000

LOEWDIN ATOMIC CHARGES
----------------------
   0 C :   -0.336260
   1 O :    0.198188
   2 C :   -0.255682
   3 C :   -0.172309
   4 C :   -0.202084
   5 C :   -0.158377
   6 C :   -0.202086
   7 C :   -0.172298
   8 C :   -0.207219
   9 H :    0.114148
  10 H :    0.104881
  11 H :    0.104878
  12 H :    0.129523
  13 H :    0.125473
  14 H :    0.138914
  15 H :    0.133845
  16 H :    0.125473
  17 H :    0.138914
  18 H :    0.129524
  19 H :    0.136777
  20 H :    0.125777

  Mayer bond orders larger than 0.1
B(  0-C ,  1-O ) :   0.8830 B(  0-C ,  9-H ) :   0.9407 B(  0-C , 10-H ) :   0.9327
B(  0-C , 11-H ) :   0.9327 B(  1-O ,  2-C ) :   1.0208 B(  2-C ,  3-C ) :   0.8574
B(  2-C ,  5-C ) :   0.9101 B(  2-C ,  7-C ) :   0.8574 B(  3-C ,  4-C ) :   0.9003
B(  3-C ,  8-C ) :   0.8918 B(  3-C , 12-H ) :   0.9135 B(  4-C ,  5-C ) :   0.9219
B(  4-C , 13-H ) :   0.9227 B(  4-C , 14-H ) :   0.9205 B(  5-C ,  6-C ) :   0.9219
B(  5-C , 15-H ) :   0.9099 B(  6-C ,  7-C ) :   0.9003 B(  6-C , 16-H ) :   0.9227
B(  6-C , 17-H ) :   0.9205 B(  7-C ,  8-C ) :   0.8918 B(  7-C , 18-H ) :   0.9135
B(  8-C , 19-H ) :   0.9240 B(  8-C , 20-H ) :   0.9141

MP2 TOTAL ENERGY:     -386.360016783 Eh
FINAL SINGLE POINT ENERGY      -386.360016783463

DIPOLE MOMENT
-------------
                                X             Y             Z
Electronic contribution:      2.37598      -1.24936      -0.01039
Nuclear contribution   :     -2.58906       1.62366       0.01422
                        -----------------------------------------
Total Dipole Moment    :     -0.21307       0.37430       0.00383
                        -----------------------------------------
Magnitude (a.u.)       :      0.43071
Magnitude (Debye)      :      1.09478

                             ****ORCA TERMINATED NORMALLY****
TOTAL RUN TIME: 0 days 0 hours 19 minutes 58 seconds 337 msec
