                         Program Version 3.0.3 - RELEASE   -
|  1> ! RI-MP2 RIJK def2-TZVP def2-TZVP/C def2-TZVP/JK TIGHTSCF
|  2> % maxcore 2000
|  3> % mp2 density relaxed end
|  4> *xyz 0 1
|  5>  C       -0.3456979348     1.6623574393    -0.1935698527
|  6>  C       -0.0670728638     0.1545664372    -0.1270246017
|  7>  C       -1.3569710297    -0.6470862647     0.1330921425
|  8>  O       -1.9551703912    -0.3133541264     1.3766271809
|  9>  C        0.6769769633    -0.3583540716    -1.3521535210
| 10>  C        0.0187534334    -0.1986294237    -2.7220073603
| 11>  O        0.7173628682    -0.9032121669    -3.7231536024
| 12>  C        2.1363647735    -0.5159815244    -1.3037258850
| 13>  O        1.2733727426    -1.6628270825    -1.1866255660
| 14>  H        0.5798630805     2.2387180543    -0.2875282902
| 15>  H       -0.9887258709     1.9141589045    -1.0438314165
| 16>  H       -0.8642939386     1.9783894778     0.7143785019
| 17>  H        0.5928417330    -0.0392009657     0.7306086166
| 18>  H       -2.1149788078    -0.4149892391    -0.6225427118
| 19>  H       -1.1380612713    -1.7222812843     0.0673527525
| 20>  H       -1.3779672488    -0.6359759330     2.0763032877
| 21>  H       -1.0307247270    -0.5293157374    -2.6617083195
| 22>  H        0.0107590764     0.8570587141    -3.0123432903
| 23>  H        0.9235469159    -1.7647867928    -3.3353696249
| 24>  H        2.7087280516    -0.4708147908    -2.2264373886
| 25>  H        2.6736334057    -0.2526974439    -0.3943243210
| 26> *
| 27>
| 28>                          ****END OF INPUT****

CARTESIAN COORDINATES (ANGSTROEM)
---------------------------------
  C     -0.345698    1.662357   -0.193570
  C     -0.067073    0.154566   -0.127025
  C     -1.356971   -0.647086    0.133092
  O     -1.955170   -0.313354    1.376627
  C      0.676977   -0.358354   -1.352154
  C      0.018753   -0.198629   -2.722007
  O      0.717363   -0.903212   -3.723154
  C      2.136365   -0.515982   -1.303726
  O      1.273373   -1.662827   -1.186626
  H      0.579863    2.238718   -0.287528
  H     -0.988726    1.914159   -1.043831
  H     -0.864294    1.978389    0.714379
  H      0.592842   -0.039201    0.730609
  H     -2.114979   -0.414989   -0.622543
  H     -1.138061   -1.722281    0.067353
  H     -1.377967   -0.635976    2.076303
  H     -1.030725   -0.529316   -2.661708
  H      0.010759    0.857059   -3.012343
  H      0.923547   -1.764787   -3.335370
  H      2.708728   -0.470815   -2.226437
  H      2.673633   -0.252697   -0.394324

 Total Charge           Charge          ....    0
 Multiplicity           Mult            ....    1
 Number of Electrons    NEL             ....   72
 Basis Dimension        Dim             ....  351

ORBITAL ENERGIES
----------------

  NO   OCC          E(Eh)            E(eV)
   0   2.0000     -20.577824      -559.9510
   1   2.0000     -20.561564      -559.5086
   2   2.0000     -20.557587      -559.4004
   3   2.0000     -11.300563      -307.5039
   4   2.0000     -11.288203      -307.1676
   5   2.0000     -11.286431      -307.1194
   6   2.0000     -11.280457      -306.9568
   7   2.0000     -11.245930      -306.0173
   8   2.0000     -11.224789      -305.4420
   9   2.0000      -1.422986       -38.7214
  10   2.0000      -1.365851       -37.1667
  11   2.0000      -1.361286       -37.0425
  12   2.0000      -1.088647       -29.6236
  13   2.0000      -0.976877       -26.5822
  14   2.0000      -0.934598       -25.4317
  15   2.0000      -0.916410       -24.9368
  16   2.0000      -0.855607       -23.2823
  17   2.0000      -0.779146       -21.2016
  18   2.0000      -0.713880       -19.4257
  19   2.0000      -0.689716       -18.7681
  20   2.0000      -0.688320       -18.7301
  21   2.0000      -0.651642       -17.7321
  22   2.0000      -0.633839       -17.2476
  23   2.0000      -0.612538       -16.6680
  24   2.0000      -0.600142       -16.3307
  25   2.0000      -0.576325       -15.6826
  26   2.0000      -0.572278       -15.5725
  27   2.0000      -0.540343       -14.7035
  28   2.0000      -0.533904       -14.5283
  29   2.0000      -0.520892       -14.1742
  30   2.0000      -0.495181       -13.4746
  31   2.0000      -0.485908       -13.2222
  32   2.0000      -0.480158       -13.0658
  33   2.0000      -0.458310       -12.4713
  34   2.0000      -0.441278       -12.0078
  35   2.0000      -0.418952       -11.4003
  36   0.0000       0.128394         3.4938
  37   0.0000       0.145174         3.9504
  38   0.0000       0.155235         4.2242
  39   0.0000       0.164502         4.4763
  40   0.0000       0.183430         4.9914

MULLIKEN ATOMIC CHARGES
-----------------------
   0 C :   -0.421235
   1 C :   -0.075514
   2 C :   -0.072088
   3 O :   -0.466954
   4 C :    0.133190
   5 C :   -0.043107
   6 O :   -0.477760
   7 C :   -0.106790
   8 O :   -0.371463
   9 H :    0.137063
  10 H :    0.128226
  11 H :    0.155016
  12 H :    0.087533
  13 H :    0.107902
  14 H :    0.135980
  15 H :    0.314642
  16 H :    0.113089
  17 H :    0.126305
  18 H :    0.331753
  19 H :    0.143617
  20 H :    0.120596
Sum of atomic charges:   -0.0000000

LOEWDIN ATOMIC CHARGES
----------------------
   0 C :   -0.282751
   1 C :   -0.261904
   2 C :   -0.319842
   3 O :   -0.044465
   4 C :   -0.314299
   5 C :   -0.308289
   6 O :   -0.033094
   7 C :   -0.238619
   8 O :    0.142908
   9 H :    0.125145
  10 H :    0.125104
  11 H :    0.131382
  12 H :    0.158962
  13 H :    0.128805
  14 H :    0.124911
  15 H :    0.174341
  16 H :    0.125665
  17 H :    0.136363
  18 H :    0.180494
  19 H :    0.127048
  20 H :    0.122135

  Mayer bond orders larger than 0.1
B(  0-C ,  1-C ) :   0.9065 B(  0-C ,  9-H ) :   0.9364 B(  0-C , 10-H ) :   0.9306
B(  0-C , 11-H ) :   0.9295 B(  1-C ,  2-C ) :   0.9222 B(  1-C ,  4-C ) :   0.8680
B(  1-C , 12-H ) :   0.9277 B(  2-C ,  3-O ) :   0.9369 B(  2-C , 13-H ) :   0.9152
B(  2-C , 14-H ) :   0.9401 B(  3-O , 15-H ) :   0.8464 B(  4-C ,  5-C ) :   0.9128
B(  4-C ,  7-C ) :   0.9620 B(  4-C ,  8-O ) :   0.8354 B(  5-C ,  6-O ) :   0.9394
B(  5-C , 16-H ) :   0.9330 B(  5-C , 17-H ) :   0.9287 B(  6-O , 18-H ) :   0.8178
B(  7-C ,  8-O ) :   0.8738 B(  7-C , 19-H ) :   0.9097 B(  7-C , 20-H ) :   0.9107

MP2 TOTAL ENERGY:     -460.609242277 Eh
FINAL SINGLE POINT ENERGY      -460.609242276966

DIPOLE MOMENT
-------------
                                X             Y             Z
Electronic contribution:      1.64189      -4.52428      -1.42297
Nuclear contribution   :     -1.16101       4.78449       1.98300
                        -----------------------------------------
Total Dipole Moment    :      0.48088       0.26021       0.56003
                        -----------------------------------------
Magnitude (a.u.)       :      0.78268
Magnitude (Debye)      :      1.98942

                             ****ORCA TERMINATED NORMALLY****
TOTAL RUN TIME: 0 days 0 hours 17 minutes 3 seconds 839 msec
