                         Program Version 3.0.3 - RELEASE   -
|  1> ! RI-MP2 RIJK def2-TZVP def2-TZVP/C def2-TZVP/JK TIGHTSCF
|  2> % maxcore 2000
|  3> % mp2 density relaxed end
|  4> *xyz 0 1
|  5>  C       -0.0403434740     1.5777547188     0.0543738994
|  6>  C        0.0810039455     0.0608413974     0.0186349354
|  7>  O       -1.2035686692    -0.5431454031     0.0951650674
|  8>  C        0.8310571683    -0.6373064997    -1.1013772943
|  9>  C        2.2781657512    -0.7281699966    -0.7344094294
| 10>  C        2.4936053519    -0.1114891311     0.6377509893
| 11>  C        1.0966043512    -0.6856295807     0.9290148812
| 12>  N        1.3056668896    -1.7450714118    -0.2055678991
| 13>  H        0.9191705597     2.0767223482    -0.0997653732
| 14>  H       -0.7303389220     1.9074705479    -0.7280545576
| 15>  H       -0.4422103629     1.9118575808     1.0194338539
| 16>  H       -1.6156932786    -0.2525125669     0.9160645019
| 17>  H        0.4647113251    -0.8395714484    -2.1017325639
| 18>  H        3.0295530420    -1.0040437941    -1.4662150236
| 19>  H        3.2664150428    -0.6606132345     1.1825887742
| 20>  H        2.6650293472     0.9639887474     0.7453327533
| 21>  H        0.7956207322    -1.0148150236     1.9231528248
| 22> *
| 23>
| 24>                          ****END OF INPUT****

CARTESIAN COORDINATES (ANGSTROEM)
---------------------------------
  C     -0.040343    1.577755    0.054374
  C      0.081004    0.060841    0.018635
  O     -1.203569   -0.543145    0.095165
  C      0.831057   -0.637306   -1.101377
  C      2.278166   -0.728170   -0.734409
  C      2.493605   -0.111489    0.637751
  C      1.096604   -0.685630    0.929015
  N      1.305667   -1.745071   -0.205568
  H      0.919171    2.076722   -0.099765
  H     -0.730339    1.907471   -0.728055
  H     -0.442210    1.911858    1.019434
  H     -1.615693   -0.252513    0.916065
  H      0.464711   -0.839571   -2.101733
  H      3.029553   -1.004044   -1.466215
  H      3.266415   -0.660613    1.182589
  H      2.665029    0.963989    0.745333
  H      0.795621   -1.014815    1.923153

 Total Charge           Charge          ....    0
 Multiplicity           Mult            ....    1
 Number of Electrons    NEL             ....   60
 Basis Dimension        Dim             ....  302

ORBITAL ENERGIES
----------------

  NO   OCC          E(Eh)            E(eV)
   0   2.0000     -20.558282      -559.4193
   1   2.0000     -15.560215      -423.4150
   2   2.0000     -11.296751      -307.4002
   3   2.0000     -11.267323      -306.5994
   4   2.0000     -11.265160      -306.5406
   5   2.0000     -11.259330      -306.3820
   6   2.0000     -11.237891      -305.7986
   7   2.0000     -11.225545      -305.4626
   8   2.0000      -1.375620       -37.4325
   9   2.0000      -1.307136       -35.5690
  10   2.0000      -1.027698       -27.9651
  11   2.0000      -0.999250       -27.1910
  12   2.0000      -0.932601       -25.3774
  13   2.0000      -0.886900       -24.1338
  14   2.0000      -0.757588       -20.6150
  15   2.0000      -0.740584       -20.1523
  16   2.0000      -0.713365       -19.4116
  17   2.0000      -0.656273       -17.8581
  18   2.0000      -0.638605       -17.3773
  19   2.0000      -0.599985       -16.3264
  20   2.0000      -0.586098       -15.9485
  21   2.0000      -0.566315       -15.4102
  22   2.0000      -0.550127       -14.9697
  23   2.0000      -0.537562       -14.6278
  24   2.0000      -0.503576       -13.7030
  25   2.0000      -0.483981       -13.1698
  26   2.0000      -0.442213       -12.0332
  27   2.0000      -0.430724       -11.7206
  28   2.0000      -0.406463       -11.0604
  29   2.0000      -0.376662       -10.2495
  30   0.0000       0.126989         3.4555
  31   0.0000       0.156142         4.2488
  32   0.0000       0.167221         4.5503
  33   0.0000       0.178866         4.8672
  34   0.0000       0.187771         5.1095

MULLIKEN ATOMIC CHARGES
-----------------------
   0 C :   -0.431724
   1 C :    0.251250
   2 O :   -0.453723
   3 C :   -0.118578
   4 C :   -0.125966
   5 C :   -0.196929
   6 C :   -0.078362
   7 N :   -0.206657
   8 H :    0.131112
   9 H :    0.149242
  10 H :    0.121167
  11 H :    0.313732
  12 H :    0.139559
  13 H :    0.132188
  14 H :    0.120297
  15 H :    0.114257
  16 H :    0.139135
Sum of atomic charges:    0.0000000

LOEWDIN ATOMIC CHARGES
----------------------
   0 C :   -0.277806
   1 C :   -0.368211
   2 O :    0.022098
   3 C :   -0.175012
   4 C :   -0.211249
   5 C :   -0.215585
   6 C :   -0.159084
   7 N :    0.149555
   8 H :    0.127801
   9 H :    0.132601
  10 H :    0.124815
  11 H :    0.175965
  12 H :    0.140563
  13 H :    0.134748
  14 H :    0.143935
  15 H :    0.124455
  16 H :    0.130409

  Mayer bond orders larger than 0.1
B(  0-C ,  1-C ) :   0.9224 B(  0-C ,  8-H ) :   0.9296 B(  0-C ,  9-H ) :   0.9387
B(  0-C , 10-H ) :   0.9197 B(  1-C ,  2-O ) :   0.9813 B(  1-C ,  3-C ) :   0.9222
B(  1-C ,  6-C ) :   0.9319 B(  2-O , 11-H ) :   0.8413 B(  3-C ,  4-C ) :   0.9103
B(  3-C ,  7-N ) :   0.9077 B(  3-C , 12-H ) :   0.9034 B(  4-C ,  5-C ) :   0.9508
B(  4-C ,  7-N ) :   0.8916 B(  4-C , 13-H ) :   0.9202 B(  5-C ,  6-C ) :   0.9265
B(  5-C , 14-H ) :   0.9023 B(  5-C , 15-H ) :   0.9194 B(  6-C ,  7-N ) :   0.9358
B(  6-C , 16-H ) :   0.8935

MP2 TOTAL ENERGY:     -363.185872146 Eh
FINAL SINGLE POINT ENERGY      -363.185872146358

DIPOLE MOMENT
-------------
                                X             Y             Z
Electronic contribution:     -0.82064      -4.55550      -1.02137
Nuclear contribution   :      1.09288       5.64527       1.48095
                        -----------------------------------------
Total Dipole Moment    :      0.27225       1.08976       0.45958
                        -----------------------------------------
Magnitude (a.u.)       :      1.21364
Magnitude (Debye)      :      3.08482

                             ****ORCA TERMINATED NORMALLY****
TOTAL RUN TIME: 0 days 0 hours 13 minutes 29 seconds 858 msec
