                         Program Version 3.0.3 - RELEASE   -
|  1> ! RI-MP2 RIJK def2-TZVP def2-TZVP/C def2-TZVP/JK TIGHTSCF
|  2> % maxcore 2000
|  3> % mp2 density relaxed end
|  4> *xyz 0 1
|  5>  O       -0.1528878328     0.1799472928     0.4836492068
|  6>  C       -0.0300342329     1.2563128963    -0.0351838234
|  7>  C        1.3173549266     1.9966848895    -0.0900722604
|  8>  C        1.3851084868     2.8924988948    -1.2353210096
|  9>  C        1.4131063959     3.6217765789    -2.1904680116
| 10>  C        1.5142411439     2.7203165943     1.2650257212
| 11>  C        2.6656233670     3.7390225085     1.3930787238
| 12>  C        1.5385038210     4.7519533641     1.6823624039
| 13>  O        0.5237401192     3.7404978128     1.4846270427
| 14>  H       -0.8834407540     1.8008240836    -0.4867464092
| 15>  H        2.0943397785     1.2242938512    -0.1541382751
| 16>  H        1.4426564386     4.2618301526    -3.0376542537
| 17>  H        1.4817771942     1.9540143652     2.0499302894
| 18>  H        3.3655557425     3.5516983592     2.2079774757
| 19>  H        3.2145149084     3.9204011357     0.4684787655
| 20>  H        1.5150388012     5.1534214551     2.7021249576
| 21>  H        1.4335732958     5.5733941054     0.9660209666
| 22> *
| 23>
| 24>                          ****END OF INPUT****

CARTESIAN COORDINATES (ANGSTROEM)
---------------------------------
  O     -0.152888    0.179947    0.483649
  C     -0.030034    1.256313   -0.035184
  C      1.317355    1.996685   -0.090072
  C      1.385108    2.892499   -1.235321
  C      1.413106    3.621777   -2.190468
  C      1.514241    2.720317    1.265026
  C      2.665623    3.739023    1.393079
  C      1.538504    4.751953    1.682362
  O      0.523740    3.740498    1.484627
  H     -0.883441    1.800824   -0.486746
  H      2.094340    1.224294   -0.154138
  H      1.442656    4.261830   -3.037654
  H      1.481777    1.954014    2.049930
  H      3.365556    3.551698    2.207977
  H      3.214515    3.920401    0.468479
  H      1.515039    5.153421    2.702125
  H      1.433573    5.573394    0.966021

 Total Charge           Charge          ....    0
 Multiplicity           Mult            ....    1
 Number of Electrons    NEL             ....   66
 Basis Dimension        Dim             ....  327

ORBITAL ENERGIES
----------------

  NO   OCC          E(Eh)            E(eV)
   0   2.0000     -20.565780      -559.6233
   1   2.0000     -20.560080      -559.4682
   2   2.0000     -11.341945      -308.6300
   3   2.0000     -11.308504      -307.7200
   4   2.0000     -11.288890      -307.1863
   5   2.0000     -11.278417      -306.9013
   6   2.0000     -11.249515      -306.1149
   7   2.0000     -11.241991      -305.9101
   8   2.0000     -11.240322      -305.8647
   9   2.0000      -1.407134       -38.2901
  10   2.0000      -1.393351       -37.9150
  11   2.0000      -1.109489       -30.1907
  12   2.0000      -1.025526       -27.9060
  13   2.0000      -1.008239       -27.4356
  14   2.0000      -0.918565       -24.9954
  15   2.0000      -0.820073       -22.3153
  16   2.0000      -0.787424       -21.4269
  17   2.0000      -0.735835       -20.0231
  18   2.0000      -0.708146       -19.2696
  19   2.0000      -0.683425       -18.5969
  20   2.0000      -0.675934       -18.3931
  21   2.0000      -0.653845       -17.7920
  22   2.0000      -0.624812       -17.0020
  23   2.0000      -0.583487       -15.8775
  24   2.0000      -0.576578       -15.6895
  25   2.0000      -0.551220       -14.9995
  26   2.0000      -0.533614       -14.5204
  27   2.0000      -0.484298       -13.1784
  28   2.0000      -0.476073       -12.9546
  29   2.0000      -0.440949       -11.9988
  30   2.0000      -0.433016       -11.7830
  31   2.0000      -0.403042       -10.9673
  32   2.0000      -0.394005       -10.7214
  33   0.0000       0.117718         3.2033
  34   0.0000       0.138524         3.7694
  35   0.0000       0.148518         4.0414
  36   0.0000       0.156470         4.2578
  37   0.0000       0.166981         4.5438

MULLIKEN ATOMIC CHARGES
-----------------------
   0 O :   -0.247419
   1 C :    0.072091
   2 C :   -0.008947
   3 C :   -0.104426
   4 C :   -0.180939
   5 C :    0.087005
   6 C :   -0.294109
   7 C :   -0.011233
   8 O :   -0.345712
   9 H :    0.108923
  10 H :    0.129235
  11 H :    0.194289
  12 H :    0.113228
  13 H :    0.135726
  14 H :    0.142053
  15 H :    0.105170
  16 H :    0.105065
Sum of atomic charges:    0.0000000

LOEWDIN ATOMIC CHARGES
----------------------
   0 O :    0.148917
   1 C :   -0.242856
   2 C :   -0.226493
   3 C :   -0.090610
   4 C :   -0.085371
   5 C :   -0.251414
   6 C :   -0.220048
   7 C :   -0.262186
   8 O :    0.142138
   9 H :    0.123109
  10 H :    0.183703
  11 H :    0.129117
  12 H :    0.144149
  13 H :    0.131922
  14 H :    0.139649
  15 H :    0.117329
  16 H :    0.118944

  Mayer bond orders larger than 0.1
B(  0-O ,  1-C ) :   2.0019 B(  1-C ,  2-C ) :   0.7977 B(  1-C ,  9-H ) :   0.9406
B(  2-C ,  3-C ) :   1.0190 B(  2-C ,  5-C ) :   0.8729 B(  2-C , 10-H ) :   0.8896
B(  3-C ,  4-C ) :   2.6261 B(  4-C , 11-H ) :   0.8971 B(  5-C ,  6-C ) :   0.9021
B(  5-C ,  8-O ) :   0.9487 B(  5-C , 12-H ) :   0.9183 B(  6-C ,  7-C ) :   0.9835
B(  6-C , 13-H ) :   0.9294 B(  6-C , 14-H ) :   0.9243 B(  7-C ,  8-O ) :   0.9295
B(  7-C , 15-H ) :   0.9190 B(  7-C , 16-H ) :   0.9166

MP2 TOTAL ENERGY:     -421.056493116 Eh
FINAL SINGLE POINT ENERGY      -421.056493116309

DIPOLE MOMENT
-------------
                                X             Y             Z
Electronic contribution:     -3.52623      -4.13593      -1.88302
Nuclear contribution   :      4.48112       5.02109       1.67807
                        -----------------------------------------
Total Dipole Moment    :      0.95488       0.88516      -0.20495
                        -----------------------------------------
Magnitude (a.u.)       :      1.31807
Magnitude (Debye)      :      3.35027

                             ****ORCA TERMINATED NORMALLY****
TOTAL RUN TIME: 0 days 0 hours 16 minutes 12 seconds 101 msec
