                         Program Version 3.0.3 - RELEASE   -
|  1> ! RI-MP2 RIJK def2-TZVP def2-TZVP/C def2-TZVP/JK TIGHTSCF
|  2> % maxcore 2000
|  3> % mp2 density relaxed end
|  4> *xyz 0 1
|  5>  C       -0.0832355959     1.5998283937    -0.0534187134
|  6>  C       -0.0325238595     0.0699212026    -0.0766553301
|  7>  C       -1.4118730547    -0.5700001432     0.0404160596
|  8>  C       -1.3582397695    -2.0880643791    -0.0328654702
|  9>  O       -2.6395249569    -2.6952784728     0.2015502027
| 10>  C       -3.4752015370    -2.1412330758     1.1235464040
| 11>  N       -4.4301630240    -2.7844517545     1.6456133194
| 12>  C       -3.2999412545    -0.6639801508     1.4190698314
| 13>  O       -1.9668755401    -0.2106919778     1.2991093769
| 14>  H        0.9231785887     2.0247156548    -0.1054438593
| 15>  H       -0.6554468736     1.9894150454    -0.9025075221
| 16>  H       -0.5592862786     1.9531774992     0.8642563891
| 17>  H        0.4344900649    -0.2803320671    -1.0053667399
| 18>  H        0.5876997100    -0.2968757531     0.7500103244
| 19>  H       -2.0673685687    -0.1946870449    -0.7663425389
| 20>  H       -1.0452038228    -2.4319130230    -1.0223678449
| 21>  H       -0.6484116794    -2.4656881954     0.7146864597
| 22>  H       -4.4429081849    -3.7448025963     1.2947944606
| 23>  H       -3.9567897059    -0.1049411925     0.7304264225
| 24>  H       -3.6317862775    -0.4678949595     2.4387030586
| 25> *
| 26>
| 27>                          ****END OF INPUT****

CARTESIAN COORDINATES (ANGSTROEM)
---------------------------------
  C     -0.083236    1.599828   -0.053419
  C     -0.032524    0.069921   -0.076655
  C     -1.411873   -0.570000    0.040416
  C     -1.358240   -2.088064   -0.032865
  O     -2.639525   -2.695278    0.201550
  C     -3.475202   -2.141233    1.123546
  N     -4.430163   -2.784452    1.645613
  C     -3.299941   -0.663980    1.419070
  O     -1.966876   -0.210692    1.299109
  H      0.923179    2.024716   -0.105444
  H     -0.655447    1.989415   -0.902508
  H     -0.559286    1.953177    0.864256
  H      0.434490   -0.280332   -1.005367
  H      0.587700   -0.296876    0.750010
  H     -2.067369   -0.194687   -0.766343
  H     -1.045204   -2.431913   -1.022368
  H     -0.648412   -2.465688    0.714686
  H     -4.442908   -3.744803    1.294794
  H     -3.956790   -0.104941    0.730426
  H     -3.631786   -0.467895    2.438703

 Total Charge           Charge          ....    0
 Multiplicity           Mult            ....    1
 Number of Electrons    NEL             ....   70
 Basis Dimension        Dim             ....  345

ORBITAL ENERGIES
----------------

  NO   OCC          E(Eh)            E(eV)
   0   2.0000     -20.596359      -560.4554
   1   2.0000     -20.573720      -559.8394
   2   2.0000     -15.532771      -422.6682
   3   2.0000     -11.338124      -308.5260
   4   2.0000     -11.298795      -307.4558
   5   2.0000     -11.296865      -307.4033
   6   2.0000     -11.294242      -307.3319
   7   2.0000     -11.237469      -305.7871
   8   2.0000     -11.221227      -305.3451
   9   2.0000      -1.436461       -39.0881
  10   2.0000      -1.388320       -37.7781
  11   2.0000      -1.199527       -32.6408
  12   2.0000      -1.085130       -29.5279
  13   2.0000      -0.999828       -27.2067
  14   2.0000      -0.963137       -26.2083
  15   2.0000      -0.894386       -24.3375
  16   2.0000      -0.826422       -22.4881
  17   2.0000      -0.770253       -20.9596
  18   2.0000      -0.714853       -19.4521
  19   2.0000      -0.688899       -18.7459
  20   2.0000      -0.673465       -18.3259
  21   2.0000      -0.652393       -17.7525
  22   2.0000      -0.640909       -17.4400
  23   2.0000      -0.604600       -16.4520
  24   2.0000      -0.594213       -16.1694
  25   2.0000      -0.574506       -15.6331
  26   2.0000      -0.561909       -15.2903
  27   2.0000      -0.526242       -14.3198
  28   2.0000      -0.517446       -14.0804
  29   2.0000      -0.499144       -13.5824
  30   2.0000      -0.495888       -13.4938
  31   2.0000      -0.475104       -12.9282
  32   2.0000      -0.451049       -12.2737
  33   2.0000      -0.422193       -11.4884
  34   2.0000      -0.396984       -10.8025
  35   0.0000       0.128503         3.4967
  36   0.0000       0.149284         4.0622
  37   0.0000       0.154927         4.2158
  38   0.0000       0.169573         4.6143
  39   0.0000       0.175088         4.7644

MULLIKEN ATOMIC CHARGES
-----------------------
   0 C :   -0.399074
   1 C :   -0.181329
   2 C :    0.009905
   3 C :   -0.013050
   4 O :   -0.264233
   5 C :    0.107729
   6 N :   -0.372313
   7 C :   -0.013002
   8 O :   -0.305355
   9 H :    0.136512
  10 H :    0.119548
  11 H :    0.149687
  12 H :    0.111691
  13 H :    0.116537
  14 H :    0.079481
  15 H :    0.126350
  16 H :    0.104912
  17 H :    0.220052
  18 H :    0.111275
  19 H :    0.154677
Sum of atomic charges:    0.0000000

LOEWDIN ATOMIC CHARGES
----------------------
   0 C :   -0.314056
   1 C :   -0.268188
   2 C :   -0.336752
   3 C :   -0.264121
   4 O :    0.232817
   5 C :   -0.420386
   6 N :   -0.053092
   7 C :   -0.279644
   8 O :    0.185496
   9 H :    0.122346
  10 H :    0.121176
  11 H :    0.127422
  12 H :    0.142616
  13 H :    0.143398
  14 H :    0.142067
  15 H :    0.135541
  16 H :    0.132712
  17 H :    0.166953
  18 H :    0.136094
  19 H :    0.147601

  Mayer bond orders larger than 0.1
B(  0-C ,  1-C ) :   0.9215 B(  0-C ,  9-H ) :   0.9398 B(  0-C , 10-H ) :   0.9368
B(  0-C , 11-H ) :   0.9374 B(  1-C ,  2-C ) :   0.9199 B(  1-C , 12-H ) :   0.9284
B(  1-C , 13-H ) :   0.9259 B(  2-C ,  3-C ) :   0.9475 B(  2-C ,  8-O ) :   0.9054
B(  2-C , 14-H ) :   0.9194 B(  3-C ,  4-O ) :   0.8766 B(  3-C , 15-H ) :   0.9236
B(  3-C , 16-H ) :   0.9172 B(  4-O ,  5-C ) :   1.0861 B(  5-C ,  6-N ) :   2.0293
B(  5-C ,  7-C ) :   0.9172 B(  6-N , 17-H ) :   0.8543 B(  7-C ,  8-O ) :   0.9320
B(  7-C , 18-H ) :   0.9228 B(  7-C , 19-H ) :   0.9155

MP2 TOTAL ENERGY:     -439.574222655 Eh
FINAL SINGLE POINT ENERGY      -439.574222655016

DIPOLE MOMENT
-------------
                                X             Y             Z
Electronic contribution:     -6.26873      -6.73193       2.69654
Nuclear contribution   :      7.18068       7.00256      -3.50780
                        -----------------------------------------
Total Dipole Moment    :      0.91195       0.27062      -0.81126
                        -----------------------------------------
Magnitude (a.u.)       :      1.25021
Magnitude (Debye)      :      3.17778

                             ****ORCA TERMINATED NORMALLY****
TOTAL RUN TIME: 0 days 0 hours 28 minutes 3 seconds 580 msec
