                         Program Version 3.0.3 - RELEASE   -
|  1> ! RI-MP2 RIJK def2-TZVP def2-TZVP/C def2-TZVP/JK TIGHTSCF
|  2> % maxcore 2000
|  3> % mp2 density relaxed end
|  4> *xyz 0 1
|  5>  C        0.0033417513     1.5506651301    -0.1152676713
|  6>  C        1.3097934106     0.7998059753    -0.0348951382
|  7>  C        2.1281355601     0.7701922936     1.2490371241
|  8>  C        1.4372994270     0.0103633733     2.3779197833
|  9>  C       -0.0931252731     0.1450649465     2.6223454965
| 10>  O       -0.0716208771    -1.1529482368     3.3247876920
| 11>  C        0.7346442713    -1.3521455071     2.1033990648
| 12>  C       -0.3639986586    -0.6059052376     1.2877275768
| 13>  C        0.0038282479     0.0414318978    -0.0213121148
| 14>  H       -0.3264561176     2.1122175423     0.7535991627
| 15>  H       -0.2587249437     2.0086695352    -1.0626335623
| 16>  H        1.8884075666     0.7689910389    -0.9522963233
| 17>  H        3.0914483725     0.2830332075     1.0523667356
| 18>  H        2.3690105441     1.7870930674     1.5858735965
| 19>  H        2.0120219328     0.0062000642     3.3068845328
| 20>  H       -0.6572046119     0.9547087269     3.0884987904
| 21>  H        1.1716630582    -2.3391391170     1.9432320170
| 22>  H       -1.3255347249    -1.1234605449     1.2805440049
| 23>  H       -0.2757148254    -0.5143293556    -0.9111486075
| 24> *
| 25>
| 26>                          ****END OF INPUT****

CARTESIAN COORDINATES (ANGSTROEM)
---------------------------------
  C      0.003342    1.550665   -0.115268
  C      1.309793    0.799806   -0.034895
  C      2.128136    0.770192    1.249037
  C      1.437299    0.010363    2.377920
  C     -0.093125    0.145065    2.622345
  O     -0.071621   -1.152948    3.324788
  C      0.734644   -1.352146    2.103399
  C     -0.363999   -0.605905    1.287728
  C      0.003828    0.041432   -0.021312
  H     -0.326456    2.112218    0.753599
  H     -0.258725    2.008670   -1.062634
  H      1.888408    0.768991   -0.952296
  H      3.091448    0.283033    1.052367
  H      2.369011    1.787093    1.585874
  H      2.012022    0.006200    3.306885
  H     -0.657205    0.954709    3.088499
  H      1.171663   -2.339139    1.943232
  H     -1.325535   -1.123461    1.280544
  H     -0.275715   -0.514329   -0.911149

 Total Charge           Charge          ....    0
 Multiplicity           Mult            ....    1
 Number of Electrons    NEL             ....   66
 Basis Dimension        Dim             ....  339

ORBITAL ENERGIES
----------------

  NO   OCC          E(Eh)            E(eV)
   0   2.0000     -20.542889      -559.0004
   1   2.0000     -11.293168      -307.3027
   2   2.0000     -11.291769      -307.2647
   3   2.0000     -11.239639      -305.8461
   4   2.0000     -11.239252      -305.8356
   5   2.0000     -11.234893      -305.7170
   6   2.0000     -11.234180      -305.6976
   7   2.0000     -11.231210      -305.6168
   8   2.0000     -11.229348      -305.5661
   9   2.0000      -1.391570       -37.8666
  10   2.0000      -1.170122       -31.8406
  11   2.0000      -1.064339       -28.9621
  12   2.0000      -1.005519       -27.3616
  13   2.0000      -0.892680       -24.2910
  14   2.0000      -0.879127       -23.9223
  15   2.0000      -0.818153       -22.2631
  16   2.0000      -0.798968       -21.7410
  17   2.0000      -0.702345       -19.1118
  18   2.0000      -0.687879       -18.7181
  19   2.0000      -0.661133       -17.9903
  20   2.0000      -0.632428       -17.2092
  21   2.0000      -0.607599       -16.5336
  22   2.0000      -0.582259       -15.8441
  23   2.0000      -0.546137       -14.8612
  24   2.0000      -0.544680       -14.8215
  25   2.0000      -0.527581       -14.3562
  26   2.0000      -0.491599       -13.3771
  27   2.0000      -0.474787       -12.9196
  28   2.0000      -0.457403       -12.4466
  29   2.0000      -0.443816       -12.0768
  30   2.0000      -0.412029       -11.2119
  31   2.0000      -0.403927       -10.9914
  32   2.0000      -0.382054       -10.3962
  33   0.0000       0.137533         3.7425
  34   0.0000       0.154431         4.2023
  35   0.0000       0.162182         4.4132
  36   0.0000       0.174475         4.7477
  37   0.0000       0.190808         5.1922

MULLIKEN ATOMIC CHARGES
-----------------------
   0 C :   -0.291215
   1 C :   -0.094241
   2 C :   -0.216654
   3 C :   -0.035311
   4 C :   -0.081414
   5 O :   -0.313708
   6 C :   -0.064319
   7 C :    0.018773
   8 C :   -0.157586
   9 H :    0.127988
  10 H :    0.132187
  11 H :    0.124605
  12 H :    0.117771
  13 H :    0.119994
  14 H :    0.112879
  15 H :    0.130296
  16 H :    0.129824
  17 H :    0.117959
  18 H :    0.122171
Sum of atomic charges:    0.0000000

LOEWDIN ATOMIC CHARGES
----------------------
   0 C :   -0.198638
   1 C :   -0.198044
   2 C :   -0.224274
   3 C :   -0.178946
   4 C :   -0.197245
   5 O :    0.133163
   6 C :   -0.185357
   7 C :   -0.165605
   8 C :   -0.187641
   9 H :    0.135659
  10 H :    0.132638
  11 H :    0.146943
  12 H :    0.147432
  13 H :    0.144369
  14 H :    0.149461
  15 H :    0.123541
  16 H :    0.123301
  17 H :    0.151342
  18 H :    0.147902

  Mayer bond orders larger than 0.1
B(  0-C ,  1-C ) :   0.8793 B(  0-C ,  8-C ) :   0.8814 B(  0-C ,  9-H ) :   0.9238
B(  0-C , 10-H ) :   0.9304 B(  1-C ,  2-C ) :   0.9332 B(  1-C ,  8-C ) :   0.8863
B(  1-C , 11-H ) :   0.9348 B(  2-C ,  3-C ) :   0.9262 B(  2-C , 12-H ) :   0.9178
B(  2-C , 13-H ) :   0.9166 B(  3-C ,  4-C ) :   0.9088 B(  3-C ,  6-C ) :   0.9139
B(  3-C , 14-H ) :   0.9254 B(  4-C ,  5-O ) :   0.9223 B(  4-C ,  7-C ) :   0.8815
B(  4-C , 15-H ) :   0.8943 B(  5-O ,  6-C ) :   0.9107 B(  6-C ,  7-C ) :   0.8953
B(  6-C , 16-H ) :   0.8849 B(  7-C ,  8-C ) :   0.8891 B(  7-C , 17-H ) :   0.9217
B(  8-C , 18-H ) :   0.9280

MP2 TOTAL ENERGY:     -385.145728952 Eh
FINAL SINGLE POINT ENERGY      -385.145728951546

DIPOLE MOMENT
-------------
                                X             Y             Z
Electronic contribution:     -1.57617      -3.12662       3.33594
Nuclear contribution   :      1.93760       3.54018      -4.11042
                        -----------------------------------------
Total Dipole Moment    :      0.36143       0.41356      -0.77449
                        -----------------------------------------
Magnitude (a.u.)       :      0.94947
Magnitude (Debye)      :      2.41337

                             ****ORCA TERMINATED NORMALLY****
TOTAL RUN TIME: 0 days 0 hours 18 minutes 21 seconds 860 msec
