                         Program Version 3.0.3 - RELEASE   -
|  1> ! RI-MP2 RIJK def2-TZVP def2-TZVP/C def2-TZVP/JK TIGHTSCF
|  2> % maxcore 2000
|  3> % mp2 density relaxed end
|  4> *xyz 0 1
|  5>  C       -0.1353874551     1.5576290301     0.0448650113
|  6>  C        0.0312638465     0.0292216538     0.0063254563
|  7>  C        0.8773056327    -0.4673926296    -1.1826997257
|  8>  C        2.0016601371    -1.2988624777    -0.5608968197
|  9>  O        2.8672365273    -1.8956336304    -1.1637546312
| 10>  C        1.8375734018    -1.2553092568     0.9106618991
| 11>  C        2.8110302879    -1.9730151011     1.7906814974
| 12>  C        0.7475378876    -0.5297420145     1.2292865490
| 13>  C        0.2102584112    -0.2575891160     2.5983247488
| 14>  H        0.8399082578     2.0536367287     0.1034810276
| 15>  H       -0.6389892918     1.9106802613    -0.8603306126
| 16>  H       -0.7317138676     1.8806417345     0.9036648031
| 17>  H       -0.9751804665    -0.4119590097    -0.0318957858
| 18>  H        0.3134480214    -1.0796106118    -1.8924766238
| 19>  H        1.3138927555     0.3570637536    -1.7564212504
| 20>  H        3.0304466528    -2.9610279398     1.3742437146
| 21>  H        3.7672163817    -1.4379269114     1.8312952779
| 22>  H        2.4476789713    -2.0919895024     2.8141704243
| 23>  H        0.7207774398    -0.8388737247     3.3687846654
| 24>  H        0.3139095668     0.8032401375     2.8576078479
| 25>  H       -0.8619062381    -0.4850527635     2.6470710966
| 26> *
| 27>
| 28>                          ****END OF INPUT****

CARTESIAN COORDINATES (ANGSTROEM)
---------------------------------
  C     -0.135387    1.557629    0.044865
  C      0.031264    0.029222    0.006325
  C      0.877306   -0.467393   -1.182700
  C      2.001660   -1.298862   -0.560897
  O      2.867237   -1.895634   -1.163755
  C      1.837573   -1.255309    0.910662
  C      2.811030   -1.973015    1.790681
  C      0.747538   -0.529742    1.229287
  C      0.210258   -0.257589    2.598325
  H      0.839908    2.053637    0.103481
  H     -0.638989    1.910680   -0.860331
  H     -0.731714    1.880642    0.903665
  H     -0.975180   -0.411959   -0.031896
  H      0.313448   -1.079611   -1.892477
  H      1.313893    0.357064   -1.756421
  H      3.030447   -2.961028    1.374244
  H      3.767216   -1.437927    1.831295
  H      2.447679   -2.091990    2.814170
  H      0.720777   -0.838874    3.368785
  H      0.313910    0.803240    2.857608
  H     -0.861906   -0.485053    2.647071

 Total Charge           Charge          ....    0
 Multiplicity           Mult            ....    1
 Number of Electrons    NEL             ....   68
 Basis Dimension        Dim             ....  351

ORBITAL ENERGIES
----------------

  NO   OCC          E(Eh)            E(eV)
   0   2.0000     -20.527116      -558.5712
   1   2.0000     -11.315547      -307.9117
   2   2.0000     -11.260589      -306.4162
   3   2.0000     -11.248195      -306.0789
   4   2.0000     -11.238868      -305.8251
   5   2.0000     -11.232061      -305.6399
   6   2.0000     -11.230431      -305.5956
   7   2.0000     -11.229404      -305.5676
   8   2.0000     -11.221495      -305.3524
   9   2.0000      -1.370374       -37.2898
  10   2.0000      -1.158142       -31.5147
  11   2.0000      -1.046136       -28.4668
  12   2.0000      -1.011499       -27.5243
  13   2.0000      -0.967332       -26.3224
  14   2.0000      -0.906566       -24.6689
  15   2.0000      -0.851084       -23.1592
  16   2.0000      -0.761973       -20.7343
  17   2.0000      -0.694323       -18.8935
  18   2.0000      -0.657347       -17.8873
  19   2.0000      -0.635202       -17.2847
  20   2.0000      -0.624308       -16.9883
  21   2.0000      -0.592950       -16.1350
  22   2.0000      -0.582325       -15.8459
  23   2.0000      -0.570129       -15.5140
  24   2.0000      -0.561105       -15.2684
  25   2.0000      -0.553517       -15.0620
  26   2.0000      -0.549721       -14.9587
  27   2.0000      -0.531045       -14.4505
  28   2.0000      -0.516032       -14.0420
  29   2.0000      -0.497841       -13.5469
  30   2.0000      -0.483455       -13.1555
  31   2.0000      -0.474864       -12.9217
  32   2.0000      -0.393638       -10.7114
  33   2.0000      -0.352478        -9.5914
  34   0.0000       0.107197         2.9170
  35   0.0000       0.124179         3.3791
  36   0.0000       0.152641         4.1536
  37   0.0000       0.161365         4.3910
  38   0.0000       0.162491         4.4216

MULLIKEN ATOMIC CHARGES
-----------------------
   0 C :   -0.441467
   1 C :    0.031101
   2 C :   -0.239070
   3 C :    0.143825
   4 O :   -0.298555
   5 C :   -0.042063
   6 C :   -0.406919
   7 C :    0.032965
   8 C :   -0.439355
   9 H :    0.133926
  10 H :    0.141345
  11 H :    0.135045
  12 H :    0.101149
  13 H :    0.135903
  14 H :    0.136200
  15 H :    0.158253
  16 H :    0.147215
  17 H :    0.127520
  18 H :    0.139333
  19 H :    0.156679
  20 H :    0.146969
Sum of atomic charges:   -0.0000000

LOEWDIN ATOMIC CHARGES
----------------------
   0 C :   -0.287907
   1 C :   -0.225860
   2 C :   -0.186798
   3 C :   -0.296651
   4 O :    0.131770
   5 C :   -0.141272
   6 C :   -0.263714
   7 C :   -0.109884
   8 C :   -0.264045
   9 H :    0.126486
  10 H :    0.126023
  11 H :    0.122470
  12 H :    0.157658
  13 H :    0.149839
  14 H :    0.153441
  15 H :    0.140207
  16 H :    0.138263
  17 H :    0.125552
  18 H :    0.130145
  19 H :    0.137801
  20 H :    0.136476

  Mayer bond orders larger than 0.1
B(  0-C ,  1-C ) :   0.8595 B(  0-C ,  9-H ) :   0.9328 B(  0-C , 10-H ) :   0.9368
B(  0-C , 11-H ) :   0.9398 B(  1-C ,  2-C ) :   0.9129 B(  1-C ,  7-C ) :   0.9296
B(  1-C , 12-H ) :   0.9045 B(  2-C ,  3-C ) :   0.9624 B(  2-C , 13-H ) :   0.9069
B(  2-C , 14-H ) :   0.9092 B(  3-C ,  4-O ) :   2.0520 B(  3-C ,  5-C ) :   0.9529
B(  5-C ,  6-C ) :   0.8878 B(  5-C ,  7-C ) :   1.5870 B(  6-C , 15-H ) :   0.9289
B(  6-C , 16-H ) :   0.9237 B(  6-C , 17-H ) :   0.9578 B(  7-C ,  8-C ) :   0.8752
B(  8-C , 18-H ) :   0.9461 B(  8-C , 19-H ) :   0.9290 B(  8-C , 20-H ) :   0.9320

MP2 TOTAL ENERGY:     -386.464426931 Eh
FINAL SINGLE POINT ENERGY      -386.464426930719

DIPOLE MOMENT
-------------
                                X             Y             Z
Electronic contribution:      4.19908      -4.67898      -5.15139
Nuclear contribution   :     -5.18316       5.35066       6.01711
                        -----------------------------------------
Total Dipole Moment    :     -0.98408       0.67168       0.86572
                        -----------------------------------------
Magnitude (a.u.)       :      1.47276
Magnitude (Debye)      :      3.74347

                             ****ORCA TERMINATED NORMALLY****
TOTAL RUN TIME: 0 days 0 hours 20 minutes 49 seconds 813 msec
