                         Program Version 3.0.3 - RELEASE   -
|  1> ! RI-MP2 RIJK def2-TZVP def2-TZVP/C def2-TZVP/JK TIGHTSCF
|  2> % maxcore 2000
|  3> % mp2 density relaxed end
|  4> *xyz 0 1
|  5>  C       -0.0297437233    -1.2729472539    -0.0675350508
|  6>  C       -0.0044589783    -0.0711419196    -0.0498849495
|  7>  C        0.0296722873     1.3864484825    -0.0208519502
|  8>  C       -0.6628333418     2.0029790804     1.2313353005
|  9>  C        0.1522742430     3.2907905597     1.5631635902
| 10>  C        1.4943784349     3.0026332470     0.9017290049
| 11>  C        1.4282268639     1.9825339821     0.0541488203
| 12>  C       -0.4501998896     4.5174065475     1.0401554864
| 13>  C       -0.9421307357     5.5225970473     0.6001607416
| 14>  H       -0.0531094352    -2.3342629319    -0.0866108793
| 15>  H       -0.4590681418     1.7554777840    -0.9351803357
| 16>  H       -1.7222963919     2.2046614924     1.0701823342
| 17>  H       -0.5690328632     1.3012552310     2.0633589503
| 18>  H        0.2591741728     3.4016363934     2.6495238007
| 19>  H        2.3645827779     3.6211461475     1.0854255457
| 20>  H        2.2394746701     1.6088242317    -0.5587210736
| 21>  H       -1.3759599691     6.4123281389     0.2160039645
| 22> *
| 23>
| 24>                          ****END OF INPUT****

CARTESIAN COORDINATES (ANGSTROEM)
---------------------------------
  C     -0.029744   -1.272947   -0.067535
  C     -0.004459   -0.071142   -0.049885
  C      0.029672    1.386448   -0.020852
  C     -0.662833    2.002979    1.231335
  C      0.152274    3.290791    1.563164
  C      1.494378    3.002633    0.901729
  C      1.428227    1.982534    0.054149
  C     -0.450200    4.517407    1.040155
  C     -0.942131    5.522597    0.600161
  H     -0.053109   -2.334263   -0.086611
  H     -0.459068    1.755478   -0.935180
  H     -1.722296    2.204661    1.070182
  H     -0.569033    1.301255    2.063359
  H      0.259174    3.401636    2.649524
  H      2.364583    3.621146    1.085426
  H      2.239475    1.608824   -0.558721
  H     -1.375960    6.412328    0.216004

 Total Charge           Charge          ....    0
 Multiplicity           Mult            ....    1
 Number of Electrons    NEL             ....   62
 Basis Dimension        Dim             ....  327

ORBITAL ENERGIES
----------------

  NO   OCC          E(Eh)            E(eV)
   0   2.0000     -11.267384      -306.6011
   1   2.0000     -11.265575      -306.5519
   2   2.0000     -11.241882      -305.9072
   3   2.0000     -11.241070      -305.8851
   4   2.0000     -11.239179      -305.8336
   5   2.0000     -11.235260      -305.7270
   6   2.0000     -11.234850      -305.7158
   7   2.0000     -11.222750      -305.3866
   8   2.0000     -11.222652      -305.3839
   9   2.0000      -1.165010       -31.7015
  10   2.0000      -1.064215       -28.9588
  11   2.0000      -1.025822       -27.9140
  12   2.0000      -0.979987       -26.6668
  13   2.0000      -0.964641       -26.2492
  14   2.0000      -0.838592       -22.8192
  15   2.0000      -0.763620       -20.7792
  16   2.0000      -0.723141       -19.6777
  17   2.0000      -0.717638       -19.5279
  18   2.0000      -0.690119       -18.7791
  19   2.0000      -0.670299       -18.2398
  20   2.0000      -0.618281       -16.8243
  21   2.0000      -0.574790       -15.6408
  22   2.0000      -0.548593       -14.9280
  23   2.0000      -0.524523       -14.2730
  24   2.0000      -0.518858       -14.1188
  25   2.0000      -0.513287       -13.9673
  26   2.0000      -0.398229       -10.8364
  27   2.0000      -0.392341       -10.6761
  28   2.0000      -0.387180       -10.5357
  29   2.0000      -0.382852       -10.4179
  30   2.0000      -0.361664        -9.8414
  31   0.0000       0.131756         3.5853
  32   0.0000       0.145358         3.9554
  33   0.0000       0.156908         4.2697
  34   0.0000       0.163814         4.4576
  35   0.0000       0.167531         4.5588

MULLIKEN ATOMIC CHARGES
-----------------------
   0 C :   -0.145095
   1 C :   -0.049291
   2 C :   -0.120195
   3 C :   -0.268139
   4 C :   -0.015688
   5 C :   -0.151310
   6 C :   -0.190831
   7 C :   -0.092090
   8 C :   -0.170899
   9 H :    0.191030
  10 H :    0.133442
  11 H :    0.143680
  12 H :    0.137101
  13 H :    0.131520
  14 H :    0.139220
  15 H :    0.138157
  16 H :    0.189388
Sum of atomic charges:   -0.0000000

LOEWDIN ATOMIC CHARGES
----------------------
   0 C :   -0.100140
   1 C :   -0.087229
   2 C :   -0.212805
   3 C :   -0.155744
   4 C :   -0.213748
   5 C :   -0.114566
   6 C :   -0.110944
   7 C :   -0.084346
   8 C :   -0.100625
   9 H :    0.126638
  10 H :    0.177579
  11 H :    0.142876
  12 H :    0.148407
  13 H :    0.170361
  14 H :    0.143118
  15 H :    0.144484
  16 H :    0.126684

  Mayer bond orders larger than 0.1
B(  0-C ,  1-C ) :   2.5836 B(  0-C ,  2-C ) :  -0.1089 B(  0-C ,  9-H ) :   0.8932
B(  1-C ,  2-C ) :   1.1469 B(  2-C ,  3-C ) :   0.9430 B(  2-C ,  6-C ) :   0.8996
B(  2-C , 10-H ) :   0.9070 B(  3-C ,  4-C ) :   0.8616 B(  3-C , 11-H ) :   0.9252
B(  3-C , 12-H ) :   0.9284 B(  4-C ,  5-C ) :   0.8891 B(  4-C ,  7-C ) :   1.1133
B(  4-C , 13-H ) :   0.9281 B(  5-C ,  6-C ) :   1.7972 B(  5-C , 14-H ) :   0.9183
B(  6-C , 15-H ) :   0.9223 B(  7-C ,  8-C ) :   2.5818 B(  8-C , 16-H ) :   0.9001

MP2 TOTAL ENERGY:     -346.826378396 Eh
FINAL SINGLE POINT ENERGY      -346.826378395863

DIPOLE MOMENT
-------------
                                X             Y             Z
Electronic contribution:      0.25120       0.15514      -0.66649
Nuclear contribution   :     -0.19087      -0.11163       0.72914
                        -----------------------------------------
Total Dipole Moment    :      0.06033       0.04351       0.06265
                        -----------------------------------------
Magnitude (a.u.)       :      0.09725
Magnitude (Debye)      :      0.24719

                             ****ORCA TERMINATED NORMALLY****
TOTAL RUN TIME: 0 days 0 hours 14 minutes 48 seconds 748 msec
