                         Program Version 3.0.3 - RELEASE   -
|  1> ! RI-MP2 RIJK def2-TZVP def2-TZVP/C def2-TZVP/JK TIGHTSCF
|  2> % maxcore 2000
|  3> % mp2 density relaxed end
|  4> *xyz 0 1
|  5>  O        0.5544223654     0.4707000611    -0.9543702509
|  6>  C       -0.0471333894     0.2103733914     0.3069322194
|  7>  C       -1.4647023827    -0.2617938683     0.1681690259
|  8>  N       -1.8492980706    -1.2489165594    -0.8653478603
|  9>  C       -2.5064124497     0.0881887602    -0.8184360033
| 10>  C       -3.5982972402     0.0802427409     0.2915770704
| 11>  C       -3.6626023974    -1.2333736206     1.0236550313
| 12>  C       -2.5285562234    -0.2856368876     1.3125675558
| 13>  H        0.1198061046     1.2454858680    -1.3264258939
| 14>  H        0.5689013945    -0.5671920703     0.7751597638
| 15>  H       -0.0098347659     1.0932604331     0.9637947197
| 16>  H       -1.1219267334    -1.1798936512    -1.5791688351
| 17>  H       -2.4803792913     0.7493014523    -1.6761748972
| 18>  H       -4.3661764453     0.8385274541     0.3697969214
| 19>  H       -4.4184564870    -1.2746673993     1.8020481891
| 20>  H       -3.4805095591    -2.1630861854     0.5008311937
| 21>  H       -2.3539077191     0.1502397009     2.2880064504
| 22> *
| 23>
| 24>                          ****END OF INPUT****

CARTESIAN COORDINATES (ANGSTROEM)
---------------------------------
  O      0.554422    0.470700   -0.954370
  C     -0.047133    0.210373    0.306932
  C     -1.464702   -0.261794    0.168169
  N     -1.849298   -1.248917   -0.865348
  C     -2.506412    0.088189   -0.818436
  C     -3.598297    0.080243    0.291577
  C     -3.662602   -1.233374    1.023655
  C     -2.528556   -0.285637    1.312568
  H      0.119806    1.245486   -1.326426
  H      0.568901   -0.567192    0.775160
  H     -0.009835    1.093260    0.963795
  H     -1.121927   -1.179894   -1.579169
  H     -2.480379    0.749301   -1.676175
  H     -4.366176    0.838527    0.369797
  H     -4.418456   -1.274667    1.802048
  H     -3.480510   -2.163086    0.500831
  H     -2.353908    0.150240    2.288006

 Total Charge           Charge          ....    0
 Multiplicity           Mult            ....    1
 Number of Electrons    NEL             ....   60
 Basis Dimension        Dim             ....  302

ORBITAL ENERGIES
----------------

  NO   OCC          E(Eh)            E(eV)
   0   2.0000     -20.569892      -559.7352
   1   2.0000     -15.554311      -423.2543
   2   2.0000     -11.289590      -307.2054
   3   2.0000     -11.265936      -306.5617
   4   2.0000     -11.262208      -306.4603
   5   2.0000     -11.235683      -305.7385
   6   2.0000     -11.234993      -305.7197
   7   2.0000     -11.225181      -305.4527
   8   2.0000      -1.374798       -37.4101
   9   2.0000      -1.285072       -34.9686
  10   2.0000      -1.128030       -30.6953
  11   2.0000      -0.979972       -26.6664
  12   2.0000      -0.910324       -24.7712
  13   2.0000      -0.846637       -23.0382
  14   2.0000      -0.775822       -21.1112
  15   2.0000      -0.734225       -19.9793
  16   2.0000      -0.722841       -19.6695
  17   2.0000      -0.686450       -18.6793
  18   2.0000      -0.635050       -17.2806
  19   2.0000      -0.627021       -17.0621
  20   2.0000      -0.600814       -16.3490
  21   2.0000      -0.567983       -15.4556
  22   2.0000      -0.529078       -14.3969
  23   2.0000      -0.518354       -14.1051
  24   2.0000      -0.499853       -13.6017
  25   2.0000      -0.466739       -12.7006
  26   2.0000      -0.454339       -12.3632
  27   2.0000      -0.415092       -11.2952
  28   2.0000      -0.410730       -11.1765
  29   2.0000      -0.326779        -8.8921
  30   0.0000       0.126152         3.4328
  31   0.0000       0.155740         4.2379
  32   0.0000       0.164240         4.4692
  33   0.0000       0.178015         4.8440
  34   0.0000       0.187626         5.1056

MULLIKEN ATOMIC CHARGES
-----------------------
   0 O :   -0.472439
   1 C :   -0.021340
   2 C :    0.051909
   3 N :   -0.366821
   4 C :   -0.164111
   5 C :   -0.077730
   6 C :   -0.289434
   7 C :   -0.158997
   8 H :    0.319380
   9 H :    0.122625
  10 H :    0.118042
  11 H :    0.225962
  12 H :    0.136717
  13 H :    0.136691
  14 H :    0.127840
  15 H :    0.172524
  16 H :    0.139183
Sum of atomic charges:    0.0000000

LOEWDIN ATOMIC CHARGES
----------------------
   0 O :   -0.041242
   1 C :   -0.312466
   2 C :   -0.259899
   3 N :    0.025228
   4 C :   -0.200017
   5 C :   -0.165120
   6 C :   -0.200775
   7 C :   -0.145756
   8 H :    0.175822
   9 H :    0.137879
  10 H :    0.126965
  11 H :    0.175957
  12 H :    0.128982
  13 H :    0.135734
  14 H :    0.140488
  15 H :    0.140908
  16 H :    0.137311

  Mayer bond orders larger than 0.1
B(  0-O ,  1-C ) :   0.8752 B(  0-O ,  8-H ) :   0.8425 B(  1-C ,  2-C ) :   0.9001
B(  1-C ,  9-H ) :   0.9275 B(  1-C , 10-H ) :   0.9400 B(  2-C ,  3-N ) :   0.9336
B(  2-C ,  4-C ) :   0.9658 B(  2-C ,  7-C ) :   0.8531 B(  3-N ,  4-C ) :   0.9489
B(  3-N , 11-H ) :   0.8591 B(  4-C ,  5-C ) :   0.8663 B(  4-C , 12-H ) :   0.9249
B(  5-C ,  6-C ) :   0.8980 B(  5-C ,  7-C ) :   0.9076 B(  5-C , 13-H ) :   0.9274
B(  6-C ,  7-C ) :   0.8913 B(  6-C , 14-H ) :   0.9310 B(  6-C , 15-H ) :   0.9027
B(  7-C , 16-H ) :   0.9302

MP2 TOTAL ENERGY:     -363.149514413 Eh
FINAL SINGLE POINT ENERGY      -363.149514412789

DIPOLE MOMENT
-------------
                                X             Y             Z
Electronic contribution:      1.03597      -0.13392      -1.61897
Nuclear contribution   :     -1.18679       1.08667       1.80177
                        -----------------------------------------
Total Dipole Moment    :     -0.15083       0.95275       0.18279
                        -----------------------------------------
Magnitude (a.u.)       :      0.98178
Magnitude (Debye)      :      2.49549

                             ****ORCA TERMINATED NORMALLY****
TOTAL RUN TIME: 0 days 0 hours 11 minutes 49 seconds 988 msec
