                         Program Version 3.0.3 - RELEASE   -
|  1> ! RI-MP2 RIJK def2-TZVP def2-TZVP/C def2-TZVP/JK TIGHTSCF
|  2> % maxcore 2000
|  3> % mp2 density relaxed end
|  4> *xyz 0 1
|  5>  C       -0.0320565499     1.5470753493     0.0872742487
|  6>  C        1.5335810913     1.4668407079    -0.0110641505
|  7>  C        2.0199625495     1.2545520619     1.3988754988
|  8>  C        1.5493632817     0.1553409384     1.9928590542
|  9>  C        0.7924939675    -0.7777221746     1.0839554749
| 10>  C        1.8033095546    -1.1796165035    -0.0492080570
| 11>  C        1.3398960675     0.0803177467    -0.7832443505
| 12>  C       -0.0264101802     0.0217497684    -0.0324937966
| 13>  H       -0.4524032902     2.0320916862     0.9726034161
| 14>  H       -0.4669164940     1.9819229326    -0.8188330732
| 15>  H        2.0536800891     2.2618938449    -0.5461196718
| 16>  H        2.6326975665     1.9994789330     1.8953287498
| 17>  H        1.7551588417    -0.1150448317     3.0230851989
| 18>  H        0.2653656757    -1.5768503911     1.6059006374
| 19>  H        2.8517544586    -1.3004959268     0.2369585535
| 20>  H        1.4602540327    -2.0654583346    -0.5940234460
| 21>  H        1.4262045948     0.1628871544    -1.8681359388
| 22>  H       -0.8974944670    -0.5157955015    -0.4113268379
| 23> *
| 24>
| 25>                          ****END OF INPUT****

CARTESIAN COORDINATES (ANGSTROEM)
---------------------------------
  C     -0.032057    1.547075    0.087274
  C      1.533581    1.466841   -0.011064
  C      2.019963    1.254552    1.398875
  C      1.549363    0.155341    1.992859
  C      0.792494   -0.777722    1.083955
  C      1.803310   -1.179617   -0.049208
  C      1.339896    0.080318   -0.783244
  C     -0.026410    0.021750   -0.032494
  H     -0.452403    2.032092    0.972603
  H     -0.466916    1.981923   -0.818833
  H      2.053680    2.261894   -0.546120
  H      2.632698    1.999479    1.895329
  H      1.755159   -0.115045    3.023085
  H      0.265366   -1.576850    1.605901
  H      2.851754   -1.300496    0.236959
  H      1.460254   -2.065458   -0.594023
  H      1.426205    0.162887   -1.868136
  H     -0.897494   -0.515796   -0.411327

 Total Charge           Charge          ....    0
 Multiplicity           Mult            ....    1
 Number of Electrons    NEL             ....   58
 Basis Dimension        Dim             ....  308

ORBITAL ENERGIES
----------------

  NO   OCC          E(Eh)            E(eV)
   0   2.0000     -11.230475      -305.5968
   1   2.0000     -11.230468      -305.5966
   2   2.0000     -11.225815      -305.4699
   3   2.0000     -11.225282      -305.4554
   4   2.0000     -11.217288      -305.2379
   5   2.0000     -11.217238      -305.2366
   6   2.0000     -11.217236      -305.2365
   7   2.0000     -11.215573      -305.1913
   8   2.0000      -1.191475       -32.4217
   9   2.0000      -1.027721       -27.9657
  10   2.0000      -1.022928       -27.8353
  11   2.0000      -0.919719       -25.0268
  12   2.0000      -0.826633       -22.4938
  13   2.0000      -0.802834       -21.8462
  14   2.0000      -0.775684       -21.1074
  15   2.0000      -0.699452       -19.0331
  16   2.0000      -0.655725       -17.8432
  17   2.0000      -0.609465       -16.5844
  18   2.0000      -0.596883       -16.2420
  19   2.0000      -0.589042       -16.0286
  20   2.0000      -0.570647       -15.5281
  21   2.0000      -0.514454       -13.9990
  22   2.0000      -0.511946       -13.9308
  23   2.0000      -0.474322       -12.9070
  24   2.0000      -0.465362       -12.6631
  25   2.0000      -0.415247       -11.2995
  26   2.0000      -0.411819       -11.2062
  27   2.0000      -0.396468       -10.7885
  28   2.0000      -0.330118        -8.9830
  29   0.0000       0.142485         3.8772
  30   0.0000       0.149801         4.0763
  31   0.0000       0.166777         4.5382
  32   0.0000       0.170369         4.6360
  33   0.0000       0.175190         4.7671

MULLIKEN ATOMIC CHARGES
-----------------------
   0 C :   -0.236351
   1 C :    0.046337
   2 C :   -0.244650
   3 C :   -0.244649
   4 C :    0.046336
   5 C :   -0.236351
   6 C :   -0.145028
   7 C :   -0.145028
   8 H :    0.112560
   9 H :    0.111778
  10 H :    0.122091
  11 H :    0.119747
  12 H :    0.119748
  13 H :    0.122091
  14 H :    0.112560
  15 H :    0.111778
  16 H :    0.113516
  17 H :    0.113516
Sum of atomic charges:    0.0000000

LOEWDIN ATOMIC CHARGES
----------------------
   0 C :   -0.200121
   1 C :   -0.170802
   2 C :   -0.144926
   3 C :   -0.144926
   4 C :   -0.170802
   5 C :   -0.200122
   6 C :   -0.156949
   7 C :   -0.156949
   8 H :    0.125897
   9 H :    0.139108
  10 H :    0.137535
  11 H :    0.137736
  12 H :    0.137736
  13 H :    0.137535
  14 H :    0.125897
  15 H :    0.139109
  16 H :    0.132522
  17 H :    0.132522

  Mayer bond orders larger than 0.1
B(  0-C ,  1-C ) :   0.8957 B(  0-C ,  7-C ) :   0.9593 B(  0-C ,  8-H ) :   0.9094
B(  0-C ,  9-H ) :   0.9172 B(  1-C ,  2-C ) :   0.9309 B(  1-C ,  6-C ) :   0.8938
B(  1-C , 10-H ) :   0.9143 B(  2-C ,  3-C ) :   1.7711 B(  2-C , 11-H ) :   0.9371
B(  3-C ,  4-C ) :   0.9309 B(  3-C , 12-H ) :   0.9371 B(  4-C ,  5-C ) :   0.8957
B(  4-C ,  7-C ) :   0.8938 B(  4-C , 13-H ) :   0.9143 B(  5-C ,  6-C ) :   0.9593
B(  5-C , 14-H ) :   0.9094 B(  5-C , 15-H ) :   0.9172 B(  6-C ,  7-C ) :   0.9269
B(  6-C , 16-H ) :   0.9131 B(  7-C , 17-H ) :   0.9131

MP2 TOTAL ENERGY:     -310.059945819 Eh
FINAL SINGLE POINT ENERGY      -310.059945818964

DIPOLE MOMENT
-------------
                                X             Y             Z
Electronic contribution:      0.44351       0.25713       0.82720
Nuclear contribution   :     -0.50681      -0.29383      -0.94527
                        -----------------------------------------
Total Dipole Moment    :     -0.06330      -0.03670      -0.11807
                        -----------------------------------------
Magnitude (a.u.)       :      0.13890
Magnitude (Debye)      :      0.35306

                             ****ORCA TERMINATED NORMALLY****
TOTAL RUN TIME: 0 days 0 hours 14 minutes 41 seconds 86 msec
