                         Program Version 3.0.3 - RELEASE   -
|  1> ! RI-MP2 RIJK def2-TZVP def2-TZVP/C def2-TZVP/JK TIGHTSCF
|  2> % maxcore 2000
|  3> % mp2 density relaxed end
|  4> *xyz 0 1
|  5>  C        0.3335144562     1.5942941697    -0.3737326255
|  6>  C        1.6638345118     1.4926355842     0.4403484345
|  7>  C        1.3675294397     0.0031963476     0.7504867402
|  8>  C        0.0265530001     0.1057162916    -0.0699007054
|  9>  C        0.5904571488    -0.9315026334    -1.0925970267
| 10>  O        0.9673747246    -0.4923214922    -2.3836431376
| 11>  C        2.3323848998    -0.1169298116    -2.3545881952
| 12>  O        2.9298790853    -0.6421124234    -1.1831785543
| 13>  C        1.9060922199    -1.0319654546    -0.2878386363
| 14>  H       -0.3916293416     2.2797983596     0.0699436225
| 15>  H        0.4222131344     1.8345918416    -1.4352141470
| 16>  H        2.5917901126     1.6688859064    -0.1075350956
| 17>  H        1.6718824599     2.1220382641     1.3327537823
| 18>  H        1.4140458656    -0.3133925376     1.7928934543
| 19>  H       -0.9535843304    -0.1323203934     0.3444339197
| 20>  H       -0.0129648403    -1.8364214331    -1.1989813560
| 21>  H        2.8366007342    -0.5410716147    -3.2317945516
| 22>  H        2.4249645678     0.9792476643    -2.3691798721
| 23>  H        2.1713805215    -2.0032386351     0.1370870398
| 24> *
| 25>
| 26>                          ****END OF INPUT****

CARTESIAN COORDINATES (ANGSTROEM)
---------------------------------
  C      0.333514    1.594294   -0.373733
  C      1.663835    1.492636    0.440348
  C      1.367529    0.003196    0.750487
  C      0.026553    0.105716   -0.069901
  C      0.590457   -0.931503   -1.092597
  O      0.967375   -0.492321   -2.383643
  C      2.332385   -0.116930   -2.354588
  O      2.929879   -0.642112   -1.183179
  C      1.906092   -1.031965   -0.287839
  H     -0.391629    2.279798    0.069944
  H      0.422213    1.834592   -1.435214
  H      2.591790    1.668886   -0.107535
  H      1.671882    2.122038    1.332754
  H      1.414046   -0.313393    1.792893
  H     -0.953584   -0.132320    0.344434
  H     -0.012965   -1.836421   -1.198981
  H      2.836601   -0.541072   -3.231795
  H      2.424965    0.979248   -2.369180
  H      2.171381   -2.003239    0.137087

 Total Charge           Charge          ....    0
 Multiplicity           Mult            ....    1
 Number of Electrons    NEL             ....   68
 Basis Dimension        Dim             ....  339

ORBITAL ENERGIES
----------------

  NO   OCC          E(Eh)            E(eV)
   0   2.0000     -20.564360      -559.5847
   1   2.0000     -20.564338      -559.5841
   2   2.0000     -11.328425      -308.2621
   3   2.0000     -11.282320      -307.0075
   4   2.0000     -11.281735      -306.9916
   5   2.0000     -11.229529      -305.5710
   6   2.0000     -11.229030      -305.5575
   7   2.0000     -11.223085      -305.3957
   8   2.0000     -11.222563      -305.3815
   9   2.0000      -1.435884       -39.0724
  10   2.0000      -1.335557       -36.3424
  11   2.0000      -1.158147       -31.5148
  12   2.0000      -1.024233       -27.8708
  13   2.0000      -0.922203       -25.0944
  14   2.0000      -0.909505       -24.7489
  15   2.0000      -0.830033       -22.5864
  16   2.0000      -0.816970       -22.2309
  17   2.0000      -0.728913       -19.8347
  18   2.0000      -0.721043       -19.6206
  19   2.0000      -0.697404       -18.9773
  20   2.0000      -0.651269       -17.7219
  21   2.0000      -0.615946       -16.7607
  22   2.0000      -0.601861       -16.3775
  23   2.0000      -0.584935       -15.9169
  24   2.0000      -0.580532       -15.7971
  25   2.0000      -0.571364       -15.5476
  26   2.0000      -0.519088       -14.1251
  27   2.0000      -0.499300       -13.5866
  28   2.0000      -0.488084       -13.2815
  29   2.0000      -0.467364       -12.7176
  30   2.0000      -0.452634       -12.3168
  31   2.0000      -0.419268       -11.4089
  32   2.0000      -0.400605       -10.9010
  33   2.0000      -0.393600       -10.7104
  34   0.0000       0.141628         3.8539
  35   0.0000       0.160049         4.3552
  36   0.0000       0.163359         4.4452
  37   0.0000       0.173187         4.7127
  38   0.0000       0.191819         5.2197

MULLIKEN ATOMIC CHARGES
-----------------------
   0 C :   -0.293278
   1 C :   -0.293204
   2 C :   -0.056969
   3 C :   -0.056852
   4 C :    0.041426
   5 O :   -0.338528
   6 C :    0.104714
   7 O :   -0.338526
   8 C :    0.041479
   9 H :    0.120512
  10 H :    0.134318
  11 H :    0.134297
  12 H :    0.120520
  13 H :    0.121560
  14 H :    0.121560
  15 H :    0.111815
  16 H :    0.118656
  17 H :    0.094680
  18 H :    0.111818
Sum of atomic charges:   -0.0000000

LOEWDIN ATOMIC CHARGES
----------------------
   0 C :   -0.217835
   1 C :   -0.217840
   2 C :   -0.164370
   3 C :   -0.164370
   4 C :   -0.253828
   5 O :    0.173989
   6 C :   -0.358673
   7 O :    0.173990
   8 C :   -0.253822
   9 H :    0.131207
  10 H :    0.130870
  11 H :    0.130868
  12 H :    0.131208
  13 H :    0.132678
  14 H :    0.132678
  15 H :    0.137182
  16 H :    0.114754
  17 H :    0.104133
  18 H :    0.137179

  Mayer bond orders larger than 0.1
B(  0-C ,  1-C ) :   0.9615 B(  0-C ,  3-C ) :   0.8994 B(  0-C ,  9-H ) :   0.9200
B(  0-C , 10-H ) :   0.9270 B(  1-C ,  2-C ) :   0.8994 B(  1-C , 11-H ) :   0.9270
B(  1-C , 12-H ) :   0.9200 B(  2-C ,  3-C ) :   0.8917 B(  2-C ,  8-C ) :   0.9036
B(  2-C , 13-H ) :   0.9058 B(  3-C ,  4-C ) :   0.9036 B(  3-C , 14-H ) :   0.9058
B(  4-C ,  5-O ) :   0.9339 B(  4-C ,  8-C ) :   0.9442 B(  4-C , 15-H ) :   0.9349
B(  5-O ,  6-C ) :   0.9574 B(  6-C ,  7-O ) :   0.9574 B(  6-C , 16-H ) :   0.9280
B(  6-C , 17-H ) :   0.9304 B(  7-O ,  8-C ) :   0.9338 B(  8-C , 18-H ) :   0.9349

MP2 TOTAL ENERGY:     -422.283628138 Eh
FINAL SINGLE POINT ENERGY      -422.283628137732

DIPOLE MOMENT
-------------
                                X             Y             Z
Electronic contribution:      1.19684      -3.77930      -2.42873
Nuclear contribution   :     -1.45318       3.83981       2.85532
                        -----------------------------------------
Total Dipole Moment    :     -0.25634       0.06051       0.42659
                        -----------------------------------------
Magnitude (a.u.)       :      0.50134
Magnitude (Debye)      :      1.27432

                             ****ORCA TERMINATED NORMALLY****
TOTAL RUN TIME: 0 days 0 hours 18 minutes 6 seconds 601 msec
