                         Program Version 3.0.3 - RELEASE   -
|  1> ! RI-MP2 RIJK def2-TZVP def2-TZVP/C def2-TZVP/JK TIGHTSCF
|  2> % maxcore 2000
|  3> % mp2 density relaxed end
|  4> *xyz 0 1
|  5>  C       -0.2050878174     1.3564085677     0.0942853557
|  6>  N        0.0271801343    -0.0668304495    -0.0103689874
|  7>  C        0.3557644152    -0.7814261303    -1.1156695945
|  8>  C        0.4057452418    -2.1058450790    -0.7384634214
|  9>  C        0.0808644225    -2.0918805560     0.6353782804
| 10>  C        0.0204144819    -3.2525954242     1.5772541397
| 11>  O       -0.5384609608    -4.3631263646     0.8850761195
| 12>  N       -0.1548020499    -0.8540029767     1.0686686327
| 13>  H        0.1638024811     1.8441632797    -0.8097836375
| 14>  H       -1.2722211709     1.5719340325     0.2088566980
| 15>  H        0.3278281906     1.7524274915     0.9615574037
| 16>  H        0.5215980816    -0.2978774413    -2.0658609356
| 17>  H        0.6324712972    -2.9605188595    -1.3530100306
| 18>  H        1.0342498412    -3.4939954478     1.9375613497
| 19>  H       -0.5772506382    -2.9651601628     2.4541072923
| 20>  H       -0.4545574101    -5.1344831498     1.4531758350
| 21> *
| 22>
| 23>                          ****END OF INPUT****

CARTESIAN COORDINATES (ANGSTROEM)
---------------------------------
  C     -0.205088    1.356409    0.094285
  N      0.027180   -0.066830   -0.010369
  C      0.355764   -0.781426   -1.115670
  C      0.405745   -2.105845   -0.738463
  C      0.080864   -2.091881    0.635378
  C      0.020414   -3.252595    1.577254
  O     -0.538461   -4.363126    0.885076
  N     -0.154802   -0.854003    1.068669
  H      0.163802    1.844163   -0.809784
  H     -1.272221    1.571934    0.208857
  H      0.327828    1.752427    0.961557
  H      0.521598   -0.297877   -2.065861
  H      0.632471   -2.960519   -1.353010
  H      1.034250   -3.493995    1.937561
  H     -0.577251   -2.965160    2.454107
  H     -0.454557   -5.134483    1.453176

 Total Charge           Charge          ....    0
 Multiplicity           Mult            ....    1
 Number of Electrons    NEL             ....   60
 Basis Dimension        Dim             ....  296

ORBITAL ENERGIES
----------------

  NO   OCC          E(Eh)            E(eV)
   0   2.0000     -20.556110      -559.3602
   1   2.0000     -15.631777      -425.3623
   2   2.0000     -15.573145      -423.7668
   3   2.0000     -11.279142      -306.9211
   4   2.0000     -11.270625      -306.6893
   5   2.0000     -11.267432      -306.6024
   6   2.0000     -11.248653      -306.0914
   7   2.0000     -11.208451      -304.9975
   8   2.0000      -1.372601       -37.3504
   9   2.0000      -1.358275       -36.9605
  10   2.0000      -1.124708       -30.6049
  11   2.0000      -1.050294       -28.5800
  12   2.0000      -0.977121       -26.5888
  13   2.0000      -0.901167       -24.5220
  14   2.0000      -0.795444       -21.6451
  15   2.0000      -0.753576       -20.5058
  16   2.0000      -0.704274       -19.1643
  17   2.0000      -0.687858       -18.7176
  18   2.0000      -0.649319       -17.6689
  19   2.0000      -0.628721       -17.1084
  20   2.0000      -0.601067       -16.3559
  21   2.0000      -0.578848       -15.7512
  22   2.0000      -0.564494       -15.3607
  23   2.0000      -0.549806       -14.9610
  24   2.0000      -0.539950       -14.6928
  25   2.0000      -0.504634       -13.7318
  26   2.0000      -0.452992       -12.3265
  27   2.0000      -0.449634       -12.2352
  28   2.0000      -0.341812        -9.3012
  29   2.0000      -0.335200        -9.1213
  30   0.0000       0.135812         3.6956
  31   0.0000       0.143065         3.8930
  32   0.0000       0.152175         4.1409
  33   0.0000       0.177478         4.8294
  34   0.0000       0.194000         5.2790

MULLIKEN ATOMIC CHARGES
-----------------------
   0 C :   -0.305069
   1 N :    0.119303
   2 C :   -0.117292
   3 C :   -0.205066
   4 C :    0.082989
   5 C :   -0.125024
   6 O :   -0.464839
   7 N :   -0.265097
   8 H :    0.141347
   9 H :    0.150734
  10 H :    0.157869
  11 H :    0.145458
  12 H :    0.146042
  13 H :    0.106943
  14 H :    0.116268
  15 H :    0.315433
Sum of atomic charges:   -0.0000000

LOEWDIN ATOMIC CHARGES
----------------------
   0 C :   -0.275795
   1 N :    0.171555
   2 C :   -0.228025
   3 C :   -0.172256
   4 C :   -0.284143
   5 C :   -0.311721
   6 O :   -0.046229
   7 N :    0.066154
   8 H :    0.125902
   9 H :    0.124151
  10 H :    0.127413
  11 H :    0.136836
  12 H :    0.145691
  13 H :    0.122641
  14 H :    0.126291
  15 H :    0.171536

  Mayer bond orders larger than 0.1
B(  0-C ,  1-N ) :   0.8716 B(  0-C ,  8-H ) :   0.9308 B(  0-C ,  9-H ) :   0.9276
B(  0-C , 10-H ) :   0.9309 B(  1-N ,  2-C ) :   1.2117 B(  1-N ,  7-N ) :   1.0154
B(  2-C ,  3-C ) :   1.4359 B(  2-C , 11-H ) :   0.9074 B(  3-C ,  4-C ) :   1.2967
B(  3-C , 12-H ) :   0.9130 B(  4-C ,  5-C ) :   0.9033 B(  4-C ,  6-O ) :  -0.1228
B(  4-C ,  7-N ) :   1.5293 B(  5-C ,  6-O ) :   1.0585 B(  5-C , 13-H ) :   0.9270
B(  5-C , 14-H ) :   0.9464 B(  6-O , 15-H ) :   0.8488

MP2 TOTAL ENERGY:     -379.302277006 Eh
FINAL SINGLE POINT ENERGY      -379.302277005906

DIPOLE MOMENT
-------------
                                X             Y             Z
Electronic contribution:     -0.13667      -2.12182      -0.27548
Nuclear contribution   :      0.48666       2.60221       0.13265
                        -----------------------------------------
Total Dipole Moment    :      0.35000       0.48040      -0.14283
                        -----------------------------------------
Magnitude (a.u.)       :      0.61129
Magnitude (Debye)      :      1.55379

                             ****ORCA TERMINATED NORMALLY****
TOTAL RUN TIME: 0 days 0 hours 10 minutes 59 seconds 768 msec
