                         Program Version 3.0.3 - RELEASE   -
|  1> ! RI-MP2 RIJK def2-TZVP def2-TZVP/C def2-TZVP/JK TIGHTSCF
|  2> % maxcore 2000
|  3> % mp2 density relaxed end
|  4> *xyz 0 1
|  5>  O       -0.0460205205    -0.0653631646     0.1698647190
|  6>  C       -0.0525103499     1.1357665522     0.0583813930
|  7>  C       -1.3255273236     1.9679315782     0.0740759532
|  8>  C       -1.3100707983     3.0477201141    -1.0197105488
|  9>  N       -0.0799442509     3.8376598159    -0.9073468617
| 10>  C        1.1303096912     3.0550556155    -1.1394156289
| 11>  C        1.2369756783     1.9446368142    -0.0686625262
| 12>  C        1.1948738592     2.4794193824    -2.5072631462
| 13>  N        1.2043257542     2.0715612207    -3.5892111216
| 14>  H       -2.1851383346     1.3021362372    -0.0261275538
| 15>  H       -1.3806101562     2.4630462193     1.0525729798
| 16>  H       -1.4170853871     2.5695250318    -2.0072652917
| 17>  H       -2.1593367997     3.7240757750    -0.8900140906
| 18>  H       -0.1090089110     4.6274637602    -1.5427430877
| 19>  H        1.9921913409     3.7231878966    -1.0382079425
| 20>  H        1.4116734692     2.4447421239     0.8913645305
| 21>  H        2.0685987288     1.2674510176    -0.2696767957
| 22> *
| 23>
| 24>                          ****END OF INPUT****

CARTESIAN COORDINATES (ANGSTROEM)
---------------------------------
  O     -0.046021   -0.065363    0.169865
  C     -0.052510    1.135767    0.058381
  C     -1.325527    1.967932    0.074076
  C     -1.310071    3.047720   -1.019711
  N     -0.079944    3.837660   -0.907347
  C      1.130310    3.055056   -1.139416
  C      1.236976    1.944637   -0.068663
  C      1.194874    2.479419   -2.507263
  N      1.204326    2.071561   -3.589211
  H     -2.185138    1.302136   -0.026128
  H     -1.380610    2.463046    1.052573
  H     -1.417085    2.569525   -2.007265
  H     -2.159337    3.724076   -0.890014
  H     -0.109009    4.627464   -1.542743
  H      1.992191    3.723188   -1.038208
  H      1.411673    2.444742    0.891365
  H      2.068599    1.267451   -0.269677

 Total Charge           Charge          ....    0
 Multiplicity           Mult            ....    1
 Number of Electrons    NEL             ....   66
 Basis Dimension        Dim             ....  327

ORBITAL ENERGIES
----------------

  NO   OCC          E(Eh)            E(eV)
   0   2.0000     -20.558520      -559.4258
   1   2.0000     -15.587556      -424.1590
   2   2.0000     -15.582610      -424.0244
   3   2.0000     -11.343602      -308.6751
   4   2.0000     -11.332607      -308.3759
   5   2.0000     -11.282982      -307.0256
   6   2.0000     -11.280006      -306.9446
   7   2.0000     -11.265359      -306.5460
   8   2.0000     -11.250926      -306.1533
   9   2.0000      -1.402343       -38.1597
  10   2.0000      -1.269018       -34.5317
  11   2.0000      -1.221752       -33.2456
  12   2.0000      -1.075957       -29.2783
  13   2.0000      -1.063203       -28.9312
  14   2.0000      -0.923530       -25.1305
  15   2.0000      -0.879671       -23.9371
  16   2.0000      -0.770431       -20.9645
  17   2.0000      -0.736266       -20.0348
  18   2.0000      -0.697087       -18.9687
  19   2.0000      -0.664307       -18.0767
  20   2.0000      -0.650308       -17.6958
  21   2.0000      -0.637777       -17.3548
  22   2.0000      -0.618505       -16.8304
  23   2.0000      -0.588668       -16.0185
  24   2.0000      -0.576261       -15.6809
  25   2.0000      -0.545929       -14.8555
  26   2.0000      -0.538374       -14.6499
  27   2.0000      -0.528970       -14.3940
  28   2.0000      -0.506605       -13.7854
  29   2.0000      -0.474728       -12.9180
  30   2.0000      -0.470317       -12.7980
  31   2.0000      -0.421635       -11.4733
  32   2.0000      -0.417726       -11.3669
  33   0.0000       0.099400         2.7048
  34   0.0000       0.132940         3.6175
  35   0.0000       0.141186         3.8419
  36   0.0000       0.146738         3.9929
  37   0.0000       0.164516         4.4767

MULLIKEN ATOMIC CHARGES
-----------------------
   0 O :   -0.256373
   1 C :    0.144530
   2 C :   -0.200677
   3 C :   -0.175628
   4 N :   -0.360631
   5 C :    0.159564
   6 C :   -0.229091
   7 C :   -0.247729
   8 N :   -0.046387
   9 H :    0.140110
  10 H :    0.125751
  11 H :    0.141944
  12 H :    0.136706
  13 H :    0.220905
  14 H :    0.150638
  15 H :    0.145859
  16 H :    0.150508
Sum of atomic charges:   -0.0000000

LOEWDIN ATOMIC CHARGES
----------------------
   0 O :    0.165270
   1 C :   -0.324103
   2 C :   -0.224748
   3 C :   -0.289506
   4 N :    0.020977
   5 C :   -0.293592
   6 C :   -0.185898
   7 C :   -0.178496
   8 N :    0.067346
   9 H :    0.150387
  10 H :    0.157123
  11 H :    0.131056
  12 H :    0.136335
  13 H :    0.178296
  14 H :    0.172027
  15 H :    0.161445
  16 H :    0.156080

  Mayer bond orders larger than 0.1
B(  0-O ,  1-C ) :   2.0589 B(  1-C ,  2-C ) :   0.9281 B(  1-C ,  6-C ) :   0.9265
B(  2-C ,  3-C ) :   0.9022 B(  2-C ,  9-H ) :   0.9171 B(  2-C , 10-H ) :   0.8956
B(  3-C ,  4-N ) :   0.9163 B(  3-C , 11-H ) :   0.9288 B(  3-C , 12-H ) :   0.9223
B(  4-N ,  5-C ) :   0.9543 B(  4-N , 13-H ) :   0.8781 B(  5-C ,  6-C ) :   0.8471
B(  5-C ,  7-C ) :   0.9143 B(  5-C , 14-H ) :   0.9100 B(  6-C , 15-H ) :   0.9008
B(  6-C , 16-H ) :   0.9146 B(  7-C ,  8-N ) :   2.8488

MP2 TOTAL ENERGY:     -417.337455678 Eh
FINAL SINGLE POINT ENERGY      -417.337455677884

DIPOLE MOMENT
-------------
                                X             Y             Z
Electronic contribution:      2.85566      -3.01948      -2.74326
Nuclear contribution   :     -3.10212       4.54297       3.62841
                        -----------------------------------------
Total Dipole Moment    :     -0.24645       1.52349       0.88515
                        -----------------------------------------
Magnitude (a.u.)       :      1.77912
Magnitude (Debye)      :      4.52215

                             ****ORCA TERMINATED NORMALLY****
TOTAL RUN TIME: 0 days 0 hours 17 minutes 13 seconds 911 msec
