                         Program Version 3.0.3 - RELEASE   -
|  1> ! RI-MP2 RIJK def2-TZVP def2-TZVP/C def2-TZVP/JK TIGHTSCF
|  2> % maxcore 2000
|  3> % mp2 density relaxed end
|  4> *xyz 0 1
|  5>  C        0.1521412772    -0.5090342214     1.3275899671
|  6>  O       -0.2089410901    -0.9828519409     0.0495843553
|  7>  C        0.6153558228    -0.5178499113    -1.0080417560
|  8>  C        1.8377672011    -1.4314202662    -1.1798278543
|  9>  O        2.7911676759    -0.7203900115    -1.9626078377
| 10>  C       -0.2455645120    -0.4736443859    -2.2531511562
| 11>  C       -0.7358530972     0.8182727597    -2.7899712876
| 12>  N        0.3000765381     0.0581583503    -3.5088143988
| 13>  H        1.1671692896    -0.8135970276     1.6227196173
| 14>  H        0.0938853992     0.5888092575     1.3824231472
| 15>  H       -0.5577758324    -0.9358070833     2.0404389193
| 16>  H        0.9950636675     0.4939070997    -0.7898684262
| 17>  H        2.2509203881    -1.6860635887    -0.1927003974
| 18>  H        1.5285870757    -2.3670813868    -1.6655816057
| 19>  H        3.4014208300    -1.3519680902    -2.3525168174
| 20>  H       -0.8631727182    -1.3624441276    -2.3723700331
| 21>  H       -1.6970941327     0.8707425385    -3.2934863002
| 22>  H       -0.4521516148     1.7262214051    -2.2626054823
| 23>  H        1.2241503422     0.4435449407    -3.3295511134
| 24> *
| 25>
| 26>                          ****END OF INPUT****

CARTESIAN COORDINATES (ANGSTROEM)
---------------------------------
  C      0.152141   -0.509034    1.327590
  O     -0.208941   -0.982852    0.049584
  C      0.615356   -0.517850   -1.008042
  C      1.837767   -1.431420   -1.179828
  O      2.791168   -0.720390   -1.962608
  C     -0.245565   -0.473644   -2.253151
  C     -0.735853    0.818273   -2.789971
  N      0.300077    0.058158   -3.508814
  H      1.167169   -0.813597    1.622720
  H      0.093885    0.588809    1.382423
  H     -0.557776   -0.935807    2.040439
  H      0.995064    0.493907   -0.789868
  H      2.250920   -1.686064   -0.192700
  H      1.528587   -2.367081   -1.665582
  H      3.401421   -1.351968   -2.352517
  H     -0.863173   -1.362444   -2.372370
  H     -1.697094    0.870743   -3.293486
  H     -0.452152    1.726221   -2.262605
  H      1.224150    0.443545   -3.329551

 Total Charge           Charge          ....    0
 Multiplicity           Mult            ....    1
 Number of Electrons    NEL             ....   64
 Basis Dimension        Dim             ....  314

ORBITAL ENERGIES
----------------

  NO   OCC          E(Eh)            E(eV)
   0   2.0000     -20.566995      -559.6564
   1   2.0000     -20.561335      -559.5024
   2   2.0000     -15.546553      -423.0432
   3   2.0000     -11.287010      -307.1352
   4   2.0000     -11.281659      -306.9895
   5   2.0000     -11.276631      -306.8527
   6   2.0000     -11.251067      -306.1571
   7   2.0000     -11.247106      -306.0493
   8   2.0000      -1.385098       -37.6904
   9   2.0000      -1.367782       -37.2193
  10   2.0000      -1.252093       -34.0712
  11   2.0000      -1.028474       -27.9862
  12   2.0000      -0.928571       -25.2677
  13   2.0000      -0.889703       -24.2100
  14   2.0000      -0.854502       -23.2522
  15   2.0000      -0.796150       -21.6643
  16   2.0000      -0.714667       -19.4471
  17   2.0000      -0.691717       -18.8226
  18   2.0000      -0.664257       -18.0754
  19   2.0000      -0.645829       -17.5739
  20   2.0000      -0.628495       -17.1022
  21   2.0000      -0.610162       -16.6033
  22   2.0000      -0.599812       -16.3217
  23   2.0000      -0.568416       -15.4674
  24   2.0000      -0.520900       -14.1744
  25   2.0000      -0.508528       -13.8377
  26   2.0000      -0.488257       -13.2862
  27   2.0000      -0.482975       -13.1424
  28   2.0000      -0.465785       -12.6747
  29   2.0000      -0.451508       -12.2862
  30   2.0000      -0.417053       -11.3486
  31   2.0000      -0.381145       -10.3715
  32   0.0000       0.131789         3.5862
  33   0.0000       0.144122         3.9218
  34   0.0000       0.163708         4.4547
  35   0.0000       0.180525         4.9123
  36   0.0000       0.198582         5.4037

MULLIKEN ATOMIC CHARGES
-----------------------
   0 C :   -0.219334
   1 O :   -0.311629
   2 C :    0.092413
   3 C :   -0.061314
   4 O :   -0.491764
   5 C :   -0.024908
   6 C :   -0.186625
   7 N :   -0.370126
   8 H :    0.108615
   9 H :    0.119482
  10 H :    0.141403
  11 H :    0.064426
  12 H :    0.099623
  13 H :    0.114098
  14 H :    0.325970
  15 H :    0.125122
  16 H :    0.119334
  17 H :    0.120292
  18 H :    0.234922
Sum of atomic charges:   -0.0000000

LOEWDIN ATOMIC CHARGES
----------------------
   0 C :   -0.357503
   1 O :    0.163452
   2 C :   -0.325419
   3 C :   -0.319710
   4 O :   -0.049464
   5 C :   -0.263669
   6 C :   -0.266262
   7 N :   -0.014030
   8 H :    0.099965
   9 H :    0.103198
  10 H :    0.114826
  11 H :    0.143817
  12 H :    0.116902
  13 H :    0.123763
  14 H :    0.175626
  15 H :    0.145259
  16 H :    0.123592
  17 H :    0.119929
  18 H :    0.165729

  Mayer bond orders larger than 0.1
B(  0-C ,  1-O ) :   0.9159 B(  0-C ,  8-H ) :   0.9314 B(  0-C ,  9-H ) :   0.9384
B(  0-C , 10-H ) :   0.9393 B(  1-O ,  2-C ) :   0.9175 B(  2-C ,  3-C ) :   0.9092
B(  2-C ,  5-C ) :   0.9615 B(  2-C , 11-H ) :   0.9103 B(  3-C ,  4-O ) :   0.9869
B(  3-C , 12-H ) :   0.9254 B(  3-C , 13-H ) :   0.9310 B(  4-O , 14-H ) :   0.8434
B(  5-C ,  6-C ) :   0.9450 B(  5-C ,  7-N ) :   0.9212 B(  5-C , 15-H ) :   0.9056
B(  6-C ,  7-N ) :   0.9403 B(  6-C , 16-H ) :   0.9221 B(  6-C , 17-H ) :   0.9131
B(  7-N , 18-H ) :   0.8678

MP2 TOTAL ENERGY:     -401.501326049 Eh
FINAL SINGLE POINT ENERGY      -401.501326049151

DIPOLE MOMENT
-------------
                                X             Y             Z
Electronic contribution:      0.24227      -0.92786      -2.97882
Nuclear contribution   :      0.31333       0.82528       3.74886
                        -----------------------------------------
Total Dipole Moment    :      0.55560      -0.10258       0.77005
                        -----------------------------------------
Magnitude (a.u.)       :      0.95509
Magnitude (Debye)      :      2.42763

                             ****ORCA TERMINATED NORMALLY****
TOTAL RUN TIME: 0 days 0 hours 11 minutes 19 seconds 928 msec
