                         Program Version 3.0.3 - RELEASE   -
|  1> ! RI-MP2 RIJK def2-TZVP def2-TZVP/C def2-TZVP/JK TIGHTSCF
|  2> % maxcore 2000
|  3> % mp2 density relaxed end
|  4> *xyz 0 1
|  5>  O        0.0603177526     1.3613123809    -0.1535461629
|  6>  C        0.0485250049    -0.0427572026    -0.0265675362
|  7>  C       -1.3816167878    -0.5831062561     0.0462807677
|  8>  O       -2.0142808910    -0.1330969497    -1.1491930336
|  9>  C       -3.2920574030    -0.7255614250    -1.3471490452
| 10>  C       -3.1300516101    -2.2196405062    -1.6278239216
| 11>  O       -2.6366353892    -2.4565258784    -2.9447016985
| 12>  C       -2.2232460009    -2.8327379124    -0.5860033573
| 13>  C       -1.4363279440    -2.0796292139     0.1807714448
| 14>  H       -0.5494118613     1.5669066412    -0.8723422822
| 15>  H        0.5668850126    -0.5361232978    -0.8648243312
| 16>  H        0.5843401597    -0.2907516502     0.8955036871
| 17>  H       -1.8769559480    -0.1084192897     0.9138062622
| 18>  H       -3.9344249387    -0.5614130103    -0.4675003534
| 19>  H       -3.7385334235    -0.2279217694    -2.2115685380
| 20>  H       -4.1152913082    -2.6997307868    -1.6030054617
| 21>  H       -1.7734144721    -2.0278311491    -2.9876437761
| 22>  H       -2.2161088900    -3.9157596432    -0.5053810830
| 23>  H       -0.7947591519    -2.5232251012     0.9387244591
| 24> *
| 25>
| 26>                          ****END OF INPUT****

CARTESIAN COORDINATES (ANGSTROEM)
---------------------------------
  O      0.060318    1.361312   -0.153546
  C      0.048525   -0.042757   -0.026568
  C     -1.381617   -0.583106    0.046281
  O     -2.014281   -0.133097   -1.149193
  C     -3.292057   -0.725561   -1.347149
  C     -3.130052   -2.219641   -1.627824
  O     -2.636635   -2.456526   -2.944702
  C     -2.223246   -2.832738   -0.586003
  C     -1.436328   -2.079629    0.180771
  H     -0.549412    1.566907   -0.872342
  H      0.566885   -0.536123   -0.864824
  H      0.584340   -0.290752    0.895504
  H     -1.876956   -0.108419    0.913806
  H     -3.934425   -0.561413   -0.467500
  H     -3.738533   -0.227922   -2.211569
  H     -4.115291   -2.699731   -1.603005
  H     -1.773414   -2.027831   -2.987644
  H     -2.216109   -3.915760   -0.505381
  H     -0.794759   -2.523225    0.938724

 Total Charge           Charge          ....    0
 Multiplicity           Mult            ....    1
 Number of Electrons    NEL             ....   70
 Basis Dimension        Dim             ....  339

ORBITAL ENERGIES
----------------

  NO   OCC          E(Eh)            E(eV)
   0   2.0000     -20.574696      -559.8659
   1   2.0000     -20.560028      -559.4668
   2   2.0000     -20.554489      -559.3161
   3   2.0000     -11.296585      -307.3957
   4   2.0000     -11.293100      -307.3009
   5   2.0000     -11.286333      -307.1167
   6   2.0000     -11.281747      -306.9919
   7   2.0000     -11.248275      -306.0811
   8   2.0000     -11.242763      -305.9311
   9   2.0000      -1.404080       -38.2070
  10   2.0000      -1.365849       -37.1666
  11   2.0000      -1.355744       -36.8917
  12   2.0000      -1.094830       -29.7918
  13   2.0000      -1.048914       -28.5424
  14   2.0000      -0.949408       -25.8347
  15   2.0000      -0.877383       -23.8748
  16   2.0000      -0.849694       -23.1214
  17   2.0000      -0.748154       -20.3583
  18   2.0000      -0.726140       -19.7593
  19   2.0000      -0.708074       -19.2677
  20   2.0000      -0.671671       -18.2771
  21   2.0000      -0.654240       -17.8028
  22   2.0000      -0.633507       -17.2386
  23   2.0000      -0.602998       -16.4084
  24   2.0000      -0.596842       -16.2409
  25   2.0000      -0.589977       -16.0541
  26   2.0000      -0.583332       -15.8733
  27   2.0000      -0.575449       -15.6588
  28   2.0000      -0.505840       -13.7646
  29   2.0000      -0.498247       -13.5580
  30   2.0000      -0.493046       -13.4165
  31   2.0000      -0.477882       -13.0038
  32   2.0000      -0.447459       -12.1760
  33   2.0000      -0.421773       -11.4770
  34   2.0000      -0.376661       -10.2495
  35   0.0000       0.132690         3.6107
  36   0.0000       0.135997         3.7007
  37   0.0000       0.152719         4.1557
  38   0.0000       0.162183         4.4132
  39   0.0000       0.169737         4.6188

MULLIKEN ATOMIC CHARGES
-----------------------
   0 O :   -0.475537
   1 C :    0.003960
   2 C :    0.087805
   3 O :   -0.347019
   4 C :   -0.103777
   5 C :    0.150783
   6 O :   -0.463822
   7 C :   -0.231317
   8 C :   -0.186363
   9 H :    0.329666
  10 H :    0.095753
  11 H :    0.107089
  12 H :    0.096668
  13 H :    0.105403
  14 H :    0.139639
  15 H :    0.104188
  16 H :    0.317962
  17 H :    0.132793
  18 H :    0.136126
Sum of atomic charges:   -0.0000000

LOEWDIN ATOMIC CHARGES
----------------------
   0 O :   -0.040067
   1 C :   -0.327518
   2 C :   -0.322955
   3 O :    0.164676
   4 C :   -0.288941
   5 C :   -0.341986
   6 O :   -0.019719
   7 C :   -0.147446
   8 C :   -0.144289
   9 H :    0.179104
  10 H :    0.120912
  11 H :    0.131943
  12 H :    0.147800
  13 H :    0.128318
  14 H :    0.135433
  15 H :    0.151119
  16 H :    0.177193
  17 H :    0.146012
  18 H :    0.150410

  Mayer bond orders larger than 0.1
B(  0-O ,  1-C ) :   0.9480 B(  0-O ,  9-H ) :   0.8293 B(  1-C ,  2-C ) :   0.9323
B(  1-C , 10-H ) :   0.9202 B(  1-C , 11-H ) :   0.9226 B(  2-C ,  3-O ) :   0.8971
B(  2-C ,  8-C ) :   0.9032 B(  2-C , 12-H ) :   0.9326 B(  3-O ,  4-C ) :   0.8996
B(  4-C ,  5-C ) :   0.9320 B(  4-C , 13-H ) :   0.9322 B(  4-C , 14-H ) :   0.9294
B(  5-C ,  6-O ) :   0.9028 B(  5-C ,  7-C ) :   0.9480 B(  5-C , 15-H ) :   0.9199
B(  6-O , 16-H ) :   0.8347 B(  7-C ,  8-C ) :   1.7694 B(  7-C , 17-H ) :   0.9287
B(  8-C , 18-H ) :   0.9176

MP2 TOTAL ENERGY:     -459.428775347 Eh
FINAL SINGLE POINT ENERGY      -459.428775347356

DIPOLE MOMENT
-------------
                                X             Y             Z
Electronic contribution:     -0.06302       0.58345      -1.49152
Nuclear contribution   :     -0.25935      -1.01208       1.93033
                        -----------------------------------------
Total Dipole Moment    :     -0.32237      -0.42863       0.43881
                        -----------------------------------------
Magnitude (a.u.)       :      0.69297
Magnitude (Debye)      :      1.76139

                             ****ORCA TERMINATED NORMALLY****
TOTAL RUN TIME: 0 days 0 hours 25 minutes 10 seconds 856 msec
