                         Program Version 3.0.3 - RELEASE   -
|  1> ! RI-MP2 RIJK def2-TZVP def2-TZVP/C def2-TZVP/JK TIGHTSCF
|  2> % maxcore 2000
|  3> % mp2 density relaxed end
|  4> *xyz 0 1
|  5>  C       -0.0659088747     1.5094905057     0.0981914363
|  6>  C        0.0102543595     0.0222966155    -0.0203088133
|  7>  C        0.0304581239    -0.8045203655    -1.1311004123
|  8>  C       -0.0204117205    -0.4233351617    -2.5793953246
|  9>  C        0.1116964622    -2.1443723855    -0.6407015549
| 10>  O        0.1563681320    -3.2885580027    -1.3892868978
| 11>  C        0.1389412896    -2.1103959399     0.7301131430
| 12>  N        0.0761031136    -0.7777028958     1.0906822421
| 13>  H        0.8078393427     1.9286307376     0.6135681144
| 14>  H       -0.1107999956     1.9708152649    -0.8906450172
| 15>  H       -0.9568959673     1.8353671867     0.6501683503
| 16>  H        0.8704193676    -0.7589046683    -3.1281647873
| 17>  H       -0.8938324624    -0.8513280339    -3.0905620174
| 18>  H       -0.0799402491     0.6604897566    -2.7090822300
| 19>  H        0.1234960428    -3.0412025427    -2.3178066281
| 20>  H        0.1962347291    -2.9013335127     1.4577727926
| 21>  H        0.0783889664    -0.4418998282     2.0368969941
| 22> *
| 23>
| 24>                          ****END OF INPUT****

CARTESIAN COORDINATES (ANGSTROEM)
---------------------------------
  C     -0.065909    1.509491    0.098191
  C      0.010254    0.022297   -0.020309
  C      0.030458   -0.804520   -1.131100
  C     -0.020412   -0.423335   -2.579395
  C      0.111696   -2.144372   -0.640702
  O      0.156368   -3.288558   -1.389287
  C      0.138941   -2.110396    0.730113
  N      0.076103   -0.777703    1.090682
  H      0.807839    1.928631    0.613568
  H     -0.110800    1.970815   -0.890645
  H     -0.956896    1.835367    0.650168
  H      0.870419   -0.758905   -3.128165
  H     -0.893832   -0.851328   -3.090562
  H     -0.079940    0.660490   -2.709082
  H      0.123496   -3.041203   -2.317807
  H      0.196235   -2.901334    1.457773
  H      0.078389   -0.441900    2.036897

 Total Charge           Charge          ....    0
 Multiplicity           Mult            ....    1
 Number of Electrons    NEL             ....   60
 Basis Dimension        Dim             ....  302

ORBITAL ENERGIES
----------------

  NO   OCC          E(Eh)            E(eV)
   0   2.0000     -20.568613      -559.7004
   1   2.0000     -15.589719      -424.2178
   2   2.0000     -11.262514      -306.4686
   3   2.0000     -11.256208      -306.2970
   4   2.0000     -11.232529      -305.6526
   5   2.0000     -11.229698      -305.5756
   6   2.0000     -11.225667      -305.4659
   7   2.0000     -11.208773      -305.0062
   8   2.0000      -1.381837       -37.6017
   9   2.0000      -1.279354       -34.8130
  10   2.0000      -1.058361       -28.7995
  11   2.0000      -1.021939       -27.8084
  12   2.0000      -0.956690       -26.0329
  13   2.0000      -0.899292       -24.4710
  14   2.0000      -0.780958       -21.2510
  15   2.0000      -0.753300       -20.4983
  16   2.0000      -0.711833       -19.3700
  17   2.0000      -0.645300       -17.5595
  18   2.0000      -0.610358       -16.6087
  19   2.0000      -0.607538       -16.5320
  20   2.0000      -0.584853       -15.9147
  21   2.0000      -0.570415       -15.5218
  22   2.0000      -0.552947       -15.0465
  23   2.0000      -0.552058       -15.0223
  24   2.0000      -0.540645       -14.7117
  25   2.0000      -0.527943       -14.3661
  26   2.0000      -0.514462       -13.9992
  27   2.0000      -0.483516       -13.1571
  28   2.0000      -0.317336        -8.6352
  29   2.0000      -0.276150        -7.5144
  30   0.0000       0.128368         3.4931
  31   0.0000       0.135638         3.6909
  32   0.0000       0.168158         4.5758
  33   0.0000       0.171802         4.6750
  34   0.0000       0.197965         5.3869

MULLIKEN ATOMIC CHARGES
-----------------------
   0 C :   -0.442071
   1 C :    0.075731
   2 C :    0.023585
   3 C :   -0.486761
   4 C :    0.116808
   5 O :   -0.446499
   6 C :   -0.136533
   7 N :   -0.262984
   8 H :    0.142503
   9 H :    0.135256
  10 H :    0.142521
  11 H :    0.148679
  12 H :    0.148711
  13 H :    0.131760
  14 H :    0.331761
  15 H :    0.139748
  16 H :    0.237785
Sum of atomic charges:    0.0000000

LOEWDIN ATOMIC CHARGES
----------------------
   0 C :   -0.282246
   1 C :   -0.242621
   2 C :   -0.190963
   3 C :   -0.287095
   4 C :   -0.296167
   5 O :    0.050280
   6 C :   -0.227832
   7 N :    0.189555
   8 H :    0.128756
   9 H :    0.133145
  10 H :    0.128757
  11 H :    0.127523
  12 H :    0.127526
  13 H :    0.130300
  14 H :    0.188797
  15 H :    0.132708
  16 H :    0.189578

  Mayer bond orders larger than 0.1
B(  0-C ,  1-C ) :   0.8374 B(  0-C ,  8-H ) :   0.9385 B(  0-C ,  9-H ) :   0.9569
B(  0-C , 10-H ) :   0.9384 B(  1-C ,  2-C ) :   1.4295 B(  1-C ,  7-N ) :   1.1839
B(  2-C ,  3-C ) :   0.8095 B(  2-C ,  4-C ) :   1.2261 B(  3-C , 11-H ) :   0.9433
B(  3-C , 12-H ) :   0.9432 B(  3-C , 13-H ) :   0.9465 B(  4-C ,  5-O ) :   1.0797
B(  4-C ,  6-C ) :   1.5255 B(  5-O , 14-H ) :   0.8376 B(  6-C ,  7-N ) :   1.0695
B(  6-C , 15-H ) :   0.9150 B(  7-N , 16-H ) :   0.8772

MP2 TOTAL ENERGY:     -363.278943718 Eh
FINAL SINGLE POINT ENERGY      -363.278943718232

DIPOLE MOMENT
-------------
                                X             Y             Z
Electronic contribution:      0.38535      -6.16994       2.78489
Nuclear contribution   :     -0.42642       7.01927      -2.59982
                        -----------------------------------------
Total Dipole Moment    :     -0.04107       0.84933       0.18507
                        -----------------------------------------
Magnitude (a.u.)       :      0.87023
Magnitude (Debye)      :      2.21194

                             ****ORCA TERMINATED NORMALLY****
TOTAL RUN TIME: 0 days 0 hours 12 minutes 57 seconds 736 msec
