                         Program Version 3.0.3 - RELEASE   -
|  1> ! RI-MP2 RIJK def2-TZVP def2-TZVP/C def2-TZVP/JK TIGHTSCF
|  2> % maxcore 2000
|  3> % mp2 density relaxed end
|  4> *xyz 0 1
|  5>  C       -0.3273725532     1.3827233188     0.1321720115
|  6>  C       -0.0923005906    -0.0826602001    -0.0040216582
|  7>  C        0.3573520302    -0.7981508647    -1.0610911755
|  8>  O        0.4066350335    -2.1249449410    -0.7010715636
|  9>  C       -0.0234307930    -2.1370632012     0.5756453472
| 10>  C       -0.1094306431    -3.4290204664     1.3241754198
| 11>  O       -0.5802435753    -3.2179716388     2.6309371776
| 12>  N       -0.3328611251    -0.9728635943     1.0470292092
| 13>  H        0.2825626388     1.8022533809     0.9390328965
| 14>  H       -0.0809637183     1.9074383595    -0.7941957506
| 15>  H       -1.3745570592     1.5886673840     0.3772396893
| 16>  H        0.6660336627    -0.5615764255    -2.0644413396
| 17>  H       -0.7736813264    -4.1183906100     0.7797968158
| 18>  H        0.8846358714    -3.9027906292     1.3420913127
| 19>  H       -0.7316835126    -2.2668201422     2.7203427376
| 20> *
| 21>
| 22>                          ****END OF INPUT****

CARTESIAN COORDINATES (ANGSTROEM)
---------------------------------
  C     -0.327373    1.382723    0.132172
  C     -0.092301   -0.082660   -0.004022
  C      0.357352   -0.798151   -1.061091
  O      0.406635   -2.124945   -0.701072
  C     -0.023431   -2.137063    0.575645
  C     -0.109431   -3.429020    1.324175
  O     -0.580244   -3.217972    2.630937
  N     -0.332861   -0.972864    1.047029
  H      0.282563    1.802253    0.939033
  H     -0.080964    1.907438   -0.794196
  H     -1.374557    1.588667    0.377240
  H      0.666034   -0.561576   -2.064441
  H     -0.773681   -4.118391    0.779797
  H      0.884636   -3.902791    1.342091
  H     -0.731684   -2.266820    2.720343

 Total Charge           Charge          ....    0
 Multiplicity           Mult            ....    1
 Number of Electrons    NEL             ....   60
 Basis Dimension        Dim             ....  290

ORBITAL ENERGIES
----------------

  NO   OCC          E(Eh)            E(eV)
   0   2.0000     -20.641969      -561.6965
   1   2.0000     -20.558746      -559.4319
   2   2.0000     -15.567990      -423.6265
   3   2.0000     -11.346117      -308.7435
   4   2.0000     -11.301857      -307.5392
   5   2.0000     -11.290404      -307.2275
   6   2.0000     -11.274993      -306.8082
   7   2.0000     -11.236749      -305.7675
   8   2.0000      -1.493116       -40.6297
   9   2.0000      -1.371880       -37.3308
  10   2.0000      -1.241044       -33.7705
  11   2.0000      -1.075037       -29.2532
  12   2.0000      -0.990178       -26.9441
  13   2.0000      -0.932558       -25.3762
  14   2.0000      -0.820891       -22.3376
  15   2.0000      -0.802495       -21.8370
  16   2.0000      -0.733392       -19.9566
  17   2.0000      -0.686099       -18.6697
  18   2.0000      -0.660783       -17.9808
  19   2.0000      -0.631699       -17.1894
  20   2.0000      -0.628397       -17.0995
  21   2.0000      -0.601998       -16.3812
  22   2.0000      -0.579476       -15.7683
  23   2.0000      -0.563853       -15.3432
  24   2.0000      -0.548281       -14.9195
  25   2.0000      -0.523135       -14.2352
  26   2.0000      -0.471404       -12.8275
  27   2.0000      -0.461671       -12.5627
  28   2.0000      -0.451234       -12.2787
  29   2.0000      -0.339468        -9.2374
  30   0.0000       0.138611         3.7718
  31   0.0000       0.142155         3.8682
  32   0.0000       0.156511         4.2589
  33   0.0000       0.175726         4.7818
  34   0.0000       0.189181         5.1479

MULLIKEN ATOMIC CHARGES
-----------------------
   0 C :   -0.409375
   1 C :    0.065331
   2 C :   -0.052761
   3 O :   -0.208880
   4 C :    0.262994
   5 C :   -0.001915
   6 O :   -0.480269
   7 N :   -0.349432
   8 H :    0.149669
   9 H :    0.135343
  10 H :    0.149665
  11 H :    0.157923
  12 H :    0.121017
  13 H :    0.120920
  14 H :    0.339769
Sum of atomic charges:    0.0000000

LOEWDIN ATOMIC CHARGES
----------------------
   0 C :   -0.268601
   1 C :   -0.278059
   2 C :   -0.218508
   3 O :    0.350543
   4 C :   -0.355993
   5 C :   -0.312757
   6 O :   -0.033043
   7 N :    0.124261
   8 H :    0.135805
   9 H :    0.132773
  10 H :    0.135803
  11 H :    0.136835
  12 H :    0.135142
  13 H :    0.135106
  14 H :    0.180695

  Mayer bond orders larger than 0.1
B(  0-C ,  1-C ) :   0.8815 B(  0-C ,  8-H ) :   0.9327 B(  0-C ,  9-H ) :   0.9480
B(  0-C , 10-H ) :   0.9326 B(  1-C ,  2-C ) :   1.6153 B(  1-C ,  7-N ) :   1.1499
B(  2-C ,  3-O ) :   1.0169 B(  2-C , 11-H ) :   0.9222 B(  3-O ,  4-C ) :   1.0910
B(  4-C ,  5-C ) :   0.9176 B(  4-C ,  7-N ) :   1.5633 B(  5-C ,  6-O ) :   1.0163
B(  5-C , 12-H ) :   0.9236 B(  5-C , 13-H ) :   0.9236 B(  6-O , 14-H ) :   0.8131

MP2 TOTAL ENERGY:     -399.181580183 Eh
FINAL SINGLE POINT ENERGY      -399.181580182866

DIPOLE MOMENT
-------------
                                X             Y             Z
Electronic contribution:      0.67794      -3.74065      -0.58386
Nuclear contribution   :     -0.42491       4.36918      -0.39998
                        -----------------------------------------
Total Dipole Moment    :      0.25304       0.62854      -0.98384
                        -----------------------------------------
Magnitude (a.u.)       :      1.19458
Magnitude (Debye)      :      3.03638

                             ****ORCA TERMINATED NORMALLY****
TOTAL RUN TIME: 0 days 0 hours 11 minutes 4 seconds 34 msec
