                         Program Version 3.0.3 - RELEASE   -
|  1> ! RI-MP2 RIJK def2-TZVP def2-TZVP/C def2-TZVP/JK TIGHTSCF
|  2> % maxcore 2000
|  3> % mp2 density relaxed end
|  4> *xyz 0 1
|  5>  C        0.0590634264     1.4811822825     0.2799180565
|  6>  C       -0.0222397699    -0.0134510769    -0.0437361109
|  7>  C        0.6793463427    -0.4402285081    -1.3543741784
|  8>  C        0.0788430864     0.2667080086    -2.5735210351
|  9>  O        2.0552640973    -0.0283789216    -1.3266414052
| 10>  C        0.5954067843    -1.9764734103    -1.4819769295
| 11>  C        1.3113960735    -2.5637350815    -2.6932081927
| 12>  O        1.3420327521    -3.9693073451    -2.5391375119
| 13>  C        1.9827929731    -4.6197889685    -3.6080075731
| 14>  H        1.0931100791     1.8312596704     0.2194280924
| 15>  H       -0.5394225132     2.0829621485    -0.4102222426
| 16>  H       -0.3124624756     1.6770792023     1.2902815305
| 17>  H        0.4357085583    -0.5844446494     0.7766767034
| 18>  H       -1.0702302238    -0.3357274256    -0.0822038337
| 19>  H        0.1542036855     1.3506716408    -2.4647250979
| 20>  H        0.6147819775    -0.0095267568    -3.4846008037
| 21>  H       -0.9752751794     0.0000440044    -2.6951361272
| 22>  H        2.4702669715    -0.4481089303    -0.5646003000
| 23>  H        1.0414853038    -2.4277422212    -0.5855417488
| 24>  H       -0.4547027200    -2.2906123653    -1.4924443370
| 25>  H        0.7929282828    -2.3000857995    -3.6294866687
| 26>  H        2.3322855508    -2.1564404719    -2.7601997670
| 27>  H        1.4721391155    -4.4352749790    -4.5672172855
| 28>  H        3.0313929608    -4.2980266582    -3.7151210156
| 29>  H        1.9628871604    -5.6927109983    -3.4001214281
| 30> *
| 31>
| 32>                          ****END OF INPUT****

CARTESIAN COORDINATES (ANGSTROEM)
---------------------------------
  C      0.059063    1.481182    0.279918
  C     -0.022240   -0.013451   -0.043736
  C      0.679346   -0.440229   -1.354374
  C      0.078843    0.266708   -2.573521
  O      2.055264   -0.028379   -1.326641
  C      0.595407   -1.976473   -1.481977
  C      1.311396   -2.563735   -2.693208
  O      1.342033   -3.969307   -2.539138
  C      1.982793   -4.619789   -3.608008
  H      1.093110    1.831260    0.219428
  H     -0.539423    2.082962   -0.410222
  H     -0.312462    1.677079    1.290282
  H      0.435709   -0.584445    0.776677
  H     -1.070230   -0.335727   -0.082204
  H      0.154204    1.350672   -2.464725
  H      0.614782   -0.009527   -3.484601
  H     -0.975275    0.000044   -2.695136
  H      2.470267   -0.448109   -0.564600
  H      1.041485   -2.427742   -0.585542
  H     -0.454703   -2.290612   -1.492444
  H      0.792928   -2.300086   -3.629487
  H      2.332286   -2.156440   -2.760200
  H      1.472139   -4.435275   -4.567217
  H      3.031393   -4.298027   -3.715121
  H      1.962887   -5.692711   -3.400121

 Total Charge           Charge          ....    0
 Multiplicity           Mult            ....    1
 Number of Electrons    NEL             ....   74
 Basis Dimension        Dim             ....  375

ORBITAL ENERGIES
----------------

  NO   OCC          E(Eh)            E(eV)
   0   2.0000     -20.551033      -559.2220
   1   2.0000     -20.550294      -559.2019
   2   2.0000     -11.285822      -307.1028
   3   2.0000     -11.267967      -306.6170
   4   2.0000     -11.267417      -306.6020
   5   2.0000     -11.222065      -305.3679
   6   2.0000     -11.218410      -305.2685
   7   2.0000     -11.211254      -305.0737
   8   2.0000     -11.210343      -305.0489
   9   2.0000      -1.372008       -37.3342
  10   2.0000      -1.358083       -36.9553
  11   2.0000      -1.079985       -29.3879
  12   2.0000      -1.020278       -27.7632
  13   2.0000      -0.972390       -26.4601
  14   2.0000      -0.918356       -24.9897
  15   2.0000      -0.875421       -23.8214
  16   2.0000      -0.820173       -22.3180
  17   2.0000      -0.767149       -20.8752
  18   2.0000      -0.670559       -18.2468
  19   2.0000      -0.668277       -18.1847
  20   2.0000      -0.657387       -17.8884
  21   2.0000      -0.631185       -17.1754
  22   2.0000      -0.621724       -16.9180
  23   2.0000      -0.607056       -16.5188
  24   2.0000      -0.592247       -16.1159
  25   2.0000      -0.554909       -15.0998
  26   2.0000      -0.539718       -14.6865
  27   2.0000      -0.533470       -14.5165
  28   2.0000      -0.527168       -14.3450
  29   2.0000      -0.513619       -13.9763
  30   2.0000      -0.494537       -13.4570
  31   2.0000      -0.491667       -13.3790
  32   2.0000      -0.482653       -13.1337
  33   2.0000      -0.475372       -12.9355
  34   2.0000      -0.452360       -12.3094
  35   2.0000      -0.423953       -11.5364
  36   2.0000      -0.418179       -11.3792
  37   0.0000       0.125933         3.4268
  38   0.0000       0.150390         4.0923
  39   0.0000       0.160348         4.3633
  40   0.0000       0.170798         4.6476
  41   0.0000       0.181407         4.9363

MULLIKEN ATOMIC CHARGES
-----------------------
   0 C :   -0.407203
   1 C :   -0.212352
   2 C :    0.204549
   3 C :   -0.442190
   4 O :   -0.478148
   5 C :   -0.197394
   6 C :   -0.080485
   7 O :   -0.302302
   8 C :   -0.211727
   9 H :    0.137654
  10 H :    0.128673
  11 H :    0.134550
  12 H :    0.105804
  13 H :    0.111309
  14 H :    0.144745
  15 H :    0.141025
  16 H :    0.125054
  17 H :    0.310905
  18 H :    0.114248
  19 H :    0.115506
  20 H :    0.093741
  21 H :    0.108635
  22 H :    0.108937
  23 H :    0.109441
  24 H :    0.137025
Sum of atomic charges:   -0.0000000

LOEWDIN ATOMIC CHARGES
----------------------
   0 C :   -0.319852
   1 C :   -0.264166
   2 C :   -0.400041
   3 C :   -0.265911
   4 O :    0.002494
   5 C :   -0.237732
   6 C :   -0.327574
   7 O :    0.130827
   8 C :   -0.365396
   9 H :    0.124618
  10 H :    0.119659
  11 H :    0.121111
  12 H :    0.137470
  13 H :    0.141484
  14 H :    0.128811
  15 H :    0.127719
  16 H :    0.129208
  17 H :    0.174495
  18 H :    0.143837
  19 H :    0.145561
  20 H :    0.117783
  21 H :    0.122273
  22 H :    0.100218
  23 H :    0.100649
  24 H :    0.112452

  Mayer bond orders larger than 0.1
B(  0-C ,  1-C ) :   0.9228 B(  0-C ,  9-H ) :   0.9349 B(  0-C , 10-H ) :   0.9412
B(  0-C , 11-H ) :   0.9403 B(  1-C ,  2-C ) :   0.9337 B(  1-C , 12-H ) :   0.9203
B(  1-C , 13-H ) :   0.9267 B(  2-C ,  3-C ) :   0.8714 B(  2-C ,  4-O ) :   0.8908
B(  2-C ,  5-C ) :   0.9237 B(  3-C , 14-H ) :   0.9415 B(  3-C , 15-H ) :   0.9412
B(  3-C , 16-H ) :   0.9318 B(  4-O , 17-H ) :   0.8427 B(  5-C ,  6-C ) :   0.9405
B(  5-C , 18-H ) :   0.9151 B(  5-C , 19-H ) :   0.9188 B(  6-C ,  7-O ) :   0.9543
B(  6-C , 20-H ) :   0.9275 B(  6-C , 21-H ) :   0.9247 B(  7-O ,  8-C ) :   0.9235
B(  8-C , 22-H ) :   0.9379 B(  8-C , 23-H ) :   0.9364 B(  8-C , 24-H ) :   0.9396

MP2 TOTAL ENERGY:     -425.922294186 Eh
FINAL SINGLE POINT ENERGY      -425.922294185745

DIPOLE MOMENT
-------------
                                X             Y             Z
Electronic contribution:      2.51400      -3.20023       0.08534
Nuclear contribution   :     -2.61232       3.11243      -0.04074
                        -----------------------------------------
Total Dipole Moment    :     -0.09832      -0.08780       0.04460
                        -----------------------------------------
Magnitude (a.u.)       :      0.13916
Magnitude (Debye)      :      0.35371

                             ****ORCA TERMINATED NORMALLY****
TOTAL RUN TIME: 0 days 0 hours 19 minutes 19 seconds 490 msec
