                         Program Version 3.0.3 - RELEASE   -
|  1> ! RI-MP2 RIJK def2-TZVP def2-TZVP/C def2-TZVP/JK TIGHTSCF
|  2> % maxcore 2000
|  3> % mp2 density relaxed end
|  4> *xyz 0 1
|  5>  O       -0.4497293392     0.6777084560     0.7676906013
|  6>  C        0.1903978337     1.0118002641    -0.1982304587
|  7>  C        1.4237905939     1.8505867068    -0.1419494240
|  8>  C        2.0042519906     2.1005811488     1.2359360067
|  9>  C        3.1974447514     3.0751790447     1.2443676860
| 10>  C        2.9699235312     4.2718271766     0.3579979098
| 11>  C        2.1907229867     4.2167774744    -0.7243909186
| 12>  C        1.5042222358     2.9728190556    -1.1534073469
| 13>  N        2.2516367238     1.7191207527    -1.3565611573
| 14>  H       -0.0995529571     0.7220189272    -1.2322309086
| 15>  H        1.1940055161     2.5025866926     1.8535546323
| 16>  H        2.2906247037     1.1491409732     1.6958571319
| 17>  H        3.3918772876     3.3972871269     2.2727866611
| 18>  H        4.1143398806     2.5525576862     0.9330429354
| 19>  H        3.4753216835     5.1981791907     0.6149090103
| 20>  H        2.0376544418     5.0958405955    -1.3431764443
| 21>  H        0.6878348437     3.0957318790    -1.8605347119
| 22>  H        3.2318052020     1.8663995992    -1.1254117745
| 23> *
| 24>
| 25>                          ****END OF INPUT****

CARTESIAN COORDINATES (ANGSTROEM)
---------------------------------
  O     -0.449729    0.677708    0.767691
  C      0.190398    1.011800   -0.198230
  C      1.423791    1.850587   -0.141949
  C      2.004252    2.100581    1.235936
  C      3.197445    3.075179    1.244368
  C      2.969924    4.271827    0.357998
  C      2.190723    4.216777   -0.724391
  C      1.504222    2.972819   -1.153407
  N      2.251637    1.719121   -1.356561
  H     -0.099553    0.722019   -1.232231
  H      1.194006    2.502587    1.853555
  H      2.290625    1.149141    1.695857
  H      3.391877    3.397287    2.272787
  H      4.114340    2.552558    0.933043
  H      3.475322    5.198179    0.614909
  H      2.037654    5.095841   -1.343176
  H      0.687835    3.095732   -1.860535
  H      3.231805    1.866400   -1.125412

 Total Charge           Charge          ....    0
 Multiplicity           Mult            ....    1
 Number of Electrons    NEL             ....   66
 Basis Dimension        Dim             ....  333

ORBITAL ENERGIES
----------------

  NO   OCC          E(Eh)            E(eV)
   0   2.0000     -20.555262      -559.3371
   1   2.0000     -15.579188      -423.9313
   2   2.0000     -11.329908      -308.3025
   3   2.0000     -11.283225      -307.0322
   4   2.0000     -11.281580      -306.9874
   5   2.0000     -11.246911      -306.0440
   6   2.0000     -11.245656      -306.0099
   7   2.0000     -11.243821      -305.9599
   8   2.0000     -11.240168      -305.8605
   9   2.0000      -1.395096       -37.9625
  10   2.0000      -1.289414       -35.0867
  11   2.0000      -1.104223       -30.0474
  12   2.0000      -1.034690       -28.1553
  13   2.0000      -0.964860       -26.2552
  14   2.0000      -0.895684       -24.3728
  15   2.0000      -0.864654       -23.5284
  16   2.0000      -0.781075       -21.2541
  17   2.0000      -0.718076       -19.5398
  18   2.0000      -0.700706       -19.0672
  19   2.0000      -0.681804       -18.5528
  20   2.0000      -0.635778       -17.3004
  21   2.0000      -0.629220       -17.1220
  22   2.0000      -0.617579       -16.8052
  23   2.0000      -0.577061       -15.7026
  24   2.0000      -0.565838       -15.3972
  25   2.0000      -0.542502       -14.7622
  26   2.0000      -0.516720       -14.0607
  27   2.0000      -0.507426       -13.8078
  28   2.0000      -0.488788       -13.3006
  29   2.0000      -0.461867       -12.5680
  30   2.0000      -0.429498       -11.6872
  31   2.0000      -0.419004       -11.4017
  32   2.0000      -0.349891        -9.5210
  33   0.0000       0.114651         3.1198
  34   0.0000       0.124290         3.3821
  35   0.0000       0.142925         3.8892
  36   0.0000       0.160324         4.3626
  37   0.0000       0.170919         4.6509

MULLIKEN ATOMIC CHARGES
-----------------------
   0 O :   -0.272410
   1 C :    0.022828
   2 C :    0.146845
   3 C :   -0.194452
   4 C :   -0.259465
   5 C :   -0.118499
   6 C :   -0.252882
   7 C :    0.011913
   8 N :   -0.353686
   9 H :    0.099118
  10 H :    0.136086
  11 H :    0.136579
  12 H :    0.141052
  13 H :    0.135225
  14 H :    0.132411
  15 H :    0.130136
  16 H :    0.131030
  17 H :    0.228173
Sum of atomic charges:    0.0000000

LOEWDIN ATOMIC CHARGES
----------------------
   0 O :    0.135679
   1 C :   -0.260427
   2 C :   -0.276148
   3 C :   -0.207773
   4 C :   -0.251597
   5 C :   -0.158843
   6 C :   -0.160422
   7 C :   -0.210371
   8 N :    0.052196
   9 H :    0.123259
  10 H :    0.158031
  11 H :    0.149739
  12 H :    0.147085
  13 H :    0.144455
  14 H :    0.144231
  15 H :    0.148374
  16 H :    0.148196
  17 H :    0.174335

  Mayer bond orders larger than 0.1
B(  0-O ,  1-C ) :   2.0066 B(  1-C ,  2-C ) :   0.8256 B(  1-C ,  9-H ) :   0.9634
B(  2-C ,  3-C ) :   0.9392 B(  2-C ,  7-C ) :   0.8433 B(  2-C ,  8-N ) :   0.9245
B(  3-C ,  4-C ) :   0.9108 B(  3-C , 10-H ) :   0.9059 B(  3-C , 11-H ) :   0.9360
B(  4-C ,  5-C ) :   0.9293 B(  4-C , 12-H ) :   0.9305 B(  4-C , 13-H ) :   0.9222
B(  5-C ,  6-C ) :   1.7627 B(  5-C , 14-H ) :   0.9271 B(  6-C ,  7-C ) :   0.9499
B(  6-C , 15-H ) :   0.9326 B(  7-C ,  8-N ) :   0.8897 B(  7-C , 16-H ) :   0.9159
B(  8-N , 17-H ) :   0.8737

MP2 TOTAL ENERGY:     -401.253260632 Eh
FINAL SINGLE POINT ENERGY      -401.253260632197

DIPOLE MOMENT
-------------
                                X             Y             Z
Electronic contribution:     -3.95660      -2.87997      -1.57950
Nuclear contribution   :      4.86436       3.74956       1.52527
                        -----------------------------------------
Total Dipole Moment    :      0.90776       0.86959      -0.05424
                        -----------------------------------------
Magnitude (a.u.)       :      1.25823
Magnitude (Debye)      :      3.19818

                             ****ORCA TERMINATED NORMALLY****
TOTAL RUN TIME: 0 days 0 hours 19 minutes 6 seconds 623 msec
