                         Program Version 3.0.3 - RELEASE   -
|  1> ! RI-MP2 RIJK def2-TZVP def2-TZVP/C def2-TZVP/JK TIGHTSCF
|  2> % maxcore 2000
|  3> % mp2 density relaxed end
|  4> *xyz 0 1
|  5>  C        0.0589175201     1.5140327804    -0.3496771435
|  6>  C       -0.0165925625     0.0966013261     0.2251034219
|  7>  C       -1.4112326142    -0.5157569675     0.1286690623
|  8>  C       -1.8676811398    -1.1320812805    -1.1974251623
|  9>  C       -1.5706480350    -2.0202788920    -0.0246038295
| 10>  O       -0.3950813321    -2.7649895949     0.0108662400
| 11>  C       -2.4255292295     0.1472601721     0.9109330032
| 12>  N       -3.2324760774     0.6855022005     1.5421212546
| 13>  H        1.0727112940     1.9132944758    -0.2534594492
| 14>  H       -0.2094563670     1.5266958023    -1.4112448814
| 15>  H       -0.6209348487     2.1923919389     0.1751204869
| 16>  H        0.6766094634    -0.5701115758    -0.2932637388
| 17>  H        0.2891117022     0.1027438015     1.2774299485
| 18>  H       -2.8972039083    -0.9958072953    -1.5063244605
| 19>  H       -1.1324427763    -1.1050815687    -1.9945766493
| 20>  H       -2.4177478673    -2.4672858171     0.4936105102
| 21>  H       -0.4776981718    -3.4863798158    -0.6219462930
| 22> *
| 23>
| 24>                          ****END OF INPUT****

CARTESIAN COORDINATES (ANGSTROEM)
---------------------------------
  C      0.058918    1.514033   -0.349677
  C     -0.016593    0.096601    0.225103
  C     -1.411233   -0.515757    0.128669
  C     -1.867681   -1.132081   -1.197425
  C     -1.570648   -2.020279   -0.024604
  O     -0.395081   -2.764990    0.010866
  C     -2.425529    0.147260    0.910933
  N     -3.232476    0.685502    1.542121
  H      1.072711    1.913294   -0.253459
  H     -0.209456    1.526696   -1.411245
  H     -0.620935    2.192392    0.175120
  H      0.676609   -0.570112   -0.293264
  H      0.289112    0.102744    1.277430
  H     -2.897204   -0.995807   -1.506324
  H     -1.132443   -1.105082   -1.994577
  H     -2.417748   -2.467286    0.493611
  H     -0.477698   -3.486380   -0.621946

 Total Charge           Charge          ....    0
 Multiplicity           Mult            ....    1
 Number of Electrons    NEL             ....   60
 Basis Dimension        Dim             ....  302

ORBITAL ENERGIES
----------------

  NO   OCC          E(Eh)            E(eV)
   0   2.0000     -20.588372      -560.2381
   1   2.0000     -15.565231      -423.5515
   2   2.0000     -11.317203      -307.9567
   3   2.0000     -11.287896      -307.1593
   4   2.0000     -11.270047      -306.6736
   5   2.0000     -11.259647      -306.3906
   6   2.0000     -11.243357      -305.9473
   7   2.0000     -11.223279      -305.4010
   8   2.0000      -1.400864       -38.1194
   9   2.0000      -1.221289       -33.2330
  10   2.0000      -1.169316       -31.8187
  11   2.0000      -1.041829       -28.3496
  12   2.0000      -0.914253       -24.8781
  13   2.0000      -0.855493       -23.2792
  14   2.0000      -0.844892       -22.9907
  15   2.0000      -0.734257       -19.9801
  16   2.0000      -0.707966       -19.2647
  17   2.0000      -0.650420       -17.6988
  18   2.0000      -0.625843       -17.0301
  19   2.0000      -0.607970       -16.5437
  20   2.0000      -0.580084       -15.7849
  21   2.0000      -0.557833       -15.1794
  22   2.0000      -0.553636       -15.0652
  23   2.0000      -0.534296       -14.5389
  24   2.0000      -0.509188       -13.8557
  25   2.0000      -0.507176       -13.8010
  26   2.0000      -0.489321       -13.3151
  27   2.0000      -0.470393       -12.8000
  28   2.0000      -0.425720       -11.5844
  29   2.0000      -0.407200       -11.0805
  30   0.0000       0.122244         3.3264
  31   0.0000       0.138891         3.7794
  32   0.0000       0.152162         4.1405
  33   0.0000       0.162634         4.4255
  34   0.0000       0.183129         4.9832

MULLIKEN ATOMIC CHARGES
-----------------------
   0 C :   -0.411070
   1 C :   -0.219872
   2 C :    0.221516
   3 C :   -0.318415
   4 C :    0.002576
   5 O :   -0.459336
   6 C :   -0.215328
   7 N :   -0.052959
   8 H :    0.139457
   9 H :    0.125496
  10 H :    0.148772
  11 H :    0.139689
  12 H :    0.130310
  13 H :    0.152192
  14 H :    0.151666
  15 H :    0.133830
  16 H :    0.331477
Sum of atomic charges:   -0.0000000

LOEWDIN ATOMIC CHARGES
----------------------
   0 C :   -0.305670
   1 C :   -0.228613
   2 C :   -0.221050
   3 C :   -0.169331
   4 C :   -0.283953
   5 O :    0.011444
   6 C :   -0.154091
   7 N :    0.061979
   8 H :    0.124092
   9 H :    0.122344
  10 H :    0.128498
  11 H :    0.148654
  12 H :    0.149543
  13 H :    0.142855
  14 H :    0.144769
  15 H :    0.142376
  16 H :    0.186154

  Mayer bond orders larger than 0.1
B(  0-C ,  1-C ) :   0.9242 B(  0-C ,  8-H ) :   0.9400 B(  0-C ,  9-H ) :   0.9374
B(  0-C , 10-H ) :   0.9318 B(  1-C ,  2-C ) :   0.9057 B(  1-C , 11-H ) :   0.9258
B(  1-C , 12-H ) :   0.9275 B(  2-C ,  3-C ) :   0.8273 B(  2-C ,  4-C ) :   0.7899
B(  2-C ,  6-C ) :   0.9324 B(  3-C ,  4-C ) :   0.9242 B(  3-C , 13-H ) :   0.9119
B(  3-C , 14-H ) :   0.9237 B(  4-C ,  5-O ) :   1.0499 B(  4-C , 15-H ) :   0.9499
B(  5-O , 16-H ) :   0.8352 B(  6-C ,  7-N ) :   2.8741

MP2 TOTAL ENERGY:     -363.245514992 Eh
FINAL SINGLE POINT ENERGY      -363.245514991732

DIPOLE MOMENT
-------------
                                X             Y             Z
Electronic contribution:     -4.85607      -2.81687       3.63070
Nuclear contribution   :      5.59650       1.85856      -4.93037
                        -----------------------------------------
Total Dipole Moment    :      0.74043      -0.95831      -1.29966
                        -----------------------------------------
Magnitude (a.u.)       :      1.77643
Magnitude (Debye)      :      4.51533

                             ****ORCA TERMINATED NORMALLY****
TOTAL RUN TIME: 0 days 0 hours 12 minutes 24 seconds 11 msec
