                         Program Version 3.0.3 - RELEASE   -
|  1> ! RI-MP2 RIJK def2-TZVP def2-TZVP/C def2-TZVP/JK TIGHTSCF
|  2> % maxcore 2000
|  3> % mp2 density relaxed end
|  4> *xyz 0 1
|  5>  C       -0.0122133354     1.5328121398     0.0058230237
|  6>  C       -0.0010153837    -0.0015815471     0.0087015683
|  7>  C       -1.4255397887    -0.5678482621    -0.0590916376
|  8>  N        0.7888889633    -0.4974399336    -1.1454031072
|  9>  C        1.7574784011    -1.1648784853    -0.6571253128
| 10>  N        1.8069047917    -1.2411591763     0.7303461860
| 11>  C        0.7288284167    -0.5311081637     1.2547018332
| 12>  N        0.3765485922    -0.3305973339     2.4582527954
| 13>  H        1.0066673336     1.9303201476     0.0169966611
| 14>  H       -0.5136474949     1.9003643204    -0.8933686438
| 15>  H       -0.5359155506     1.8984256672     0.8930159039
| 16>  H       -1.9288824426    -0.2041414377    -0.9587781713
| 17>  H       -1.4095706024    -1.6609339947    -0.0932648322
| 18>  H       -1.9871904754    -0.2576399150     0.8259919137
| 19>  H        2.5233317946    -1.6622041047    -1.2447617651
| 20>  H        2.5041647994    -1.7258382488     1.2702982261
| 21>  H        1.0075291113    -0.7759485222     3.1267235585
| 22> *
| 23>
| 24>                          ****END OF INPUT****

CARTESIAN COORDINATES (ANGSTROEM)
---------------------------------
  C     -0.012213    1.532812    0.005823
  C     -0.001015   -0.001582    0.008702
  C     -1.425540   -0.567848   -0.059092
  N      0.788889   -0.497440   -1.145403
  C      1.757478   -1.164878   -0.657125
  N      1.806905   -1.241159    0.730346
  C      0.728828   -0.531108    1.254702
  N      0.376549   -0.330597    2.458253
  H      1.006667    1.930320    0.016997
  H     -0.513647    1.900364   -0.893369
  H     -0.535916    1.898426    0.893016
  H     -1.928882   -0.204141   -0.958778
  H     -1.409571   -1.660934   -0.093265
  H     -1.987190   -0.257640    0.825992
  H      2.523332   -1.662204   -1.244762
  H      2.504165   -1.725838    1.270298
  H      1.007529   -0.775949    3.126724

 Total Charge           Charge          ....    0
 Multiplicity           Mult            ....    1
 Number of Electrons    NEL             ....   60
 Basis Dimension        Dim             ....  302

ORBITAL ENERGIES
----------------

  NO   OCC          E(Eh)            E(eV)
   0   2.0000     -15.608825      -424.7377
   1   2.0000     -15.547715      -423.0748
   2   2.0000     -15.532979      -422.6738
   3   2.0000     -11.322757      -308.1079
   4   2.0000     -11.321421      -308.0715
   5   2.0000     -11.271949      -306.7253
   6   2.0000     -11.213582      -305.1371
   7   2.0000     -11.213563      -305.1366
   8   2.0000      -1.339563       -36.4514
   9   2.0000      -1.207676       -32.8625
  10   2.0000      -1.161916       -31.6173
  11   2.0000      -1.046044       -28.4643
  12   2.0000      -0.933682       -25.4068
  13   2.0000      -0.899154       -24.4672
  14   2.0000      -0.825414       -22.4607
  15   2.0000      -0.758600       -20.6426
  16   2.0000      -0.733800       -19.9677
  17   2.0000      -0.654164       -17.8007
  18   2.0000      -0.629187       -17.1210
  19   2.0000      -0.621738       -16.9183
  20   2.0000      -0.596454       -16.2303
  21   2.0000      -0.543229       -14.7820
  22   2.0000      -0.535704       -14.5773
  23   2.0000      -0.523877       -14.2554
  24   2.0000      -0.495800       -13.4914
  25   2.0000      -0.486999       -13.2519
  26   2.0000      -0.459352       -12.4996
  27   2.0000      -0.447670       -12.1817
  28   2.0000      -0.407328       -11.0839
  29   2.0000      -0.350124        -9.5273
  30   0.0000       0.118666         3.2291
  31   0.0000       0.139866         3.8060
  32   0.0000       0.154433         4.2023
  33   0.0000       0.167932         4.5697
  34   0.0000       0.191802         5.2192

MULLIKEN ATOMIC CHARGES
-----------------------
   0 C :   -0.394426
   1 C :    0.327407
   2 C :   -0.394470
   3 N :   -0.311138
   4 C :    0.051731
   5 N :   -0.300667
   6 C :   -0.017104
   7 N :   -0.370799
   8 H :    0.127070
   9 H :    0.138504
  10 H :    0.144400
  11 H :    0.138525
  12 H :    0.127091
  13 H :    0.144377
  14 H :    0.146175
  15 H :    0.239727
  16 H :    0.203596
Sum of atomic charges:   -0.0000000

LOEWDIN ATOMIC CHARGES
----------------------
   0 C :   -0.253789
   1 C :   -0.312847
   2 C :   -0.253782
   3 N :    0.111755
   4 C :   -0.293823
   5 N :    0.129117
   6 C :   -0.319634
   7 N :   -0.066016
   8 H :    0.128031
   9 H :    0.129690
  10 H :    0.134174
  11 H :    0.129697
  12 H :    0.128035
  13 H :    0.134169
  14 H :    0.133229
  15 H :    0.183672
  16 H :    0.158322

  Mayer bond orders larger than 0.1
B(  0-C ,  1-C ) :   0.9052 B(  0-C ,  8-H ) :   0.9275 B(  0-C ,  9-H ) :   0.9365
B(  0-C , 10-H ) :   0.9299 B(  1-C ,  2-C ) :   0.9052 B(  1-C ,  3-N ) :   0.8575
B(  1-C ,  6-C ) :   0.8267 B(  2-C , 11-H ) :   0.9365 B(  2-C , 12-H ) :   0.9275
B(  2-C , 13-H ) :   0.9300 B(  3-N ,  4-C ) :   1.8361 B(  4-C ,  5-N ) :   1.0317
B(  4-C , 14-H ) :   0.9171 B(  5-N ,  6-C ) :   1.0692 B(  5-N , 15-H ) :   0.8659
B(  6-C ,  7-N ) :   2.1196 B(  7-N , 16-H ) :   0.8520

MP2 TOTAL ENERGY:     -359.456231514 Eh
FINAL SINGLE POINT ENERGY      -359.456231513595

DIPOLE MOMENT
-------------
                                X             Y             Z
Electronic contribution:      4.59208      -3.10327       0.41733
Nuclear contribution   :     -3.53614       2.38411      -0.13756
                        -----------------------------------------
Total Dipole Moment    :      1.05593      -0.71917       0.27977
                        -----------------------------------------
Magnitude (a.u.)       :      1.30785
Magnitude (Debye)      :      3.32429

                             ****ORCA TERMINATED NORMALLY****
TOTAL RUN TIME: 0 days 0 hours 13 minutes 49 seconds 521 msec
