                         Program Version 3.0.3 - RELEASE   -
|  1> ! RI-MP2 RIJK def2-TZVP def2-TZVP/C def2-TZVP/JK TIGHTSCF
|  2> % maxcore 2000
|  3> % mp2 density relaxed end
|  4> *xyz 0 1
|  5>  C       -0.0046015697     1.5927905671    -0.0906477960
|  6>  C       -0.0546961508     0.0610218158    -0.0290504627
|  7>  C       -1.4710054618    -0.5184999776     0.0840509964
|  8>  O       -2.2935138852    -0.1132451680    -0.9908792119
|  9>  C       -1.4581854280    -2.0252223165     0.3062534369
| 10>  C       -1.4531861558    -1.8571676632     1.7803234157
| 11>  C       -2.0674853271    -0.4305984533     1.5360751725
| 12>  C       -3.4030458118    -1.1695773398     1.3830638862
| 13>  N       -2.6483668733    -2.4458692277     1.1208837216
| 14>  H        1.0312078579     1.9427130915    -0.1217102205
| 15>  H       -0.4928544670     1.9844469341    -0.9909978129
| 16>  H       -0.4827251025     2.0518624640     0.7813289028
| 17>  H        0.4147829479    -0.3519799269    -0.9303316335
| 18>  H        0.5372831135    -0.2882522074     0.8237446926
| 19>  H       -2.2367483327     0.8440779569    -1.0779619623
| 20>  H       -0.9970551526    -2.7881507732    -0.3079954135
| 21>  H       -0.8846084466    -2.3248121065     2.5720870742
| 22>  H       -1.9435805546     0.4670124120     2.1405259995
| 23>  H       -3.9460997897    -1.2856603256     2.3241442950
| 24>  H       -4.0743025201    -0.8503447756     0.5814039799
| 25> *
| 26>
| 27>                          ****END OF INPUT****

CARTESIAN COORDINATES (ANGSTROEM)
---------------------------------
  C     -0.004602    1.592791   -0.090648
  C     -0.054696    0.061022   -0.029050
  C     -1.471005   -0.518500    0.084051
  O     -2.293514   -0.113245   -0.990879
  C     -1.458185   -2.025222    0.306253
  C     -1.453186   -1.857168    1.780323
  C     -2.067485   -0.430598    1.536075
  C     -3.403046   -1.169577    1.383064
  N     -2.648367   -2.445869    1.120884
  H      1.031208    1.942713   -0.121710
  H     -0.492854    1.984447   -0.990998
  H     -0.482725    2.051862    0.781329
  H      0.414783   -0.351980   -0.930332
  H      0.537283   -0.288252    0.823745
  H     -2.236748    0.844078   -1.077962
  H     -0.997055   -2.788151   -0.307995
  H     -0.884608   -2.324812    2.572087
  H     -1.943581    0.467012    2.140526
  H     -3.946100   -1.285660    2.324144
  H     -4.074303   -0.850345    0.581404

 Total Charge           Charge          ....    0
 Multiplicity           Mult            ....    1
 Number of Electrons    NEL             ....   68
 Basis Dimension        Dim             ....  345

ORBITAL ENERGIES
----------------

  NO   OCC          E(Eh)            E(eV)
   0   2.0000     -20.558107      -559.4145
   1   2.0000     -15.559659      -423.3998
   2   2.0000     -11.294756      -307.3459
   3   2.0000     -11.262001      -306.4546
   4   2.0000     -11.255304      -306.2724
   5   2.0000     -11.247907      -306.0711
   6   2.0000     -11.241620      -305.9000
   7   2.0000     -11.232848      -305.6613
   8   2.0000     -11.230375      -305.5941
   9   2.0000      -1.374174       -37.3932
  10   2.0000      -1.307564       -35.5806
  11   2.0000      -1.069077       -29.0911
  12   2.0000      -0.992985       -27.0205
  13   2.0000      -0.985602       -26.8196
  14   2.0000      -0.885420       -24.0935
  15   2.0000      -0.840490       -22.8709
  16   2.0000      -0.764360       -20.7993
  17   2.0000      -0.737717       -20.0743
  18   2.0000      -0.699871       -19.0445
  19   2.0000      -0.676586       -18.4108
  20   2.0000      -0.645759       -17.5720
  21   2.0000      -0.622412       -16.9367
  22   2.0000      -0.593705       -16.1555
  23   2.0000      -0.575047       -15.6478
  24   2.0000      -0.563242       -15.3266
  25   2.0000      -0.534454       -14.5432
  26   2.0000      -0.522620       -14.2212
  27   2.0000      -0.499916       -13.6034
  28   2.0000      -0.489812       -13.3285
  29   2.0000      -0.470956       -12.8154
  30   2.0000      -0.439540       -11.9605
  31   2.0000      -0.424199       -11.5430
  32   2.0000      -0.409152       -11.1336
  33   2.0000      -0.369676       -10.0594
  34   0.0000       0.127417         3.4672
  35   0.0000       0.155884         4.2418
  36   0.0000       0.167043         4.5455
  37   0.0000       0.175873         4.7858
  38   0.0000       0.183890         5.0039

MULLIKEN ATOMIC CHARGES
-----------------------
   0 C :   -0.432601
   1 C :   -0.257413
   2 C :    0.236317
   3 O :   -0.469183
   4 C :   -0.071357
   5 C :   -0.201045
   6 C :   -0.088386
   7 C :   -0.098776
   8 N :   -0.230733
   9 H :    0.145018
  10 H :    0.120571
  11 H :    0.134380
  12 H :    0.124964
  13 H :    0.124671
  14 H :    0.312594
  15 H :    0.132404
  16 H :    0.145663
  17 H :    0.136013
  18 H :    0.121333
  19 H :    0.115565
Sum of atomic charges:   -0.0000000

LOEWDIN ATOMIC CHARGES
----------------------
   0 C :   -0.321514
   1 C :   -0.248729
   2 C :   -0.341557
   3 O :    0.022476
   4 C :   -0.174891
   5 C :   -0.170422
   6 C :   -0.156661
   7 C :   -0.227039
   8 N :    0.130436
   9 H :    0.126586
  10 H :    0.116282
  11 H :    0.121254
  12 H :    0.144117
  13 H :    0.149223
  14 H :    0.173758
  15 H :    0.139631
  16 H :    0.130087
  17 H :    0.131176
  18 H :    0.131496
  19 H :    0.124290

  Mayer bond orders larger than 0.1
B(  0-C ,  1-C ) :   0.8907 B(  0-C ,  9-H ) :   0.9384 B(  0-C , 10-H ) :   0.9390
B(  0-C , 11-H ) :   0.9385 B(  1-C ,  2-C ) :   0.9142 B(  1-C , 12-H ) :   0.9349
B(  1-C , 13-H ) :   0.9267 B(  2-C ,  3-O ) :   0.9914 B(  2-C ,  4-C ) :   0.8432
B(  2-C ,  6-C ) :   0.8972 B(  3-O , 14-H ) :   0.8384 B(  4-C ,  5-C ) :   0.8535
B(  4-C ,  8-N ) :   0.8928 B(  4-C , 15-H ) :   0.9376 B(  5-C ,  6-C ) :   0.9122
B(  5-C ,  8-N ) :   0.9151 B(  5-C , 16-H ) :   0.9038 B(  6-C ,  7-C ) :   0.9512
B(  6-C , 17-H ) :   0.9027 B(  7-C ,  8-N ) :   0.9097 B(  7-C , 18-H ) :   0.9363
B(  7-C , 19-H ) :   0.9070

MP2 TOTAL ENERGY:     -402.396476769 Eh
FINAL SINGLE POINT ENERGY      -402.396476769361

DIPOLE MOMENT
-------------
                                X             Y             Z
Electronic contribution:     -3.98095      -5.68060       0.31180
Nuclear contribution   :      4.70457       6.76590       0.02630
                        -----------------------------------------
Total Dipole Moment    :      0.72362       1.08530       0.33810
                        -----------------------------------------
Magnitude (a.u.)       :      1.34752
Magnitude (Debye)      :      3.42513

                             ****ORCA TERMINATED NORMALLY****
TOTAL RUN TIME: 0 days 0 hours 19 minutes 46 seconds 788 msec
