                         Program Version 3.0.3 - RELEASE   -
|  1> ! RI-MP2 RIJK def2-TZVP def2-TZVP/C def2-TZVP/JK TIGHTSCF
|  2> % maxcore 2000
|  3> % mp2 density relaxed end
|  4> *xyz 0 1
|  5>  C        0.7007931462     1.4143174824    -0.4128676254
|  6>  C        0.0316745358     0.1142015354     0.0468618675
|  7>  O       -0.1007672215    -0.7397202176    -1.1081992492
|  8>  C        0.6880072527    -1.9130814943    -1.1266167613
|  9>  C        0.3794852856    -2.8017627713     0.1058701948
| 10>  C        1.3966214900    -1.8948355494     0.8515314772
| 11>  C        2.1005660370    -1.6905660136    -0.5211029449
| 12>  C        0.6814805853    -0.6027731280     1.2872682322
| 13>  C        1.5988318295     0.2986590115     2.1231932385
| 14>  H        1.7521596653     1.2750629119    -0.6775877639
| 15>  H        0.1773802278     1.7738761330    -1.3028693842
| 16>  H        0.6395571649     2.1905691786     0.3555374065
| 17>  H       -0.9986568664     0.3710502555     0.3218720635
| 18>  H        0.5880113369    -2.3270291156    -2.1322269411
| 19>  H       -0.6562298685    -2.8184559301     0.4563383385
| 20>  H        0.7491206068    -3.8229650601    -0.0210728905
| 21>  H        1.9703640838    -2.3227610398     1.6781963273
| 22>  H        2.7655166615    -2.5244992513    -0.7613627567
| 23>  H        2.6137357448    -0.7498526789    -0.7300122231
| 24>  H       -0.1431566166    -0.9127331540     1.9425800402
| 25>  H        2.4860558558     0.6143279289     1.5657704108
| 26>  H        1.0832324587     1.1995966862     2.4696398325
| 27>  H        1.9419261445    -0.2446987093     3.0098813012
| 28> *
| 29>
| 30>                          ****END OF INPUT****

CARTESIAN COORDINATES (ANGSTROEM)
---------------------------------
  C      0.700793    1.414317   -0.412868
  C      0.031675    0.114202    0.046862
  O     -0.100767   -0.739720   -1.108199
  C      0.688007   -1.913081   -1.126617
  C      0.379485   -2.801763    0.105870
  C      1.396621   -1.894836    0.851531
  C      2.100566   -1.690566   -0.521103
  C      0.681481   -0.602773    1.287268
  C      1.598832    0.298659    2.123193
  H      1.752160    1.275063   -0.677588
  H      0.177380    1.773876   -1.302869
  H      0.639557    2.190569    0.355537
  H     -0.998657    0.371050    0.321872
  H      0.588011   -2.327029   -2.132227
  H     -0.656230   -2.818456    0.456338
  H      0.749121   -3.822965   -0.021073
  H      1.970364   -2.322761    1.678196
  H      2.765517   -2.524499   -0.761363
  H      2.613736   -0.749853   -0.730012
  H     -0.143157   -0.912733    1.942580
  H      2.486056    0.614328    1.565770
  H      1.083232    1.199597    2.469640
  H      1.941926   -0.244699    3.009881

 Total Charge           Charge          ....    0
 Multiplicity           Mult            ....    1
 Number of Electrons    NEL             ....   70
 Basis Dimension        Dim             ....  363

ORBITAL ENERGIES
----------------

  NO   OCC          E(Eh)            E(eV)
   0   2.0000     -20.540388      -558.9324
   1   2.0000     -11.276115      -306.8387
   2   2.0000     -11.275079      -306.8105
   3   2.0000     -11.230865      -305.6074
   4   2.0000     -11.229903      -305.5812
   5   2.0000     -11.218366      -305.2673
   6   2.0000     -11.215862      -305.1991
   7   2.0000     -11.214822      -305.1708
   8   2.0000     -11.208021      -304.9858
   9   2.0000      -1.363961       -37.1153
  10   2.0000      -1.131565       -30.7915
  11   2.0000      -1.066398       -29.0182
  12   2.0000      -0.974420       -26.5153
  13   2.0000      -0.911611       -24.8062
  14   2.0000      -0.896336       -24.3906
  15   2.0000      -0.827317       -22.5124
  16   2.0000      -0.810066       -22.0430
  17   2.0000      -0.700593       -19.0641
  18   2.0000      -0.690597       -18.7921
  19   2.0000      -0.640353       -17.4249
  20   2.0000      -0.629254       -17.1229
  21   2.0000      -0.604905       -16.4603
  22   2.0000      -0.584541       -15.9062
  23   2.0000      -0.562795       -15.3144
  24   2.0000      -0.547741       -14.9048
  25   2.0000      -0.532483       -14.4896
  26   2.0000      -0.528473       -14.3805
  27   2.0000      -0.524201       -14.2642
  28   2.0000      -0.521106       -14.1800
  29   2.0000      -0.496217       -13.5027
  30   2.0000      -0.467487       -12.7210
  31   2.0000      -0.440065       -11.9748
  32   2.0000      -0.429399       -11.6845
  33   2.0000      -0.405580       -11.0364
  34   2.0000      -0.387455       -10.5432
  35   0.0000       0.133495         3.6326
  36   0.0000       0.152665         4.1542
  37   0.0000       0.160636         4.3711
  38   0.0000       0.169957         4.6248
  39   0.0000       0.191830         5.2200

MULLIKEN ATOMIC CHARGES
-----------------------
   0 C :   -0.408571
   1 C :    0.078875
   2 O :   -0.325388
   3 C :    0.134991
   4 C :   -0.286785
   5 C :   -0.004758
   6 C :   -0.316559
   7 C :   -0.119701
   8 C :   -0.406347
   9 H :    0.118960
  10 H :    0.143693
  11 H :    0.121282
  12 H :    0.091974
  13 H :    0.112434
  14 H :    0.112869
  15 H :    0.114336
  16 H :    0.107781
  17 H :    0.119153
  18 H :    0.114703
  19 H :    0.096872
  20 H :    0.128801
  21 H :    0.136339
  22 H :    0.135044
Sum of atomic charges:    0.0000000

LOEWDIN ATOMIC CHARGES
----------------------
   0 C :   -0.299220
   1 C :   -0.286070
   2 O :    0.188116
   3 C :   -0.293550
   4 C :   -0.204221
   5 C :   -0.208068
   6 C :   -0.203506
   7 C :   -0.236598
   8 C :   -0.290554
   9 H :    0.117775
  10 H :    0.128203
  11 H :    0.122307
  12 H :    0.142672
  13 H :    0.129243
  14 H :    0.128190
  15 H :    0.136636
  16 H :    0.137413
  17 H :    0.139348
  18 H :    0.124850
  19 H :    0.154469
  20 H :    0.124566
  21 H :    0.123208
  22 H :    0.124790

  Mayer bond orders larger than 0.1
B(  0-C ,  1-C ) :   0.9277 B(  0-C ,  9-H ) :   0.9374 B(  0-C , 10-H ) :   0.9341
B(  0-C , 11-H ) :   0.9304 B(  1-C ,  2-O ) :   0.9001 B(  1-C ,  7-C ) :   0.9143
B(  1-C , 12-H ) :   0.9166 B(  2-O ,  3-C ) :   0.9301 B(  3-C ,  4-C ) :   0.9118
B(  3-C ,  6-C ) :   0.8905 B(  3-C , 13-H ) :   0.9356 B(  4-C ,  5-C ) :   0.9213
B(  4-C , 14-H ) :   0.9188 B(  4-C , 15-H ) :   0.9184 B(  5-C ,  6-C ) :   0.9163
B(  5-C ,  7-C ) :   0.9051 B(  5-C , 16-H ) :   0.9308 B(  6-C , 17-H ) :   0.9163
B(  6-C , 18-H ) :   0.9231 B(  7-C ,  8-C ) :   0.9038 B(  7-C , 19-H ) :   0.9314
B(  8-C , 20-H ) :   0.9290 B(  8-C , 21-H ) :   0.9480 B(  8-C , 22-H ) :   0.9363

MP2 TOTAL ENERGY:     -387.607859658 Eh
FINAL SINGLE POINT ENERGY      -387.607859657561

DIPOLE MOMENT
-------------
                                X             Y             Z
Electronic contribution:     -2.83518      -3.26451      -3.57141
Nuclear contribution   :      3.15485       3.16358       4.02926
                        -----------------------------------------
Total Dipole Moment    :      0.31966      -0.10093       0.45784
                        -----------------------------------------
Magnitude (a.u.)       :      0.56744
Magnitude (Debye)      :      1.44232

                             ****ORCA TERMINATED NORMALLY****
TOTAL RUN TIME: 0 days 0 hours 22 minutes 42 seconds 360 msec
