                         Program Version 3.0.3 - RELEASE   -
|  1> ! RI-MP2 RIJK def2-TZVP def2-TZVP/C def2-TZVP/JK TIGHTSCF
|  2> % maxcore 2000
|  3> % mp2 density relaxed end
|  4> *xyz 0 1
|  5>  C        0.0789232062     1.4822260601    -0.1929974329
|  6>  C       -0.0346987509     0.0606859262     0.3706752934
|  7>  C       -1.4130166115    -0.5288753610     0.1637034843
|  8>  C       -1.7932561487    -1.1838952937    -1.1305648228
|  9>  C       -1.6097799963    -2.0399287900     0.1130534730
| 10>  O       -0.4544346026    -2.8234964136     0.2352918858
| 11>  C       -2.8524579750    -2.5665266165     0.7740506761
| 12>  C       -2.7247258285    -3.8718825294     1.5332250914
| 13>  O       -3.8998785976    -1.9568057968     0.7024041123
| 14>  H        1.0793690399     1.8924612919    -0.0240687191
| 15>  H       -0.1145187771     1.4962924778    -1.2707177109
| 16>  H       -0.6428708497     2.1563943605     0.2806106434
| 17>  H        0.7107261072    -0.5921753808    -0.0932408817
| 18>  H        0.1951286674     0.0713582174     1.4434355576
| 19>  H       -2.2267271260    -0.0134975227     0.6670357179
| 20>  H       -2.8074511686    -1.0701058444    -1.4954214534
| 21>  H       -1.0193615913    -1.2868147280    -1.8854302540
| 22>  H       -0.4463458221    -3.4676645005    -0.4802129126
| 23>  H       -1.9124201382    -3.8137481097     2.2637114161
| 24>  H       -3.6714804727    -4.0967986281     2.0249800022
| 25>  H       -2.4645652941    -4.6876694387     0.8488872538
| 26> *
| 27>
| 28>                          ****END OF INPUT****

CARTESIAN COORDINATES (ANGSTROEM)
---------------------------------
  C      0.078923    1.482226   -0.192997
  C     -0.034699    0.060686    0.370675
  C     -1.413017   -0.528875    0.163703
  C     -1.793256   -1.183895   -1.130565
  C     -1.609780   -2.039929    0.113053
  O     -0.454435   -2.823496    0.235292
  C     -2.852458   -2.566527    0.774051
  C     -2.724726   -3.871883    1.533225
  O     -3.899879   -1.956806    0.702404
  H      1.079369    1.892461   -0.024069
  H     -0.114519    1.496292   -1.270718
  H     -0.642871    2.156394    0.280611
  H      0.710726   -0.592175   -0.093241
  H      0.195129    0.071358    1.443436
  H     -2.226727   -0.013498    0.667036
  H     -2.807451   -1.070106   -1.495421
  H     -1.019362   -1.286815   -1.885430
  H     -0.446346   -3.467665   -0.480213
  H     -1.912420   -3.813748    2.263711
  H     -3.671480   -4.096799    2.024980
  H     -2.464565   -4.687669    0.848887

 Total Charge           Charge          ....    0
 Multiplicity           Mult            ....    1
 Number of Electrons    NEL             ....   70
 Basis Dimension        Dim             ....  351

ORBITAL ENERGIES
----------------

  NO   OCC          E(Eh)            E(eV)
   0   2.0000     -20.578422      -559.9673
   1   2.0000     -20.538501      -558.8810
   2   2.0000     -11.330256      -308.3119
   3   2.0000     -11.296067      -307.3816
   4   2.0000     -11.241072      -305.8851
   5   2.0000     -11.236797      -305.7688
   6   2.0000     -11.231627      -305.6281
   7   2.0000     -11.224415      -305.4319
   8   2.0000     -11.214622      -305.1654
   9   2.0000      -1.395916       -37.9848
  10   2.0000      -1.377995       -37.4972
  11   2.0000      -1.147879       -31.2354
  12   2.0000      -1.029153       -28.0047
  13   2.0000      -1.009982       -27.4830
  14   2.0000      -0.881485       -23.9864
  15   2.0000      -0.869396       -23.6575
  16   2.0000      -0.781474       -21.2650
  17   2.0000      -0.758074       -20.6282
  18   2.0000      -0.687707       -18.7135
  19   2.0000      -0.679771       -18.4975
  20   2.0000      -0.639178       -17.3929
  21   2.0000      -0.619336       -16.8530
  22   2.0000      -0.606048       -16.4914
  23   2.0000      -0.594286       -16.1713
  24   2.0000      -0.577106       -15.7038
  25   2.0000      -0.557067       -15.1586
  26   2.0000      -0.547839       -14.9075
  27   2.0000      -0.533557       -14.5188
  28   2.0000      -0.517260       -14.0754
  29   2.0000      -0.505492       -13.7551
  30   2.0000      -0.496938       -13.5224
  31   2.0000      -0.477248       -12.9866
  32   2.0000      -0.445203       -12.1146
  33   2.0000      -0.402351       -10.9485
  34   2.0000      -0.390788       -10.6339
  35   0.0000       0.119748         3.2585
  36   0.0000       0.140019         3.8101
  37   0.0000       0.144036         3.9194
  38   0.0000       0.160909         4.3786
  39   0.0000       0.183866         5.0033

MULLIKEN ATOMIC CHARGES
-----------------------
   0 C :   -0.387138
   1 C :   -0.208832
   2 C :   -0.071059
   3 C :   -0.333819
   4 C :    0.164215
   5 O :   -0.471032
   6 C :    0.171821
   7 C :   -0.382327
   8 O :   -0.318269
   9 H :    0.134277
  10 H :    0.125388
  11 H :    0.124609
  12 H :    0.124908
  13 H :    0.116088
  14 H :    0.147735
  15 H :    0.152180
  16 H :    0.145918
  17 H :    0.331145
  18 H :    0.156403
  19 H :    0.151755
  20 H :    0.126034
Sum of atomic charges:    0.0000000

LOEWDIN ATOMIC CHARGES
----------------------
   0 C :   -0.313058
   1 C :   -0.267854
   2 C :   -0.178471
   3 C :   -0.180250
   4 C :   -0.314925
   5 O :    0.035169
   6 C :   -0.325383
   7 C :   -0.276575
   8 O :    0.139692
   9 H :    0.120713
  10 H :    0.121168
  11 H :    0.121503
  12 H :    0.142530
  13 H :    0.141387
  14 H :    0.160405
  15 H :    0.143029
  16 H :    0.139749
  17 H :    0.183172
  18 H :    0.140848
  19 H :    0.132617
  20 H :    0.134536

  Mayer bond orders larger than 0.1
B(  0-C ,  1-C ) :   0.9175 B(  0-C ,  9-H ) :   0.9416 B(  0-C , 10-H ) :   0.9401
B(  0-C , 11-H ) :   0.9365 B(  1-C ,  2-C ) :   0.9084 B(  1-C , 12-H ) :   0.9326
B(  1-C , 13-H ) :   0.9343 B(  2-C ,  3-C ) :   0.9117 B(  2-C ,  4-C ) :   0.8152
B(  2-C , 14-H ) :   0.9150 B(  3-C ,  4-C ) :   0.8707 B(  3-C , 15-H ) :   0.9077
B(  3-C , 16-H ) :   0.9267 B(  4-C ,  5-O ) :   0.9966 B(  4-C ,  6-C ) :   0.9146
B(  5-O , 17-H ) :   0.8366 B(  6-C ,  7-C ) :   0.9251 B(  6-C ,  8-O ) :   1.9388
B(  7-C , 18-H ) :   0.9120 B(  7-C , 19-H ) :   0.9390 B(  7-C , 20-H ) :   0.9113

MP2 TOTAL ENERGY:     -423.530206899 Eh
FINAL SINGLE POINT ENERGY      -423.530206898554

DIPOLE MOMENT
-------------
                                X             Y             Z
Electronic contribution:     -4.98332      -4.88113       0.66961
Nuclear contribution   :      5.70325       4.42040      -1.09645
                        -----------------------------------------
Total Dipole Moment    :      0.71993      -0.46073      -0.42685
                        -----------------------------------------
Magnitude (a.u.)       :      0.95539
Magnitude (Debye)      :      2.42840

                             ****ORCA TERMINATED NORMALLY****
TOTAL RUN TIME: 0 days 0 hours 20 minutes 24 seconds 999 msec
