                         Program Version 3.0.3 - RELEASE   -
|  1> ! RI-MP2 RIJK def2-TZVP def2-TZVP/C def2-TZVP/JK TIGHTSCF
|  2> % maxcore 2000
|  3> % mp2 density relaxed end
|  4> *xyz 0 1
|  5>  C        0.0663378522     1.6260221222     0.0325693844
|  6>  C       -0.0158424521     0.0887007695     0.0477953266
|  7>  C        0.6764155405    -0.5407792412    -1.1795413801
|  8>  C        2.1183521504    -0.8237125716    -0.7427932119
|  9>  O        3.0636561994    -0.9636954132    -1.4723640861
| 10>  C        2.1537598482    -0.8998745087     0.7885083684
| 11>  C        0.7701075423    -0.4894485390     1.2163374727
| 12>  N        0.2357117804    -0.6082599887     2.3640421092
| 13>  O        1.1405724276    -1.1473010918     3.2942451950
| 14>  H        1.1043694001     1.9707573395    -0.0393237081
| 15>  H       -0.4789521646     2.0309703277    -0.8259913381
| 16>  H       -0.3648383474     2.0416863458     0.9468053021
| 17>  H       -1.0648989359    -0.2068440696     0.1244781937
| 18>  H        0.2231779975    -1.5090527815    -1.4303912703
| 19>  H        0.6529494694     0.0738860408    -2.0820696695
| 20>  H        2.4014720982    -1.9123222921     1.1268998990
| 21>  H        2.9398685403    -0.2498723856     1.1892790291
| 22>  H        0.6009365434    -1.2153360526     4.0893261539
| 23> *
| 24>
| 25>                          ****END OF INPUT****

CARTESIAN COORDINATES (ANGSTROEM)
---------------------------------
  C      0.066338    1.626022    0.032569
  C     -0.015842    0.088701    0.047795
  C      0.676416   -0.540779   -1.179541
  C      2.118352   -0.823713   -0.742793
  O      3.063656   -0.963695   -1.472364
  C      2.153760   -0.899875    0.788508
  C      0.770108   -0.489449    1.216337
  N      0.235712   -0.608260    2.364042
  O      1.140572   -1.147301    3.294245
  H      1.104369    1.970757   -0.039324
  H     -0.478952    2.030970   -0.825991
  H     -0.364838    2.041686    0.946805
  H     -1.064899   -0.206844    0.124478
  H      0.223178   -1.509053   -1.430391
  H      0.652949    0.073886   -2.082070
  H      2.401472   -1.912322    1.126900
  H      2.939869   -0.249872    1.189279
  H      0.600937   -1.215336    4.089326

 Total Charge           Charge          ....    0
 Multiplicity           Mult            ....    1
 Number of Electrons    NEL             ....   68
 Basis Dimension        Dim             ....  333

ORBITAL ENERGIES
----------------

  NO   OCC          E(Eh)            E(eV)
   0   2.0000     -20.599580      -560.5431
   1   2.0000     -20.554212      -559.3085
   2   2.0000     -15.624020      -425.1512
   3   2.0000     -11.340578      -308.5928
   4   2.0000     -11.288130      -307.1656
   5   2.0000     -11.258106      -306.3486
   6   2.0000     -11.252393      -306.1932
   7   2.0000     -11.247542      -306.0612
   8   2.0000     -11.234607      -305.7092
   9   2.0000      -1.426855       -38.8267
  10   2.0000      -1.399128       -38.0722
  11   2.0000      -1.193517       -32.4772
  12   2.0000      -1.100435       -29.9444
  13   2.0000      -1.025004       -27.8918
  14   2.0000      -0.962323       -26.1861
  15   2.0000      -0.869009       -23.6469
  16   2.0000      -0.761517       -20.7219
  17   2.0000      -0.745637       -20.2898
  18   2.0000      -0.700429       -19.0596
  19   2.0000      -0.684257       -18.6196
  20   2.0000      -0.659123       -17.9357
  21   2.0000      -0.625817       -17.0293
  22   2.0000      -0.617495       -16.8029
  23   2.0000      -0.603313       -16.4170
  24   2.0000      -0.590213       -16.0605
  25   2.0000      -0.581371       -15.8199
  26   2.0000      -0.566906       -15.4263
  27   2.0000      -0.531264       -14.4564
  28   2.0000      -0.514204       -13.9922
  29   2.0000      -0.510246       -13.8845
  30   2.0000      -0.485263       -13.2047
  31   2.0000      -0.443950       -12.0805
  32   2.0000      -0.409208       -11.1351
  33   2.0000      -0.391499       -10.6532
  34   0.0000       0.110409         3.0044
  35   0.0000       0.125135         3.4051
  36   0.0000       0.149464         4.0671
  37   0.0000       0.152777         4.1573
  38   0.0000       0.166591         4.5332

MULLIKEN ATOMIC CHARGES
-----------------------
   0 C :   -0.439439
   1 C :    0.011192
   2 C :   -0.205406
   3 C :    0.104193
   4 O :   -0.260054
   5 C :   -0.194339
   6 C :   -0.047298
   7 N :   -0.084720
   8 O :   -0.365296
   9 H :    0.134441
  10 H :    0.138463
  11 H :    0.147944
  12 H :    0.114054
  13 H :    0.144066
  14 H :    0.141403
  15 H :    0.163620
  16 H :    0.160006
  17 H :    0.337170
Sum of atomic charges:   -0.0000000

LOEWDIN ATOMIC CHARGES
----------------------
   0 C :   -0.278572
   1 C :   -0.231617
   2 C :   -0.197326
   3 C :   -0.307340
   4 O :    0.158267
   5 C :   -0.193847
   6 C :   -0.262128
   7 N :    0.030346
   8 O :   -0.071123
   9 H :    0.127279
  10 H :    0.125838
  11 H :    0.129092
  12 H :    0.158203
  13 H :    0.159075
  14 H :    0.149690
  15 H :    0.167529
  16 H :    0.166196
  17 H :    0.170438

  Mayer bond orders larger than 0.1
B(  0-C ,  1-C ) :   0.9028 B(  0-C ,  9-H ) :   0.9265 B(  0-C , 10-H ) :   0.9347
B(  0-C , 11-H ) :   0.9398 B(  1-C ,  2-C ) :   0.8930 B(  1-C ,  6-C ) :   0.8808
B(  1-C , 12-H ) :   0.9222 B(  2-C ,  3-C ) :   0.9125 B(  2-C ,  5-C ) :  -0.1083
B(  2-C , 13-H ) :   0.9019 B(  2-C , 14-H ) :   0.9152 B(  3-C ,  4-O ) :   2.0474
B(  3-C ,  5-C ) :   0.8838 B(  5-C ,  6-C ) :   0.9407 B(  5-C , 15-H ) :   0.8884
B(  5-C , 16-H ) :   0.8900 B(  6-C ,  7-N ) :   1.8781 B(  7-N ,  8-O ) :   0.8072
B(  8-O , 17-H ) :   0.8438

MP2 TOTAL ENERGY:     -438.355155144 Eh
FINAL SINGLE POINT ENERGY      -438.355155144424

DIPOLE MOMENT
-------------
                                X             Y             Z
Electronic contribution:      3.21897      -4.34417       1.98182
Nuclear contribution   :     -4.02511       4.50986      -1.54336
                        -----------------------------------------
Total Dipole Moment    :     -0.80614       0.16569       0.43845
                        -----------------------------------------
Magnitude (a.u.)       :      0.93250
Magnitude (Debye)      :      2.37023

                             ****ORCA TERMINATED NORMALLY****
TOTAL RUN TIME: 0 days 0 hours 15 minutes 47 seconds 325 msec
