                         Program Version 3.0.3 - RELEASE   -
|  1> ! RI-MP2 RIJK def2-TZVP def2-TZVP/C def2-TZVP/JK TIGHTSCF
|  2> % maxcore 2000
|  3> % mp2 density relaxed end
|  4> *xyz 0 1
|  5>  O       -0.1041646487     1.3230489290     0.1582163676
|  6>  N        0.0298189772    -0.0737744456     0.0535354759
|  7>  C       -1.1000686960    -0.6391189417    -0.0942389831
|  8>  C       -2.4646094662     0.0149460512    -0.2235719884
|  9>  C       -3.3178174596    -1.0507477379    -0.8920996343
| 10>  C       -2.7864265812    -1.6283411266    -2.1939322266
| 11>  C       -2.5470943623    -2.3621424231    -0.9135405822
| 12>  O       -3.1624829078    -3.6061543948    -0.7956432901
| 13>  C       -1.2092698148    -2.1445267700    -0.2161253970
| 14>  H        0.8134200165     1.6088713397     0.2186667016
| 15>  H       -2.8533127300     0.2715572222     0.7709885467
| 16>  H       -2.3908032803     0.9529686323    -0.7820802607
| 17>  H       -4.3913358460    -1.0501563408    -0.7439030028
| 18>  H       -3.5194149916    -2.0752667357    -2.8553646119
| 19>  H       -1.9567924138    -1.1363853959    -2.6936897331
| 20>  H       -3.3608153089    -3.7560415643     0.1359348222
| 21>  H       -0.3546266631    -2.5849470867    -0.7363835293
| 22>  H       -1.2505765833    -2.6005838313     0.7845667456
| 23> *
| 24>
| 25>                          ****END OF INPUT****

CARTESIAN COORDINATES (ANGSTROEM)
---------------------------------
  O     -0.104165    1.323049    0.158216
  N      0.029819   -0.073774    0.053535
  C     -1.100069   -0.639119   -0.094239
  C     -2.464609    0.014946   -0.223572
  C     -3.317817   -1.050748   -0.892100
  C     -2.786427   -1.628341   -2.193932
  C     -2.547094   -2.362142   -0.913541
  O     -3.162483   -3.606154   -0.795643
  C     -1.209270   -2.144527   -0.216125
  H      0.813420    1.608871    0.218667
  H     -2.853313    0.271557    0.770989
  H     -2.390803    0.952969   -0.782080
  H     -4.391336   -1.050156   -0.743903
  H     -3.519415   -2.075267   -2.855365
  H     -1.956792   -1.136385   -2.693690
  H     -3.360815   -3.756042    0.135935
  H     -0.354627   -2.584947   -0.736384
  H     -1.250577   -2.600584    0.784567

 Total Charge           Charge          ....    0
 Multiplicity           Mult            ....    1
 Number of Electrons    NEL             ....   68
 Basis Dimension        Dim             ....  333

ORBITAL ENERGIES
----------------

  NO   OCC          E(Eh)            E(eV)
   0   2.0000     -20.589838      -560.2780
   1   2.0000     -20.571148      -559.7694
   2   2.0000     -15.613004      -424.8514
   3   2.0000     -11.294457      -307.3378
   4   2.0000     -11.279724      -306.9369
   5   2.0000     -11.240918      -305.8809
   6   2.0000     -11.239733      -305.8487
   7   2.0000     -11.237601      -305.7907
   8   2.0000     -11.228880      -305.5533
   9   2.0000      -1.416127       -38.5348
  10   2.0000      -1.382604       -37.6226
  11   2.0000      -1.193335       -32.4723
  12   2.0000      -1.136769       -30.9330
  13   2.0000      -0.991539       -26.9811
  14   2.0000      -0.983996       -26.7759
  15   2.0000      -0.814869       -22.1737
  16   2.0000      -0.788543       -21.4573
  17   2.0000      -0.741909       -20.1884
  18   2.0000      -0.718806       -19.5597
  19   2.0000      -0.685285       -18.6475
  20   2.0000      -0.648050       -17.6343
  21   2.0000      -0.638231       -17.3671
  22   2.0000      -0.622509       -16.9393
  23   2.0000      -0.597581       -16.2610
  24   2.0000      -0.579525       -15.7697
  25   2.0000      -0.557389       -15.1673
  26   2.0000      -0.556282       -15.1372
  27   2.0000      -0.534069       -14.5327
  28   2.0000      -0.516437       -14.0530
  29   2.0000      -0.499171       -13.5831
  30   2.0000      -0.430545       -11.7157
  31   2.0000      -0.418306       -11.3827
  32   2.0000      -0.390887       -10.6366
  33   2.0000      -0.377746       -10.2790
  34   0.0000       0.126000         3.4286
  35   0.0000       0.147571         4.0156
  36   0.0000       0.150714         4.1011
  37   0.0000       0.168643         4.5890
  38   0.0000       0.175924         4.7871

MULLIKEN ATOMIC CHARGES
-----------------------
   0 O :   -0.367964
   1 N :   -0.068883
   2 C :   -0.074431
   3 C :   -0.205065
   4 C :   -0.143427
   5 C :   -0.279536
   6 C :    0.170511
   7 O :   -0.456965
   8 C :   -0.165089
   9 H :    0.336289
  10 H :    0.134187
  11 H :    0.140462
  12 H :    0.133844
  13 H :    0.135578
  14 H :    0.141634
  15 H :    0.319733
  16 H :    0.134394
  17 H :    0.114728
Sum of atomic charges:   -0.0000000

LOEWDIN ATOMIC CHARGES
----------------------
   0 O :   -0.075369
   1 N :    0.024204
   2 C :   -0.270415
   3 C :   -0.206001
   4 C :   -0.183625
   5 C :   -0.177364
   6 C :   -0.347759
   7 O :    0.029265
   8 C :   -0.178281
   9 H :    0.169050
  10 H :    0.154056
  11 H :    0.150613
  12 H :    0.145217
  13 H :    0.144076
  14 H :    0.139663
  15 H :    0.181588
  16 H :    0.150940
  17 H :    0.150140

  Mayer bond orders larger than 0.1
B(  0-O ,  1-N ) :   0.8006 B(  0-O ,  9-H ) :   0.8440 B(  1-N ,  2-C ) :   1.8962
B(  2-C ,  3-C ) :   0.9722 B(  2-C ,  8-C ) :   0.9199 B(  3-C ,  4-C ) :   0.9078
B(  3-C , 10-H ) :   0.9103 B(  3-C , 11-H ) :   0.9017 B(  4-C ,  5-C ) :   0.8947
B(  4-C ,  6-C ) :   0.8265 B(  4-C , 12-H ) :   0.9264 B(  5-C ,  6-C ) :   0.8948
B(  5-C , 13-H ) :   0.9235 B(  5-C , 14-H ) :   0.9146 B(  6-C ,  7-O ) :   1.0026
B(  6-C ,  8-C ) :   0.9410 B(  7-O , 15-H ) :   0.8386 B(  8-C , 16-H ) :   0.9033
B(  8-C , 17-H ) :   0.9158

MP2 TOTAL ENERGY:     -438.321810499 Eh
FINAL SINGLE POINT ENERGY      -438.321810498572

DIPOLE MOMENT
-------------
                                X             Y             Z
Electronic contribution:      2.44162       0.50649       1.31896
Nuclear contribution   :     -2.61590      -0.30570      -0.88762
                        -----------------------------------------
Total Dipole Moment    :     -0.17429       0.20079       0.43135
                        -----------------------------------------
Magnitude (a.u.)       :      0.50671
Magnitude (Debye)      :      1.28795

                             ****ORCA TERMINATED NORMALLY****
TOTAL RUN TIME: 0 days 0 hours 16 minutes 15 seconds 223 msec
