                         Program Version 3.0.3 - RELEASE   -
|  1> ! RI-MP2 RIJK def2-TZVP def2-TZVP/C def2-TZVP/JK TIGHTSCF
|  2> % maxcore 2000
|  3> % mp2 density relaxed end
|  4> *xyz 0 1
|  5>  N       -0.0394511443    -1.1459732425     0.1539082334
|  6>  C       -0.0427832924     0.0107547653     0.1185917464
|  7>  C       -0.0647450781     1.4556003555     0.0464728153
|  8>  C        0.4772302266     2.1845123190     1.2403911952
|  9>  N        1.2315591760     2.1669864331    -0.0117650648
| 10>  C       -1.1683615612     2.0547441626    -0.7820219049
| 11>  C       -1.7391227972     1.3393564205    -1.9488596671
| 12>  N       -2.5344258497     1.5247754959    -0.7211727976
| 13>  H        0.0317978990     3.1416656331     1.4957760242
| 14>  H        0.8259152314     1.5937327567     2.0821431248
| 15>  H        2.0040904749     1.5073897212     0.0370511490
| 16>  H       -1.1052388050     3.1396186403    -0.8082988727
| 17>  H       -2.0819642182     1.9067041937    -2.8087645564
| 18>  H       -1.3592556994     0.3469106508    -2.1752067327
| 19>  H       -2.5545758024     0.6551612848    -0.1912526120
| 20> *
| 21>
| 22>                          ****END OF INPUT****

CARTESIAN COORDINATES (ANGSTROEM)
---------------------------------
  N     -0.039451   -1.145973    0.153908
  C     -0.042783    0.010755    0.118592
  C     -0.064745    1.455600    0.046473
  C      0.477230    2.184512    1.240391
  N      1.231559    2.166986   -0.011765
  C     -1.168362    2.054744   -0.782022
  C     -1.739123    1.339356   -1.948860
  N     -2.534426    1.524775   -0.721173
  H      0.031798    3.141666    1.495776
  H      0.825915    1.593733    2.082143
  H      2.004090    1.507390    0.037051
  H     -1.105239    3.139619   -0.808299
  H     -2.081964    1.906704   -2.808765
  H     -1.359256    0.346911   -2.175207
  H     -2.554576    0.655161   -0.191253

 Total Charge           Charge          ....    0
 Multiplicity           Mult            ....    1
 Number of Electrons    NEL             ....   58
 Basis Dimension        Dim             ....  290

ORBITAL ENERGIES
----------------

  NO   OCC          E(Eh)            E(eV)
   0   2.0000     -15.602997      -424.5791
   1   2.0000     -15.591921      -424.2777
   2   2.0000     -15.572954      -423.7616
   3   2.0000     -11.331691      -308.3510
   4   2.0000     -11.298163      -307.4387
   5   2.0000     -11.292675      -307.2893
   6   2.0000     -11.286231      -307.1140
   7   2.0000     -11.268357      -306.6276
   8   2.0000      -1.318851       -35.8877
   9   2.0000      -1.273846       -34.6631
  10   2.0000      -1.233411       -33.5628
  11   2.0000      -0.995560       -27.0906
  12   2.0000      -0.919556       -25.0224
  13   2.0000      -0.898553       -24.4509
  14   2.0000      -0.858479       -23.3604
  15   2.0000      -0.759904       -20.6780
  16   2.0000      -0.716315       -19.4919
  17   2.0000      -0.656236       -17.8571
  18   2.0000      -0.634029       -17.2528
  19   2.0000      -0.588895       -16.0246
  20   2.0000      -0.571245       -15.5444
  21   2.0000      -0.551840       -15.0163
  22   2.0000      -0.543904       -14.8004
  23   2.0000      -0.505743       -13.7620
  24   2.0000      -0.501975       -13.6594
  25   2.0000      -0.482651       -13.1336
  26   2.0000      -0.475402       -12.9363
  27   2.0000      -0.425822       -11.5872
  28   2.0000      -0.394763       -10.7420
  29   0.0000       0.122016         3.3202
  30   0.0000       0.139983         3.8091
  31   0.0000       0.153027         4.1641
  32   0.0000       0.160372         4.3639
  33   0.0000       0.176276         4.7967

MULLIKEN ATOMIC CHARGES
-----------------------
   0 N :   -0.039744
   1 C :   -0.222849
   2 C :    0.243112
   3 C :   -0.192018
   4 N :   -0.369126
   5 C :   -0.027351
   6 C :   -0.206923
   7 N :   -0.373268
   8 H :    0.142859
   9 H :    0.152063
  10 H :    0.239235
  11 H :    0.140618
  12 H :    0.131278
  13 H :    0.150289
  14 H :    0.231825
Sum of atomic charges:   -0.0000000

LOEWDIN ATOMIC CHARGES
----------------------
   0 N :    0.076618
   1 C :   -0.167494
   2 C :   -0.289124
   3 C :   -0.209319
   4 N :    0.042241
   5 C :   -0.232760
   6 C :   -0.248239
   7 N :   -0.001002
   8 H :    0.135419
   9 H :    0.132273
  10 H :    0.177151
  11 H :    0.155775
  12 H :    0.128121
  13 H :    0.129957
  14 H :    0.170382

  Mayer bond orders larger than 0.1
B(  0-N ,  1-C ) :   2.8352 B(  1-C ,  2-C ) :   0.8835 B(  2-C ,  3-C ) :   0.8995
B(  2-C ,  4-N ) :   0.8675 B(  2-C ,  5-C ) :   0.9339 B(  3-C ,  4-N ) :   0.9530
B(  3-C ,  8-H ) :   0.9091 B(  3-C ,  9-H ) :   0.9144 B(  4-N , 10-H ) :   0.8656
B(  5-C ,  6-C ) :   0.9331 B(  5-C ,  7-N ) :   0.9015 B(  5-C , 11-H ) :   0.9120
B(  6-C ,  7-N ) :   0.9398 B(  6-C , 12-H ) :   0.9179 B(  6-C , 13-H ) :   0.9148
B(  7-N , 14-H ) :   0.8725

MP2 TOTAL ENERGY:     -358.176076240 Eh
FINAL SINGLE POINT ENERGY      -358.176076240261

DIPOLE MOMENT
-------------
                                X             Y             Z
Electronic contribution:      1.24673      -2.93704       0.92425
Nuclear contribution   :     -0.75357       3.54183      -0.63157
                        -----------------------------------------
Total Dipole Moment    :      0.49316       0.60479       0.29268
                        -----------------------------------------
Magnitude (a.u.)       :      0.83345
Magnitude (Debye)      :      2.11845

                             ****ORCA TERMINATED NORMALLY****
TOTAL RUN TIME: 0 days 0 hours 11 minutes 27 seconds 780 msec
