                         Program Version 3.0.3 - RELEASE   -
|  1> ! RI-MP2 RIJK def2-TZVP def2-TZVP/C def2-TZVP/JK TIGHTSCF
|  2> % maxcore 2000
|  3> % mp2 density relaxed end
|  4> *xyz 0 1
|  5>  O       -0.0486745260    -0.0034068549    -0.0890997972
|  6>  C       -0.0405847450     1.2013041540    -0.0352604827
|  7>  C       -1.2223635218     2.1832655101    -0.1359170071
|  8>  C       -0.5782106525     3.5390548384     0.0200492338
|  9>  C       -1.3094213712     4.8492067387     0.0102466357
| 10>  C       -2.0115560151     5.0966910048    -1.2561410112
| 11>  N       -2.5649322921     5.2685528599    -2.2557123884
| 12>  C        0.7403476734     3.3600384022     0.1677517226
| 13>  N        1.0791752081     2.0037598612     0.1393373635
| 14>  H       -1.7301224596     2.0507525461    -1.0983903393
| 15>  H       -1.9587901358     1.9510682892     0.6425606719
| 16>  H       -2.0557182132     4.8942216957     0.8157133594
| 17>  H       -0.6107400874     5.6746907888     0.1864162558
| 18>  H        1.5152333729     4.1030860105     0.2968175180
| 19>  H        2.0068682153     1.6270395154     0.2398698651
| 20> *
| 21>
| 22>                          ****END OF INPUT****

CARTESIAN COORDINATES (ANGSTROEM)
---------------------------------
  O     -0.048675   -0.003407   -0.089100
  C     -0.040585    1.201304   -0.035260
  C     -1.222364    2.183266   -0.135917
  C     -0.578211    3.539055    0.020049
  C     -1.309421    4.849207    0.010247
  C     -2.011556    5.096691   -1.256141
  N     -2.564932    5.268553   -2.255712
  C      0.740348    3.360038    0.167752
  N      1.079175    2.003760    0.139337
  H     -1.730122    2.050753   -1.098390
  H     -1.958790    1.951068    0.642561
  H     -2.055718    4.894222    0.815713
  H     -0.610740    5.674691    0.186416
  H      1.515233    4.103086    0.296818
  H      2.006868    1.627040    0.239870

 Total Charge           Charge          ....    0
 Multiplicity           Mult            ....    1
 Number of Electrons    NEL             ....   64
 Basis Dimension        Dim             ....  315

ORBITAL ENERGIES
----------------

  NO   OCC          E(Eh)            E(eV)
   0   2.0000     -20.538741      -558.8876
   1   2.0000     -15.611967      -424.8232
   2   2.0000     -15.577339      -423.8809
   3   2.0000     -11.369518      -309.3803
   4   2.0000     -11.305932      -307.6501
   5   2.0000     -11.304850      -307.6206
   6   2.0000     -11.281862      -306.9951
   7   2.0000     -11.264343      -306.5183
   8   2.0000     -11.262893      -306.4789
   9   2.0000      -1.403419       -38.1890
  10   2.0000      -1.288605       -35.0647
  11   2.0000      -1.227157       -33.3926
  12   2.0000      -1.120649       -30.4944
  13   2.0000      -1.030901       -28.0522
  14   2.0000      -0.982155       -26.7258
  15   2.0000      -0.829691       -22.5770
  16   2.0000      -0.797484       -21.7006
  17   2.0000      -0.731835       -19.9142
  18   2.0000      -0.700974       -19.0745
  19   2.0000      -0.658120       -17.9084
  20   2.0000      -0.647561       -17.6210
  21   2.0000      -0.644692       -17.5430
  22   2.0000      -0.619219       -16.8498
  23   2.0000      -0.601577       -16.3697
  24   2.0000      -0.563551       -15.3350
  25   2.0000      -0.553042       -15.0490
  26   2.0000      -0.552108       -15.0236
  27   2.0000      -0.493699       -13.4342
  28   2.0000      -0.471569       -12.8321
  29   2.0000      -0.467104       -12.7106
  30   2.0000      -0.434913       -11.8346
  31   2.0000      -0.342728        -9.3261
  32   0.0000       0.107432         2.9234
  33   0.0000       0.118072         3.2129
  34   0.0000       0.132765         3.6127
  35   0.0000       0.143304         3.8995
  36   0.0000       0.172246         4.6870

MULLIKEN ATOMIC CHARGES
-----------------------
   0 O :   -0.309810
   1 C :    0.193827
   2 C :   -0.177692
   3 C :   -0.056382
   4 C :   -0.148617
   5 C :   -0.165016
   6 N :   -0.063004
   7 C :   -0.056759
   8 N :   -0.271841
   9 H :    0.167054
  10 H :    0.149214
  11 H :    0.167891
  12 H :    0.165275
  13 H :    0.156142
  14 H :    0.249719
Sum of atomic charges:   -0.0000000

LOEWDIN ATOMIC CHARGES
----------------------
   0 O :    0.106514
   1 C :   -0.403574
   2 C :   -0.169543
   3 C :   -0.180650
   4 C :   -0.213293
   5 C :   -0.183728
   6 N :    0.060237
   7 C :   -0.172840
   8 N :    0.149020
   9 H :    0.167795
  10 H :    0.162445
  11 H :    0.171513
  12 H :    0.172846
  13 H :    0.142999
  14 H :    0.190259

  Mayer bond orders larger than 0.1
B(  0-O ,  1-C ) :   2.0330 B(  1-C ,  2-C ) :   0.9303 B(  1-C ,  8-N ) :   1.0879
B(  2-C ,  3-C ) :   0.9359 B(  2-C ,  9-H ) :   0.8843 B(  2-C , 10-H ) :   0.8939
B(  3-C ,  4-C ) :   0.9023 B(  3-C ,  7-C ) :   1.7210 B(  4-C ,  5-C ) :   0.9096
B(  4-C , 11-H ) :   0.9130 B(  4-C , 12-H ) :   0.9198 B(  5-C ,  6-N ) :   2.8546
B(  7-C ,  8-N ) :   1.0173 B(  7-C , 13-H ) :   0.9010 B(  8-N , 14-H ) :   0.8634

MP2 TOTAL ENERGY:     -416.154311422 Eh
FINAL SINGLE POINT ENERGY      -416.154311421890

DIPOLE MOMENT
-------------
                                X             Y             Z
Electronic contribution:      0.20799      -1.32839      -1.71047
Nuclear contribution   :      0.92407       2.17360       3.07479
                        -----------------------------------------
Total Dipole Moment    :      1.13206       0.84521       1.36431
                        -----------------------------------------
Magnitude (a.u.)       :      1.96400
Magnitude (Debye)      :      4.99208

                             ****ORCA TERMINATED NORMALLY****
TOTAL RUN TIME: 0 days 0 hours 13 minutes 23 seconds 688 msec
