                         Program Version 3.0.3 - RELEASE   -
|  1> ! RI-MP2 RIJK def2-TZVP def2-TZVP/C def2-TZVP/JK TIGHTSCF
|  2> % maxcore 2000
|  3> % mp2 density relaxed end
|  4> *xyz 0 1
|  5>  N        0.1317744173     1.3781652165    -0.1572980789
|  6>  C       -0.0194712781     0.0228675349    -0.0003368149
|  7>  C       -1.1940274560    -0.6544223161     0.1365445920
|  8>  C       -1.2047206497    -2.1683892249     0.1367198230
|  9>  C        0.1088789331    -2.7248876563    -0.3958044868
| 10>  O        1.2121870631    -2.0849971186     0.2399809962
| 11>  C        1.2937803319    -0.7309508036    -0.1057397122
| 12>  C       -2.4718683698     0.0121312825     0.3059671177
| 13>  O       -3.5422735141    -0.5608174482     0.3953387269
| 14>  H        1.0083086956     1.7808320353     0.1364147584
| 15>  H       -0.6638123270     1.9771117814    -0.0083744061
| 16>  H       -1.3832101048    -2.5448577362     1.1519223965
| 17>  H       -2.0459474640    -2.5234549684    -0.4685138514
| 18>  H        0.2135171703    -3.7913822868    -0.1821095648
| 19>  H        0.1753424090    -2.5850000995    -1.4873012820
| 20>  H        1.6779618653    -0.6001968747    -1.1344263640
| 21>  H        2.0297302798    -0.2774336992     0.5715667832
| 22>  H       -2.4440088720     1.1257950817     0.3734229770
| 23> *
| 24>
| 25>                          ****END OF INPUT****

CARTESIAN COORDINATES (ANGSTROEM)
---------------------------------
  N      0.131774    1.378165   -0.157298
  C     -0.019471    0.022868   -0.000337
  C     -1.194027   -0.654422    0.136545
  C     -1.204721   -2.168389    0.136720
  C      0.108879   -2.724888   -0.395804
  O      1.212187   -2.084997    0.239981
  C      1.293780   -0.730951   -0.105740
  C     -2.471868    0.012131    0.305967
  O     -3.542274   -0.560817    0.395339
  H      1.008309    1.780832    0.136415
  H     -0.663812    1.977112   -0.008374
  H     -1.383210   -2.544858    1.151922
  H     -2.045947   -2.523455   -0.468514
  H      0.213517   -3.791382   -0.182110
  H      0.175342   -2.585000   -1.487301
  H      1.677962   -0.600197   -1.134426
  H      2.029730   -0.277434    0.571567
  H     -2.444009    1.125795    0.373423

 Total Charge           Charge          ....    0
 Multiplicity           Mult            ....    1
 Number of Electrons    NEL             ....   68
 Basis Dimension        Dim             ....  333

ORBITAL ENERGIES
----------------

  NO   OCC          E(Eh)            E(eV)
   0   2.0000     -20.568342      -559.6931
   1   2.0000     -20.533482      -558.7444
   2   2.0000     -15.596509      -424.4026
   3   2.0000     -11.319993      -308.0327
   4   2.0000     -11.313610      -307.8590
   5   2.0000     -11.303779      -307.5915
   6   2.0000     -11.279548      -306.9321
   7   2.0000     -11.224483      -305.4337
   8   2.0000     -11.223818      -305.4156
   9   2.0000      -1.394533       -37.9472
  10   2.0000      -1.370559       -37.2948
  11   2.0000      -1.255835       -34.1730
  12   2.0000      -1.084119       -29.5004
  13   2.0000      -1.027009       -27.9463
  14   2.0000      -0.942749       -25.6535
  15   2.0000      -0.871169       -23.7057
  16   2.0000      -0.820894       -22.3377
  17   2.0000      -0.745289       -20.2803
  18   2.0000      -0.727722       -19.8023
  19   2.0000      -0.707615       -19.2552
  20   2.0000      -0.674172       -18.3452
  21   2.0000      -0.650735       -17.7074
  22   2.0000      -0.634773       -17.2731
  23   2.0000      -0.605989       -16.4898
  24   2.0000      -0.580559       -15.7978
  25   2.0000      -0.571129       -15.5412
  26   2.0000      -0.563579       -15.3358
  27   2.0000      -0.526684       -14.3318
  28   2.0000      -0.511788       -13.9265
  29   2.0000      -0.489856       -13.3297
  30   2.0000      -0.476012       -12.9529
  31   2.0000      -0.436295       -11.8722
  32   2.0000      -0.408310       -11.1107
  33   2.0000      -0.327379        -8.9084
  34   0.0000       0.097675         2.6579
  35   0.0000       0.115283         3.1370
  36   0.0000       0.145438         3.9576
  37   0.0000       0.157903         4.2968
  38   0.0000       0.179756         4.8914

MULLIKEN ATOMIC CHARGES
-----------------------
   0 N :   -0.496949
   1 C :    0.162147
   2 C :   -0.054885
   3 C :   -0.184219
   4 C :   -0.057181
   5 O :   -0.307233
   6 C :   -0.080057
   7 C :    0.052453
   8 O :   -0.307356
   9 H :    0.254772
  10 H :    0.250661
  11 H :    0.117428
  12 H :    0.139672
  13 H :    0.132359
  14 H :    0.097395
  15 H :    0.124878
  16 H :    0.126831
  17 H :    0.029283
Sum of atomic charges:    0.0000000

LOEWDIN ATOMIC CHARGES
----------------------
   0 N :   -0.026795
   1 C :   -0.217414
   2 C :   -0.190469
   3 C :   -0.225314
   4 C :   -0.298607
   5 O :    0.165191
   6 C :   -0.290638
   7 C :   -0.296385
   8 O :    0.104701
   9 H :    0.173452
  10 H :    0.166896
  11 H :    0.147893
  12 H :    0.153497
  13 H :    0.130988
  14 H :    0.124094
  15 H :    0.134603
  16 H :    0.139419
  17 H :    0.104887

  Mayer bond orders larger than 0.1
B(  0-N ,  1-C ) :   1.1140 B(  0-N ,  9-H ) :   0.8669 B(  0-N , 10-H ) :   0.8757
B(  1-C ,  2-C ) :   1.5060 B(  1-C ,  6-C ) :   0.9095 B(  2-C ,  3-C ) :   0.9353
B(  2-C ,  7-C ) :   0.9346 B(  2-C ,  8-O ) :  -0.1035 B(  2-C , 17-H ) :  -0.1284
B(  3-C ,  4-C ) :   0.9509 B(  3-C , 11-H ) :   0.9096 B(  3-C , 12-H ) :   0.9164
B(  4-C ,  5-O ) :   0.8832 B(  4-C , 13-H ) :   0.9334 B(  4-C , 14-H ) :   0.9309
B(  5-O ,  6-C ) :   1.0010 B(  6-C , 15-H ) :   0.9622 B(  6-C , 16-H ) :   0.9025
B(  7-C ,  8-O ) :   1.9651 B(  7-C , 17-H ) :   0.9995

MP2 TOTAL ENERGY:     -438.380556993 Eh
FINAL SINGLE POINT ENERGY      -438.380556992639

DIPOLE MOMENT
-------------
                                X             Y             Z
Electronic contribution:     -2.59306       0.93785       1.27651
Nuclear contribution   :      3.87518       0.02627      -1.49657
                        -----------------------------------------
Total Dipole Moment    :      1.28211       0.96412      -0.22005
                        -----------------------------------------
Magnitude (a.u.)       :      1.61919
Magnitude (Debye)      :      4.11564

                             ****ORCA TERMINATED NORMALLY****
TOTAL RUN TIME: 0 days 0 hours 22 minutes 16 seconds 884 msec
