                         Program Version 3.0.3 - RELEASE   -
|  1> ! RI-MP2 RIJK def2-TZVP def2-TZVP/C def2-TZVP/JK TIGHTSCF
|  2> % maxcore 2000
|  3> % mp2 density relaxed end
|  4> *xyz 0 1
|  5>  C        0.2977709213     1.4044478847     0.3510126593
|  6>  C       -0.1743338115    -0.0088496677    -0.0304869510
|  7>  O       -1.5576271900    -0.0134546616    -0.2788091897
|  8>  C        0.5995333255    -0.5377516524    -1.2250581844
|  9>  C        1.9676374833    -0.8471677318    -1.1971746719
| 10>  N        2.5881412969    -1.2930193154    -2.2753713815
| 11>  C        1.8113393885    -1.4126928989    -3.3626165126
| 12>  N        0.5135099448    -1.1430410060    -3.4460854281
| 13>  N       -0.0929287935    -0.7008957332    -2.3465338025
| 14>  H        1.3560578420     1.4183449856     0.6321216335
| 15>  H        0.1454754447     2.0922859574    -0.4859491851
| 16>  H       -0.2917460601     1.7569960636     1.2006910233
| 17>  H        0.0298425423    -0.6809456535     0.8186279397
| 18>  H       -1.6676402688    -0.1917493276    -1.2259508974
| 19>  H        2.5541231976    -0.7373822945    -0.2871059741
| 20>  H        2.2797552070    -1.7712930787    -4.2739289677
| 21> *
| 22>
| 23>                          ****END OF INPUT****

CARTESIAN COORDINATES (ANGSTROEM)
---------------------------------
  C      0.297771    1.404448    0.351013
  C     -0.174334   -0.008850   -0.030487
  O     -1.557627   -0.013455   -0.278809
  C      0.599533   -0.537752   -1.225058
  C      1.967637   -0.847168   -1.197175
  N      2.588141   -1.293019   -2.275371
  C      1.811339   -1.412693   -3.362617
  N      0.513510   -1.143041   -3.446085
  N     -0.092929   -0.700896   -2.346534
  H      1.356058    1.418345    0.632122
  H      0.145475    2.092286   -0.485949
  H     -0.291746    1.756996    1.200691
  H      0.029843   -0.680946    0.818628
  H     -1.667640   -0.191749   -1.225951
  H      2.554123   -0.737382   -0.287106
  H      2.279755   -1.771293   -4.273929

 Total Charge           Charge          ....    0
 Multiplicity           Mult            ....    1
 Number of Electrons    NEL             ....   66
 Basis Dimension        Dim             ....  321

ORBITAL ENERGIES
----------------

  NO   OCC          E(Eh)            E(eV)
   0   2.0000     -20.555902      -559.3545
   1   2.0000     -15.643832      -425.6903
   2   2.0000     -15.629099      -425.2894
   3   2.0000     -15.614566      -424.8939
   4   2.0000     -11.327637      -308.2407
   5   2.0000     -11.323331      -308.1235
   6   2.0000     -11.307689      -307.6979
   7   2.0000     -11.306891      -307.6761
   8   2.0000     -11.232452      -305.6506
   9   2.0000      -1.396209       -37.9928
  10   2.0000      -1.368626       -37.2422
  11   2.0000      -1.265096       -34.4250
  12   2.0000      -1.154036       -31.4029
  13   2.0000      -1.035831       -28.1864
  14   2.0000      -0.954397       -25.9705
  15   2.0000      -0.934781       -25.4367
  16   2.0000      -0.844855       -22.9897
  17   2.0000      -0.759552       -20.6685
  18   2.0000      -0.754214       -20.5232
  19   2.0000      -0.711045       -19.3485
  20   2.0000      -0.659324       -17.9411
  21   2.0000      -0.621750       -16.9187
  22   2.0000      -0.619728       -16.8637
  23   2.0000      -0.589903       -16.0521
  24   2.0000      -0.572070       -15.5668
  25   2.0000      -0.551780       -15.0147
  26   2.0000      -0.541114       -14.7244
  27   2.0000      -0.526639       -14.3306
  28   2.0000      -0.483160       -13.1475
  29   2.0000      -0.470077       -12.7914
  30   2.0000      -0.457244       -12.4422
  31   2.0000      -0.419798       -11.4233
  32   2.0000      -0.394805       -10.7432
  33   0.0000       0.051176         1.3926
  34   0.0000       0.090587         2.4650
  35   0.0000       0.129956         3.5363
  36   0.0000       0.168490         4.5848
  37   0.0000       0.172188         4.6855

MULLIKEN ATOMIC CHARGES
-----------------------
   0 C :   -0.361160
   1 C :    0.070496
   2 O :   -0.474828
   3 C :    0.155831
   4 C :   -0.052972
   5 N :   -0.218912
   6 C :    0.070163
   7 N :   -0.176745
   8 N :   -0.169258
   9 H :    0.118997
  10 H :    0.128414
  11 H :    0.146819
  12 H :    0.103820
  13 H :    0.346012
  14 H :    0.156666
  15 H :    0.156656
Sum of atomic charges:    0.0000000

LOEWDIN ATOMIC CHARGES
----------------------
   0 C :   -0.284105
   1 C :   -0.345462
   2 O :   -0.003580
   3 C :   -0.212289
   4 C :   -0.160187
   5 N :    0.147322
   6 C :   -0.285494
   7 N :    0.060316
   8 N :    0.083366
   9 H :    0.122455
  10 H :    0.127928
  11 H :    0.131237
  12 H :    0.150212
  13 H :    0.177259
  14 H :    0.149794
  15 H :    0.141228

  Mayer bond orders larger than 0.1
B(  0-C ,  1-C ) :   0.8846 B(  0-C ,  9-H ) :   0.9237 B(  0-C , 10-H ) :   0.9274
B(  0-C , 11-H ) :   0.9324 B(  1-C ,  2-O ) :   1.0724 B(  1-C ,  3-C ) :   0.9150
B(  1-C , 12-H ) :   0.9260 B(  2-O , 13-H ) :   0.7951 B(  3-C ,  4-C ) :   1.2240
B(  3-C ,  8-N ) :   1.3693 B(  4-C ,  5-N ) :   1.4514 B(  4-C , 14-H ) :   0.9304
B(  5-N ,  6-C ) :   1.3099 B(  6-C ,  7-N ) :   1.4505 B(  6-C , 15-H ) :   0.9273
B(  7-N ,  8-N ) :   1.0953

MP2 TOTAL ENERGY:     -433.349358762 Eh
FINAL SINGLE POINT ENERGY      -433.349358762277

DIPOLE MOMENT
-------------
                                X             Y             Z
Electronic contribution:      0.83485      -4.75655      -5.94643
Nuclear contribution   :      0.13318       4.86832       6.40183
                        -----------------------------------------
Total Dipole Moment    :      0.96803       0.11177       0.45540
                        -----------------------------------------
Magnitude (a.u.)       :      1.07562
Magnitude (Debye)      :      2.73402

                             ****ORCA TERMINATED NORMALLY****
TOTAL RUN TIME: 0 days 0 hours 16 minutes 11 seconds 28 msec
