                         Program Version 3.0.3 - RELEASE   -
|  1> ! RI-MP2 RIJK def2-TZVP def2-TZVP/C def2-TZVP/JK TIGHTSCF
|  2> % maxcore 2000
|  3> % mp2 density relaxed end
|  4> *xyz 0 1
|  5>  C       -0.1343598270     1.4853007672     0.1176628645
|  6>  C       -0.2216567247    -0.0276102666    -0.0844696186
|  7>  O       -1.5649864010    -0.4749120244    -0.2265022636
|  8>  C        0.6467593651    -0.5173438544    -1.2479292355
|  9>  C        0.2945701165     0.0293780430    -2.6184158861
| 10>  N        2.0498698931    -0.7101070502    -0.8966951043
| 11>  C        1.2333303021    -1.9053301832    -1.2182459603
| 12>  C        1.0159994190    -2.8850564618    -0.1168669426
| 13>  O        0.7565313899    -4.0461868428    -0.3119344068
| 14>  H        0.9060348652     1.7946793939     0.2536771708
| 15>  H       -0.5429854966     2.0328291412    -0.7398878433
| 16>  H       -0.7044064272     1.7745924154     1.0043985975
| 17>  H        0.1451792801    -0.5084350143     0.8258042857
| 18>  H       -2.0195552691     0.1192707370    -0.8324579786
| 19>  H        0.4468814837     1.1127028253    -2.6676747911
| 20>  H        0.9116221344    -0.4314321997    -3.3952694133
| 21>  H       -0.7520062006    -0.1793233249    -2.8630134788
| 22>  H        2.6629675969    -0.4911812052    -1.6784044552
| 23>  H        1.3606129540    -2.3834149769    -2.1869272784
| 24>  H        1.1321761462    -2.4756682585     0.9089592080
| 25> *
| 26>
| 27>                          ****END OF INPUT****

CARTESIAN COORDINATES (ANGSTROEM)
---------------------------------
  C     -0.134360    1.485301    0.117663
  C     -0.221657   -0.027610   -0.084470
  O     -1.564986   -0.474912   -0.226502
  C      0.646759   -0.517344   -1.247929
  C      0.294570    0.029378   -2.618416
  N      2.049870   -0.710107   -0.896695
  C      1.233330   -1.905330   -1.218246
  C      1.015999   -2.885056   -0.116867
  O      0.756531   -4.046187   -0.311934
  H      0.906035    1.794679    0.253677
  H     -0.542985    2.032829   -0.739888
  H     -0.704406    1.774592    1.004399
  H      0.145179   -0.508435    0.825804
  H     -2.019555    0.119271   -0.832458
  H      0.446881    1.112703   -2.667675
  H      0.911622   -0.431432   -3.395269
  H     -0.752006   -0.179323   -2.863013
  H      2.662968   -0.491181   -1.678404
  H      1.360613   -2.383415   -2.186927
  H      1.132176   -2.475668    0.908959

 Total Charge           Charge          ....    0
 Multiplicity           Mult            ....    1
 Number of Electrons    NEL             ....   70
 Basis Dimension        Dim             ....  345

ORBITAL ENERGIES
----------------

  NO   OCC          E(Eh)            E(eV)
   0   2.0000     -20.566252      -559.6362
   1   2.0000     -20.552693      -559.2672
   2   2.0000     -15.582259      -424.0148
   3   2.0000     -11.328837      -308.2733
   4   2.0000     -11.295787      -307.3740
   5   2.0000     -11.290667      -307.2347
   6   2.0000     -11.275342      -306.8176
   7   2.0000     -11.244314      -305.9733
   8   2.0000     -11.231032      -305.6119
   9   2.0000      -1.391805       -37.8729
  10   2.0000      -1.374333       -37.3975
  11   2.0000      -1.288741       -35.0684
  12   2.0000      -1.046543       -28.4779
  13   2.0000      -0.998042       -27.1581
  14   2.0000      -0.956669       -26.0323
  15   2.0000      -0.894280       -24.3346
  16   2.0000      -0.814465       -22.1627
  17   2.0000      -0.774659       -21.0796
  18   2.0000      -0.710513       -19.3340
  19   2.0000      -0.683574       -18.6010
  20   2.0000      -0.649297       -17.6683
  21   2.0000      -0.648086       -17.6353
  22   2.0000      -0.629618       -17.1328
  23   2.0000      -0.608064       -16.5463
  24   2.0000      -0.593146       -16.1403
  25   2.0000      -0.567995       -15.4559
  26   2.0000      -0.550606       -14.9827
  27   2.0000      -0.543438       -14.7877
  28   2.0000      -0.534811       -14.5530
  29   2.0000      -0.502665       -13.6782
  30   2.0000      -0.496742       -13.5170
  31   2.0000      -0.475047       -12.9267
  32   2.0000      -0.458469       -12.4756
  33   2.0000      -0.423611       -11.5270
  34   2.0000      -0.398454       -10.8425
  35   0.0000       0.115618         3.1461
  36   0.0000       0.126691         3.4474
  37   0.0000       0.142515         3.8780
  38   0.0000       0.160640         4.3712
  39   0.0000       0.173788         4.7290

MULLIKEN ATOMIC CHARGES
-----------------------
   0 C :   -0.448774
   1 C :    0.142947
   2 O :   -0.469221
   3 C :    0.160136
   4 C :   -0.439867
   5 N :   -0.391547
   6 C :   -0.055446
   7 C :    0.050703
   8 O :   -0.265243
   9 H :    0.150203
  10 H :    0.123868
  11 H :    0.155658
  12 H :    0.090235
  13 H :    0.315507
  14 H :    0.151521
  15 H :    0.137248
  16 H :    0.140782
  17 H :    0.226709
  18 H :    0.131868
  19 H :    0.092713
Sum of atomic charges:    0.0000000

LOEWDIN ATOMIC CHARGES
----------------------
   0 C :   -0.296032
   1 C :   -0.335643
   2 O :   -0.009353
   3 C :   -0.295219
   4 C :   -0.272482
   5 N :    0.043749
   6 C :   -0.226936
   7 C :   -0.281340
   8 O :    0.135270
   9 H :    0.134352
  10 H :    0.120460
  11 H :    0.129293
  12 H :    0.151103
  13 H :    0.172895
  14 H :    0.129363
  15 H :    0.131552
  16 H :    0.132551
  17 H :    0.171754
  18 H :    0.148544
  19 H :    0.116119

  Mayer bond orders larger than 0.1
B(  0-C ,  1-C ) :   0.9319 B(  0-C ,  9-H ) :   0.9342 B(  0-C , 10-H ) :   0.9241
B(  0-C , 11-H ) :   0.9419 B(  1-C ,  2-O ) :   0.9379 B(  1-C ,  3-C ) :   0.8883
B(  1-C , 12-H ) :   0.9256 B(  2-O , 13-H ) :   0.8416 B(  3-C ,  4-C ) :   0.8911
B(  3-C ,  5-N ) :   0.8767 B(  3-C ,  6-C ) :   0.7972 B(  4-C , 14-H ) :   0.9389
B(  4-C , 15-H ) :   0.9244 B(  4-C , 16-H ) :   0.9340 B(  5-N ,  6-C ) :   0.9100
B(  5-N , 17-H ) :   0.8634 B(  6-C ,  7-C ) :   0.8572 B(  6-C , 18-H ) :   0.9225
B(  7-C ,  8-O ) :   1.9927 B(  7-C , 19-H ) :   0.9602

MP2 TOTAL ENERGY:     -439.552760031 Eh
FINAL SINGLE POINT ENERGY      -439.552760030670

DIPOLE MOMENT
-------------
                                X             Y             Z
Electronic contribution:      1.12754      -8.88124       2.18537
Nuclear contribution   :     -0.95462      10.51753      -3.08738
                        -----------------------------------------
Total Dipole Moment    :      0.17293       1.63629      -0.90201
                        -----------------------------------------
Magnitude (a.u.)       :      1.87643
Magnitude (Debye)      :      4.76949

                             ****ORCA TERMINATED NORMALLY****
TOTAL RUN TIME: 0 days 0 hours 21 minutes 36 seconds 118 msec
