                         Program Version 3.0.3 - RELEASE   -
|  1> ! RI-MP2 RIJK def2-TZVP def2-TZVP/C def2-TZVP/JK TIGHTSCF
|  2> % maxcore 2000
|  3> % mp2 density relaxed end
|  4> *xyz 0 1
|  5>  C       -0.0271660172     1.4517252797     0.0551538996
|  6>  C        1.4133860156     1.9762668549     0.0194353473
|  7>  O        2.1801390883     1.4999830376     1.1391809485
|  8>  C        1.9983983752     0.1858679021     1.3567545284
|  9>  N        2.8037930036    -0.5162992597     2.1128104016
| 10>  O        2.2650391003    -1.8059931307     2.0820223095
| 11>  C        1.1483147967    -1.8171026191     1.3270375481
| 12>  C        0.9158638434    -0.5786296215     0.8212772565
| 13>  N       -0.1063663463    -0.0139375021     0.0375775504
| 14>  H       -0.5103631373     1.8173115038     0.9693132541
| 15>  H       -0.5845382090     1.8510788103    -0.7959916501
| 16>  H        1.9103369336     1.6705658952    -0.9115125566
| 17>  H        1.4388182991     3.0656997188     0.0901010711
| 18>  H        0.6454002905    -2.7665965421     1.2353661325
| 19>  H       -0.1334565164    -0.3851980773    -0.9038792309
| 20> *
| 21>
| 22>                          ****END OF INPUT****

CARTESIAN COORDINATES (ANGSTROEM)
---------------------------------
  C     -0.027166    1.451725    0.055154
  C      1.413386    1.976267    0.019435
  O      2.180139    1.499983    1.139181
  C      1.998398    0.185868    1.356755
  N      2.803793   -0.516299    2.112810
  O      2.265039   -1.805993    2.082022
  C      1.148315   -1.817103    1.327038
  C      0.915864   -0.578630    0.821277
  N     -0.106366   -0.013938    0.037578
  H     -0.510363    1.817312    0.969313
  H     -0.584538    1.851079   -0.795992
  H      1.910337    1.670566   -0.911513
  H      1.438818    3.065700    0.090101
  H      0.645400   -2.766597    1.235366
  H     -0.133457   -0.385198   -0.903879

 Total Charge           Charge          ....    0
 Multiplicity           Mult            ....    1
 Number of Electrons    NEL             ....   66
 Basis Dimension        Dim             ....  315

ORBITAL ENERGIES
----------------

  NO   OCC          E(Eh)            E(eV)
   0   2.0000     -20.634685      -561.4983
   1   2.0000     -20.606113      -560.7208
   2   2.0000     -15.604895      -424.6308
   3   2.0000     -15.584363      -424.0721
   4   2.0000     -11.332860      -308.3828
   5   2.0000     -11.309245      -307.7402
   6   2.0000     -11.308185      -307.7114
   7   2.0000     -11.284069      -307.0551
   8   2.0000     -11.274575      -306.7968
   9   2.0000      -1.485987       -40.4358
  10   2.0000      -1.435034       -39.0492
  11   2.0000      -1.251327       -34.0503
  12   2.0000      -1.150221       -31.2991
  13   2.0000      -1.066102       -29.0101
  14   2.0000      -1.000272       -27.2188
  15   2.0000      -0.894050       -24.3283
  16   2.0000      -0.843426       -22.9508
  17   2.0000      -0.779921       -21.2227
  18   2.0000      -0.738468       -20.0947
  19   2.0000      -0.708686       -19.2843
  20   2.0000      -0.680880       -18.5277
  21   2.0000      -0.660512       -17.9734
  22   2.0000      -0.650984       -17.7142
  23   2.0000      -0.617457       -16.8019
  24   2.0000      -0.596338       -16.2272
  25   2.0000      -0.588267       -16.0076
  26   2.0000      -0.554723       -15.0948
  27   2.0000      -0.533403       -14.5146
  28   2.0000      -0.518063       -14.0972
  29   2.0000      -0.483311       -13.1516
  30   2.0000      -0.438848       -11.9417
  31   2.0000      -0.381418       -10.3789
  32   2.0000      -0.338301        -9.2056
  33   0.0000       0.114314         3.1106
  34   0.0000       0.127198         3.4612
  35   0.0000       0.156093         4.2475
  36   0.0000       0.170520         4.6401
  37   0.0000       0.174435         4.7466

MULLIKEN ATOMIC CHARGES
-----------------------
   0 C :   -0.165337
   1 C :   -0.047342
   2 O :   -0.259868
   3 C :    0.205316
   4 N :   -0.123559
   5 O :   -0.099360
   6 C :   -0.053840
   7 C :   -0.028011
   8 N :   -0.341831
   9 H :    0.128713
  10 H :    0.144277
  11 H :    0.105938
  12 H :    0.139644
  13 H :    0.158817
  14 H :    0.236443
Sum of atomic charges:    0.0000000

LOEWDIN ATOMIC CHARGES
----------------------
   0 C :   -0.290231
   1 C :   -0.278629
   2 O :    0.255207
   3 C :   -0.395466
   4 N :    0.043193
   5 O :    0.267709
   6 C :   -0.246379
   7 C :   -0.260813
   8 N :    0.041242
   9 H :    0.141420
  10 H :    0.139892
  11 H :    0.127510
  12 H :    0.135910
  13 H :    0.137264
  14 H :    0.182172

  Mayer bond orders larger than 0.1
B(  0-C ,  1-C ) :   0.9218 B(  0-C ,  8-N ) :   0.9454 B(  0-C ,  9-H ) :   0.9308
B(  0-C , 10-H ) :   0.9263 B(  1-C ,  2-O ) :   0.8669 B(  1-C , 11-H ) :   0.9263
B(  1-C , 12-H ) :   0.9258 B(  2-O ,  3-C ) :   1.0997 B(  3-C ,  4-N ) :   1.6126
B(  3-C ,  7-C ) :   1.1450 B(  4-N ,  5-O ) :   0.8692 B(  4-N ,  6-C ) :   0.1125
B(  5-O ,  6-C ) :   1.1123 B(  6-C ,  7-C ) :   1.5232 B(  6-C , 13-H ) :   0.9184
B(  7-C ,  8-N ) :   1.0057 B(  8-N , 14-H ) :   0.8682

MP2 TOTAL ENERGY:     -453.181026572 Eh
FINAL SINGLE POINT ENERGY      -453.181026571892

DIPOLE MOMENT
-------------
                                X             Y             Z
Electronic contribution:      4.05680      -4.16052       4.27459
Nuclear contribution   :     -5.28754       4.57887      -5.82707
                        -----------------------------------------
Total Dipole Moment    :     -1.23075       0.41835      -1.55248
                        -----------------------------------------
Magnitude (a.u.)       :      2.02483
Magnitude (Debye)      :      5.14671

                             ****ORCA TERMINATED NORMALLY****
TOTAL RUN TIME: 0 days 0 hours 16 minutes 11 seconds 350 msec
