                         Program Version 3.0.3 - RELEASE   -
|  1> ! RI-MP2 RIJK def2-TZVP def2-TZVP/C def2-TZVP/JK TIGHTSCF
|  2> % maxcore 2000
|  3> % mp2 density relaxed end
|  4> *xyz 0 1
|  5>  C        0.0791001025     1.5254468728    -0.0820824978
|  6>  C       -0.0549585812     0.0054904270    -0.0841155806
|  7>  C       -1.4606939336    -0.5020935199     0.0335807211
|  8>  N       -2.4594422503     0.3165748067     0.1295939908
|  9>  C       -3.7264517799    -0.2144332611     0.2350369810
| 10>  N       -4.0360321164    -1.4712772468     0.2490129984
| 11>  N       -2.9908410679    -2.3174894252     0.1486037280
| 12>  C       -1.6503631024    -1.9702484500     0.0348348257
| 13>  N       -0.6567048349    -2.7748140908    -0.0605960423
| 14>  H        1.1315575785     1.8088534847    -0.1708525688
| 15>  H       -0.4709725019     1.9736712553    -0.9135677347
| 16>  H       -0.3189458160     1.9579520729     0.8395023442
| 17>  H        0.3772653939    -0.4383158457    -0.9908352632
| 18>  H        0.5264464291    -0.4535416352     0.7266100990
| 19>  H       -4.5476959380     0.4874584264     0.3143261928
| 20>  H       -3.2467344715    -3.2944308939     0.1607672388
| 21>  H       -0.9516733101    -3.7530717272    -0.0450014623
| 22> *
| 23>
| 24>                          ****END OF INPUT****

CARTESIAN COORDINATES (ANGSTROEM)
---------------------------------
  C      0.079100    1.525447   -0.082082
  C     -0.054959    0.005490   -0.084116
  C     -1.460694   -0.502094    0.033581
  N     -2.459442    0.316575    0.129594
  C     -3.726452   -0.214433    0.235037
  N     -4.036032   -1.471277    0.249013
  N     -2.990841   -2.317489    0.148604
  C     -1.650363   -1.970248    0.034835
  N     -0.656705   -2.774814   -0.060596
  H      1.131558    1.808853   -0.170853
  H     -0.470973    1.973671   -0.913568
  H     -0.318946    1.957952    0.839502
  H      0.377265   -0.438316   -0.990835
  H      0.526446   -0.453542    0.726610
  H     -4.547696    0.487458    0.314326
  H     -3.246734   -3.294431    0.160767
  H     -0.951673   -3.753072   -0.045001

 Total Charge           Charge          ....    0
 Multiplicity           Mult            ....    1
 Number of Electrons    NEL             ....   66
 Basis Dimension        Dim             ....  327

ORBITAL ENERGIES
----------------

  NO   OCC          E(Eh)            E(eV)
   0   2.0000     -15.643080      -425.6699
   1   2.0000     -15.624878      -425.1745
   2   2.0000     -15.587793      -424.1654
   3   2.0000     -15.538975      -422.8370
   4   2.0000     -11.340993      -308.6041
   5   2.0000     -11.318540      -307.9931
   6   2.0000     -11.307621      -307.6960
   7   2.0000     -11.236272      -305.7545
   8   2.0000     -11.215909      -305.2004
   9   2.0000      -1.388703       -37.7885
  10   2.0000      -1.257270       -34.2121
  11   2.0000      -1.229178       -33.4476
  12   2.0000      -1.103959       -30.0402
  13   2.0000      -1.050658       -28.5899
  14   2.0000      -0.945118       -25.7180
  15   2.0000      -0.895223       -24.3602
  16   2.0000      -0.848674       -23.0936
  17   2.0000      -0.763114       -20.7654
  18   2.0000      -0.744644       -20.2628
  19   2.0000      -0.662228       -18.0201
  20   2.0000      -0.645290       -17.5592
  21   2.0000      -0.644983       -17.5509
  22   2.0000      -0.607926       -16.5425
  23   2.0000      -0.598966       -16.2987
  24   2.0000      -0.528780       -14.3888
  25   2.0000      -0.519869       -14.1464
  26   2.0000      -0.510603       -13.8942
  27   2.0000      -0.509251       -13.8574
  28   2.0000      -0.491079       -13.3630
  29   2.0000      -0.467973       -12.7342
  30   2.0000      -0.454105       -12.3568
  31   2.0000      -0.412264       -11.2183
  32   2.0000      -0.326415        -8.8822
  33   0.0000       0.070468         1.9175
  34   0.0000       0.125284         3.4092
  35   0.0000       0.142888         3.8882
  36   0.0000       0.144522         3.9327
  37   0.0000       0.179952         4.8967

MULLIKEN ATOMIC CHARGES
-----------------------
   0 C :   -0.342600
   1 C :   -0.187609
   2 C :    0.171562
   3 N :   -0.245427
   4 C :    0.004657
   5 N :   -0.162237
   6 N :   -0.127601
   7 C :    0.027045
   8 N :   -0.399608
   9 H :    0.133288
  10 H :    0.127221
  11 H :    0.127290
  12 H :    0.142469
  13 H :    0.142245
  14 H :    0.147406
  15 H :    0.249865
  16 H :    0.192032
Sum of atomic charges:   -0.0000000

LOEWDIN ATOMIC CHARGES
----------------------
   0 C :   -0.309963
   1 C :   -0.248150
   2 C :   -0.171096
   3 N :    0.160527
   4 C :   -0.327392
   5 N :    0.057584
   6 N :    0.112803
   7 C :   -0.360819
   8 N :   -0.088069
   9 H :    0.122181
  10 H :    0.124927
  11 H :    0.124934
  12 H :    0.160043
  13 H :    0.160056
  14 H :    0.138446
  15 H :    0.190756
  16 H :    0.153232

  Mayer bond orders larger than 0.1
B(  0-C ,  1-C ) :   0.9326 B(  0-C ,  9-H ) :   0.9389 B(  0-C , 10-H ) :   0.9342
B(  0-C , 11-H ) :   0.9342 B(  1-C ,  2-C ) :   0.9548 B(  1-C , 12-H ) :   0.9088
B(  1-C , 13-H ) :   0.9086 B(  2-C ,  3-N ) :   1.5869 B(  2-C ,  7-C ) :   0.9820
B(  2-C ,  8-N ) :  -0.1608 B(  3-N ,  4-C ) :   1.1642 B(  4-C ,  5-N ) :   1.6458
B(  4-C , 14-H ) :   0.9332 B(  5-N ,  6-N ) :   0.9695 B(  6-N ,  7-C ) :   1.1219
B(  6-N , 15-H ) :   0.8694 B(  7-C ,  8-N ) :   2.0055 B(  8-N , 16-H ) :   0.8512

MP2 TOTAL ENERGY:     -413.484199854 Eh
FINAL SINGLE POINT ENERGY      -413.484199854278

DIPOLE MOMENT
-------------
                                X             Y             Z
Electronic contribution:     -7.27441      -5.05977       0.58754
Nuclear contribution   :      6.94186       4.61186      -0.56301
                        -----------------------------------------
Total Dipole Moment    :     -0.33254      -0.44791       0.02453
                        -----------------------------------------
Magnitude (a.u.)       :      0.55840
Magnitude (Debye)      :      1.41933

                             ****ORCA TERMINATED NORMALLY****
TOTAL RUN TIME: 0 days 0 hours 19 minutes 8 seconds 789 msec
