                         Program Version 3.0.3 - RELEASE   -
|  1> ! RI-MP2 RIJK def2-TZVP def2-TZVP/C def2-TZVP/JK TIGHTSCF
|  2> % maxcore 2000
|  3> % mp2 density relaxed end
|  4> *xyz 0 1
|  5>  C        0.1547243109    -1.2020992319     0.0763649759
|  6>  C        0.0621429339    -0.0039645412     0.0055192591
|  7>  C       -0.0990885442     1.4099946607    -0.0491843701
|  8>  C        0.2476901157     2.2224208499    -1.2395464833
|  9>  N        1.0917519542     2.4097428130    -0.0548709100
| 10>  C        0.3300267381     3.2317405939     0.9741010698
| 11>  C       -0.6400591813     4.3571267011     0.5209493668
| 12>  C       -1.8283179528     3.3377575036     0.5655542444
| 13>  C       -0.8408361810     2.2301356590     1.0323667500
| 14>  H        0.2482015791    -2.2582685867     0.1329586370
| 15>  H        0.7736306943     1.7028148033    -2.0346142649
| 16>  H       -0.4140721968     3.0094566246    -1.5873910659
| 17>  H        0.9826380429     3.4344101702     1.8222856106
| 18>  H       -0.7257164322     5.1502365697     1.2675661931
| 19>  H       -0.4244571782     4.8266730264    -0.4422944493
| 20>  H       -2.5816727271     3.5841812184     1.3167295507
| 21>  H       -2.3407768844     3.1470720184    -0.3811526154
| 22>  H       -1.0807385610     1.6622759876     1.9290281814
| 23> *
| 24>
| 25>                          ****END OF INPUT****

CARTESIAN COORDINATES (ANGSTROEM)
---------------------------------
  C      0.154724   -1.202099    0.076365
  C      0.062143   -0.003965    0.005519
  C     -0.099089    1.409995   -0.049184
  C      0.247690    2.222421   -1.239546
  N      1.091752    2.409743   -0.054871
  C      0.330027    3.231741    0.974101
  C     -0.640059    4.357127    0.520949
  C     -1.828318    3.337758    0.565554
  C     -0.840836    2.230136    1.032367
  H      0.248202   -2.258269    0.132959
  H      0.773631    1.702815   -2.034614
  H     -0.414072    3.009457   -1.587391
  H      0.982638    3.434410    1.822286
  H     -0.725716    5.150237    1.267566
  H     -0.424457    4.826673   -0.442294
  H     -2.581673    3.584181    1.316730
  H     -2.340777    3.147072   -0.381153
  H     -1.080739    1.662276    1.929028

 Total Charge           Charge          ....    0
 Multiplicity           Mult            ....    1
 Number of Electrons    NEL             ....   64
 Basis Dimension        Dim             ....  333

ORBITAL ENERGIES
----------------

  NO   OCC          E(Eh)            E(eV)
   0   2.0000     -15.570391      -423.6919
   1   2.0000     -11.289875      -307.2131
   2   2.0000     -11.266887      -306.5876
   3   2.0000     -11.261433      -306.4392
   4   2.0000     -11.241565      -305.8985
   5   2.0000     -11.236632      -305.7643
   6   2.0000     -11.233298      -305.6736
   7   2.0000     -11.231957      -305.6371
   8   2.0000     -11.227912      -305.5270
   9   2.0000      -1.296694       -35.2848
  10   2.0000      -1.109239       -30.1839
  11   2.0000      -1.042525       -28.3686
  12   2.0000      -0.953137       -25.9362
  13   2.0000      -0.943106       -25.6632
  14   2.0000      -0.861148       -23.4330
  15   2.0000      -0.822590       -22.3838
  16   2.0000      -0.745916       -20.2974
  17   2.0000      -0.704023       -19.1574
  18   2.0000      -0.701786       -19.0966
  19   2.0000      -0.675606       -18.3842
  20   2.0000      -0.626088       -17.0367
  21   2.0000      -0.580058       -15.7842
  22   2.0000      -0.576766       -15.6946
  23   2.0000      -0.532105       -14.4793
  24   2.0000      -0.516489       -14.0544
  25   2.0000      -0.497179       -13.5289
  26   2.0000      -0.465645       -12.6708
  27   2.0000      -0.461902       -12.5690
  28   2.0000      -0.428484       -11.6596
  29   2.0000      -0.396178       -10.7806
  30   2.0000      -0.386643       -10.5211
  31   2.0000      -0.341463        -9.2917
  32   0.0000       0.137445         3.7401
  33   0.0000       0.144266         3.9257
  34   0.0000       0.156066         4.2468
  35   0.0000       0.163262         4.4426
  36   0.0000       0.174397         4.7456

MULLIKEN ATOMIC CHARGES
-----------------------
   0 C :   -0.093670
   1 C :   -0.034298
   2 C :   -0.124873
   3 C :   -0.151026
   4 N :   -0.218846
   5 C :   -0.052007
   6 C :   -0.264295
   7 C :   -0.302915
   8 C :    0.006277
   9 H :    0.193797
  10 H :    0.138177
  11 H :    0.128230
  12 H :    0.122671
  13 H :    0.124457
  14 H :    0.132282
  15 H :    0.125044
  16 H :    0.134757
  17 H :    0.136239
Sum of atomic charges:    0.0000000

LOEWDIN ATOMIC CHARGES
----------------------
   0 C :   -0.077881
   1 C :   -0.072073
   2 C :   -0.204735
   3 C :   -0.211202
   4 N :    0.144757
   5 C :   -0.197807
   6 C :   -0.226146
   7 C :   -0.217985
   8 C :   -0.142487
   9 H :    0.127818
  10 H :    0.141039
  11 H :    0.129670
  12 H :    0.134742
  13 H :    0.135126
  14 H :    0.129446
  15 H :    0.132208
  16 H :    0.129557
  17 H :    0.145954

  Mayer bond orders larger than 0.1
B(  0-C ,  1-C ) :   2.5889 B(  0-C ,  2-C ) :  -0.1777 B(  0-C ,  9-H ) :   0.8699
B(  1-C ,  2-C ) :   1.2337 B(  2-C ,  3-C ) :   0.9240 B(  2-C ,  4-N ) :   0.8024
B(  2-C ,  8-C ) :   0.8246 B(  3-C ,  4-N ) :   0.9231 B(  3-C , 10-H ) :   0.9181
B(  3-C , 11-H ) :   0.8966 B(  4-N ,  5-C ) :   0.9537 B(  5-C ,  6-C ) :   0.9121
B(  5-C ,  8-C ) :   0.9411 B(  5-C , 12-H ) :   0.9230 B(  6-C ,  7-C ) :   0.9492
B(  6-C , 13-H ) :   0.9167 B(  6-C , 14-H ) :   0.9280 B(  7-C ,  8-C ) :   0.8926
B(  7-C , 15-H ) :   0.9173 B(  7-C , 16-H ) :   0.9320 B(  8-C , 17-H ) :   0.9238

MP2 TOTAL ENERGY:     -364.033039007 Eh
FINAL SINGLE POINT ENERGY      -364.033039007329

DIPOLE MOMENT
-------------
                                X             Y             Z
Electronic contribution:      2.98336      -5.06811      -0.12891
Nuclear contribution   :     -3.67386       5.37495       0.20143
                        -----------------------------------------
Total Dipole Moment    :     -0.69050       0.30684       0.07252
                        -----------------------------------------
Magnitude (a.u.)       :      0.75908
Magnitude (Debye)      :      1.92942

                             ****ORCA TERMINATED NORMALLY****
TOTAL RUN TIME: 0 days 0 hours 19 minutes 42 seconds 885 msec
