                         Program Version 3.0.3 - RELEASE   -
|  1> ! RI-MP2 RIJK def2-TZVP def2-TZVP/C def2-TZVP/JK TIGHTSCF
|  2> % maxcore 2000
|  3> % mp2 density relaxed end
|  4> *xyz 0 1
|  5>  C       -0.0382646144     1.3840847798     0.0195473441
|  6>  O        0.0357474149    -0.0228038165     0.0107907012
|  7>  C        0.6251032234    -0.5326231118    -1.1563438650
|  8>  C        0.5626477205    -2.0759147658    -1.0801208105
|  9>  C       -0.8194828317    -2.5644428341    -1.0949942574
| 10>  C       -1.9516837468    -2.9627942722    -1.1151906696
| 11>  C        1.3578128686    -2.6669153789    -2.1603459631
| 12>  C        2.0245568602    -3.1210720660    -3.0496527895
| 13>  H        0.9595845751     1.8460983481    -0.0428966359
| 14>  H       -0.6467252956     1.7643528491    -0.8154464875
| 15>  H       -0.5059990265     1.6783497166     0.9617298005
| 16>  H        0.0978451188    -0.1879331146    -2.0590091379
| 17>  H        1.6795190446    -0.2250113438    -1.2398627003
| 18>  H        1.0162238589    -2.3518015327    -0.1175693333
| 19>  H       -2.9525110532    -3.3172913338    -1.1281329738
| 20>  H        2.6073138332    -3.5375523635    -3.8336778219
| 21> *
| 22>
| 23>                          ****END OF INPUT****

CARTESIAN COORDINATES (ANGSTROEM)
---------------------------------
  C     -0.038265    1.384085    0.019547
  O      0.035747   -0.022804    0.010791
  C      0.625103   -0.532623   -1.156344
  C      0.562648   -2.075915   -1.080121
  C     -0.819483   -2.564443   -1.094994
  C     -1.951684   -2.962794   -1.115191
  C      1.357813   -2.666915   -2.160346
  C      2.024557   -3.121072   -3.049653
  H      0.959585    1.846098   -0.042897
  H     -0.646725    1.764353   -0.815446
  H     -0.505999    1.678350    0.961730
  H      0.097845   -0.187933   -2.059009
  H      1.679519   -0.225011   -1.239863
  H      1.016224   -2.351802   -0.117569
  H     -2.952511   -3.317291   -1.128133
  H      2.607314   -3.537552   -3.833678

 Total Charge           Charge          ....    0
 Multiplicity           Mult            ....    1
 Number of Electrons    NEL             ....   58
 Basis Dimension        Dim             ....  296

ORBITAL ENERGIES
----------------

  NO   OCC          E(Eh)            E(eV)
   0   2.0000     -20.565429      -559.6138
   1   2.0000     -11.294656      -307.3432
   2   2.0000     -11.289870      -307.2130
   3   2.0000     -11.277484      -306.8759
   4   2.0000     -11.242992      -305.9374
   5   2.0000     -11.236361      -305.7569
   6   2.0000     -11.230773      -305.6049
   7   2.0000     -11.223562      -305.4086
   8   2.0000      -1.389403       -37.8076
   9   2.0000      -1.119814       -30.4717
  10   2.0000      -1.022628       -27.8271
  11   2.0000      -0.998689       -27.1757
  12   2.0000      -0.934831       -25.4380
  13   2.0000      -0.865444       -23.5499
  14   2.0000      -0.750323       -20.4173
  15   2.0000      -0.720261       -19.5993
  16   2.0000      -0.688871       -18.7451
  17   2.0000      -0.680660       -18.5217
  18   2.0000      -0.654189       -17.8014
  19   2.0000      -0.635535       -17.2938
  20   2.0000      -0.614083       -16.7100
  21   2.0000      -0.551993       -15.0205
  22   2.0000      -0.542126       -14.7520
  23   2.0000      -0.494235       -13.4488
  24   2.0000      -0.435780       -11.8582
  25   2.0000      -0.408043       -11.1034
  26   2.0000      -0.405047       -11.0219
  27   2.0000      -0.385895       -10.5007
  28   2.0000      -0.382573       -10.4103
  29   0.0000       0.135254         3.6805
  30   0.0000       0.154925         4.2157
  31   0.0000       0.161874         4.4048
  32   0.0000       0.166114         4.5202
  33   0.0000       0.169373         4.6089

MULLIKEN ATOMIC CHARGES
-----------------------
   0 C :   -0.218866
   1 O :   -0.293759
   2 C :   -0.051721
   3 C :   -0.183880
   4 C :   -0.023364
   5 C :   -0.147330
   6 C :   -0.043366
   7 C :   -0.151009
   8 H :    0.112513
   9 H :    0.116518
  10 H :    0.142605
  11 H :    0.106141
  12 H :    0.115776
  13 H :    0.133370
  14 H :    0.191926
  15 H :    0.194448
Sum of atomic charges:    0.0000000

LOEWDIN ATOMIC CHARGES
----------------------
   0 C :   -0.354441
   1 O :    0.148000
   2 C :   -0.281444
   3 C :   -0.228302
   4 C :   -0.068560
   5 C :   -0.085736
   6 C :   -0.070305
   7 C :   -0.085538
   8 H :    0.102518
   9 H :    0.103483
  10 H :    0.115280
  11 H :    0.129363
  12 H :    0.128055
  13 H :    0.191598
  14 H :    0.127540
  15 H :    0.128489

  Mayer bond orders larger than 0.1
B(  0-C ,  1-O ) :   0.9132 B(  0-C ,  8-H ) :   0.9365 B(  0-C ,  9-H ) :   0.9363
B(  0-C , 10-H ) :   0.9391 B(  1-O ,  2-C ) :   0.9693 B(  1-O ,  3-C ) :  -0.1002
B(  2-C ,  3-C ) :   0.9156 B(  2-C , 11-H ) :   0.9144 B(  2-C , 12-H ) :   0.9262
B(  3-C ,  4-C ) :   1.1579 B(  3-C ,  5-C ) :  -0.1028 B(  3-C ,  6-C ) :   1.1052
B(  3-C , 13-H ) :   0.8939 B(  4-C ,  5-C ) :   2.5801 B(  5-C , 14-H ) :   0.8949
B(  6-C ,  7-C ) :   2.5841 B(  7-C , 15-H ) :   0.8962

MP2 TOTAL ENERGY:     -345.893134887 Eh
FINAL SINGLE POINT ENERGY      -345.893134887428

DIPOLE MOMENT
-------------
                                X             Y             Z
Electronic contribution:     -0.25801      -6.22190      -1.04661
Nuclear contribution   :      0.44786       6.73947       0.85441
                        -----------------------------------------
Total Dipole Moment    :      0.18985       0.51757      -0.19219
                        -----------------------------------------
Magnitude (a.u.)       :      0.58384
Magnitude (Debye)      :      1.48399

                             ****ORCA TERMINATED NORMALLY****
TOTAL RUN TIME: 0 days 0 hours 9 minutes 31 seconds 120 msec
