                         Program Version 3.0.3 - RELEASE   -
|  1> ! RI-MP2 RIJK def2-TZVP def2-TZVP/C def2-TZVP/JK TIGHTSCF
|  2> % maxcore 2000
|  3> % mp2 density relaxed end
|  4> *xyz 0 1
|  5>  O       -0.2171779233    -0.0431421515     0.0176875112
|  6>  C       -0.1004718812     1.1526496931    -0.0506613610
|  7>  C        1.2151456860     1.9002068300    -0.0549512270
|  8>  C        1.3403373334     2.8561189204    -1.2475226521
|  9>  C        2.6161911843     3.7173918456    -1.2493946965
| 10>  C        2.7817495591     4.0823489894    -2.7365219160
| 11>  O        2.0025933218     3.1467534318    -3.4880298041
| 12>  C        1.4622961175     2.1689166610    -2.6149337064
| 13>  H       -0.9986673180     1.8125576056    -0.1165160777
| 14>  H        1.2565348256     2.4839316578     0.8762931564
| 15>  H        2.0332621740     1.1731681967    -0.0347384383
| 16>  H        0.4646298171     3.5183254168    -1.2726467109
| 17>  H        2.5413355861     4.5963581180    -0.6043897402
| 18>  H        3.4656435552     3.1199810508    -0.8999320305
| 19>  H        2.4087122988     5.0907216612    -2.9554248457
| 20>  H        3.8302711965     4.0359447617    -3.0568309119
| 21>  H        2.1255388211     1.2897891454    -2.5406180637
| 22>  H        0.5055925860     1.8341314562    -3.0287255155
| 23> *
| 24>
| 25>                          ****END OF INPUT****

CARTESIAN COORDINATES (ANGSTROEM)
---------------------------------
  O     -0.217178   -0.043142    0.017688
  C     -0.100472    1.152650   -0.050661
  C      1.215146    1.900207   -0.054951
  C      1.340337    2.856119   -1.247523
  C      2.616191    3.717392   -1.249395
  C      2.781750    4.082349   -2.736522
  O      2.002593    3.146753   -3.488030
  C      1.462296    2.168917   -2.614934
  H     -0.998667    1.812558   -0.116516
  H      1.256535    2.483932    0.876293
  H      2.033262    1.173168   -0.034738
  H      0.464630    3.518325   -1.272647
  H      2.541336    4.596358   -0.604390
  H      3.465644    3.119981   -0.899932
  H      2.408712    5.090722   -2.955425
  H      3.830271    4.035945   -3.056831
  H      2.125539    1.289789   -2.540618
  H      0.505593    1.834131   -3.028726

 Total Charge           Charge          ....    0
 Multiplicity           Mult            ....    1
 Number of Electrons    NEL             ....   62
 Basis Dimension        Dim             ....  308

ORBITAL ENERGIES
----------------

  NO   OCC          E(Eh)            E(eV)
   0   2.0000     -20.561825      -559.5157
   1   2.0000     -20.554718      -559.3223
   2   2.0000     -11.336892      -308.4925
   3   2.0000     -11.280014      -306.9448
   4   2.0000     -11.279747      -306.9375
   5   2.0000     -11.251715      -306.1747
   6   2.0000     -11.249666      -306.1190
   7   2.0000     -11.239209      -305.8344
   8   2.0000      -1.400735       -38.1159
   9   2.0000      -1.378953       -37.5232
  10   2.0000      -1.107542       -30.1377
  11   2.0000      -1.020031       -27.7565
  12   2.0000      -0.973085       -26.4790
  13   2.0000      -0.828697       -22.5500
  14   2.0000      -0.814064       -22.1518
  15   2.0000      -0.794705       -21.6250
  16   2.0000      -0.697160       -18.9707
  17   2.0000      -0.684080       -18.6148
  18   2.0000      -0.656730       -17.8705
  19   2.0000      -0.635787       -17.3007
  20   2.0000      -0.620800       -16.8928
  21   2.0000      -0.598029       -16.2732
  22   2.0000      -0.580131       -15.7862
  23   2.0000      -0.547055       -14.8861
  24   2.0000      -0.536354       -14.5949
  25   2.0000      -0.511072       -13.9070
  26   2.0000      -0.493122       -13.4185
  27   2.0000      -0.483817       -13.1653
  28   2.0000      -0.469586       -12.7781
  29   2.0000      -0.422693       -11.5021
  30   2.0000      -0.417383       -11.3576
  31   0.0000       0.122402         3.3307
  32   0.0000       0.134381         3.6567
  33   0.0000       0.145330         3.9546
  34   0.0000       0.156856         4.2683
  35   0.0000       0.171509         4.6670

MULLIKEN ATOMIC CHARGES
-----------------------
   0 O :   -0.258958
   1 C :    0.094152
   2 C :   -0.162210
   3 C :   -0.142854
   4 C :   -0.260740
   5 C :   -0.008024
   6 O :   -0.316852
   7 C :   -0.043501
   8 H :    0.072901
   9 H :    0.134298
  10 H :    0.126146
  11 H :    0.102506
  12 H :    0.130462
  13 H :    0.119811
  14 H :    0.100220
  15 H :    0.099233
  16 H :    0.093733
  17 H :    0.119677
Sum of atomic charges:   -0.0000000

LOEWDIN ATOMIC CHARGES
----------------------
   0 O :    0.134078
   1 C :   -0.295211
   2 C :   -0.243233
   3 C :   -0.257421
   4 C :   -0.240653
   5 C :   -0.294418
   6 O :    0.140119
   7 C :   -0.289400
   8 H :    0.110282
   9 H :    0.156623
  10 H :    0.148740
  11 H :    0.155963
  12 H :    0.138249
  13 H :    0.140548
  14 H :    0.121656
  15 H :    0.120763
  16 H :    0.124120
  17 H :    0.129193

  Mayer bond orders larger than 0.1
B(  0-O ,  1-C ) :   2.0076 B(  1-C ,  2-C ) :   0.8756 B(  1-C ,  8-H ) :   0.9356
B(  2-C ,  3-C ) :   0.8880 B(  2-C ,  9-H ) :   0.9132 B(  2-C , 10-H ) :   0.8979
B(  3-C ,  4-C ) :   0.9112 B(  3-C ,  7-C ) :   0.9487 B(  3-C , 11-H ) :   0.9235
B(  4-C ,  5-C ) :   0.9594 B(  4-C , 12-H ) :   0.9253 B(  4-C , 13-H ) :   0.9272
B(  5-C ,  6-O ) :   0.9365 B(  5-C , 14-H ) :   0.9250 B(  5-C , 15-H ) :   0.9241
B(  6-O ,  7-C ) :   0.9553 B(  7-C , 16-H ) :   0.9284 B(  7-C , 17-H ) :   0.9128

MP2 TOTAL ENERGY:     -384.314818036 Eh
FINAL SINGLE POINT ENERGY      -384.314818035574

DIPOLE MOMENT
-------------
                                X             Y             Z
Electronic contribution:     -3.14920      -3.94010      -0.18580
Nuclear contribution   :      3.52331       4.98612       0.74602
                        -----------------------------------------
Total Dipole Moment    :      0.37411       1.04602       0.56022
                        -----------------------------------------
Magnitude (a.u.)       :      1.24417
Magnitude (Debye)      :      3.16244

                             ****ORCA TERMINATED NORMALLY****
TOTAL RUN TIME: 0 days 0 hours 12 minutes 30 seconds 802 msec
