                         Program Version 3.0.3 - RELEASE   -
|  1> ! RI-MP2 RIJK def2-TZVP def2-TZVP/C def2-TZVP/JK TIGHTSCF
|  2> % maxcore 2000
|  3> % mp2 density relaxed end
|  4> *xyz 0 1
|  5>  O        0.0468307869     1.3691282305    -0.4394029423
|  6>  C        1.3822244975     1.5171356777     0.0863634213
|  7>  C        1.3319863574     0.1033064479     0.6895339983
|  8>  C       -0.0838949523     0.0345767088     0.0930384128
|  9>  C        2.4289869281    -0.9821856183     0.5437365468
| 10>  C        3.2048126690    -0.2323991538     1.6672679693
| 11>  C        1.7216293371    -0.2754787705     2.1413133344
| 12>  C        1.6929721561    -1.7611928259     1.6741517078
| 13>  H        2.1214234253     1.6764550812    -0.7102999904
| 14>  H        1.4511440460     2.3461481653     0.8036207172
| 15>  H       -0.9088491371    -0.0403084389     0.8143655763
| 16>  H       -0.2385400180    -0.7099709902    -0.6995550071
| 17>  H        2.8325621124    -1.3854750972    -0.3866506760
| 18>  H        3.9162915237    -0.8277433265     2.2456459572
| 19>  H        3.6186622816     0.7478409415     1.4168869432
| 20>  H        1.3059997390     0.1396841272     3.0611108408
| 21>  H        0.7162944693    -2.1870720713     1.4301017686
| 22>  H        2.2988175852    -2.4633547005     2.2530107918
| 23> *
| 24>
| 25>                          ****END OF INPUT****

CARTESIAN COORDINATES (ANGSTROEM)
---------------------------------
  O      0.046831    1.369128   -0.439403
  C      1.382224    1.517136    0.086363
  C      1.331986    0.103306    0.689534
  C     -0.083895    0.034577    0.093038
  C      2.428987   -0.982186    0.543737
  C      3.204813   -0.232399    1.667268
  C      1.721629   -0.275479    2.141313
  C      1.692972   -1.761193    1.674152
  H      2.121423    1.676455   -0.710300
  H      1.451144    2.346148    0.803621
  H     -0.908849   -0.040308    0.814366
  H     -0.238540   -0.709971   -0.699555
  H      2.832562   -1.385475   -0.386651
  H      3.916292   -0.827743    2.245646
  H      3.618662    0.747841    1.416887
  H      1.306000    0.139684    3.061111
  H      0.716294   -2.187072    1.430102
  H      2.298818   -2.463355    2.253011

 Total Charge           Charge          ....    0
 Multiplicity           Mult            ....    1
 Number of Electrons    NEL             ....   60
 Basis Dimension        Dim             ....  308

ORBITAL ENERGIES
----------------

  NO   OCC          E(Eh)            E(eV)
   0   2.0000     -20.543366      -559.0134
   1   2.0000     -11.272132      -306.7303
   2   2.0000     -11.272130      -306.7302
   3   2.0000     -11.248601      -306.0900
   4   2.0000     -11.248485      -306.0868
   5   2.0000     -11.245453      -306.0043
   6   2.0000     -11.235534      -305.7344
   7   2.0000     -11.235509      -305.7337
   8   2.0000      -1.372883       -37.3581
   9   2.0000      -1.216452       -33.1013
  10   2.0000      -0.972312       -26.4579
  11   2.0000      -0.941309       -25.6143
  12   2.0000      -0.900670       -24.5085
  13   2.0000      -0.863782       -23.5047
  14   2.0000      -0.811572       -22.0840
  15   2.0000      -0.710267       -19.3273
  16   2.0000      -0.681766       -18.5518
  17   2.0000      -0.662388       -18.0245
  18   2.0000      -0.652292       -17.7498
  19   2.0000      -0.614730       -16.7277
  20   2.0000      -0.559965       -15.2374
  21   2.0000      -0.555819       -15.1246
  22   2.0000      -0.541728       -14.7412
  23   2.0000      -0.490604       -13.3500
  24   2.0000      -0.467992       -12.7347
  25   2.0000      -0.462166       -12.5762
  26   2.0000      -0.446896       -12.1607
  27   2.0000      -0.430609       -11.7175
  28   2.0000      -0.426989       -11.6190
  29   2.0000      -0.401294       -10.9198
  30   0.0000       0.143175         3.8960
  31   0.0000       0.156268         4.2523
  32   0.0000       0.157684         4.2908
  33   0.0000       0.167023         4.5449
  34   0.0000       0.193045         5.2530

MULLIKEN ATOMIC CHARGES
-----------------------
   0 O :   -0.330715
   1 C :   -0.041517
   2 C :   -0.048295
   3 C :   -0.041517
   4 C :   -0.103075
   5 C :   -0.225599
   6 C :   -0.103078
   7 C :   -0.225598
   8 H :    0.098110
   9 H :    0.098110
  10 H :    0.098110
  11 H :    0.098110
  12 H :    0.132783
  13 H :    0.114608
  14 H :    0.116085
  15 H :    0.132783
  16 H :    0.116085
  17 H :    0.114608
Sum of atomic charges:    0.0000000

LOEWDIN ATOMIC CHARGES
----------------------
   0 O :    0.112763
   1 C :   -0.235679
   2 C :   -0.209254
   3 C :   -0.235680
   4 C :   -0.150269
   5 C :   -0.189387
   6 C :   -0.150268
   7 C :   -0.189387
   8 H :    0.119655
   9 H :    0.119655
  10 H :    0.119655
  11 H :    0.119655
  12 H :    0.126362
  13 H :    0.128637
  14 H :    0.129270
  15 H :    0.126362
  16 H :    0.129270
  17 H :    0.128637

  Mayer bond orders larger than 0.1
B(  0-O ,  1-C ) :   0.9665 B(  0-O ,  3-C ) :   0.9665 B(  1-C ,  2-C ) :   0.9985
B(  1-C ,  8-H ) :   0.9057 B(  1-C ,  9-H ) :   0.9057 B(  2-C ,  3-C ) :   0.9985
B(  2-C ,  4-C ) :   0.8384 B(  2-C ,  6-C ) :   0.8384 B(  3-C , 10-H ) :   0.9057
B(  3-C , 11-H ) :   0.9057 B(  4-C ,  5-C ) :   0.9059 B(  4-C ,  7-C ) :   0.9059
B(  4-C , 12-H ) :   0.8859 B(  5-C ,  6-C ) :   0.9059 B(  5-C , 13-H ) :   0.9214
B(  5-C , 14-H ) :   0.9291 B(  6-C ,  7-C ) :   0.9059 B(  6-C , 15-H ) :   0.8859
B(  7-C , 16-H ) :   0.9291 B(  7-C , 17-H ) :   0.9214

MP2 TOTAL ENERGY:     -347.120058348 Eh
FINAL SINGLE POINT ENERGY      -347.120058347817

DIPOLE MOMENT
-------------
                                X             Y             Z
Electronic contribution:     -2.06619       2.03511      -1.81505
Nuclear contribution   :      2.55542      -2.51697       2.24480
                        -----------------------------------------
Total Dipole Moment    :      0.48922      -0.48186       0.42975
                        -----------------------------------------
Magnitude (a.u.)       :      0.81007
Magnitude (Debye)      :      2.05905

                             ****ORCA TERMINATED NORMALLY****
TOTAL RUN TIME: 0 days 0 hours 12 minutes 40 seconds 294 msec
