                         Program Version 3.0.3 - RELEASE   -
|  1> ! RI-MP2 RIJK def2-TZVP def2-TZVP/C def2-TZVP/JK TIGHTSCF
|  2> % maxcore 2000
|  3> % mp2 density relaxed end
|  4> *xyz 0 1
|  5>  C        0.2646748225     1.4749660606     0.0841754843
|  6>  C       -0.0493932612    -0.0197414220    -0.0282526337
|  7>  C        0.6007236395    -0.6599546863    -1.3107841734
|  8>  C        1.8388012845    -1.2817655392    -0.7396620448
|  9>  C        3.0528137393    -1.8702262755    -0.9946665888
| 10>  N        3.5714179933    -2.1963134906     0.2242603796
| 11>  N        2.7638168039    -1.8556687857     1.2787983750
| 12>  C        1.7291009245    -1.3129010257     0.6632602319
| 13>  N        0.5153236194    -0.7962038351     1.1124213431
| 14>  H        1.3466548827     1.6445493115     0.0638895259
| 15>  H       -0.1865436646     2.0309046568    -0.7446563328
| 16>  H       -0.1303611652     1.8913049142     1.0174978045
| 17>  H       -1.1351789350    -0.1578391735    -0.0453501538
| 18>  H       -0.0711051379    -1.4094412919    -1.7466526174
| 19>  H        0.7761034458     0.1010309814    -2.0778166825
| 20>  H        3.5927085366    -2.0822196559    -1.9044615787
| 21>  H        4.4598270943    -2.6220413493     0.4181418503
| 22>  H        0.5413143077    -0.2966916237     1.9919019113
| 23> *
| 24>
| 25>                          ****END OF INPUT****

CARTESIAN COORDINATES (ANGSTROEM)
---------------------------------
  C      0.264675    1.474966    0.084175
  C     -0.049393   -0.019741   -0.028253
  C      0.600724   -0.659955   -1.310784
  C      1.838801   -1.281766   -0.739662
  C      3.052814   -1.870226   -0.994667
  N      3.571418   -2.196313    0.224260
  N      2.763817   -1.855669    1.278798
  C      1.729101   -1.312901    0.663260
  N      0.515324   -0.796204    1.112421
  H      1.346655    1.644549    0.063890
  H     -0.186544    2.030905   -0.744656
  H     -0.130361    1.891305    1.017498
  H     -1.135179   -0.157839   -0.045350
  H     -0.071105   -1.409441   -1.746653
  H      0.776103    0.101031   -2.077817
  H      3.592709   -2.082220   -1.904462
  H      4.459827   -2.622041    0.418142
  H      0.541314   -0.296692    1.991902

 Total Charge           Charge          ....    0
 Multiplicity           Mult            ....    1
 Number of Electrons    NEL             ....   66
 Basis Dimension        Dim             ....  333

ORBITAL ENERGIES
----------------

  NO   OCC          E(Eh)            E(eV)
   0   2.0000     -15.616696      -424.9519
   1   2.0000     -15.563120      -423.4940
   2   2.0000     -15.557089      -423.3299
   3   2.0000     -11.275352      -306.8179
   4   2.0000     -11.270149      -306.6764
   5   2.0000     -11.268689      -306.6366
   6   2.0000     -11.236980      -305.7738
   7   2.0000     -11.220052      -305.3131
   8   2.0000     -11.208116      -304.9884
   9   2.0000      -1.354263       -36.8514
  10   2.0000      -1.238054       -33.6892
  11   2.0000      -1.084136       -29.5008
  12   2.0000      -1.050703       -28.5911
  13   2.0000      -1.017675       -27.6924
  14   2.0000      -0.939226       -25.5576
  15   2.0000      -0.825636       -22.4667
  16   2.0000      -0.796086       -21.6626
  17   2.0000      -0.755773       -20.5656
  18   2.0000      -0.710889       -19.3443
  19   2.0000      -0.657352       -17.8875
  20   2.0000      -0.643407       -17.5080
  21   2.0000      -0.608781       -16.5658
  22   2.0000      -0.586391       -15.9565
  23   2.0000      -0.565947       -15.4002
  24   2.0000      -0.556917       -15.1545
  25   2.0000      -0.541857       -14.7447
  26   2.0000      -0.533019       -14.5042
  27   2.0000      -0.504993       -13.7416
  28   2.0000      -0.479111       -13.0373
  29   2.0000      -0.448163       -12.1951
  30   2.0000      -0.435384       -11.8474
  31   2.0000      -0.336390        -9.1536
  32   2.0000      -0.303699        -8.2641
  33   0.0000       0.134557         3.6615
  34   0.0000       0.144312         3.9269
  35   0.0000       0.150020         4.0822
  36   0.0000       0.171098         4.6558
  37   0.0000       0.181643         4.9428

MULLIKEN ATOMIC CHARGES
-----------------------
   0 C :   -0.462391
   1 C :    0.091572
   2 C :   -0.183788
   3 C :   -0.116799
   4 C :   -0.136010
   5 N :   -0.100106
   6 N :   -0.228112
   7 C :    0.082306
   8 N :   -0.323251
   9 H :    0.149322
  10 H :    0.125746
  11 H :    0.129699
  12 H :    0.103007
  13 H :    0.123388
  14 H :    0.126145
  15 H :    0.146195
  16 H :    0.250629
  17 H :    0.222448
Sum of atomic charges:   -0.0000000

LOEWDIN ATOMIC CHARGES
----------------------
   0 C :   -0.303607
   1 C :   -0.265486
   2 C :   -0.187924
   3 C :   -0.185014
   4 C :   -0.228744
   5 N :    0.119231
   6 N :    0.022174
   7 C :   -0.346286
   8 N :    0.081805
   9 H :    0.129622
  10 H :    0.124292
  11 H :    0.121178
  12 H :    0.139614
  13 H :    0.143183
  14 H :    0.141927
  15 H :    0.135225
  16 H :    0.182155
  17 H :    0.176655

  Mayer bond orders larger than 0.1
B(  0-C ,  1-C ) :   0.9176 B(  0-C ,  9-H ) :   0.9331 B(  0-C , 10-H ) :   0.9328
B(  0-C , 11-H ) :   0.9361 B(  1-C ,  2-C ) :   0.9293 B(  1-C ,  8-N ) :   0.8995
B(  1-C , 12-H ) :   0.9318 B(  2-C ,  3-C ) :   0.9462 B(  2-C , 13-H ) :   0.8923
B(  2-C , 14-H ) :   0.9274 B(  3-C ,  4-C ) :   1.4315 B(  3-C ,  7-C ) :   1.2400
B(  4-C ,  5-N ) :   1.2272 B(  4-C ,  6-N ) :   0.1229 B(  4-C , 15-H ) :   0.9009
B(  5-N ,  6-N ) :   1.0343 B(  5-N , 16-H ) :   0.8755 B(  6-N ,  7-C ) :   1.6299
B(  7-C ,  8-N ) :   1.1118 B(  8-N , 17-H ) :   0.8755

MP2 TOTAL ENERGY:     -397.458241985 Eh
FINAL SINGLE POINT ENERGY      -397.458241984822

DIPOLE MOMENT
-------------
                                X             Y             Z
Electronic contribution:      4.91225      -6.46871       2.45902
Nuclear contribution   :     -4.70104       6.88337      -3.21381
                        -----------------------------------------
Total Dipole Moment    :      0.21121       0.41466      -0.75479
                        -----------------------------------------
Magnitude (a.u.)       :      0.88671
Magnitude (Debye)      :      2.25385

                             ****ORCA TERMINATED NORMALLY****
TOTAL RUN TIME: 0 days 0 hours 18 minutes 14 seconds 903 msec
