                         Program Version 3.0.3 - RELEASE   -
|  1> ! RI-MP2 RIJK def2-TZVP def2-TZVP/C def2-TZVP/JK TIGHTSCF
|  2> % maxcore 2000
|  3> % mp2 density relaxed end
|  4> *xyz 0 1
|  5>  C       -0.2050934373     1.5097637031    -0.0199568003
|  6>  C        0.0377534105     0.0026463348     0.0324751927
|  7>  C        0.9955153829    -0.5538592456    -1.0829162007
|  8>  C        2.0208597847    -1.2926842788    -0.1974971593
|  9>  C        1.1003696288    -1.9910664504     0.8503883845
| 10>  C        0.8057696356    -0.5195442690     1.2747038877
| 11>  C        2.2800896055    -0.2569176833     0.9110401429
| 12>  C        3.4491735459    -0.2284339245     1.8396885327
| 13>  C        3.1407627208     0.9634298322     0.9445040233
| 14>  H        0.7332175301     2.0709369083     0.0083398989
| 15>  H       -0.7283914471     1.7868058874    -0.9418584920
| 16>  H       -0.8224964243     1.8418163117     0.8225024666
| 17>  H       -0.9336896146    -0.5033278837    -0.0221305630
| 18>  H        0.4868293043    -1.2216030652    -1.7846616472
| 19>  H        1.4592619047     0.2527327494    -1.6601164212
| 20>  H        2.8382761417    -1.8183653296    -0.6935771879
| 21>  H        0.2624687859    -2.5880651429     0.4770286945
| 22>  H        1.6638466312    -2.5453707762     1.6027372175
| 23>  H        0.4001288605    -0.2693923105     2.2568059634
| 24>  H        3.2685997767    -0.1180556911     2.9047915849
| 25>  H        4.3205886015    -0.8301593138     1.5994166671
| 26>  H        3.8038026957     1.1532077900     0.1054805569
| 27>  H        2.7621129363     1.8628702677     1.4194165581
| 28> *
| 29>
| 30>                          ****END OF INPUT****

CARTESIAN COORDINATES (ANGSTROEM)
---------------------------------
  C     -0.205093    1.509764   -0.019957
  C      0.037753    0.002646    0.032475
  C      0.995515   -0.553859   -1.082916
  C      2.020860   -1.292684   -0.197497
  C      1.100370   -1.991066    0.850388
  C      0.805770   -0.519544    1.274704
  C      2.280090   -0.256918    0.911040
  C      3.449174   -0.228434    1.839689
  C      3.140763    0.963430    0.944504
  H      0.733218    2.070937    0.008340
  H     -0.728391    1.786806   -0.941858
  H     -0.822496    1.841816    0.822502
  H     -0.933690   -0.503328   -0.022131
  H      0.486829   -1.221603   -1.784662
  H      1.459262    0.252733   -1.660116
  H      2.838276   -1.818365   -0.693577
  H      0.262469   -2.588065    0.477029
  H      1.663847   -2.545371    1.602737
  H      0.400129   -0.269392    2.256806
  H      3.268600   -0.118056    2.904792
  H      4.320589   -0.830159    1.599417
  H      3.803803    1.153208    0.105481
  H      2.762113    1.862870    1.419417

 Total Charge           Charge          ....    0
 Multiplicity           Mult            ....    1
 Number of Electrons    NEL             ....   68
 Basis Dimension        Dim             ....  363

ORBITAL ENERGIES
----------------

  NO   OCC          E(Eh)            E(eV)
   0   2.0000     -11.229936      -305.5821
   1   2.0000     -11.226656      -305.4928
   2   2.0000     -11.225899      -305.4722
   3   2.0000     -11.221628      -305.3560
   4   2.0000     -11.217741      -305.2502
   5   2.0000     -11.217103      -305.2329
   6   2.0000     -11.216927      -305.2281
   7   2.0000     -11.213111      -305.1243
   8   2.0000     -11.206213      -304.9366
   9   2.0000      -1.194175       -32.4952
  10   2.0000      -1.098461       -29.8907
  11   2.0000      -1.008468       -27.4418
  12   2.0000      -0.943352       -25.6699
  13   2.0000      -0.876123       -23.8405
  14   2.0000      -0.834726       -22.7140
  15   2.0000      -0.816711       -22.2238
  16   2.0000      -0.744272       -20.2527
  17   2.0000      -0.705266       -19.1913
  18   2.0000      -0.674003       -18.3406
  19   2.0000      -0.634749       -17.2724
  20   2.0000      -0.622071       -16.9274
  21   2.0000      -0.608550       -16.5595
  22   2.0000      -0.553500       -15.0615
  23   2.0000      -0.546218       -14.8633
  24   2.0000      -0.512682       -13.9508
  25   2.0000      -0.508696       -13.8423
  26   2.0000      -0.503312       -13.6958
  27   2.0000      -0.490479       -13.3466
  28   2.0000      -0.468251       -12.7417
  29   2.0000      -0.445103       -12.1119
  30   2.0000      -0.425270       -11.5722
  31   2.0000      -0.415741       -11.3129
  32   2.0000      -0.398427       -10.8418
  33   2.0000      -0.386899       -10.5281
  34   0.0000       0.140499         3.8232
  35   0.0000       0.154422         4.2020
  36   0.0000       0.155932         4.2431
  37   0.0000       0.167198         4.5497
  38   0.0000       0.192690         5.2434

MULLIKEN ATOMIC CHARGES
-----------------------
   0 C :   -0.440353
   1 C :   -0.055115
   2 C :   -0.273471
   3 C :    0.019163
   4 C :   -0.262956
   5 C :    0.022890
   6 C :   -0.105569
   7 C :   -0.299044
   8 C :   -0.282420
   9 H :    0.133571
  10 H :    0.132439
  11 H :    0.126020
  12 H :    0.094731
  13 H :    0.121790
  14 H :    0.109315
  15 H :    0.116256
  16 H :    0.109718
  17 H :    0.118704
  18 H :    0.115931
  19 H :    0.123265
  20 H :    0.123901
  21 H :    0.124390
  22 H :    0.126843
Sum of atomic charges:    0.0000000

LOEWDIN ATOMIC CHARGES
----------------------
   0 C :   -0.297473
   1 C :   -0.234316
   2 C :   -0.198304
   3 C :   -0.168054
   4 C :   -0.183890
   5 C :   -0.149885
   6 C :   -0.200924
   7 C :   -0.203585
   8 C :   -0.213059
   9 H :    0.124073
  10 H :    0.123514
  11 H :    0.122139
  12 H :    0.146917
  13 H :    0.131325
  14 H :    0.136162
  15 H :    0.133958
  16 H :    0.126104
  17 H :    0.137378
  18 H :    0.135917
  19 H :    0.132805
  20 H :    0.132889
  21 H :    0.133851
  22 H :    0.132458

  Mayer bond orders larger than 0.1
B(  0-C ,  1-C ) :   0.8955 B(  0-C ,  9-H ) :   0.9402 B(  0-C , 10-H ) :   0.9408
B(  0-C , 11-H ) :   0.9408 B(  1-C ,  2-C ) :   0.9507 B(  1-C ,  5-C ) :   0.8815
B(  1-C , 12-H ) :   0.9276 B(  2-C ,  3-C ) :   0.9038 B(  2-C , 13-H ) :   0.9264
B(  2-C , 14-H ) :   0.9294 B(  3-C ,  4-C ) :   0.9327 B(  3-C ,  6-C ) :   0.8457
B(  3-C , 15-H ) :   0.9082 B(  4-C ,  5-C ) :   0.9258 B(  4-C , 16-H ) :   0.9210
B(  4-C , 17-H ) :   0.9199 B(  5-C ,  6-C ) :   0.8393 B(  5-C , 18-H ) :   0.9071
B(  6-C ,  7-C ) :   0.8702 B(  6-C ,  8-C ) :   0.8601 B(  7-C ,  8-C ) :   0.9622
B(  7-C , 19-H ) :   0.9199 B(  7-C , 20-H ) :   0.9202 B(  8-C , 21-H ) :   0.9186
B(  8-C , 22-H ) :   0.9208

MP2 TOTAL ENERGY:     -350.488982799 Eh
FINAL SINGLE POINT ENERGY      -350.488982799233

DIPOLE MOMENT
-------------
                                X             Y             Z
Electronic contribution:      1.36990      -2.32477       0.82228
Nuclear contribution   :     -1.39430       2.28664      -0.81937
                        -----------------------------------------
Total Dipole Moment    :     -0.02440      -0.03813       0.00290
                        -----------------------------------------
Magnitude (a.u.)       :      0.04536
Magnitude (Debye)      :      0.11530

                             ****ORCA TERMINATED NORMALLY****
TOTAL RUN TIME: 0 days 0 hours 22 minutes 36 seconds 375 msec
