                         Program Version 3.0.3 - RELEASE   -
|  1> ! RI-MP2 RIJK def2-TZVP def2-TZVP/C def2-TZVP/JK TIGHTSCF
|  2> % maxcore 2000
|  3> % mp2 density relaxed end
|  4> *xyz 0 1
|  5>  O       -0.0451665790     1.4626536651     0.0504143526
|  6>  C        0.0159631042     0.0532573853    -0.0867774427
|  7>  C       -1.3821830484    -0.4986684583     0.1646328740
|  8>  C       -1.4521506462    -2.0170705860     0.0792828942
|  9>  C       -2.8697167584    -2.6639246143     0.0927841830
| 10>  C       -2.5063555023    -3.2345887602    -1.3002798288
| 11>  O       -3.0266686746    -3.9560088402    -2.1067613603
| 12>  N       -1.2899299193    -2.5925557315    -1.2686072314
| 13>  H        0.8293411434     1.8226735669    -0.1234775620
| 14>  H        0.3528161048    -0.2347015486    -1.0965471602
| 15>  H        0.7253704311    -0.3897423789     0.6324188326
| 16>  H       -1.7069003806    -0.1812084369     1.1627850723
| 17>  H       -2.0750640517    -0.0562509752    -0.5600585757
| 18>  H       -0.7720369010    -2.4737070173     0.8100505307
| 19>  H       -3.0366811761    -3.4258341568     0.8558052282
| 20>  H       -3.7014186121    -1.9566835123     0.0887997126
| 21>  H       -0.4903524038    -2.6688054606    -1.8802390990
| 22> *
| 23>
| 24>                          ****END OF INPUT****

CARTESIAN COORDINATES (ANGSTROEM)
---------------------------------
  O     -0.045167    1.462654    0.050414
  C      0.015963    0.053257   -0.086777
  C     -1.382183   -0.498668    0.164633
  C     -1.452151   -2.017071    0.079283
  C     -2.869717   -2.663925    0.092784
  C     -2.506356   -3.234589   -1.300280
  O     -3.026669   -3.956009   -2.106761
  N     -1.289930   -2.592556   -1.268607
  H      0.829341    1.822674   -0.123478
  H      0.352816   -0.234702   -1.096547
  H      0.725370   -0.389742    0.632419
  H     -1.706900   -0.181208    1.162785
  H     -2.075064   -0.056251   -0.560059
  H     -0.772037   -2.473707    0.810051
  H     -3.036681   -3.425834    0.855805
  H     -3.701419   -1.956684    0.088800
  H     -0.490352   -2.668805   -1.880239

 Total Charge           Charge          ....    0
 Multiplicity           Mult            ....    1
 Number of Electrons    NEL             ....   62
 Basis Dimension        Dim             ....  302

ORBITAL ENERGIES
----------------

  NO   OCC          E(Eh)            E(eV)
   0   2.0000     -20.567307      -559.6649
   1   2.0000     -20.524375      -558.4966
   2   2.0000     -15.584050      -424.0636
   3   2.0000     -11.351166      -308.8809
   4   2.0000     -11.290558      -307.2317
   5   2.0000     -11.289555      -307.2044
   6   2.0000     -11.248680      -306.0922
   7   2.0000     -11.234678      -305.7111
   8   2.0000      -1.386862       -37.7384
   9   2.0000      -1.372024       -37.3347
  10   2.0000      -1.269741       -34.5514
  11   2.0000      -1.058199       -28.7951
  12   2.0000      -1.001399       -27.2495
  13   2.0000      -0.897035       -24.4096
  14   2.0000      -0.820384       -22.3238
  15   2.0000      -0.786500       -21.4018
  16   2.0000      -0.711233       -19.3536
  17   2.0000      -0.697900       -18.9908
  18   2.0000      -0.658758       -17.9257
  19   2.0000      -0.642672       -17.4880
  20   2.0000      -0.638219       -17.3668
  21   2.0000      -0.593751       -16.1568
  22   2.0000      -0.570286       -15.5183
  23   2.0000      -0.535351       -14.5676
  24   2.0000      -0.533556       -14.5188
  25   2.0000      -0.524127       -14.2622
  26   2.0000      -0.517204       -14.0738
  27   2.0000      -0.482823       -13.1383
  28   2.0000      -0.457057       -12.4372
  29   2.0000      -0.417159       -11.3515
  30   2.0000      -0.399179       -10.8622
  31   0.0000       0.122334         3.3289
  32   0.0000       0.136229         3.7070
  33   0.0000       0.149747         4.0748
  34   0.0000       0.158623         4.3163
  35   0.0000       0.169819         4.6210

MULLIKEN ATOMIC CHARGES
-----------------------
   0 O :   -0.460850
   1 C :   -0.079720
   2 C :   -0.179561
   3 C :    0.035963
   4 C :   -0.232597
   5 C :    0.220672
   6 O :   -0.312780
   7 N :   -0.349259
   8 H :    0.317174
   9 H :    0.089517
  10 H :    0.093734
  11 H :    0.119150
  12 H :    0.120117
  13 H :    0.111536
  14 H :    0.136357
  15 H :    0.135662
  16 H :    0.234888
Sum of atomic charges:   -0.0000000

LOEWDIN ATOMIC CHARGES
----------------------
   0 O :   -0.046425
   1 C :   -0.353810
   2 C :   -0.254995
   3 C :   -0.248364
   4 C :   -0.179946
   5 C :   -0.441340
   6 O :    0.101574
   7 N :    0.133463
   8 H :    0.173661
   9 H :    0.112591
  10 H :    0.114816
  11 H :    0.147883
  12 H :    0.146595
  13 H :    0.140801
  14 H :    0.141116
  15 H :    0.143563
  16 H :    0.168818

  Mayer bond orders larger than 0.1
B(  0-O ,  1-C ) :   1.0230 B(  0-O ,  8-H ) :   0.8473 B(  1-C ,  2-C ) :   0.9265
B(  1-C ,  9-H ) :   0.9345 B(  1-C , 10-H ) :   0.9273 B(  2-C ,  3-C ) :   0.9009
B(  2-C , 11-H ) :   0.9220 B(  2-C , 12-H ) :   0.9149 B(  3-C ,  4-C ) :   0.8991
B(  3-C ,  7-N ) :   0.8651 B(  3-C , 13-H ) :   0.9287 B(  4-C ,  5-C ) :   0.8945
B(  4-C , 14-H ) :   0.9089 B(  4-C , 15-H ) :   0.9035 B(  5-C ,  6-O ) :   2.0293
B(  5-C ,  7-N ) :   1.1422 B(  7-N , 16-H ) :   0.8593

MP2 TOTAL ENERGY:     -400.368732352 Eh
FINAL SINGLE POINT ENERGY      -400.368732352308

DIPOLE MOMENT
-------------
                                X             Y             Z
Electronic contribution:     -2.21873      -4.07200      -3.74022
Nuclear contribution   :      3.61416       4.69336       4.52765
                        -----------------------------------------
Total Dipole Moment    :      1.39543       0.62136       0.78743
                        -----------------------------------------
Magnitude (a.u.)       :      1.71853
Magnitude (Debye)      :      4.36816

                             ****ORCA TERMINATED NORMALLY****
TOTAL RUN TIME: 0 days 0 hours 10 minutes 34 seconds 749 msec
