                         Program Version 3.0.3 - RELEASE   -
|  1> ! RI-MP2 RIJK def2-TZVP def2-TZVP/C def2-TZVP/JK TIGHTSCF
|  2> % maxcore 2000
|  3> % mp2 density relaxed end
|  4> *xyz 0 1
|  5>  C        0.0008434599     1.3942351838     0.0678193788
|  6>  O        0.0504368015    -0.0354706155    -0.0025970690
|  7>  C        0.6608819415    -0.6675750651     0.9973527529
|  8>  C        0.7919967295    -2.0095230058     1.2102985016
|  9>  N        0.3100007327    -3.1373087204     0.4999075194
| 10>  C        1.5179009147    -2.0548157937     2.4391299517
| 11>  N        1.9401002649    -3.2173759279     3.0440062688
| 12>  N        1.7984124855    -0.8617591871     2.9235016019
| 13>  O        1.2239224450     0.0439626998     1.9739366554
| 14>  H        1.0083481030     1.8196290200     0.0682684684
| 15>  H       -0.5404270781     1.7121514576    -0.8231721855
| 16>  H       -0.5275791329     1.7226765956     0.9674692621
| 17>  H       -0.6051158785    -2.9585821160     0.1011254990
| 18>  H        0.9249426748    -3.4004001380    -0.2648231972
| 19>  H        1.3527696846    -4.0078930589     2.8150906494
| 20>  H        2.1333073119    -3.1297287585     4.0313265523
| 21> *
| 22>
| 23>                          ****END OF INPUT****

CARTESIAN COORDINATES (ANGSTROEM)
---------------------------------
  C      0.000843    1.394235    0.067819
  O      0.050437   -0.035471   -0.002597
  C      0.660882   -0.667575    0.997353
  C      0.791997   -2.009523    1.210299
  N      0.310001   -3.137309    0.499908
  C      1.517901   -2.054816    2.439130
  N      1.940100   -3.217376    3.044006
  N      1.798412   -0.861759    2.923502
  O      1.223922    0.043963    1.973937
  H      1.008348    1.819629    0.068268
  H     -0.540427    1.712151   -0.823172
  H     -0.527579    1.722677    0.967469
  H     -0.605116   -2.958582    0.101125
  H      0.924943   -3.400400   -0.264823
  H      1.352770   -4.007893    2.815091
  H      2.133307   -3.129729    4.031327

 Total Charge           Charge          ....    0
 Multiplicity           Mult            ....    1
 Number of Electrons    NEL             ....   68
 Basis Dimension        Dim             ....  321

ORBITAL ENERGIES
----------------

  NO   OCC          E(Eh)            E(eV)
   0   2.0000     -20.625197      -561.2402
   1   2.0000     -20.615890      -560.9869
   2   2.0000     -15.582484      -424.0209
   3   2.0000     -15.572245      -423.7423
   4   2.0000     -15.565195      -423.5505
   5   2.0000     -11.368490      -309.3523
   6   2.0000     -11.307002      -307.6792
   7   2.0000     -11.297821      -307.4294
   8   2.0000     -11.246981      -306.0459
   9   2.0000      -1.493792       -40.6482
  10   2.0000      -1.420493       -38.6536
  11   2.0000      -1.248100       -33.9625
  12   2.0000      -1.196208       -32.5505
  13   2.0000      -1.106224       -30.1019
  14   2.0000      -1.035662       -28.1818
  15   2.0000      -0.960620       -26.1398
  16   2.0000      -0.809781       -22.0352
  17   2.0000      -0.802923       -21.8487
  18   2.0000      -0.739552       -20.1242
  19   2.0000      -0.700600       -19.0643
  20   2.0000      -0.690802       -18.7977
  21   2.0000      -0.674725       -18.3602
  22   2.0000      -0.662107       -18.0169
  23   2.0000      -0.623017       -16.9532
  24   2.0000      -0.618632       -16.8338
  25   2.0000      -0.601157       -16.3583
  26   2.0000      -0.569535       -15.4978
  27   2.0000      -0.541144       -14.7253
  28   2.0000      -0.522655       -14.2222
  29   2.0000      -0.506693       -13.7878
  30   2.0000      -0.469945       -12.7879
  31   2.0000      -0.432531       -11.7698
  32   2.0000      -0.361074        -9.8253
  33   2.0000      -0.327014        -8.8985
  34   0.0000       0.128455         3.4954
  35   0.0000       0.148310         4.0357
  36   0.0000       0.155263         4.2249
  37   0.0000       0.165880         4.5138
  38   0.0000       0.195172         5.3109

MULLIKEN ATOMIC CHARGES
-----------------------
   0 C :   -0.220913
   1 O :   -0.280216
   2 C :    0.296915
   3 C :   -0.012524
   4 N :   -0.581742
   5 C :    0.185091
   6 N :   -0.517173
   7 N :   -0.202409
   8 O :   -0.139462
   9 H :    0.145129
  10 H :    0.148823
  11 H :    0.143237
  12 H :    0.255234
  13 H :    0.255681
  14 H :    0.268631
  15 H :    0.255697
Sum of atomic charges:    0.0000000

LOEWDIN ATOMIC CHARGES
----------------------
   0 C :   -0.303931
   1 O :    0.238993
   2 C :   -0.407139
   3 C :   -0.277009
   4 N :   -0.116005
   5 C :   -0.383270
   6 N :   -0.055566
   7 N :    0.008411
   8 O :    0.263584
   9 H :    0.114692
  10 H :    0.116988
  11 H :    0.114334
  12 H :    0.167476
  13 H :    0.167661
  14 H :    0.177288
  15 H :    0.173490

  Mayer bond orders larger than 0.1
B(  0-C ,  1-O ) :   0.8386 B(  0-C ,  9-H ) :   0.9369 B(  0-C , 10-H ) :   0.9350
B(  0-C , 11-H ) :   0.9359 B(  1-O ,  2-C ) :   1.1407 B(  2-C ,  3-C ) :   1.4875
B(  2-C ,  7-N ) :   0.1082 B(  2-C ,  8-O ) :   1.1499 B(  3-C ,  4-N ) :   0.9749
B(  3-C ,  5-C ) :   1.1973 B(  4-N , 12-H ) :   0.8882 B(  4-N , 13-H ) :   0.8801
B(  5-C ,  6-N ) :   1.0926 B(  5-C ,  7-N ) :   1.6389 B(  6-N , 14-H ) :   0.8579
B(  6-N , 15-H ) :   0.8724 B(  7-N ,  8-O ) :   0.8082

MP2 TOTAL ENERGY:     -470.426489722 Eh
FINAL SINGLE POINT ENERGY      -470.426489721879

DIPOLE MOMENT
-------------
                                X             Y             Z
Electronic contribution:      1.63646       0.00260       2.16329
Nuclear contribution   :     -2.41452      -0.12308      -2.97790
                        -----------------------------------------
Total Dipole Moment    :     -0.77806      -0.12048      -0.81461
                        -----------------------------------------
Magnitude (a.u.)       :      1.13291
Magnitude (Debye)      :      2.87962

                             ****ORCA TERMINATED NORMALLY****
TOTAL RUN TIME: 0 days 0 hours 16 minutes 3 seconds 299 msec
