                         Program Version 3.0.3 - RELEASE   -
|  1> ! RI-MP2 RIJK def2-TZVP def2-TZVP/C def2-TZVP/JK TIGHTSCF
|  2> % maxcore 2000
|  3> % mp2 density relaxed end
|  4> *xyz 0 1
|  5>  C       -0.1381821269     1.5395488446    -0.0309194853
|  6>  C        0.0087940909     0.0202264822    -0.0752719588
|  7>  C        0.9448587896    -0.5382963987    -1.2025972344
|  8>  C        2.4249068209    -0.4756702441    -0.6419140281
|  9>  C        1.8191215061    -1.4650861062     0.3828310842
| 10>  C        2.0302052006    -2.2777484974     1.6773260744
| 11>  C        0.5892344224    -1.7937464441     2.0974716748
| 12>  C        0.7958693710    -0.5929868583     1.1186787111
| 13>  C        0.9859264812    -2.0327290312    -0.8007095543
| 14>  H        0.8354309950     2.0324067078     0.0687225563
| 15>  H       -0.6111622517     1.9210929968    -0.9424655044
| 16>  H       -0.7541783599     1.8519294270     0.8194992496
| 17>  H       -0.9848409744    -0.4281826415    -0.1950570036
| 18>  H        0.7296665738    -0.2255529006    -2.2261879923
| 19>  H        3.1286311736    -0.9052370291    -1.3600703118
| 20>  H        2.8089042300     0.4742104702    -0.2581933317
| 21>  H        2.2076590040    -3.3520971395     1.5823225164
| 22>  H        2.7938344298    -1.8473954107     2.3325586773
| 23>  H       -0.1834522087    -2.4941988687     1.7718339370
| 24>  H        0.4285112604    -1.5575022621     3.1517772873
| 25>  H        1.3073471781     0.2024493276     1.6749875870
| 26>  H        0.0347711458    -2.5327476688    -0.5950402723
| 27>  H        1.5949242084    -2.6467003053    -1.4700818484
| 28> *
| 29>
| 30>                          ****END OF INPUT****

CARTESIAN COORDINATES (ANGSTROEM)
---------------------------------
  C     -0.138182    1.539549   -0.030919
  C      0.008794    0.020226   -0.075272
  C      0.944859   -0.538296   -1.202597
  C      2.424907   -0.475670   -0.641914
  C      1.819122   -1.465086    0.382831
  C      2.030205   -2.277748    1.677326
  C      0.589234   -1.793746    2.097472
  C      0.795869   -0.592987    1.118679
  C      0.985926   -2.032729   -0.800710
  H      0.835431    2.032407    0.068723
  H     -0.611162    1.921093   -0.942466
  H     -0.754178    1.851929    0.819499
  H     -0.984841   -0.428183   -0.195057
  H      0.729667   -0.225553   -2.226188
  H      3.128631   -0.905237   -1.360070
  H      2.808904    0.474210   -0.258193
  H      2.207659   -3.352097    1.582323
  H      2.793834   -1.847395    2.332559
  H     -0.183452   -2.494199    1.771834
  H      0.428511   -1.557502    3.151777
  H      1.307347    0.202449    1.674988
  H      0.034771   -2.532748   -0.595040
  H      1.594924   -2.646700   -1.470082

 Total Charge           Charge          ....    0
 Multiplicity           Mult            ....    1
 Number of Electrons    NEL             ....   68
 Basis Dimension        Dim             ....  363

ORBITAL ENERGIES
----------------

  NO   OCC          E(Eh)            E(eV)
   0   2.0000     -11.228204      -305.5350
   1   2.0000     -11.225166      -305.4523
   2   2.0000     -11.224201      -305.4260
   3   2.0000     -11.222466      -305.3788
   4   2.0000     -11.221776      -305.3600
   5   2.0000     -11.221515      -305.3529
   6   2.0000     -11.213664      -305.1393
   7   2.0000     -11.211469      -305.0796
   8   2.0000     -11.208388      -304.9958
   9   2.0000      -1.195462       -32.5302
  10   2.0000      -1.066009       -29.0076
  11   2.0000      -1.017197       -27.6793
  12   2.0000      -0.899580       -24.4788
  13   2.0000      -0.895969       -24.3806
  14   2.0000      -0.853881       -23.2353
  15   2.0000      -0.831634       -22.6299
  16   2.0000      -0.735679       -20.0188
  17   2.0000      -0.709556       -19.3080
  18   2.0000      -0.660128       -17.9630
  19   2.0000      -0.630480       -17.1562
  20   2.0000      -0.606019       -16.4906
  21   2.0000      -0.589211       -16.0332
  22   2.0000      -0.549676       -14.9574
  23   2.0000      -0.545306       -14.8385
  24   2.0000      -0.527904       -14.3650
  25   2.0000      -0.512407       -13.9433
  26   2.0000      -0.498859       -13.5746
  27   2.0000      -0.481883       -13.1127
  28   2.0000      -0.465801       -12.6751
  29   2.0000      -0.440096       -11.9756
  30   2.0000      -0.429757       -11.6943
  31   2.0000      -0.419212       -11.4073
  32   2.0000      -0.410635       -11.1740
  33   2.0000      -0.378091       -10.2884
  34   0.0000       0.141573         3.8524
  35   0.0000       0.152373         4.1463
  36   0.0000       0.159802         4.3484
  37   0.0000       0.165569         4.5054
  38   0.0000       0.184837         5.0297

MULLIKEN ATOMIC CHARGES
-----------------------
   0 C :   -0.423744
   1 C :   -0.061672
   2 C :   -0.046513
   3 C :   -0.261610
   4 C :    0.063120
   5 C :   -0.221893
   6 C :   -0.208189
   7 C :   -0.176420
   8 C :   -0.265510
   9 H :    0.122174
  10 H :    0.130850
  11 H :    0.134082
  12 H :    0.095192
  13 H :    0.116064
  14 H :    0.116371
  15 H :    0.110601
  16 H :    0.115925
  17 H :    0.115072
  18 H :    0.111768
  19 H :    0.117746
  20 H :    0.089518
  21 H :    0.109072
  22 H :    0.117997
Sum of atomic charges:    0.0000000

LOEWDIN ATOMIC CHARGES
----------------------
   0 C :   -0.298206
   1 C :   -0.225587
   2 C :   -0.171028
   3 C :   -0.180395
   4 C :   -0.216293
   5 C :   -0.202587
   6 C :   -0.211833
   7 C :   -0.159892
   8 C :   -0.177214
   9 H :    0.121894
  10 H :    0.122145
  11 H :    0.124014
  12 H :    0.149764
  13 H :    0.131041
  14 H :    0.134611
  15 H :    0.125227
  16 H :    0.124330
  17 H :    0.136664
  18 H :    0.131491
  19 H :    0.121373
  20 H :    0.154864
  21 H :    0.128274
  22 H :    0.137342

  Mayer bond orders larger than 0.1
B(  0-C ,  1-C ) :   0.8891 B(  0-C ,  9-H ) :   0.9351 B(  0-C , 10-H ) :   0.9433
B(  0-C , 11-H ) :   0.9426 B(  1-C ,  2-C ) :   0.9003 B(  1-C ,  7-C ) :   0.9269
B(  1-C , 12-H ) :   0.9178 B(  2-C ,  3-C ) :   0.9218 B(  2-C ,  8-C ) :   0.9157
B(  2-C , 13-H ) :   0.9180 B(  3-C ,  4-C ) :   0.8976 B(  3-C , 14-H ) :   0.9181
B(  3-C , 15-H ) :   0.9186 B(  4-C ,  5-C ) :   0.8876 B(  4-C ,  7-C ) :   0.8829
B(  4-C ,  8-C ) :   0.9246 B(  5-C ,  6-C ) :   0.9589 B(  5-C , 16-H ) :   0.9215
B(  5-C , 17-H ) :   0.9201 B(  6-C ,  7-C ) :   0.9198 B(  6-C , 18-H ) :   0.9171
B(  6-C , 19-H ) :   0.9261 B(  7-C , 20-H ) :   0.9297 B(  8-C , 21-H ) :   0.9142
B(  8-C , 22-H ) :   0.9244

MP2 TOTAL ENERGY:     -350.473948380 Eh
FINAL SINGLE POINT ENERGY      -350.473948379608

DIPOLE MOMENT
-------------
                                X             Y             Z
Electronic contribution:      1.10947      -1.94727      -0.36608
Nuclear contribution   :     -1.14572       1.94212       0.35434
                        -----------------------------------------
Total Dipole Moment    :     -0.03626      -0.00515      -0.01175
                        -----------------------------------------
Magnitude (a.u.)       :      0.03846
Magnitude (Debye)      :      0.09775

                             ****ORCA TERMINATED NORMALLY****
TOTAL RUN TIME: 0 days 0 hours 22 minutes 33 seconds 870 msec
