                         Program Version 3.0.3 - RELEASE   -
|  1> ! RI-MP2 RIJK def2-TZVP def2-TZVP/C def2-TZVP/JK TIGHTSCF
|  2> % maxcore 2000
|  3> % mp2 density relaxed end
|  4> *xyz 0 1
|  5>  O        0.2486071659     0.0312483561     0.2477293791
|  6>  C        0.0951913060     1.2072322915     0.1726708568
|  7>  C       -1.1071374983     2.1623437322     0.0999239318
|  8>  C       -0.0593917375     3.2701380004     0.0234156916
|  9>  C        0.9336337703     3.2224563558     1.1066079296
| 10>  C        0.6423368604     2.8009178659     2.5422435281
| 11>  C        1.8533601010     2.3817997876     3.2491047988
| 12>  N        2.8127574256     2.0705129499     3.8113502495
| 13>  N        1.1005664886     2.2496315137    -0.0137892259
| 14>  H       -1.6542862723     2.0265068916    -0.8364497014
| 15>  H       -1.8191772048     2.1609492111     0.9288256923
| 16>  H       -0.0774013497     4.0790724851    -0.6968552661
| 17>  H        1.7129122203     3.9781529274     1.0485485856
| 18>  H        0.2107839247     3.6554810094     3.0773573608
| 19>  H       -0.0901383001     1.9906797821     2.5953620696
| 20> *
| 21>
| 22>                          ****END OF INPUT****

CARTESIAN COORDINATES (ANGSTROEM)
---------------------------------
  O      0.248607    0.031248    0.247729
  C      0.095191    1.207232    0.172671
  C     -1.107137    2.162344    0.099924
  C     -0.059392    3.270138    0.023416
  C      0.933634    3.222456    1.106608
  C      0.642337    2.800918    2.542244
  C      1.853360    2.381800    3.249105
  N      2.812757    2.070513    3.811350
  N      1.100566    2.249632   -0.013789
  H     -1.654286    2.026507   -0.836450
  H     -1.819177    2.160949    0.928826
  H     -0.077401    4.079072   -0.696855
  H      1.712912    3.978153    1.048549
  H      0.210784    3.655481    3.077357
  H     -0.090138    1.990680    2.595362

 Total Charge           Charge          ....    0
 Multiplicity           Mult            ....    1
 Number of Electrons    NEL             ....   64
 Basis Dimension        Dim             ....  315

ORBITAL ENERGIES
----------------

  NO   OCC          E(Eh)            E(eV)
   0   2.0000     -20.572948      -559.8184
   1   2.0000     -15.604990      -424.6334
   2   2.0000     -15.580807      -423.9753
   3   2.0000     -11.379488      -309.6516
   4   2.0000     -11.325241      -308.1755
   5   2.0000     -11.311468      -307.8007
   6   2.0000     -11.311374      -307.7981
   7   2.0000     -11.284308      -307.0616
   8   2.0000     -11.280888      -306.9686
   9   2.0000      -1.430890       -38.9365
  10   2.0000      -1.331770       -36.2393
  11   2.0000      -1.229302       -33.4510
  12   2.0000      -1.091548       -29.7025
  13   2.0000      -1.035526       -28.1781
  14   2.0000      -0.958413       -26.0797
  15   2.0000      -0.829645       -22.5758
  16   2.0000      -0.758830       -20.6488
  17   2.0000      -0.736032       -20.0285
  18   2.0000      -0.703648       -19.1472
  19   2.0000      -0.689399       -18.7595
  20   2.0000      -0.676165       -18.3994
  21   2.0000      -0.639333       -17.3971
  22   2.0000      -0.606893       -16.5144
  23   2.0000      -0.581998       -15.8370
  24   2.0000      -0.564953       -15.3732
  25   2.0000      -0.557199       -15.1622
  26   2.0000      -0.539578       -14.6827
  27   2.0000      -0.486411       -13.2359
  28   2.0000      -0.474036       -12.8992
  29   2.0000      -0.462316       -12.5803
  30   2.0000      -0.448954       -12.2167
  31   2.0000      -0.414436       -11.2774
  32   0.0000       0.111726         3.0402
  33   0.0000       0.117939         3.2093
  34   0.0000       0.140084         3.8119
  35   0.0000       0.143502         3.9049
  36   0.0000       0.162800         4.4300

MULLIKEN ATOMIC CHARGES
-----------------------
   0 O :   -0.217314
   1 C :    0.152806
   2 C :   -0.263829
   3 C :   -0.044337
   4 C :   -0.045478
   5 C :   -0.127526
   6 C :   -0.179486
   7 N :   -0.047612
   8 N :   -0.190419
   9 H :    0.157458
  10 H :    0.151927
  11 H :    0.155479
  12 H :    0.150562
  13 H :    0.171103
  14 H :    0.176665
Sum of atomic charges:   -0.0000000

LOEWDIN ATOMIC CHARGES
----------------------
   0 O :    0.187790
   1 C :   -0.390065
   2 C :   -0.201429
   3 C :   -0.173130
   4 C :   -0.213829
   5 C :   -0.219092
   6 C :   -0.183149
   7 N :    0.072314
   8 N :    0.168246
   9 H :    0.157628
  10 H :    0.141505
  11 H :    0.141671
  12 H :    0.164688
  13 H :    0.174226
  14 H :    0.172626

  Mayer bond orders larger than 0.1
B(  0-O ,  1-C ) :   2.0733 B(  1-C ,  2-C ) :   0.9359 B(  1-C ,  8-N ) :   0.9513
B(  2-C ,  3-C ) :   0.9103 B(  2-C ,  9-H ) :   0.9017 B(  2-C , 10-H ) :   0.9062
B(  3-C ,  4-C ) :   0.9637 B(  3-C ,  8-N ) :   0.8320 B(  3-C , 11-H ) :   0.8997
B(  4-C ,  5-C ) :   0.8919 B(  4-C ,  8-N ) :   0.8734 B(  4-C , 12-H ) :   0.9183
B(  5-C ,  6-C ) :   0.9514 B(  5-C , 13-H ) :   0.9002 B(  5-C , 14-H ) :   0.9049
B(  6-C ,  7-N ) :   2.8593

MP2 TOTAL ENERGY:     -416.085418131 Eh
FINAL SINGLE POINT ENERGY      -416.085418131433

DIPOLE MOMENT
-------------
                                X             Y             Z
Electronic contribution:      3.61322      -3.12895       0.70733
Nuclear contribution   :     -5.53937       4.78177      -1.16969
                        -----------------------------------------
Total Dipole Moment    :     -1.92615       1.65282      -0.46235
                        -----------------------------------------
Magnitude (a.u.)       :      2.57985
Magnitude (Debye)      :      6.55747

                             ****ORCA TERMINATED NORMALLY****
TOTAL RUN TIME: 0 days 0 hours 15 minutes 28 seconds 413 msec
