                         Program Version 3.0.3 - RELEASE   -
|  1> ! RI-MP2 RIJK def2-TZVP def2-TZVP/C def2-TZVP/JK TIGHTSCF
|  2> % maxcore 2000
|  3> % mp2 density relaxed end
|  4> *xyz 0 1
|  5>  O        0.1239607358     0.6919323014     1.6061527081
|  6>  C        0.0783266633     1.4281211808     0.6494494116
|  7>  N        1.1137066814     1.6966042612    -0.2102331734
|  8>  C        2.3883701255     1.0865585873    -0.1604415488
|  9>  C        3.1248954035     0.8812467871     1.1044843958
| 10>  C        3.7751036676     1.7819086829     0.0538216234
| 11>  C        4.3264265364     0.9333554598    -1.0491615737
| 12>  O        5.3594087021     0.9283994759    -1.6554410470
| 13>  C        2.9781594512     0.1876919926    -1.2637136184
| 14>  H       -0.8290186801     1.9954279316     0.3606356831
| 15>  H        0.9049333504     2.2855416498    -1.0031543303
| 16>  H        2.7456789163     1.4212996059     1.9634184339
| 17>  H        3.5466047839    -0.0916838663     1.3378517083
| 18>  H        4.0243168595     2.8107879749     0.2826821992
| 19>  H        2.9465843857    -0.8935462106    -1.1008091656
| 20>  H        2.5906511774     0.4132056656    -2.2624910462
| 21> *
| 22>
| 23>                          ****END OF INPUT****

CARTESIAN COORDINATES (ANGSTROEM)
---------------------------------
  O      0.123961    0.691932    1.606153
  C      0.078327    1.428121    0.649449
  N      1.113707    1.696604   -0.210233
  C      2.388370    1.086559   -0.160442
  C      3.124895    0.881247    1.104484
  C      3.775104    1.781909    0.053822
  C      4.326427    0.933355   -1.049162
  O      5.359409    0.928399   -1.655441
  C      2.978159    0.187692   -1.263714
  H     -0.829019    1.995428    0.360636
  H      0.904933    2.285542   -1.003154
  H      2.745679    1.421300    1.963418
  H      3.546605   -0.091684    1.337852
  H      4.024317    2.810788    0.282682
  H      2.946584   -0.893546   -1.100809
  H      2.590651    0.413206   -2.262491

 Total Charge           Charge          ....    0
 Multiplicity           Mult            ....    1
 Number of Electrons    NEL             ....   66
 Basis Dimension        Dim             ....  321

ORBITAL ENERGIES
----------------

  NO   OCC          E(Eh)            E(eV)
   0   2.0000     -20.552684      -559.2670
   1   2.0000     -20.541691      -558.9678
   2   2.0000     -15.614938      -424.9041
   3   2.0000     -11.368360      -309.3488
   4   2.0000     -11.342215      -308.6374
   5   2.0000     -11.310696      -307.7797
   6   2.0000     -11.262224      -306.4607
   7   2.0000     -11.260233      -306.4065
   8   2.0000     -11.256148      -306.2954
   9   2.0000      -1.403288       -38.1854
  10   2.0000      -1.397658       -38.0322
  11   2.0000      -1.277646       -34.7665
  12   2.0000      -1.191797       -32.4304
  13   2.0000      -1.001841       -27.2615
  14   2.0000      -0.918041       -24.9812
  15   2.0000      -0.877091       -23.8669
  16   2.0000      -0.785100       -21.3636
  17   2.0000      -0.754001       -20.5174
  18   2.0000      -0.738543       -20.0968
  19   2.0000      -0.695798       -18.9336
  20   2.0000      -0.671713       -18.2782
  21   2.0000      -0.641249       -17.4493
  22   2.0000      -0.631000       -17.1704
  23   2.0000      -0.602050       -16.3826
  24   2.0000      -0.597848       -16.2683
  25   2.0000      -0.567498       -15.4424
  26   2.0000      -0.556644       -15.1471
  27   2.0000      -0.529296       -14.4029
  28   2.0000      -0.471922       -12.8417
  29   2.0000      -0.451764       -12.2931
  30   2.0000      -0.448074       -12.1927
  31   2.0000      -0.407807       -11.0970
  32   2.0000      -0.384629       -10.4663
  33   0.0000       0.113098         3.0776
  34   0.0000       0.129461         3.5228
  35   0.0000       0.150625         4.0987
  36   0.0000       0.161280         4.3887
  37   0.0000       0.168614         4.5882

MULLIKEN ATOMIC CHARGES
-----------------------
   0 O :   -0.339037
   1 C :    0.199633
   2 N :   -0.354717
   3 C :    0.124381
   4 C :   -0.231864
   5 C :   -0.112078
   6 C :    0.112289
   7 O :   -0.258119
   8 C :   -0.208580
   9 H :    0.084239
  10 H :    0.243300
  11 H :    0.160739
  12 H :    0.149035
  13 H :    0.157264
  14 H :    0.143942
  15 H :    0.129573
Sum of atomic charges:   -0.0000000

LOEWDIN ATOMIC CHARGES
----------------------
   0 O :    0.081127
   1 C :   -0.419035
   2 N :    0.123375
   3 C :   -0.239704
   4 C :   -0.150492
   5 C :   -0.119054
   6 C :   -0.309028
   7 O :    0.158211
   8 C :   -0.162144
   9 H :    0.111874
  10 H :    0.193095
  11 H :    0.154864
  12 H :    0.142107
  13 H :    0.145623
  14 H :    0.140485
  15 H :    0.148698

  Mayer bond orders larger than 0.1
B(  0-O ,  1-C ) :   1.9177 B(  1-C ,  2-N ) :   1.1085 B(  1-C ,  9-H ) :   0.9272
B(  2-N ,  3-C ) :   0.8276 B(  2-N , 10-H ) :   0.8665 B(  3-C ,  4-C ) :   0.9122
B(  3-C ,  5-C ) :   0.8305 B(  3-C ,  8-C ) :   0.9255 B(  4-C ,  5-C ) :   0.8299
B(  4-C , 11-H ) :   0.9262 B(  4-C , 12-H ) :   0.9160 B(  5-C ,  6-C ) :   0.9080
B(  5-C ,  8-C ) :  -0.1308 B(  5-C , 13-H ) :   0.9056 B(  6-C ,  7-O ) :   2.0309
B(  6-C ,  8-C ) :   0.9263 B(  8-C , 14-H ) :   0.8963 B(  8-C , 15-H ) :   0.9021

MP2 TOTAL ENERGY:     -437.167088090 Eh
FINAL SINGLE POINT ENERGY      -437.167088090471

DIPOLE MOMENT
-------------
                                X             Y             Z
Electronic contribution:      1.07840       0.30515      -0.68583
Nuclear contribution   :     -1.83280       0.44727       0.24356
                        -----------------------------------------
Total Dipole Moment    :     -0.75440       0.75242      -0.44227
                        -----------------------------------------
Magnitude (a.u.)       :      1.15363
Magnitude (Debye)      :      2.93229

                             ****ORCA TERMINATED NORMALLY****
TOTAL RUN TIME: 0 days 0 hours 15 minutes 1 seconds 608 msec
