                         Program Version 3.0.3 - RELEASE   -
|  1> ! RI-MP2 RIJK def2-TZVP def2-TZVP/C def2-TZVP/JK TIGHTSCF
|  2> % maxcore 2000
|  3> % mp2 density relaxed end
|  4> *xyz 0 1
|  5>  C       -0.0780305424     1.4913024358     0.1405998060
|  6>  N        1.3282607852     1.8933796425    -0.1678024622
|  7>  C        2.1743564851     0.7292910908    -0.5859551266
|  8>  C        1.2447528757    -0.4188635826    -0.3683269113
|  9>  C        0.0362952513     0.0162189462     0.0176043044
| 10>  O       -0.7715719745    -1.0523656660     0.2398343174
| 11>  C        0.0475467078    -2.1130329073    -0.0485286610
| 12>  N        1.2540327357    -1.8043716979    -0.4104961795
| 13>  H       -0.3687428375     1.8218653134     1.1476599705
| 14>  H       -0.8017827082     1.9288135075    -0.5628739898
| 15>  H        1.3361144928     2.6067568242    -0.8827204666
| 16>  H        2.5040504052     0.8170711977    -1.6307163424
| 17>  H        3.0792626064     0.6704463813     0.0329936530
| 18>  H       -0.3929985625    -3.0924570056     0.0506974481
| 19> *
| 20>
| 21>                          ****END OF INPUT****

CARTESIAN COORDINATES (ANGSTROEM)
---------------------------------
  C     -0.078031    1.491302    0.140600
  N      1.328261    1.893380   -0.167802
  C      2.174356    0.729291   -0.585955
  C      1.244753   -0.418864   -0.368327
  C      0.036295    0.016219    0.017604
  O     -0.771572   -1.052366    0.239834
  C      0.047547   -2.113033   -0.048529
  N      1.254033   -1.804372   -0.410496
  H     -0.368743    1.821865    1.147660
  H     -0.801783    1.928814   -0.562874
  H      1.336114    2.606757   -0.882720
  H      2.504050    0.817071   -1.630716
  H      3.079263    0.670446    0.032994
  H     -0.392999   -3.092457    0.050697

 Total Charge           Charge          ....    0
 Multiplicity           Mult            ....    1
 Number of Electrons    NEL             ....   58
 Basis Dimension        Dim             ....  284

ORBITAL ENERGIES
----------------

  NO   OCC          E(Eh)            E(eV)
   0   2.0000     -20.642812      -561.7195
   1   2.0000     -15.573089      -423.7653
   2   2.0000     -15.554868      -423.2695
   3   2.0000     -11.337972      -308.5219
   4   2.0000     -11.281712      -306.9910
   5   2.0000     -11.277127      -306.8662
   6   2.0000     -11.267618      -306.6075
   7   2.0000     -11.249206      -306.1065
   8   2.0000      -1.486114       -40.4392
   9   2.0000      -1.245207       -33.8838
  10   2.0000      -1.217145       -33.1202
  11   2.0000      -1.036787       -28.2124
  12   2.0000      -0.986903       -26.8550
  13   2.0000      -0.876375       -23.8474
  14   2.0000      -0.824993       -22.4492
  15   2.0000      -0.782212       -21.2851
  16   2.0000      -0.712052       -19.3759
  17   2.0000      -0.686177       -18.6718
  18   2.0000      -0.654478       -17.8093
  19   2.0000      -0.624311       -16.9884
  20   2.0000      -0.593549       -16.1513
  21   2.0000      -0.577787       -15.7224
  22   2.0000      -0.561577       -15.2813
  23   2.0000      -0.546545       -14.8722
  24   2.0000      -0.524898       -14.2832
  25   2.0000      -0.458681       -12.4814
  26   2.0000      -0.453600       -12.3431
  27   2.0000      -0.387177       -10.5356
  28   2.0000      -0.323848        -8.8123
  29   0.0000       0.131612         3.5814
  30   0.0000       0.138584         3.7711
  31   0.0000       0.168162         4.5759
  32   0.0000       0.175596         4.7782
  33   0.0000       0.177280         4.8240

MULLIKEN ATOMIC CHARGES
-----------------------
   0 C :   -0.115504
   1 N :   -0.351665
   2 C :   -0.142372
   3 C :    0.021846
   4 C :    0.098665
   5 O :   -0.219433
   6 C :    0.104032
   7 N :   -0.270768
   8 H :    0.125035
   9 H :    0.127841
  10 H :    0.214828
  11 H :    0.126988
  12 H :    0.123636
  13 H :    0.156870
Sum of atomic charges:    0.0000000

LOEWDIN ATOMIC CHARGES
----------------------
   0 C :   -0.246336
   1 N :   -0.016384
   2 C :   -0.238293
   3 C :   -0.237590
   4 C :   -0.245615
   5 O :    0.344291
   6 C :   -0.305425
   7 N :    0.121812
   8 H :    0.134474
   9 H :    0.131216
  10 H :    0.162340
  11 H :    0.130050
  12 H :    0.133576
  13 H :    0.131884

  Mayer bond orders larger than 0.1
B(  0-C ,  1-N ) :   0.9582 B(  0-C ,  4-C ) :   0.9414 B(  0-C ,  8-H ) :   0.9133
B(  0-C ,  9-H ) :   0.9190 B(  1-N ,  2-C ) :   0.9462 B(  1-N , 10-H ) :   0.8852
B(  2-C ,  3-C ) :   0.9326 B(  2-C , 11-H ) :   0.9250 B(  2-C , 12-H ) :   0.9170
B(  3-C ,  4-C ) :   1.5381 B(  3-C ,  7-N ) :   1.2149 B(  4-C ,  5-O ) :   1.0421
B(  5-O ,  6-C ) :   1.0636 B(  6-C ,  7-N ) :   1.6403 B(  6-C , 13-H ) :   0.9292

MP2 TOTAL ENERGY:     -378.091431256 Eh
FINAL SINGLE POINT ENERGY      -378.091431256119

DIPOLE MOMENT
-------------
                                X             Y             Z
Electronic contribution:     -1.92788      -4.71017       0.60773
Nuclear contribution   :      1.41428       5.18021      -0.89514
                        -----------------------------------------
Total Dipole Moment    :     -0.51360       0.47004      -0.28742
                        -----------------------------------------
Magnitude (a.u.)       :      0.75322
Magnitude (Debye)      :      1.91452

                             ****ORCA TERMINATED NORMALLY****
TOTAL RUN TIME: 0 days 0 hours 11 minutes 21 seconds 48 msec
