                         Program Version 3.0.3 - RELEASE   -
|  1> ! RI-MP2 RIJK def2-TZVP def2-TZVP/C def2-TZVP/JK TIGHTSCF
|  2> % maxcore 2000
|  3> % mp2 density relaxed end
|  4> *xyz 0 1
|  5>  O       -0.1418457145     1.4842458931    -0.0084330052
|  6>  C       -0.0470954424     0.0884712769    -0.0555311532
|  7>  C       -0.4931986855    -0.7223583581     1.1353537107
|  8>  C       -1.3404766685    -0.6743209881    -0.1241419414
|  9>  C       -2.6427934383     0.0558985979    -0.1263884216
| 10>  C       -3.5386709386     0.0263114137    -1.3297067391
| 11>  C       -3.9654021654    -0.7082917862    -0.0645584272
| 12>  C       -3.9901446802    -2.1409090385    -0.0380809084
| 13>  C       -4.0160013843    -3.3439147421    -0.0090568870
| 14>  H        0.5351217776     1.8054743113     0.5959957526
| 15>  H        0.7887406801    -0.2890519974    -0.6447990820
| 16>  H        0.0314294427    -1.6386825440     1.3824743346
| 17>  H       -0.8598928488    -0.1618316177     1.9895353255
| 18>  H       -1.3286589501    -1.5706264441    -0.7361956822
| 19>  H       -2.6299170262     0.9850919190     0.4322043688
| 20>  H       -4.0868053573     0.9219449421    -1.5994551224
| 21>  H       -3.2373197986    -0.5907756463    -2.1689048373
| 22>  H       -4.7514444343    -0.2340196522     0.5161283819
| 23>  H       -4.0427471874    -4.4047187394     0.0160786029
| 24> *
| 25>
| 26>                          ****END OF INPUT****

CARTESIAN COORDINATES (ANGSTROEM)
---------------------------------
  O     -0.141846    1.484246   -0.008433
  C     -0.047095    0.088471   -0.055531
  C     -0.493199   -0.722358    1.135354
  C     -1.340477   -0.674321   -0.124142
  C     -2.642793    0.055899   -0.126388
  C     -3.538671    0.026311   -1.329707
  C     -3.965402   -0.708292   -0.064558
  C     -3.990145   -2.140909   -0.038081
  C     -4.016001   -3.343915   -0.009057
  H      0.535122    1.805474    0.595996
  H      0.788741   -0.289052   -0.644799
  H      0.031429   -1.638683    1.382474
  H     -0.859893   -0.161832    1.989535
  H     -1.328659   -1.570626   -0.736196
  H     -2.629917    0.985092    0.432204
  H     -4.086805    0.921945   -1.599455
  H     -3.237320   -0.590776   -2.168905
  H     -4.751444   -0.234020    0.516128
  H     -4.042747   -4.404719    0.016079

 Total Charge           Charge          ....    0
 Multiplicity           Mult            ....    1
 Number of Electrons    NEL             ....   66
 Basis Dimension        Dim             ....  339

ORBITAL ENERGIES
----------------

  NO   OCC          E(Eh)            E(eV)
   0   2.0000     -20.564396      -559.5857
   1   2.0000     -11.283359      -307.0358
   2   2.0000     -11.251673      -306.1736
   3   2.0000     -11.241742      -305.9034
   4   2.0000     -11.233939      -305.6910
   5   2.0000     -11.232341      -305.6475
   6   2.0000     -11.229991      -305.5836
   7   2.0000     -11.224610      -305.4372
   8   2.0000     -11.214127      -305.1519
   9   2.0000      -1.373473       -37.3741
  10   2.0000      -1.169517       -31.8242
  11   2.0000      -1.117650       -30.4128
  12   2.0000      -1.017809       -27.6960
  13   2.0000      -0.884760       -24.0755
  14   2.0000      -0.853020       -23.2118
  15   2.0000      -0.826925       -22.5018
  16   2.0000      -0.776744       -21.1363
  17   2.0000      -0.716502       -19.4970
  18   2.0000      -0.699463       -19.0333
  19   2.0000      -0.683278       -18.5929
  20   2.0000      -0.648962       -17.6592
  21   2.0000      -0.635820       -17.3015
  22   2.0000      -0.597734       -16.2652
  23   2.0000      -0.551641       -15.0109
  24   2.0000      -0.542314       -14.7571
  25   2.0000      -0.517594       -14.0845
  26   2.0000      -0.498200       -13.5567
  27   2.0000      -0.484978       -13.1969
  28   2.0000      -0.467760       -12.7284
  29   2.0000      -0.407884       -11.0991
  30   2.0000      -0.399030       -10.8582
  31   2.0000      -0.367458        -9.9990
  32   2.0000      -0.350378        -9.5343
  33   0.0000       0.141922         3.8619
  34   0.0000       0.149355         4.0642
  35   0.0000       0.160590         4.3699
  36   0.0000       0.170019         4.6265
  37   0.0000       0.174313         4.7433

MULLIKEN ATOMIC CHARGES
-----------------------
   0 O :   -0.470814
   1 C :    0.008519
   2 C :   -0.287256
   3 C :   -0.056640
   4 C :   -0.102056
   5 C :   -0.229265
   6 C :   -0.256737
   7 C :   -0.011620
   8 C :   -0.145115
   9 H :    0.324151
  10 H :    0.107849
  11 H :    0.129993
  12 H :    0.132567
  13 H :    0.134212
  14 H :    0.132113
  15 H :    0.135477
  16 H :    0.133167
  17 H :    0.135284
  18 H :    0.186172
Sum of atomic charges:    0.0000000

LOEWDIN ATOMIC CHARGES
----------------------
   0 O :   -0.004621
   1 C :   -0.316902
   2 C :   -0.213389
   3 C :   -0.187359
   4 C :   -0.170544
   5 C :   -0.175473
   6 C :   -0.189059
   7 C :   -0.095225
   8 C :   -0.107312
   9 H :    0.180617
  10 H :    0.129596
  11 H :    0.131646
  12 H :    0.137893
  13 H :    0.158557
  14 H :    0.158443
  15 H :    0.134109
  16 H :    0.140832
  17 H :    0.163080
  18 H :    0.125109

  Mayer bond orders larger than 0.1
B(  0-O ,  1-C ) :   1.0381 B(  0-O ,  3-C ) :  -0.1069 B(  0-O ,  9-H ) :   0.8404
B(  1-C ,  2-C ) :   0.9074 B(  1-C ,  3-C ) :   0.8585 B(  1-C , 10-H ) :   0.9552
B(  2-C ,  3-C ) :   0.8659 B(  2-C , 11-H ) :   0.9187 B(  2-C , 12-H ) :   0.9245
B(  3-C ,  4-C ) :   0.9455 B(  3-C , 13-H ) :   0.9048 B(  4-C ,  5-C ) :   0.8837
B(  4-C ,  6-C ) :   0.8344 B(  4-C , 14-H ) :   0.9209 B(  5-C ,  6-C ) :   0.8508
B(  5-C , 15-H ) :   0.9241 B(  5-C , 16-H ) :   0.9280 B(  6-C ,  7-C ) :   1.1920
B(  6-C ,  8-C ) :  -0.1327 B(  6-C , 17-H ) :   0.9397 B(  7-C ,  8-C ) :   2.5492
B(  8-C , 18-H ) :   0.9003

MP2 TOTAL ENERGY:     -385.134108173 Eh
FINAL SINGLE POINT ENERGY      -385.134108173202

DIPOLE MOMENT
-------------
                                X             Y             Z
Electronic contribution:     -1.28167      -0.52636      -0.09004
Nuclear contribution   :      1.82762       0.59378       0.38903
                        -----------------------------------------
Total Dipole Moment    :      0.54594       0.06742       0.29900
                        -----------------------------------------
Magnitude (a.u.)       :      0.62610
Magnitude (Debye)      :      1.59141

                             ****ORCA TERMINATED NORMALLY****
TOTAL RUN TIME: 0 days 0 hours 18 minutes 3 seconds 123 msec
