                         Program Version 3.0.3 - RELEASE   -
|  1> ! RI-MP2 RIJK def2-TZVP def2-TZVP/C def2-TZVP/JK TIGHTSCF
|  2> % maxcore 2000
|  3> % mp2 density relaxed end
|  4> *xyz 0 1
|  5>  N        0.9375981966    -0.2051862736     0.4308411595
|  6>  C       -0.1549114342     0.3677516007    -0.1422545169
|  7>  O       -0.1383311430     1.3810849899    -0.8169286167
|  8>  C       -1.4243686214    -0.3764392390     0.0865014616
|  9>  O       -1.5015173232    -1.4281761988     1.0587813705
| 10>  C       -1.8416977351    -1.7397728445    -0.2879635942
| 11>  C       -3.2864641732    -1.2144751170    -0.6061481987
| 12>  N       -3.8130020863    -0.5795142415     0.6249004602
| 13>  C       -2.8622067246     0.1539940486    -0.2376670859
| 14>  H        1.8146394679     0.2861275515     0.3809703765
| 15>  H        0.8130716034    -0.9388909388     1.1086602373
| 16>  H       -1.2972565456    -2.5313250236    -0.7886141041
| 17>  H       -3.9251781503    -1.5631419542    -1.4055621223
| 18>  H       -4.7434023673    -0.2301457163     0.3926835445
| 19>  H       -3.0735693636     1.1103138364    -0.6928009114
| 20> *
| 21>
| 22>                          ****END OF INPUT****

CARTESIAN COORDINATES (ANGSTROEM)
---------------------------------
  N      0.937598   -0.205186    0.430841
  C     -0.154911    0.367752   -0.142255
  O     -0.138331    1.381085   -0.816929
  C     -1.424369   -0.376439    0.086501
  O     -1.501517   -1.428176    1.058781
  C     -1.841698   -1.739773   -0.287964
  C     -3.286464   -1.214475   -0.606148
  N     -3.813002   -0.579514    0.624900
  C     -2.862207    0.153994   -0.237667
  H      1.814639    0.286128    0.380970
  H      0.813072   -0.938891    1.108660
  H     -1.297257   -2.531325   -0.788614
  H     -3.925178   -1.563142   -1.405562
  H     -4.743402   -0.230146    0.392684
  H     -3.073569    1.110314   -0.692801

 Total Charge           Charge          ....    0
 Multiplicity           Mult            ....    1
 Number of Electrons    NEL             ....   66
 Basis Dimension        Dim             ....  315

ORBITAL ENERGIES
----------------

  NO   OCC          E(Eh)            E(eV)
   0   2.0000     -20.595083      -560.4207
   1   2.0000     -20.528149      -558.5993
   2   2.0000     -15.587867      -424.1674
   3   2.0000     -15.578548      -423.9138
   4   2.0000     -11.364750      -309.2506
   5   2.0000     -11.315911      -307.9216
   6   2.0000     -11.310823      -307.7831
   7   2.0000     -11.283035      -307.0270
   8   2.0000     -11.281764      -306.9924
   9   2.0000      -1.451038       -39.4847
  10   2.0000      -1.388967       -37.7957
  11   2.0000      -1.278856       -34.7994
  12   2.0000      -1.218672       -33.1618
  13   2.0000      -1.022340       -27.8193
  14   2.0000      -0.941849       -25.6290
  15   2.0000      -0.870222       -23.6800
  16   2.0000      -0.816141       -22.2083
  17   2.0000      -0.766510       -20.8578
  18   2.0000      -0.763956       -20.7883
  19   2.0000      -0.709169       -19.2975
  20   2.0000      -0.687586       -18.7102
  21   2.0000      -0.647116       -17.6089
  22   2.0000      -0.628710       -17.1081
  23   2.0000      -0.597241       -16.2517
  24   2.0000      -0.586153       -15.9500
  25   2.0000      -0.560055       -15.2399
  26   2.0000      -0.516050       -14.0424
  27   2.0000      -0.498598       -13.5675
  28   2.0000      -0.485208       -13.2032
  29   2.0000      -0.440221       -11.9790
  30   2.0000      -0.425857       -11.5882
  31   2.0000      -0.420408       -11.4399
  32   2.0000      -0.364244        -9.9116
  33   0.0000       0.133442         3.6311
  34   0.0000       0.136840         3.7236
  35   0.0000       0.141894         3.8611
  36   0.0000       0.169030         4.5995
  37   0.0000       0.178396         4.8544

MULLIKEN ATOMIC CHARGES
-----------------------
   0 N :   -0.476771
   1 C :    0.210831
   2 O :   -0.346851
   3 C :    0.256682
   4 O :   -0.313420
   5 C :   -0.011975
   6 C :   -0.055099
   7 N :   -0.341577
   8 C :   -0.156805
   9 H :    0.259149
  10 H :    0.279553
  11 H :    0.151668
  12 H :    0.154630
  13 H :    0.224661
  14 H :    0.165324
Sum of atomic charges:    0.0000000

LOEWDIN ATOMIC CHARGES
----------------------
   0 N :   -0.001999
   1 C :   -0.461014
   2 O :    0.092032
   3 C :   -0.218355
   4 O :    0.219412
   5 C :   -0.190212
   6 C :   -0.215377
   7 N :    0.017170
   8 C :   -0.185278
   9 H :    0.175595
  10 H :    0.179528
  11 H :    0.135840
  12 H :    0.132748
  13 H :    0.178026
  14 H :    0.141885

  Mayer bond orders larger than 0.1
B(  0-N ,  1-C ) :   1.2209 B(  0-N ,  9-H ) :   0.8605 B(  0-N , 10-H ) :   0.8534
B(  1-C ,  2-O ) :   1.9997 B(  1-C ,  3-C ) :   0.8641 B(  3-C ,  4-O ) :   0.8564
B(  3-C ,  5-C ) :   0.9568 B(  3-C ,  8-C ) :   0.8457 B(  4-O ,  5-C ) :   0.9325
B(  5-C ,  6-C ) :   0.8806 B(  5-C , 11-H ) :   0.9071 B(  6-C ,  7-N ) :   0.9588
B(  6-C ,  8-C ) :   0.9709 B(  6-C , 12-H ) :   0.9104 B(  7-N ,  8-C ) :   0.9968
B(  7-N , 13-H ) :   0.8633 B(  8-C , 14-H ) :   0.9254

MP2 TOTAL ENERGY:     -453.135261428 Eh
FINAL SINGLE POINT ENERGY      -453.135261428460

DIPOLE MOMENT
-------------
                                X             Y             Z
Electronic contribution:      1.14080       0.69074       0.74551
Nuclear contribution   :     -1.17885      -1.41303      -1.08516
                        -----------------------------------------
Total Dipole Moment    :     -0.03806      -0.72228      -0.33965
                        -----------------------------------------
Magnitude (a.u.)       :      0.79907
Magnitude (Debye)      :      2.03106

                             ****ORCA TERMINATED NORMALLY****
TOTAL RUN TIME: 0 days 0 hours 16 minutes 56 seconds 666 msec
