                         Program Version 3.0.3 - RELEASE   -
|  1> ! RI-MP2 RIJK def2-TZVP def2-TZVP/C def2-TZVP/JK TIGHTSCF
|  2> % maxcore 2000
|  3> % mp2 density relaxed end
|  4> *xyz 0 1
|  5>  O        0.1088288768     1.4720594076     0.2600421171
|  6>  C        0.0530668345     0.0555837474     0.2983340581
|  7>  C       -1.2929648886    -0.4814429903    -0.2078098111
|  8>  C       -1.3883272728    -1.9877332862    -0.1145363060
|  9>  O       -0.4241759950    -2.5663380243    -0.9489498688
| 10>  C       -1.7709999843    -2.6629415140     1.1550831811
| 11>  C       -2.7481427511    -2.7100836156    -0.0264715615
| 12>  C       -4.0357347064    -1.9898374516     0.0498329058
| 13>  O       -5.0314528257    -2.3083946219    -0.5540336291
| 14>  H        0.1175488616     1.7424891250    -0.6636028309
| 15>  H        0.8737607373    -0.4022160771    -0.2688681504
| 16>  H        0.1894657941    -0.2191801636     1.3500530223
| 17>  H       -2.0944819735    -0.0103747592     0.3672367805
| 18>  H       -1.4318192604    -0.1881683027    -1.2564915091
| 19>  H       -0.2984929978    -3.4883338940    -0.7038984100
| 20>  H       -1.2870260937    -3.5949003140     1.4310381054
| 21>  H       -2.0551697445    -2.0443712473     2.0015659614
| 22>  H       -2.7988442811    -3.6353698829    -0.5918832290
| 23>  H       -4.0392137692    -1.1071609753     0.7309105842
| 24> *
| 25>
| 26>                          ****END OF INPUT****

CARTESIAN COORDINATES (ANGSTROEM)
---------------------------------
  O      0.108829    1.472059    0.260042
  C      0.053067    0.055584    0.298334
  C     -1.292965   -0.481443   -0.207810
  C     -1.388327   -1.987733   -0.114536
  O     -0.424176   -2.566338   -0.948950
  C     -1.771000   -2.662942    1.155083
  C     -2.748143   -2.710084   -0.026472
  C     -4.035735   -1.989837    0.049833
  O     -5.031453   -2.308395   -0.554034
  H      0.117549    1.742489   -0.663603
  H      0.873761   -0.402216   -0.268868
  H      0.189466   -0.219180    1.350053
  H     -2.094482   -0.010375    0.367237
  H     -1.431819   -0.188168   -1.256492
  H     -0.298493   -3.488334   -0.703898
  H     -1.287026   -3.594900    1.431038
  H     -2.055170   -2.044371    2.001566
  H     -2.798844   -3.635370   -0.591883
  H     -4.039214   -1.107161    0.730911

 Total Charge           Charge          ....    0
 Multiplicity           Mult            ....    1
 Number of Electrons    NEL             ....   70
 Basis Dimension        Dim             ....  339

ORBITAL ENERGIES
----------------

  NO   OCC          E(Eh)            E(eV)
   0   2.0000     -20.586304      -560.1818
   1   2.0000     -20.561393      -559.5040
   2   2.0000     -20.554484      -559.3160
   3   2.0000     -11.336262      -308.4754
   4   2.0000     -11.325531      -308.1834
   5   2.0000     -11.281650      -306.9893
   6   2.0000     -11.261637      -306.4447
   7   2.0000     -11.254413      -306.2481
   8   2.0000     -11.242462      -305.9229
   9   2.0000      -1.401416       -38.1345
  10   2.0000      -1.393007       -37.9056
  11   2.0000      -1.365571       -37.1591
  12   2.0000      -1.165504       -31.7150
  13   2.0000      -1.037910       -28.2430
  14   2.0000      -0.923091       -25.1186
  15   2.0000      -0.886949       -24.1351
  16   2.0000      -0.820752       -22.3338
  17   2.0000      -0.782674       -21.2976
  18   2.0000      -0.732905       -19.9434
  19   2.0000      -0.694813       -18.9068
  20   2.0000      -0.683660       -18.6033
  21   2.0000      -0.660363       -17.9694
  22   2.0000      -0.627751       -17.0820
  23   2.0000      -0.612320       -16.6621
  24   2.0000      -0.605975       -16.4894
  25   2.0000      -0.583310       -15.8727
  26   2.0000      -0.562482       -15.3059
  27   2.0000      -0.556159       -15.1339
  28   2.0000      -0.548830       -14.9344
  29   2.0000      -0.530926       -14.4472
  30   2.0000      -0.491779       -13.3820
  31   2.0000      -0.461961       -12.5706
  32   2.0000      -0.456823       -12.4308
  33   2.0000      -0.423573       -11.5260
  34   2.0000      -0.394525       -10.7356
  35   0.0000       0.115235         3.1357
  36   0.0000       0.126047         3.4299
  37   0.0000       0.136281         3.7084
  38   0.0000       0.148860         4.0507
  39   0.0000       0.173602         4.7240

MULLIKEN ATOMIC CHARGES
-----------------------
   0 O :   -0.467689
   1 C :   -0.049756
   2 C :   -0.223154
   3 C :    0.160418
   4 O :   -0.442017
   5 C :   -0.314235
   6 C :   -0.054120
   7 C :    0.047925
   8 O :   -0.269504
   9 H :    0.315793
  10 H :    0.126977
  11 H :    0.109489
  12 H :    0.113407
  13 H :    0.122015
  14 H :    0.321144
  15 H :    0.151114
  16 H :    0.144061
  17 H :    0.133952
  18 H :    0.074179
Sum of atomic charges:    0.0000000

LOEWDIN ATOMIC CHARGES
----------------------
   0 O :   -0.049377
   1 C :   -0.338493
   2 C :   -0.234593
   3 C :   -0.336669
   4 O :    0.041823
   5 C :   -0.183729
   6 C :   -0.182862
   7 C :   -0.296774
   8 O :    0.127256
   9 H :    0.174180
  10 H :    0.121066
  11 H :    0.128739
  12 H :    0.146499
  13 H :    0.147119
  14 H :    0.181666
  15 H :    0.138618
  16 H :    0.144593
  17 H :    0.157945
  18 H :    0.112994

  Mayer bond orders larger than 0.1
B(  0-O ,  1-C ) :   0.9371 B(  0-O ,  9-H ) :   0.8476 B(  1-C ,  2-C ) :   0.9191
B(  1-C , 10-H ) :   0.9423 B(  1-C , 11-H ) :   0.9231 B(  2-C ,  3-C ) :   0.9111
B(  2-C , 12-H ) :   0.9291 B(  2-C , 13-H ) :   0.9151 B(  3-C ,  4-O ) :   1.0044
B(  3-C ,  5-C ) :   0.9055 B(  3-C ,  6-C ) :   0.7745 B(  4-O , 14-H ) :   0.8347
B(  5-C ,  6-C ) :   0.8017 B(  5-C , 15-H ) :   0.9186 B(  5-C , 16-H ) :   0.9087
B(  6-C ,  7-C ) :   0.8925 B(  6-C , 17-H ) :   0.9164 B(  7-C ,  8-O ) :   1.9798
B(  7-C , 18-H ) :   0.9499

MP2 TOTAL ENERGY:     -459.414059284 Eh
FINAL SINGLE POINT ENERGY      -459.414059283907

DIPOLE MOMENT
-------------
                                X             Y             Z
Electronic contribution:     -3.80893      -1.73651      -2.15713
Nuclear contribution   :      4.75029       1.19581       2.49063
                        -----------------------------------------
Total Dipole Moment    :      0.94137      -0.54070       0.33350
                        -----------------------------------------
Magnitude (a.u.)       :      1.13567
Magnitude (Debye)      :      2.88664

                             ****ORCA TERMINATED NORMALLY****
TOTAL RUN TIME: 0 days 0 hours 15 minutes 45 seconds 232 msec
