                         Program Version 3.0.3 - RELEASE   -
|  1> ! RI-MP2 RIJK def2-TZVP def2-TZVP/C def2-TZVP/JK TIGHTSCF
|  2> % maxcore 2000
|  3> % mp2 density relaxed end
|  4> *xyz 0 1
|  5>  C       -0.0338968832     1.4835412093     0.0073532091
|  6>  N       -0.0130834169     0.0291312923     0.0943421320
|  7>  N       -0.0337558815    -0.6970916099    -1.0296879957
|  8>  N       -0.0092226086    -1.9703425675    -0.7089746406
|  9>  C        0.0281740012    -2.0824976145     0.6352385915
| 10>  C        0.0261231704    -0.8102415334     1.1627883492
| 11>  N        0.0574033148    -0.3933467157     2.5321491690
| 12>  O        0.0911670783    -1.2832238898     3.3704952402
| 13>  O        0.0484162205     0.8131937697     2.7648648520
| 14>  H        0.8600276371     1.9010011299     0.4712738827
| 15>  H       -0.0653429837     1.7216959512    -1.0551007365
| 16>  H       -0.9120403711     1.8784904681     0.5186942015
| 17>  H        0.0539164225    -3.0270360898     1.1513150456
| 18> *
| 19>
| 20>                          ****END OF INPUT****

CARTESIAN COORDINATES (ANGSTROEM)
---------------------------------
  C     -0.033897    1.483541    0.007353
  N     -0.013083    0.029131    0.094342
  N     -0.033756   -0.697092   -1.029688
  N     -0.009223   -1.970343   -0.708975
  C      0.028174   -2.082498    0.635239
  C      0.026123   -0.810242    1.162788
  N      0.057403   -0.393347    2.532149
  O      0.091167   -1.283224    3.370495
  O      0.048416    0.813194    2.764865
  H      0.860028    1.901001    0.471274
  H     -0.065343    1.721696   -1.055101
  H     -0.912040    1.878490    0.518694
  H      0.053916   -3.027036    1.151315

 Total Charge           Charge          ....    0
 Multiplicity           Mult            ....    1
 Number of Electrons    NEL             ....   66
 Basis Dimension        Dim             ....  303

ORBITAL ENERGIES
----------------

  NO   OCC          E(Eh)            E(eV)
   0   2.0000     -20.627230      -561.2955
   1   2.0000     -20.626352      -561.2716
   2   2.0000     -15.886482      -432.2932
   3   2.0000     -15.708433      -427.4482
   4   2.0000     -15.682155      -426.7331
   5   2.0000     -15.627661      -425.2503
   6   2.0000     -11.357681      -309.0582
   7   2.0000     -11.305660      -307.6427
   8   2.0000     -11.305092      -307.6272
   9   2.0000      -1.633862       -44.4596
  10   2.0000      -1.480314       -40.2814
  11   2.0000      -1.426697       -38.8224
  12   2.0000      -1.258007       -34.2321
  13   2.0000      -1.161150       -31.5965
  14   2.0000      -1.037560       -28.2334
  15   2.0000      -1.003968       -27.3194
  16   2.0000      -0.882167       -24.0050
  17   2.0000      -0.841733       -22.9047
  18   2.0000      -0.794379       -21.6162
  19   2.0000      -0.758685       -20.6449
  20   2.0000      -0.747794       -20.3485
  21   2.0000      -0.712480       -19.3876
  22   2.0000      -0.695382       -18.9223
  23   2.0000      -0.652606       -17.7583
  24   2.0000      -0.610348       -16.6084
  25   2.0000      -0.602939       -16.4068
  26   2.0000      -0.556934       -15.1549
  27   2.0000      -0.526233       -14.3195
  28   2.0000      -0.520124       -14.1533
  29   2.0000      -0.479936       -13.0597
  30   2.0000      -0.474605       -12.9146
  31   2.0000      -0.439702       -11.9649
  32   2.0000      -0.402264       -10.9462
  33   0.0000       0.024456         0.6655
  34   0.0000       0.131526         3.5790
  35   0.0000       0.133559         3.6343
  36   0.0000       0.162479         4.4213
  37   0.0000       0.177848         4.8395

MULLIKEN ATOMIC CHARGES
-----------------------
   0 C :   -0.308961
   1 N :    0.137097
   2 N :   -0.163236
   3 N :   -0.130243
   4 C :   -0.133749
   5 C :    0.068859
   6 N :    0.408927
   7 O :   -0.275895
   8 O :   -0.297598
   9 H :    0.168193
  10 H :    0.183486
  11 H :    0.168196
  12 H :    0.174924
Sum of atomic charges:   -0.0000000

LOEWDIN ATOMIC CHARGES
----------------------
   0 C :   -0.260076
   1 N :    0.196448
   2 N :   -0.011735
   3 N :    0.032899
   4 C :   -0.227150
   5 C :   -0.256321
   6 N :   -0.055415
   7 O :    0.025854
   8 O :    0.006685
   9 H :    0.131363
  10 H :    0.137183
  11 H :    0.131363
  12 H :    0.148904

  Mayer bond orders larger than 0.1
B(  0-C ,  1-N ) :   0.8361 B(  0-C ,  9-H ) :   0.9244 B(  0-C , 10-H ) :   0.9139
B(  0-C , 11-H ) :   0.9244 B(  1-N ,  2-N ) :   1.0247 B(  1-N ,  5-C ) :   1.1857
B(  2-N ,  3-N ) :   1.2351 B(  2-N ,  5-C ) :   0.1141 B(  3-N ,  4-C ) :   1.4160
B(  4-C ,  5-C ) :   1.3893 B(  4-C , 12-H ) :   0.9220 B(  5-C ,  6-N ) :   0.9344
B(  6-N ,  7-O ) :   1.4728 B(  6-N ,  8-O ) :   1.4422 B(  7-O ,  8-O ) :   0.1719

MP2 TOTAL ENERGY:     -485.209420174 Eh
FINAL SINGLE POINT ENERGY      -485.209420173528

DIPOLE MOMENT
-------------
                                X             Y             Z
Electronic contribution:      0.11828      -3.36669       2.82442
Nuclear contribution   :     -0.12971       4.21071      -2.84658
                        -----------------------------------------
Total Dipole Moment    :     -0.01142       0.84402      -0.02216
                        -----------------------------------------
Magnitude (a.u.)       :      0.84439
Magnitude (Debye)      :      2.14626

                             ****ORCA TERMINATED NORMALLY****
TOTAL RUN TIME: 0 days 0 hours 15 minutes 19 seconds 340 msec
