                         Program Version 3.0.3 - RELEASE   -
|  1> ! RI-MP2 RIJK def2-TZVP def2-TZVP/C def2-TZVP/JK TIGHTSCF
|  2> % maxcore 2000
|  3> % mp2 density relaxed end
|  4> *xyz 0 1
|  5>  C       -0.0429485732     1.5641976302     0.0109612874
|  6>  C        0.0046415383     0.0345131147     0.0024592594
|  7>  C       -1.3880947283    -0.5929830881     0.0123110573
|  8>  C       -1.3791107001    -2.0998459212     0.0042403067
|  9>  O       -0.3766914767    -2.7800664755    -0.0090023483
| 10>  C       -2.7724884965    -2.7786542072     0.0140822793
| 11>  N       -2.6810127724    -4.1263337799     0.0058384761
| 12>  O       -3.8009431014    -2.1293472534     0.0277361790
| 13>  H        0.9649068204     1.9899895418     0.0036900861
| 14>  H       -0.5746363587     1.9511875312    -0.8654334304
| 15>  H       -0.5579619598     1.9418886854     0.9012597789
| 16>  H        0.5521334879    -0.3211031217    -0.8775187808
| 17>  H        0.5686252684    -0.3302870166     0.8681492937
| 18>  H       -1.9770195306    -0.2735011692     0.8831102147
| 19>  H       -1.9933171711    -0.2643847205    -0.8438013754
| 20>  H       -1.7668680312    -4.5491326315    -0.0057128698
| 21>  H       -3.5143679350    -4.6890514184     0.0106451662
| 22> *
| 23>
| 24>                          ****END OF INPUT****

CARTESIAN COORDINATES (ANGSTROEM)
---------------------------------
  C     -0.042949    1.564198    0.010961
  C      0.004642    0.034513    0.002459
  C     -1.388095   -0.592983    0.012311
  C     -1.379111   -2.099846    0.004240
  O     -0.376691   -2.780066   -0.009002
  C     -2.772488   -2.778654    0.014082
  N     -2.681013   -4.126334    0.005838
  O     -3.800943   -2.129347    0.027736
  H      0.964907    1.989990    0.003690
  H     -0.574636    1.951188   -0.865433
  H     -0.557962    1.941889    0.901260
  H      0.552133   -0.321103   -0.877519
  H      0.568625   -0.330287    0.868149
  H     -1.977020   -0.273501    0.883110
  H     -1.993317   -0.264385   -0.843801
  H     -1.766868   -4.549133   -0.005713
  H     -3.514368   -4.689051    0.010645

 Total Charge           Charge          ....    0
 Multiplicity           Mult            ....    1
 Number of Electrons    NEL             ....   62
 Basis Dimension        Dim             ....  302

ORBITAL ENERGIES
----------------

  NO   OCC          E(Eh)            E(eV)
   0   2.0000     -20.577991      -559.9556
   1   2.0000     -20.541276      -558.9565
   2   2.0000     -15.594857      -424.3576
   3   2.0000     -11.368145      -309.3430
   4   2.0000     -11.353532      -308.9453
   5   2.0000     -11.242437      -305.9223
   6   2.0000     -11.228971      -305.5558
   7   2.0000     -11.219552      -305.2995
   8   2.0000      -1.424805       -38.7709
   9   2.0000      -1.394651       -37.9504
  10   2.0000      -1.226788       -33.3826
  11   2.0000      -1.081722       -29.4351
  12   2.0000      -0.986129       -26.8339
  13   2.0000      -0.900022       -24.4908
  14   2.0000      -0.823202       -22.4005
  15   2.0000      -0.765771       -20.8377
  16   2.0000      -0.739565       -20.1246
  17   2.0000      -0.688245       -18.7281
  18   2.0000      -0.652920       -17.7669
  19   2.0000      -0.650364       -17.6973
  20   2.0000      -0.625964       -17.0333
  21   2.0000      -0.603271       -16.4159
  22   2.0000      -0.572265       -15.5721
  23   2.0000      -0.556894       -15.1539
  24   2.0000      -0.519165       -14.1272
  25   2.0000      -0.514801       -14.0085
  26   2.0000      -0.501896       -13.6573
  27   2.0000      -0.489836       -13.3291
  28   2.0000      -0.480250       -13.0683
  29   2.0000      -0.427559       -11.6345
  30   2.0000      -0.412929       -11.2364
  31   0.0000       0.083285         2.2663
  32   0.0000       0.128976         3.5096
  33   0.0000       0.141792         3.8584
  34   0.0000       0.175175         4.7668
  35   0.0000       0.183211         4.9854

MULLIKEN ATOMIC CHARGES
-----------------------
   0 C :   -0.384942
   1 C :   -0.157231
   2 C :   -0.262107
   3 C :    0.207209
   4 O :   -0.309107
   5 C :    0.235135
   6 N :   -0.450689
   7 O :   -0.338233
   8 H :    0.137436
   9 H :    0.123951
  10 H :    0.123953
  11 H :    0.115181
  12 H :    0.115181
  13 H :    0.148649
  14 H :    0.148612
  15 H :    0.284287
  16 H :    0.262715
Sum of atomic charges:    0.0000000

LOEWDIN ATOMIC CHARGES
----------------------
   0 C :   -0.318711
   1 C :   -0.287019
   2 C :   -0.241008
   3 C :   -0.282012
   4 O :    0.157362
   5 C :   -0.463414
   6 N :    0.009832
   7 O :    0.095544
   8 H :    0.122044
   9 H :    0.120971
  10 H :    0.120972
  11 H :    0.139911
  12 H :    0.139911
  13 H :    0.163633
  14 H :    0.163631
  15 H :    0.182517
  16 H :    0.175835

  Mayer bond orders larger than 0.1
B(  0-C ,  1-C ) :   0.9186 B(  0-C ,  8-H ) :   0.9450 B(  0-C ,  9-H ) :   0.9379
B(  0-C , 10-H ) :   0.9379 B(  1-C ,  2-C ) :   0.9312 B(  1-C , 11-H ) :   0.9313
B(  1-C , 12-H ) :   0.9313 B(  2-C ,  3-C ) :   0.9444 B(  2-C , 13-H ) :   0.8946
B(  2-C , 14-H ) :   0.8945 B(  3-C ,  4-O ) :   1.8774 B(  3-C ,  5-C ) :   0.8819
B(  5-C ,  6-N ) :   1.2364 B(  5-C ,  7-O ) :   1.9561 B(  6-N , 15-H ) :   0.8451
B(  6-N , 16-H ) :   0.8581

MP2 TOTAL ENERGY:     -400.405182157 Eh
FINAL SINGLE POINT ENERGY      -400.405182157282

DIPOLE MOMENT
-------------
                                X             Y             Z
Electronic contribution:     -5.12174      -9.85512      -0.00282
Nuclear contribution   :      5.37557       9.44487      -0.00249
                        -----------------------------------------
Total Dipole Moment    :      0.25382      -0.41024      -0.00530
                        -----------------------------------------
Magnitude (a.u.)       :      0.48244
Magnitude (Debye)      :      1.22627

                             ****ORCA TERMINATED NORMALLY****
TOTAL RUN TIME: 0 days 0 hours 10 minutes 0 seconds 42 msec
