                         Program Version 3.0.3 - RELEASE   -
|  1> ! RI-MP2 RIJK def2-TZVP def2-TZVP/C def2-TZVP/JK TIGHTSCF
|  2> % maxcore 2000
|  3> % mp2 density relaxed end
|  4> *xyz 0 1
|  5>  N        0.2541153580     1.3855845135    -0.1127459178
|  6>  C        0.0330268361     0.0207096932    -0.0383133129
|  7>  C       -1.0789264760    -0.7737208782    -0.0529918228
|  8>  O       -2.3672349617    -0.3567802862    -0.0542266358
|  9>  N       -0.7131568394    -2.0878709913    -0.0760803317
| 10>  C        0.5956087941    -2.0735408621    -0.0638233730
| 11>  O        1.1135008177    -0.8056989507    -0.0529273112
| 12>  C        1.4895145208    -3.1552691399    -0.0426560147
| 13>  C        2.2602074581    -4.0807009376    -0.0288564116
| 14>  H        0.8836487379     1.7331241307     0.6028390194
| 15>  H       -0.6188701159     1.8966937926    -0.0859010001
| 16>  H       -2.9176793386    -1.1484349980    -0.0694014375
| 17>  H        2.9350747288    -4.9004625259    -0.0166439803
| 18> *
| 19>
| 20>                          ****END OF INPUT****

CARTESIAN COORDINATES (ANGSTROEM)
---------------------------------
  N      0.254115    1.385585   -0.112746
  C      0.033027    0.020710   -0.038313
  C     -1.078926   -0.773721   -0.052992
  O     -2.367235   -0.356780   -0.054227
  N     -0.713157   -2.087871   -0.076080
  C      0.595609   -2.073541   -0.063823
  O      1.113501   -0.805699   -0.052927
  C      1.489515   -3.155269   -0.042656
  C      2.260207   -4.080701   -0.028856
  H      0.883649    1.733124    0.602839
  H     -0.618870    1.896694   -0.085901
  H     -2.917679   -1.148435   -0.069401
  H      2.935075   -4.900463   -0.016644

 Total Charge           Charge          ....    0
 Multiplicity           Mult            ....    1
 Number of Electrons    NEL             ....   64
 Basis Dimension        Dim             ....  303

ORBITAL ENERGIES
----------------

  NO   OCC          E(Eh)            E(eV)
   0   2.0000     -20.646510      -561.8201
   1   2.0000     -20.596024      -560.4463
   2   2.0000     -15.584731      -424.0821
   3   2.0000     -15.583723      -424.0547
   4   2.0000     -11.358788      -309.0883
   5   2.0000     -11.330477      -308.3179
   6   2.0000     -11.314999      -307.8968
   7   2.0000     -11.258450      -306.3580
   8   2.0000     -11.254609      -306.2535
   9   2.0000      -1.499798       -40.8116
  10   2.0000      -1.416386       -38.5418
  11   2.0000      -1.248740       -33.9800
  12   2.0000      -1.221672       -33.2434
  13   2.0000      -1.077341       -29.3159
  14   2.0000      -0.997570       -27.1453
  15   2.0000      -0.887318       -24.1452
  16   2.0000      -0.832257       -22.6469
  17   2.0000      -0.780521       -21.2391
  18   2.0000      -0.739444       -20.1213
  19   2.0000      -0.714396       -19.4397
  20   2.0000      -0.702212       -19.1082
  21   2.0000      -0.676852       -18.4181
  22   2.0000      -0.659438       -17.9442
  23   2.0000      -0.613063       -16.6823
  24   2.0000      -0.588338       -16.0095
  25   2.0000      -0.574525       -15.6336
  26   2.0000      -0.509063       -13.8523
  27   2.0000      -0.481093       -13.0912
  28   2.0000      -0.461821       -12.5668
  29   2.0000      -0.423191       -11.5156
  30   2.0000      -0.419648       -11.4192
  31   2.0000      -0.286699        -7.8015
  32   0.0000       0.088377         2.4048
  33   0.0000       0.128575         3.4987
  34   0.0000       0.151724         4.1286
  35   0.0000       0.156297         4.2531
  36   0.0000       0.160036         4.3548

MULLIKEN ATOMIC CHARGES
-----------------------
   0 N :   -0.509343
   1 C :    0.174395
   2 C :    0.174908
   3 O :   -0.456104
   4 N :   -0.298544
   5 C :    0.036140
   6 O :   -0.198198
   7 C :    0.087192
   8 C :   -0.095125
   9 H :    0.265479
  10 H :    0.268013
  11 H :    0.349908
  12 H :    0.201280
Sum of atomic charges:   -0.0000000

LOEWDIN ATOMIC CHARGES
----------------------
   0 N :   -0.075657
   1 C :   -0.345816
   2 C :   -0.397670
   3 O :    0.058784
   4 N :    0.147570
   5 C :   -0.335420
   6 O :    0.381787
   7 C :   -0.075304
   8 C :   -0.051297
   9 H :    0.176257
  10 H :    0.183007
  11 H :    0.203041
  12 H :    0.130719

  Mayer bond orders larger than 0.1
B(  0-N ,  1-C ) :   1.0792 B(  0-N ,  9-H ) :   0.8639 B(  0-N , 10-H ) :   0.8717
B(  1-C ,  2-C ) :   1.4920 B(  1-C ,  6-O ) :   1.0675 B(  2-C ,  3-O ) :   1.0851
B(  2-C ,  4-N ) :   1.2539 B(  3-O , 11-H ) :   0.8172 B(  4-N ,  5-C ) :   1.5455
B(  5-C ,  6-O ) :   1.0616 B(  5-C ,  7-C ) :   1.1920 B(  5-C ,  8-C ) :  -0.1502
B(  7-C ,  8-C ) :   2.6181 B(  8-C , 12-H ) :   0.8701

MP2 TOTAL ENERGY:     -451.991621858 Eh
FINAL SINGLE POINT ENERGY      -451.991621858008

DIPOLE MOMENT
-------------
                                X             Y             Z
Electronic contribution:      0.14791      -1.88659      -0.16459
Nuclear contribution   :     -0.16672       2.34745       0.60481
                        -----------------------------------------
Total Dipole Moment    :     -0.01881       0.46086       0.44022
                        -----------------------------------------
Magnitude (a.u.)       :      0.63761
Magnitude (Debye)      :      1.62067

                             ****ORCA TERMINATED NORMALLY****
TOTAL RUN TIME: 0 days 0 hours 12 minutes 42 seconds 750 msec
