                         Program Version 3.0.3 - RELEASE   -
|  1> ! RI-MP2 RIJK def2-TZVP def2-TZVP/C def2-TZVP/JK TIGHTSCF
|  2> % maxcore 2000
|  3> % mp2 density relaxed end
|  4> *xyz 0 1
|  5>  C       -0.0211270626     1.5199026133     0.0763795378
|  6>  C        0.0081802449     0.0343257465    -0.0475587591
|  7>  C       -0.0033178564    -0.8136412737    -1.1384628186
|  8>  N       -0.0424275317    -0.8344367117    -2.5362952445
|  9>  C       -0.0221367981    -2.0922521385    -2.8115981035
| 10>  O        0.0278556911    -2.9782319763    -1.7515542190
| 11>  C        0.0399583374    -2.1418474465    -0.6680942012
| 12>  C        0.0790994238    -2.1571954007     0.6992553219
| 13>  N        0.0582099536    -0.8096974559     1.0449540951
| 14>  H        0.8738989259     1.9132419379     0.5744811642
| 15>  H       -0.0682412057     1.9633501410    -0.9203249812
| 16>  H       -0.8938522754     1.8725105430     0.6401217502
| 17>  H       -0.0395264685    -2.5526504516    -3.7880480850
| 18>  H        0.1175082912    -2.9323744253     1.4434522022
| 19>  H        0.0776655504    -0.4844546414     1.9963403704
| 20> *
| 21>
| 22>                          ****END OF INPUT****

CARTESIAN COORDINATES (ANGSTROEM)
---------------------------------
  C     -0.021127    1.519903    0.076380
  C      0.008180    0.034326   -0.047559
  C     -0.003318   -0.813641   -1.138463
  N     -0.042428   -0.834437   -2.536295
  C     -0.022137   -2.092252   -2.811598
  O      0.027856   -2.978232   -1.751554
  C      0.039958   -2.141847   -0.668094
  C      0.079099   -2.157195    0.699255
  N      0.058210   -0.809697    1.044954
  H      0.873899    1.913242    0.574481
  H     -0.068241    1.963350   -0.920325
  H     -0.893852    1.872511    0.640122
  H     -0.039526   -2.552650   -3.788048
  H      0.117508   -2.932374    1.443452
  H      0.077666   -0.484455    1.996340

 Total Charge           Charge          ....    0
 Multiplicity           Mult            ....    1
 Number of Electrons    NEL             ....   64
 Basis Dimension        Dim             ....  315

ORBITAL ENERGIES
----------------

  NO   OCC          E(Eh)            E(eV)
   0   2.0000     -20.622088      -561.1555
   1   2.0000     -15.608394      -424.7260
   2   2.0000     -15.566253      -423.5793
   3   2.0000     -11.337023      -308.4961
   4   2.0000     -11.272732      -306.7466
   5   2.0000     -11.269852      -306.6683
   6   2.0000     -11.258166      -306.3503
   7   2.0000     -11.236646      -305.7647
   8   2.0000     -11.235385      -305.7304
   9   2.0000      -1.464126       -39.8409
  10   2.0000      -1.293986       -35.2111
  11   2.0000      -1.227626       -33.4054
  12   2.0000      -1.043181       -28.3864
  13   2.0000      -1.034232       -28.1429
  14   2.0000      -0.924434       -25.1551
  15   2.0000      -0.876417       -23.8485
  16   2.0000      -0.786274       -21.3956
  17   2.0000      -0.770948       -20.9786
  18   2.0000      -0.695878       -18.9358
  19   2.0000      -0.677196       -18.4274
  20   2.0000      -0.655224       -17.8296
  21   2.0000      -0.649825       -17.6826
  22   2.0000      -0.594947       -16.1893
  23   2.0000      -0.594154       -16.1677
  24   2.0000      -0.575815       -15.6687
  25   2.0000      -0.548311       -14.9203
  26   2.0000      -0.535617       -14.5749
  27   2.0000      -0.519081       -14.1249
  28   2.0000      -0.459919       -12.5150
  29   2.0000      -0.448582       -12.2065
  30   2.0000      -0.332409        -9.0453
  31   2.0000      -0.282994        -7.7007
  32   0.0000       0.126868         3.4523
  33   0.0000       0.130302         3.5457
  34   0.0000       0.159775         4.3477
  35   0.0000       0.181126         4.9287
  36   0.0000       0.184901         5.0314

MULLIKEN ATOMIC CHARGES
-----------------------
   0 C :   -0.442681
   1 C :    0.025832
   2 C :    0.076806
   3 N :   -0.268615
   4 C :    0.118195
   5 O :   -0.245956
   6 C :    0.091996
   7 C :   -0.134635
   8 N :   -0.225609
   9 H :    0.143974
  10 H :    0.168504
  11 H :    0.143602
  12 H :    0.149029
  13 H :    0.155982
  14 H :    0.243576
Sum of atomic charges:    0.0000000

LOEWDIN ATOMIC CHARGES
----------------------
   0 C :   -0.280101
   1 C :   -0.225398
   2 C :   -0.221768
   3 N :    0.123024
   4 C :   -0.293225
   5 O :    0.307400
   6 C :   -0.255669
   7 C :   -0.223820
   8 N :    0.205794
   9 H :    0.130049
  10 H :    0.144917
  11 H :    0.130003
  12 H :    0.131706
  13 H :    0.133672
  14 H :    0.193417

  Mayer bond orders larger than 0.1
B(  0-C ,  1-C ) :   0.8301 B(  0-C ,  9-H ) :   0.9369 B(  0-C , 10-H ) :   0.9475
B(  0-C , 11-H ) :   0.9371 B(  1-C ,  2-C ) :   1.3551 B(  1-C ,  7-C ) :   0.1384
B(  1-C ,  8-N ) :   1.2037 B(  2-C ,  3-N ) :   1.1566 B(  2-C ,  6-C ) :   1.2103
B(  3-N ,  4-C ) :   1.7050 B(  4-C ,  5-O ) :   1.0384 B(  4-C , 12-H ) :   0.9315
B(  5-O ,  6-C ) :   1.0317 B(  6-C ,  7-C ) :   1.4320 B(  7-C ,  8-N ) :   1.1229
B(  7-C , 13-H ) :   0.9057 B(  8-N , 14-H ) :   0.8724

MP2 TOTAL ENERGY:     -416.132807392 Eh
FINAL SINGLE POINT ENERGY      -416.132807391635

DIPOLE MOMENT
-------------
                                X             Y             Z
Electronic contribution:      0.04350      -6.00221      -3.20767
Nuclear contribution   :     -0.01510       6.16567       4.34601
                        -----------------------------------------
Total Dipole Moment    :      0.02841       0.16346       1.13834
                        -----------------------------------------
Magnitude (a.u.)       :      1.15037
Magnitude (Debye)      :      2.92401

                             ****ORCA TERMINATED NORMALLY****
TOTAL RUN TIME: 0 days 0 hours 15 minutes 8 seconds 625 msec
