                         Program Version 3.0.3 - RELEASE   -
|  1> ! RI-MP2 RIJK def2-TZVP def2-TZVP/C def2-TZVP/JK TIGHTSCF
|  2> % maxcore 2000
|  3> % mp2 density relaxed end
|  4> *xyz 0 1
|  5>  C       -0.3500146490     1.5530339435     0.1572062274
|  6>  C       -0.0932450753     0.0525147023     0.1274258918
|  7>  C        0.4060551755    -0.5521325701    -1.1965475136
|  8>  O        1.6927832811     0.0198326330    -1.4705459067
|  9>  C        1.6189150805    -1.0899653775    -0.5635179302
| 10>  C        1.2123509529    -0.5407500555     0.8109957627
| 11>  C        2.1932057227     0.3860307155     1.5019335722
| 12>  O        1.5795214741     0.8506115951     2.6998702395
| 13>  H        0.4574626167     2.0929119606    -0.3449897051
| 14>  H       -1.2869460621     1.7969820450    -0.3553492249
| 15>  H       -0.4146029399     1.9115506284     1.1877277651
| 16>  H       -0.9669053772    -0.4944471364     0.4948212479
| 17>  H       -0.1610813710    -0.9111110824    -2.0482454451
| 18>  H        2.2162679241    -1.9623718693    -0.8041123135
| 19>  H        0.9395043939    -1.3486387071     1.4968336916
| 20>  H        3.1213366745    -0.1675637823     1.7223838118
| 21>  H        2.4559198237     1.2170251435     0.8343321443
| 22>  H        2.1547296951     1.5130616937     3.0935566950
| 23> *
| 24>
| 25>                          ****END OF INPUT****

CARTESIAN COORDINATES (ANGSTROEM)
---------------------------------
  C     -0.350015    1.553034    0.157206
  C     -0.093245    0.052515    0.127426
  C      0.406055   -0.552133   -1.196548
  O      1.692783    0.019833   -1.470546
  C      1.618915   -1.089965   -0.563518
  C      1.212351   -0.540750    0.810996
  C      2.193206    0.386031    1.501934
  O      1.579521    0.850612    2.699870
  H      0.457463    2.092912   -0.344990
  H     -1.286946    1.796982   -0.355349
  H     -0.414603    1.911551    1.187728
  H     -0.966905   -0.494447    0.494821
  H     -0.161081   -0.911111   -2.048245
  H      2.216268   -1.962372   -0.804112
  H      0.939504   -1.348639    1.496834
  H      3.121337   -0.167564    1.722384
  H      2.455920    1.217025    0.834332
  H      2.154730    1.513062    3.093557

 Total Charge           Charge          ....    0
 Multiplicity           Mult            ....    1
 Number of Electrons    NEL             ....   62
 Basis Dimension        Dim             ....  308

ORBITAL ENERGIES
----------------

  NO   OCC          E(Eh)            E(eV)
   0   2.0000     -20.564750      -559.5953
   1   2.0000     -20.556032      -559.3581
   2   2.0000     -11.283157      -307.0303
   3   2.0000     -11.281211      -306.9774
   4   2.0000     -11.273737      -306.7740
   5   2.0000     -11.236120      -305.7504
   6   2.0000     -11.235127      -305.7233
   7   2.0000     -11.206012      -304.9311
   8   2.0000      -1.414617       -38.4937
   9   2.0000      -1.359065       -36.9820
  10   2.0000      -1.098334       -29.8872
  11   2.0000      -0.988645       -26.9024
  12   2.0000      -0.941197       -25.6113
  13   2.0000      -0.853762       -23.2321
  14   2.0000      -0.823221       -22.4010
  15   2.0000      -0.735124       -20.0038
  16   2.0000      -0.720597       -19.6084
  17   2.0000      -0.689499       -18.7622
  18   2.0000      -0.638245       -17.3675
  19   2.0000      -0.623144       -16.9566
  20   2.0000      -0.591231       -16.0882
  21   2.0000      -0.572275       -15.5724
  22   2.0000      -0.551373       -15.0036
  23   2.0000      -0.534206       -14.5365
  24   2.0000      -0.525590       -14.3020
  25   2.0000      -0.493402       -13.4262
  26   2.0000      -0.468534       -12.7495
  27   2.0000      -0.464061       -12.6277
  28   2.0000      -0.452703       -12.3187
  29   2.0000      -0.416867       -11.3435
  30   2.0000      -0.397913       -10.8278
  31   0.0000       0.135571         3.6891
  32   0.0000       0.154217         4.1965
  33   0.0000       0.161225         4.3871
  34   0.0000       0.178939         4.8692
  35   0.0000       0.184015         5.0073

MULLIKEN ATOMIC CHARGES
-----------------------
   0 C :   -0.440135
   1 C :   -0.011839
   2 C :   -0.016785
   3 O :   -0.339114
   4 C :   -0.034149
   5 C :   -0.009819
   6 C :   -0.122551
   7 O :   -0.473602
   8 H :    0.141035
   9 H :    0.128648
  10 H :    0.147325
  11 H :    0.103123
  12 H :    0.136216
  13 H :    0.138908
  14 H :    0.107757
  15 H :    0.101698
  16 H :    0.126052
  17 H :    0.317232
Sum of atomic charges:    0.0000000

LOEWDIN ATOMIC CHARGES
----------------------
   0 C :   -0.297273
   1 C :   -0.208280
   2 C :   -0.224275
   3 O :    0.167669
   4 C :   -0.225131
   5 C :   -0.195176
   6 C :   -0.328011
   7 O :   -0.049900
   8 H :    0.127430
   9 H :    0.123345
  10 H :    0.128479
  11 H :    0.151753
  12 H :    0.128964
  13 H :    0.129281
  14 H :    0.156326
  15 H :    0.119226
  16 H :    0.123441
  17 H :    0.172133

  Mayer bond orders larger than 0.1
B(  0-C ,  1-C ) :   0.8865 B(  0-C ,  8-H ) :   0.9405 B(  0-C ,  9-H ) :   0.9330
B(  0-C , 10-H ) :   0.9340 B(  1-C ,  2-C ) :   0.8964 B(  1-C ,  5-C ) :   0.9641
B(  1-C , 11-H ) :   0.9074 B(  2-C ,  3-O ) :   0.8988 B(  2-C ,  4-C ) :   0.8879
B(  2-C , 12-H ) :   0.9245 B(  3-O ,  4-C ) :   0.9158 B(  4-C ,  5-C ) :   0.8878
B(  4-C , 13-H ) :   0.9220 B(  5-C ,  6-C ) :   0.8931 B(  5-C , 14-H ) :   0.9035
B(  6-C ,  7-O ) :   1.0051 B(  6-C , 15-H ) :   0.9293 B(  6-C , 16-H ) :   0.9333
B(  7-O , 17-H ) :   0.8480

MP2 TOTAL ENERGY:     -384.262345142 Eh
FINAL SINGLE POINT ENERGY      -384.262345141735

DIPOLE MOMENT
-------------
                                X             Y             Z
Electronic contribution:      2.02131      -2.39126      -1.83721
Nuclear contribution   :     -1.92578       2.17282       2.07928
                        -----------------------------------------
Total Dipole Moment    :      0.09553      -0.21845       0.24207
                        -----------------------------------------
Magnitude (a.u.)       :      0.33977
Magnitude (Debye)      :      0.86362

                             ****ORCA TERMINATED NORMALLY****
TOTAL RUN TIME: 0 days 0 hours 11 minutes 50 seconds 530 msec
