                         Program Version 3.0.3 - RELEASE   -
|  1> ! RI-MP2 RIJK def2-TZVP def2-TZVP/C def2-TZVP/JK TIGHTSCF
|  2> % maxcore 2000
|  3> % mp2 density relaxed end
|  4> *xyz 0 1
|  5>  C       -0.4646347950     1.4204681244     0.0069062580
|  6>  C        0.1274666515     0.0280889904    -0.0820728854
|  7>  O        1.2291881255     0.0224931752    -1.0312651497
|  8>  C        2.1948379556    -0.7296136697    -0.4690505668
|  9>  N        2.0695825345    -1.1546992285     0.7198674882
| 10>  C        0.7871392992    -0.5891422687     1.2135356929
| 11>  C        1.0933905973     0.4075745177     2.3451687121
| 12>  C       -0.0670338854    -1.6668560318     1.7355869458
| 13>  N       -0.7733639107    -2.4859023210     2.1419249517
| 14>  H        0.2696206275     2.1514992392     0.3525528851
| 15>  H       -0.8219604017     1.7317143719    -0.9780378787
| 16>  H       -1.3164657986     1.4242496898     0.6931100200
| 17>  H       -0.6195279689    -0.6715450554    -0.4705301411
| 18>  H        3.0552169801    -0.9116876426    -1.1037605893
| 19>  H        1.7313037534     1.2107003660     1.9691315025
| 20>  H        0.1775772569     0.8372983035     2.7581523313
| 21>  H        1.6295873089    -0.1112975705     3.1418775133
| 22> *
| 23>
| 24>                          ****END OF INPUT****

CARTESIAN COORDINATES (ANGSTROEM)
---------------------------------
  C     -0.464635    1.420468    0.006906
  C      0.127467    0.028089   -0.082073
  O      1.229188    0.022493   -1.031265
  C      2.194838   -0.729614   -0.469051
  N      2.069583   -1.154699    0.719867
  C      0.787139   -0.589142    1.213536
  C      1.093391    0.407575    2.345169
  C     -0.067034   -1.666856    1.735587
  N     -0.773364   -2.485902    2.141925
  H      0.269621    2.151499    0.352553
  H     -0.821960    1.731714   -0.978038
  H     -1.316466    1.424250    0.693110
  H     -0.619528   -0.671545   -0.470530
  H      3.055217   -0.911688   -1.103761
  H      1.731304    1.210700    1.969132
  H      0.177577    0.837298    2.758152
  H      1.629587   -0.111298    3.141878

 Total Charge           Charge          ....    0
 Multiplicity           Mult            ....    1
 Number of Electrons    NEL             ....   66
 Basis Dimension        Dim             ....  327

ORBITAL ENERGIES
----------------

  NO   OCC          E(Eh)            E(eV)
   0   2.0000     -20.618923      -561.0694
   1   2.0000     -15.574587      -423.8061
   2   2.0000     -15.573574      -423.7785
   3   2.0000     -11.356764      -309.0333
   4   2.0000     -11.330376      -308.3152
   5   2.0000     -11.326859      -308.2195
   6   2.0000     -11.274136      -306.7848
   7   2.0000     -11.247256      -306.0534
   8   2.0000     -11.246974      -306.0457
   9   2.0000      -1.464633       -39.8547
  10   2.0000      -1.251283       -34.0491
  11   2.0000      -1.216078       -33.0912
  12   2.0000      -1.107381       -30.1334
  13   2.0000      -1.019172       -27.7331
  14   2.0000      -0.941988       -25.6328
  15   2.0000      -0.862731       -23.4761
  16   2.0000      -0.823717       -22.4145
  17   2.0000      -0.755587       -20.5606
  18   2.0000      -0.698399       -19.0044
  19   2.0000      -0.677962       -18.4483
  20   2.0000      -0.619054       -16.8453
  21   2.0000      -0.617276       -16.7969
  22   2.0000      -0.599250       -16.3064
  23   2.0000      -0.576842       -15.6967
  24   2.0000      -0.568874       -15.4798
  25   2.0000      -0.558475       -15.1969
  26   2.0000      -0.552315       -15.0293
  27   2.0000      -0.534069       -14.5328
  28   2.0000      -0.522364       -14.2142
  29   2.0000      -0.479244       -13.0409
  30   2.0000      -0.463445       -12.6110
  31   2.0000      -0.448554       -12.2058
  32   2.0000      -0.411144       -11.1878
  33   0.0000       0.117710         3.2031
  34   0.0000       0.141158         3.8411
  35   0.0000       0.154249         4.1973
  36   0.0000       0.166625         4.5341
  37   0.0000       0.169768         4.6196

MULLIKEN ATOMIC CHARGES
-----------------------
   0 C :   -0.393288
   1 C :    0.002510
   2 O :   -0.254122
   3 C :    0.100990
   4 N :   -0.298942
   5 C :    0.341678
   6 C :   -0.423270
   7 C :   -0.213757
   8 N :   -0.048837
   9 H :    0.136940
  10 H :    0.156936
  11 H :    0.148198
  12 H :    0.131300
  13 H :    0.156711
  14 H :    0.147334
  15 H :    0.143352
  16 H :    0.166267
Sum of atomic charges:    0.0000000

LOEWDIN ATOMIC CHARGES
----------------------
   0 C :   -0.283244
   1 C :   -0.231980
   2 O :    0.244434
   3 C :   -0.335051
   4 N :    0.116730
   5 C :   -0.297071
   6 C :   -0.241840
   7 C :   -0.146814
   8 N :    0.074391
   9 H :    0.129866
  10 H :    0.134687
  11 H :    0.136098
  12 H :    0.154501
  13 H :    0.139105
  14 H :    0.132289
  15 H :    0.133100
  16 H :    0.140799

  Mayer bond orders larger than 0.1
B(  0-C ,  1-C ) :   0.9299 B(  0-C ,  9-H ) :   0.9264 B(  0-C , 10-H ) :   0.9310
B(  0-C , 11-H ) :   0.9310 B(  1-C ,  2-O ) :   0.8610 B(  1-C ,  5-C ) :   0.8558
B(  1-C , 12-H ) :   0.9294 B(  2-O ,  3-C ) :   1.0859 B(  3-C ,  4-N ) :   1.8014
B(  3-C , 13-H ) :   0.9181 B(  4-N ,  5-C ) :   0.8504 B(  5-C ,  6-C ) :   0.8737
B(  5-C ,  7-C ) :   0.9048 B(  6-C , 14-H ) :   0.9345 B(  6-C , 15-H ) :   0.9234
B(  6-C , 16-H ) :   0.9265 B(  7-C ,  8-N ) :   2.8690

MP2 TOTAL ENERGY:     -417.333793299 Eh
FINAL SINGLE POINT ENERGY      -417.333793299406

DIPOLE MOMENT
-------------
                                X             Y             Z
Electronic contribution:      1.58540      -7.30816      -1.33255
Nuclear contribution   :     -1.34369       8.83981       0.68856
                        -----------------------------------------
Total Dipole Moment    :      0.24171       1.53165      -0.64400
                        -----------------------------------------
Magnitude (a.u.)       :      1.67902
Magnitude (Debye)      :      4.26772

                             ****ORCA TERMINATED NORMALLY****
TOTAL RUN TIME: 0 days 0 hours 17 minutes 27 seconds 297 msec
