                         Program Version 3.0.3 - RELEASE   -
|  1> ! RI-MP2 RIJK def2-TZVP def2-TZVP/C def2-TZVP/JK TIGHTSCF
|  2> % maxcore 2000
|  3> % mp2 density relaxed end
|  4> *xyz 0 1
|  5>  C       -0.0623755680     1.6084076881     0.0414047445
|  6>  C        0.0214728256     0.0954963612    -0.0150426173
|  7>  C        0.4882061412    -0.7097926085    -1.1812461224
|  8>  C        1.4179613380    -0.1173663537    -2.2458854334
|  9>  C        2.8083260572    -0.0129620851    -1.5827830191
| 10>  C        4.0031989788    -0.5096591249    -2.3630519459
| 11>  C        2.9855528237     1.0712525463    -0.5454601331
| 12>  C        2.5738371121    -0.3270563915    -0.1211588834
| 13>  N        1.2102619857    -0.7788529677     0.1067524022
| 14>  H        0.3693726018     2.1101372306    -0.8267435146
| 15>  H       -1.1202199385     1.8884577266     0.0799053976
| 16>  H        0.4134851127     2.0092807235     0.9422039817
| 17>  H       -0.7975297342    -0.3578367697     0.5439755842
| 18>  H       -0.0770343757    -1.5951441714    -1.4682730610
| 19>  H        1.4684990349    -0.7965060648    -3.1023179253
| 20>  H        1.0659847613     0.8459706290    -2.6332942080
| 21>  H        4.1929180720     0.1137589935    -3.2452777372
| 22>  H        4.9092692652    -0.4905112012    -1.7490127431
| 23>  H        3.8548522579    -1.5393255205    -2.7096064659
| 24>  H        4.0106516192     1.3397895812    -0.3041986130
| 25>  H        2.3032843776     1.9042946908    -0.4927174165
| 26>  H        3.2992701617    -0.8979013118     0.4500288789
| 27> *
| 28>
| 29>                          ****END OF INPUT****

CARTESIAN COORDINATES (ANGSTROEM)
---------------------------------
  C     -0.062376    1.608408    0.041405
  C      0.021473    0.095496   -0.015043
  C      0.488206   -0.709793   -1.181246
  C      1.417961   -0.117366   -2.245885
  C      2.808326   -0.012962   -1.582783
  C      4.003199   -0.509659   -2.363052
  C      2.985553    1.071253   -0.545460
  C      2.573837   -0.327056   -0.121159
  N      1.210262   -0.778853    0.106752
  H      0.369373    2.110137   -0.826744
  H     -1.120220    1.888458    0.079905
  H      0.413485    2.009281    0.942204
  H     -0.797530   -0.357837    0.543976
  H     -0.077034   -1.595144   -1.468273
  H      1.468499   -0.796506   -3.102318
  H      1.065985    0.845971   -2.633294
  H      4.192918    0.113759   -3.245278
  H      4.909269   -0.490511   -1.749013
  H      3.854852   -1.539326   -2.709606
  H      4.010652    1.339790   -0.304199
  H      2.303284    1.904295   -0.492717
  H      3.299270   -0.897901    0.450029

 Total Charge           Charge          ....    0
 Multiplicity           Mult            ....    1
 Number of Electrons    NEL             ....   68
 Basis Dimension        Dim             ....  357

ORBITAL ENERGIES
----------------

  NO   OCC          E(Eh)            E(eV)
   0   2.0000     -15.547688      -423.0741
   1   2.0000     -11.258022      -306.3464
   2   2.0000     -11.248753      -306.0941
   3   2.0000     -11.248547      -306.0885
   4   2.0000     -11.232695      -305.6572
   5   2.0000     -11.227495      -305.5157
   6   2.0000     -11.222673      -305.3845
   7   2.0000     -11.220211      -305.3175
   8   2.0000     -11.217384      -305.2405
   9   2.0000      -1.275171       -34.6992
  10   2.0000      -1.135108       -30.8879
  11   2.0000      -1.004867       -27.3438
  12   2.0000      -0.993190       -27.0261
  13   2.0000      -0.949708       -25.8429
  14   2.0000      -0.880423       -23.9575
  15   2.0000      -0.775213       -21.0946
  16   2.0000      -0.770282       -20.9604
  17   2.0000      -0.734048       -19.9745
  18   2.0000      -0.672692       -18.3049
  19   2.0000      -0.630176       -17.1480
  20   2.0000      -0.599695       -16.3185
  21   2.0000      -0.592212       -16.1149
  22   2.0000      -0.588146       -16.0043
  23   2.0000      -0.571055       -15.5392
  24   2.0000      -0.555867       -15.1259
  25   2.0000      -0.546890       -14.8816
  26   2.0000      -0.521252       -14.1840
  27   2.0000      -0.505509       -13.7556
  28   2.0000      -0.476494       -12.9661
  29   2.0000      -0.462966       -12.5979
  30   2.0000      -0.454840       -12.3768
  31   2.0000      -0.407214       -11.0809
  32   2.0000      -0.368132       -10.0174
  33   2.0000      -0.351161        -9.5556
  34   0.0000       0.136551         3.7157
  35   0.0000       0.154291         4.1985
  36   0.0000       0.165878         4.5138
  37   0.0000       0.176976         4.8158
  38   0.0000       0.189462         5.1555

MULLIKEN ATOMIC CHARGES
-----------------------
   0 C :   -0.407361
   1 C :   -0.046189
   2 C :   -0.040673
   3 C :   -0.254789
   4 C :    0.090909
   5 C :   -0.422395
   6 C :   -0.301589
   7 C :   -0.065920
   8 N :   -0.225250
   9 H :    0.125829
  10 H :    0.139714
  11 H :    0.148330
  12 H :    0.110491
  13 H :    0.118165
  14 H :    0.130491
  15 H :    0.126189
  16 H :    0.134218
  17 H :    0.126312
  18 H :    0.130908
  19 H :    0.123148
  20 H :    0.137426
  21 H :    0.122039
Sum of atomic charges:   -0.0000000

LOEWDIN ATOMIC CHARGES
----------------------
   0 C :   -0.301983
   1 C :   -0.254461
   2 C :   -0.214570
   3 C :   -0.189417
   4 C :   -0.241678
   5 C :   -0.272912
   6 C :   -0.192033
   7 C :   -0.221550
   8 N :    0.146856
   9 H :    0.119076
  10 H :    0.130904
  11 H :    0.129194
  12 H :    0.146185
  13 H :    0.135160
  14 H :    0.146277
  15 H :    0.140929
  16 H :    0.126991
  17 H :    0.128522
  18 H :    0.126465
  19 H :    0.137159
  20 H :    0.132005
  21 H :    0.142879

  Mayer bond orders larger than 0.1
B(  0-C ,  1-C ) :   0.8789 B(  0-C ,  9-H ) :   0.9371 B(  0-C , 10-H ) :   0.9283
B(  0-C , 11-H ) :   0.9385 B(  1-C ,  2-C ) :   0.9484 B(  1-C ,  8-N ) :   0.9015
B(  1-C , 12-H ) :   0.9313 B(  2-C ,  3-C ) :   0.9327 B(  2-C ,  8-N ) :   0.8784
B(  2-C , 13-H ) :   0.9091 B(  3-C ,  4-C ) :   0.9290 B(  3-C , 14-H ) :   0.9273
B(  3-C , 15-H ) :   0.9154 B(  4-C ,  5-C ) :   0.8958 B(  4-C ,  6-C ) :   0.8893
B(  4-C ,  7-C ) :   0.8529 B(  5-C , 16-H ) :   0.9413 B(  5-C , 17-H ) :   0.9323
B(  5-C , 18-H ) :   0.9406 B(  6-C ,  7-C ) :   0.8593 B(  6-C , 19-H ) :   0.9256
B(  6-C , 20-H ) :   0.9122 B(  7-C ,  8-N ) :   0.9824 B(  7-C , 21-H ) :   0.9444

MP2 TOTAL ENERGY:     -366.508485395 Eh
FINAL SINGLE POINT ENERGY      -366.508485395033

DIPOLE MOMENT
-------------
                                X             Y             Z
Electronic contribution:     -1.41743      -3.14723       2.34149
Nuclear contribution   :      1.42290       3.57108      -2.78391
                        -----------------------------------------
Total Dipole Moment    :      0.00547       0.42385      -0.44241
                        -----------------------------------------
Magnitude (a.u.)       :      0.61270
Magnitude (Debye)      :      1.55737

                             ****ORCA TERMINATED NORMALLY****
TOTAL RUN TIME: 0 days 0 hours 21 minutes 11 seconds 65 msec
