                         Program Version 3.0.3 - RELEASE   -
|  1> ! RI-MP2 RIJK def2-TZVP def2-TZVP/C def2-TZVP/JK TIGHTSCF
|  2> % maxcore 2000
|  3> % mp2 density relaxed end
|  4> *xyz 0 1
|  5>  C       -0.1404029051     1.5330839623     0.0658180285
|  6>  N        0.1301846628     0.0933416122     0.0755360864
|  7>  C        1.3809220837    -0.5044632161    -0.3042136407
|  8>  C        2.6060237062     0.3083321516     0.1135639027
|  9>  O        2.8366368053     1.5033521243    -0.5904715090
| 10>  C        2.0215340977     0.3037199108     1.5622615842
| 11>  O        2.4249254776     0.7300195871     2.6078915912
| 12>  C        0.8605683156    -0.5802766923     1.1447995121
| 13>  C        0.2194468630    -1.6752103508     1.9421231356
| 14>  H        0.6868125527     2.1676958213     0.3983095037
| 15>  H       -0.3994174612     1.8209709772    -0.9570872476
| 16>  H       -1.0108003140     1.7143961780     0.7033014568
| 17>  H        1.3759702916    -1.2994141467    -1.0422433313
| 18>  H        3.5047395056    -0.3321980005     0.1311389310
| 19>  H        3.5224586590     1.9928845929    -0.1222908289
| 20>  H       -0.3645860241    -1.2555293037     2.7681562402
| 21>  H       -0.4557617412    -2.2572901976     1.3102049563
| 22>  H        0.9718090846    -2.3429918301     2.3729967090
| 23> *
| 24>
| 25>                          ****END OF INPUT****

CARTESIAN COORDINATES (ANGSTROEM)
---------------------------------
  C     -0.140403    1.533084    0.065818
  N      0.130185    0.093342    0.075536
  C      1.380922   -0.504463   -0.304214
  C      2.606024    0.308332    0.113564
  O      2.836637    1.503352   -0.590472
  C      2.021534    0.303720    1.562262
  O      2.424925    0.730020    2.607892
  C      0.860568   -0.580277    1.144800
  C      0.219447   -1.675210    1.942123
  H      0.686813    2.167696    0.398310
  H     -0.399417    1.820971   -0.957087
  H     -1.010800    1.714396    0.703301
  H      1.375970   -1.299414   -1.042243
  H      3.504740   -0.332198    0.131139
  H      3.522459    1.992885   -0.122291
  H     -0.364586   -1.255529    2.768156
  H     -0.455762   -2.257290    1.310205
  H      0.971809   -2.342992    2.372997

 Total Charge           Charge          ....    0
 Multiplicity           Mult            ....    1
 Number of Electrons    NEL             ....   68
 Basis Dimension        Dim             ....  333

ORBITAL ENERGIES
----------------

  NO   OCC          E(Eh)            E(eV)
   0   2.0000     -20.579570      -559.9986
   1   2.0000     -20.563752      -559.5681
   2   2.0000     -15.582315      -424.0163
   3   2.0000     -11.340874      -308.6009
   4   2.0000     -11.309674      -307.7519
   5   2.0000     -11.285761      -307.1012
   6   2.0000     -11.282241      -307.0054
   7   2.0000     -11.250427      -306.1397
   8   2.0000     -11.232568      -305.6537
   9   2.0000      -1.409469       -38.3536
  10   2.0000      -1.384708       -37.6798
  11   2.0000      -1.307954       -35.5912
  12   2.0000      -1.066415       -29.0186
  13   2.0000      -1.009187       -27.4614
  14   2.0000      -0.950217       -25.8567
  15   2.0000      -0.871102       -23.7039
  16   2.0000      -0.792733       -21.5714
  17   2.0000      -0.730912       -19.8891
  18   2.0000      -0.714406       -19.4400
  19   2.0000      -0.692030       -18.8311
  20   2.0000      -0.671373       -18.2690
  21   2.0000      -0.613151       -16.6847
  22   2.0000      -0.611168       -16.6307
  23   2.0000      -0.602598       -16.3975
  24   2.0000      -0.575774       -15.6676
  25   2.0000      -0.572100       -15.5676
  26   2.0000      -0.561752       -15.2860
  27   2.0000      -0.535684       -14.5767
  28   2.0000      -0.529220       -14.4008
  29   2.0000      -0.511585       -13.9209
  30   2.0000      -0.472203       -12.8493
  31   2.0000      -0.426137       -11.5958
  32   2.0000      -0.409546       -11.1443
  33   2.0000      -0.374112       -10.1801
  34   0.0000       0.122541         3.3345
  35   0.0000       0.136651         3.7185
  36   0.0000       0.149605         4.0710
  37   0.0000       0.164506         4.4764
  38   0.0000       0.176572         4.8048

MULLIKEN ATOMIC CHARGES
-----------------------
   0 C :   -0.277833
   1 N :   -0.212790
   2 C :   -0.090287
   3 C :    0.092291
   4 O :   -0.463892
   5 C :    0.066250
   6 O :   -0.249360
   7 C :    0.124777
   8 C :   -0.405908
   9 H :    0.127365
  10 H :    0.138265
  11 H :    0.137161
  12 H :    0.147015
  13 H :    0.106527
  14 H :    0.329596
  15 H :    0.145249
  16 H :    0.149970
  17 H :    0.135604
Sum of atomic charges:    0.0000000

LOEWDIN ATOMIC CHARGES
----------------------
   0 C :   -0.307868
   1 N :    0.156541
   2 C :   -0.167457
   3 C :   -0.297467
   4 O :   -0.008628
   5 C :   -0.279305
   6 O :    0.161948
   7 C :   -0.224333
   8 C :   -0.265360
   9 H :    0.111895
  10 H :    0.122859
  11 H :    0.119609
  12 H :    0.138204
  13 H :    0.148229
  14 H :    0.184867
  15 H :    0.137041
  16 H :    0.136914
  17 H :    0.132313

  Mayer bond orders larger than 0.1
B(  0-C ,  1-N ) :   0.8722 B(  0-C ,  9-H ) :   0.9169 B(  0-C , 10-H ) :   0.9359
B(  0-C , 11-H ) :   0.9331 B(  1-N ,  2-C ) :   0.9398 B(  1-N ,  7-C ) :   0.8602
B(  2-C ,  3-C ) :   0.8872 B(  2-C ,  7-C ) :   0.8090 B(  2-C , 12-H ) :   0.9201
B(  3-C ,  4-O ) :   1.0308 B(  3-C ,  5-C ) :   0.8666 B(  3-C ,  7-C ) :  -0.1193
B(  3-C , 13-H ) :   0.9208 B(  4-O , 14-H ) :   0.8346 B(  5-C ,  6-O ) :   2.0610
B(  5-C ,  7-C ) :   0.8421 B(  7-C ,  8-C ) :   0.8637 B(  8-C , 15-H ) :   0.9302
B(  8-C , 16-H ) :   0.9452 B(  8-C , 17-H ) :   0.9342

MP2 TOTAL ENERGY:     -438.326675213 Eh
FINAL SINGLE POINT ENERGY      -438.326675212569

DIPOLE MOMENT
-------------
                                X             Y             Z
Electronic contribution:      4.52923       1.43240       0.67938
Nuclear contribution   :     -4.40122      -1.76239      -0.97188
                        -----------------------------------------
Total Dipole Moment    :      0.12801      -0.32999      -0.29251
                        -----------------------------------------
Magnitude (a.u.)       :      0.45917
Magnitude (Debye)      :      1.16713

                             ****ORCA TERMINATED NORMALLY****
TOTAL RUN TIME: 0 days 0 hours 18 minutes 18 seconds 409 msec
