                         Program Version 3.0.3 - RELEASE   -
|  1> ! RI-MP2 RIJK def2-TZVP def2-TZVP/C def2-TZVP/JK TIGHTSCF
|  2> % maxcore 2000
|  3> % mp2 density relaxed end
|  4> *xyz 0 1
|  5>  C        0.0814065798     1.4928722179    -0.2359742640
|  6>  C       -0.0114350931     0.0107937062     0.1554127104
|  7>  C       -1.4226508466    -0.5084597361     0.1433410306
|  8>  C       -2.1291941918    -0.9990558340    -1.0722040852
|  9>  C       -1.9122740258    -1.9988287106     0.0631977925
| 10>  C       -1.1923870056    -3.3037170692    -0.1220574576
| 11>  C       -2.8739248055    -1.6835951412     1.1646973630
| 12>  O       -3.5176612263    -2.3768102672     1.9041342370
| 13>  C       -2.4883525889    -0.1816050552     1.2066452066
| 14>  H        1.1189600412     1.8393911755    -0.2128511567
| 15>  H       -0.3090647840     1.6575824332    -1.2453337315
| 16>  H       -0.4965210390     2.1198203239     0.4508916579
| 17>  H        0.5995845013    -0.5870159186    -0.5323700359
| 18>  H        0.4197664173    -0.1306344204     1.1549910468
| 19>  H       -3.1277762036    -0.6481249246    -1.3212429976
| 20>  H       -1.5065305290    -1.2030275734    -1.9394284093
| 21>  H       -0.3198981142    -3.1856441555    -0.7726657716
| 22>  H       -0.8534935052    -3.7062517666     0.8375325953
| 23>  H       -1.8487510047    -4.0509100052    -0.5810736566
| 24>  H       -2.0811210659     0.0695665714     2.1913820425
| 25>  H       -3.2522865005     0.5536416797     0.9361099433
| 26> *
| 27>
| 28>                          ****END OF INPUT****

CARTESIAN COORDINATES (ANGSTROEM)
---------------------------------
  C      0.081407    1.492872   -0.235974
  C     -0.011435    0.010794    0.155413
  C     -1.422651   -0.508460    0.143341
  C     -2.129194   -0.999056   -1.072204
  C     -1.912274   -1.998829    0.063198
  C     -1.192387   -3.303717   -0.122057
  C     -2.873925   -1.683595    1.164697
  O     -3.517661   -2.376810    1.904134
  C     -2.488353   -0.181605    1.206645
  H      1.118960    1.839391   -0.212851
  H     -0.309065    1.657582   -1.245334
  H     -0.496521    2.119820    0.450892
  H      0.599585   -0.587016   -0.532370
  H      0.419766   -0.130634    1.154991
  H     -3.127776   -0.648125   -1.321243
  H     -1.506531   -1.203028   -1.939428
  H     -0.319898   -3.185644   -0.772666
  H     -0.853494   -3.706252    0.837533
  H     -1.848751   -4.050910   -0.581074
  H     -2.081121    0.069567    2.191382
  H     -3.252287    0.553642    0.936110

 Total Charge           Charge          ....    0
 Multiplicity           Mult            ....    1
 Number of Electrons    NEL             ....   68
 Basis Dimension        Dim             ....  351

ORBITAL ENERGIES
----------------

  NO   OCC          E(Eh)            E(eV)
   0   2.0000     -20.538638      -558.8848
   1   2.0000     -11.325913      -308.1938
   2   2.0000     -11.259894      -306.3973
   3   2.0000     -11.250688      -306.1468
   4   2.0000     -11.246866      -306.0428
   5   2.0000     -11.240525      -305.8702
   6   2.0000     -11.239686      -305.8474
   7   2.0000     -11.228444      -305.5415
   8   2.0000     -11.225367      -305.4578
   9   2.0000      -1.383151       -37.6374
  10   2.0000      -1.210344       -32.9351
  11   2.0000      -1.047458       -28.5028
  12   2.0000      -1.004734       -27.3402
  13   2.0000      -0.963637       -26.2219
  14   2.0000      -0.886384       -24.1197
  15   2.0000      -0.846673       -23.0391
  16   2.0000      -0.759584       -20.6693
  17   2.0000      -0.684672       -18.6309
  18   2.0000      -0.667729       -18.1698
  19   2.0000      -0.655696       -17.8424
  20   2.0000      -0.631934       -17.1958
  21   2.0000      -0.615601       -16.7514
  22   2.0000      -0.585790       -15.9402
  23   2.0000      -0.570077       -15.5126
  24   2.0000      -0.557166       -15.1613
  25   2.0000      -0.554942       -15.1007
  26   2.0000      -0.542085       -14.7509
  27   2.0000      -0.532340       -14.4857
  28   2.0000      -0.513063       -13.9612
  29   2.0000      -0.505727       -13.7615
  30   2.0000      -0.476877       -12.9765
  31   2.0000      -0.427325       -11.6281
  32   2.0000      -0.391024       -10.6403
  33   2.0000      -0.378003       -10.2860
  34   0.0000       0.121448         3.3048
  35   0.0000       0.144811         3.9405
  36   0.0000       0.147957         4.0261
  37   0.0000       0.161979         4.4077
  38   0.0000       0.169200         4.6042

MULLIKEN ATOMIC CHARGES
-----------------------
   0 C :   -0.397167
   1 C :   -0.219283
   2 C :    0.021638
   3 C :   -0.260323
   4 C :    0.072486
   5 C :   -0.411984
   6 C :    0.078075
   7 O :   -0.269780
   8 C :   -0.197103
   9 H :    0.137964
  10 H :    0.130096
  11 H :    0.131213
  12 H :    0.109555
  13 H :    0.118000
  14 H :    0.139777
  15 H :    0.134538
  16 H :    0.131522
  17 H :    0.144739
  18 H :    0.148437
  19 H :    0.125269
  20 H :    0.132330
Sum of atomic charges:   -0.0000000

LOEWDIN ATOMIC CHARGES
----------------------
   0 C :   -0.306897
   1 C :   -0.252561
   2 C :   -0.176792
   3 C :   -0.152010
   4 C :   -0.166700
   5 C :   -0.266310
   6 C :   -0.289067
   7 O :    0.148105
   8 C :   -0.161474
   9 H :    0.121977
  10 H :    0.122891
  11 H :    0.122980
  12 H :    0.143530
  13 H :    0.143922
  14 H :    0.136883
  15 H :    0.146630
  16 H :    0.130118
  17 H :    0.134256
  18 H :    0.135565
  19 H :    0.148203
  20 H :    0.136751

  Mayer bond orders larger than 0.1
B(  0-C ,  1-C ) :   0.9233 B(  0-C ,  9-H ) :   0.9398 B(  0-C , 10-H ) :   0.9382
B(  0-C , 11-H ) :   0.9371 B(  1-C ,  2-C ) :   0.9164 B(  1-C , 12-H ) :   0.9310
B(  1-C , 13-H ) :   0.9287 B(  2-C ,  3-C ) :   0.8952 B(  2-C ,  4-C ) :   0.7799
B(  2-C ,  8-C ) :   0.9118 B(  3-C ,  4-C ) :   0.8404 B(  3-C , 14-H ) :   0.9089
B(  3-C , 15-H ) :   0.9281 B(  4-C ,  5-C ) :   0.8846 B(  4-C ,  6-C ) :   0.8788
B(  4-C ,  8-C ) :  -0.1433 B(  5-C , 16-H ) :   0.9395 B(  5-C , 17-H ) :   0.9361
B(  5-C , 18-H ) :   0.9323 B(  6-C ,  7-O ) :   2.0483 B(  6-C ,  8-C ) :   0.9456
B(  8-C , 19-H ) :   0.8972 B(  8-C , 20-H ) :   0.8913

MP2 TOTAL ENERGY:     -386.414838050 Eh
FINAL SINGLE POINT ENERGY      -386.414838049717

DIPOLE MOMENT
-------------
                                X             Y             Z
Electronic contribution:     -7.29078      -4.44995       4.22859
Nuclear contribution   :      8.21501       5.07941      -5.03354
                        -----------------------------------------
Total Dipole Moment    :      0.92423       0.62946      -0.80495
                        -----------------------------------------
Magnitude (a.u.)       :      1.37781
Magnitude (Debye)      :      3.50211

                             ****ORCA TERMINATED NORMALLY****
TOTAL RUN TIME: 0 days 0 hours 21 minutes 10 seconds 859 msec
