                         Program Version 3.0.3 - RELEASE   -
|  1> ! RI-MP2 RIJK def2-TZVP def2-TZVP/C def2-TZVP/JK TIGHTSCF
|  2> % maxcore 2000
|  3> % mp2 density relaxed end
|  4> *xyz 0 1
|  5>  O       -0.0071277468     0.0272988062    -0.1808561017
|  6>  C        0.0316057335     1.2201213905    -0.2151746166
|  7>  O        1.0436664881     1.9326109374     0.3123479334
|  8>  C        1.0181324819     3.3613992059     0.1901816201
|  9>  C        1.4319832640     4.0443322212     1.5353399141
| 10>  N        2.6776934826     4.7703190857     1.1638588828
| 11>  C        2.2361305893     5.3536141075    -0.1683151215
| 12>  C        2.1767064856     3.8872627523    -0.6652778381
| 13>  C        3.3601439480     3.7074926119     0.3205167366
| 14>  H       -0.7507939362     1.8584792049    -0.6711685699
| 15>  H        0.0347383872     3.6731474206    -0.1778038808
| 16>  H        0.6833179750     4.7478875354     1.9065808303
| 17>  H        1.6343564607     3.2970667946     2.3053152758
| 18>  H        1.3181622821     5.9490002523    -0.1330238588
| 19>  H        3.0449103801     5.9349313465    -0.6153585123
| 20>  H        2.1992730802     3.5935985959    -1.7158120875
| 21>  H        4.3090823459     4.0875783517    -0.0619872839
| 22>  H        3.4987639787     2.7402570395     0.8076633080
| 23> *
| 24>
| 25>                          ****END OF INPUT****

CARTESIAN COORDINATES (ANGSTROEM)
---------------------------------
  O     -0.007128    0.027299   -0.180856
  C      0.031606    1.220121   -0.215175
  O      1.043666    1.932611    0.312348
  C      1.018132    3.361399    0.190182
  C      1.431983    4.044332    1.535340
  N      2.677693    4.770319    1.163859
  C      2.236131    5.353614   -0.168315
  C      2.176706    3.887263   -0.665278
  C      3.360144    3.707493    0.320517
  H     -0.750794    1.858479   -0.671169
  H      0.034738    3.673147   -0.177804
  H      0.683318    4.747888    1.906581
  H      1.634356    3.297067    2.305315
  H      1.318162    5.949000   -0.133024
  H      3.044910    5.934931   -0.615359
  H      2.199273    3.593599   -1.715812
  H      4.309082    4.087578   -0.061987
  H      3.498764    2.740257    0.807663

 Total Charge           Charge          ....    0
 Multiplicity           Mult            ....    1
 Number of Electrons    NEL             ....   68
 Basis Dimension        Dim             ....  333

ORBITAL ENERGIES
----------------

  NO   OCC          E(Eh)            E(eV)
   0   2.0000     -20.611690      -560.8726
   1   2.0000     -20.552637      -559.2657
   2   2.0000     -15.570509      -423.6951
   3   2.0000     -11.386509      -309.8427
   4   2.0000     -11.313915      -307.8673
   5   2.0000     -11.271742      -306.7197
   6   2.0000     -11.265611      -306.5529
   7   2.0000     -11.265113      -306.5393
   8   2.0000     -11.254886      -306.2610
   9   2.0000      -1.466267       -39.8991
  10   2.0000      -1.377261       -37.4772
  11   2.0000      -1.288778       -35.0694
  12   2.0000      -1.027559       -27.9613
  13   2.0000      -1.009150       -27.4604
  14   2.0000      -0.932071       -25.3629
  15   2.0000      -0.859205       -23.3802
  16   2.0000      -0.820049       -22.3147
  17   2.0000      -0.790966       -21.5233
  18   2.0000      -0.724292       -19.7090
  19   2.0000      -0.701752       -19.0956
  20   2.0000      -0.681313       -18.5395
  21   2.0000      -0.656528       -17.8650
  22   2.0000      -0.633535       -17.2394
  23   2.0000      -0.621381       -16.9086
  24   2.0000      -0.562097       -15.2954
  25   2.0000      -0.548929       -14.9371
  26   2.0000      -0.533382       -14.5141
  27   2.0000      -0.526179       -14.3181
  28   2.0000      -0.509426       -13.8622
  29   2.0000      -0.487500       -13.2656
  30   2.0000      -0.471507       -12.8303
  31   2.0000      -0.459852       -12.5132
  32   2.0000      -0.455758       -12.4018
  33   2.0000      -0.387110       -10.5338
  34   0.0000       0.130026         3.5382
  35   0.0000       0.142919         3.8890
  36   0.0000       0.151371         4.1190
  37   0.0000       0.164251         4.4695
  38   0.0000       0.173490         4.7209

MULLIKEN ATOMIC CHARGES
-----------------------
   0 O :   -0.267410
   1 C :    0.186865
   2 O :   -0.208094
   3 C :   -0.032201
   4 C :   -0.158590
   5 N :   -0.180890
   6 C :   -0.215636
   7 C :   -0.031100
   8 C :   -0.214926
   9 H :    0.070322
  10 H :    0.107012
  11 H :    0.134897
  12 H :    0.145039
  13 H :    0.123225
  14 H :    0.132522
  15 H :    0.133151
  16 H :    0.132587
  17 H :    0.143223
Sum of atomic charges:   -0.0000000

LOEWDIN ATOMIC CHARGES
----------------------
   0 O :    0.119889
   1 C :   -0.452377
   2 O :    0.267875
   3 C :   -0.280607
   4 C :   -0.251124
   5 N :    0.081568
   6 C :   -0.222583
   7 C :   -0.214486
   8 C :   -0.220401
   9 H :    0.100927
  10 H :    0.135681
  11 H :    0.131832
  12 H :    0.139871
  13 H :    0.125836
  14 H :    0.135781
  15 H :    0.136285
  16 H :    0.135135
  17 H :    0.130900

  Mayer bond orders larger than 0.1
B(  0-O ,  1-C ) :   2.0359 B(  1-C ,  2-O ) :   1.0696 B(  1-C ,  9-H ) :   0.9161
B(  2-O ,  3-C ) :   0.8751 B(  3-C ,  4-C ) :   0.9106 B(  3-C ,  7-C ) :   0.9014
B(  3-C , 10-H ) :   0.9256 B(  4-C ,  5-N ) :   0.9206 B(  4-C , 11-H ) :   0.9344
B(  4-C , 12-H ) :   0.9286 B(  5-N ,  6-C ) :   0.9182 B(  5-N ,  8-C ) :   0.9141
B(  6-C ,  7-C ) :   0.9128 B(  6-C , 13-H ) :   0.9277 B(  6-C , 14-H ) :   0.9219
B(  7-C ,  8-C ) :   0.9383 B(  7-C , 15-H ) :   0.9031 B(  8-C , 16-H ) :   0.9296
B(  8-C , 17-H ) :   0.9203

MP2 TOTAL ENERGY:     -438.351438975 Eh
FINAL SINGLE POINT ENERGY      -438.351438975426

DIPOLE MOMENT
-------------
                                X             Y             Z
Electronic contribution:     -2.33959      -6.17835      -0.02146
Nuclear contribution   :      2.12010       7.47977      -0.58564
                        -----------------------------------------
Total Dipole Moment    :     -0.21949       1.30142      -0.60710
                        -----------------------------------------
Magnitude (a.u.)       :      1.45274
Magnitude (Debye)      :      3.69256

                             ****ORCA TERMINATED NORMALLY****
TOTAL RUN TIME: 0 days 0 hours 17 minutes 50 seconds 588 msec
