                         Program Version 3.0.3 - RELEASE   -
|  1> ! RI-MP2 RIJK def2-TZVP def2-TZVP/C def2-TZVP/JK TIGHTSCF
|  2> % maxcore 2000
|  3> % mp2 density relaxed end
|  4> *xyz 0 1
|  5>  C        0.0496173214     1.4895082877    -0.1273531793
|  6>  C        0.1292063002    -0.0405588061    -0.0288234802
|  7>  C        0.9605009938    -0.6215404064    -1.1806945091
|  8>  C        0.6295150972    -0.4637746282     1.3629080447
|  9>  C        0.7137981894    -1.9857285805     1.6261998597
| 10>  C        2.2111720242    -2.3021923522     1.5017644240
| 11>  C        2.8834953627    -0.9642009128     1.7173939133
| 12>  N        4.1091047977    -0.7864631808     1.9651369214
| 13>  O        1.9655473929     0.0389126108     1.5946091198
| 14>  H        1.0436488173     1.9343229738    -0.0217700516
| 15>  H       -0.3602235745     1.7970288054    -1.0942831707
| 16>  H       -0.5896150406     1.9075965600     0.6576279032
| 17>  H       -0.8920499451    -0.4418489486    -0.1036228660
| 18>  H        1.9987935446    -0.2792591168    -1.1268318070
| 19>  H        0.9606004116    -1.7158826520    -1.1820263492
| 20>  H        0.5546107571    -0.2949758332    -2.1429827954
| 21>  H       -0.0077379913     0.0222079487     2.1101497532
| 22>  H        0.3593244839    -2.2055805523     2.6367401270
| 23>  H        0.0933111223    -2.5547605659     0.9305685565
| 24>  H        2.5746248755    -3.0363218878     2.2215281106
| 25>  H        2.4728035580    -2.6679513234     0.5041382939
| 26>  H        4.3135863918     0.2106502007     2.0528032912
| 27> *
| 28>
| 29>                          ****END OF INPUT****

CARTESIAN COORDINATES (ANGSTROEM)
---------------------------------
  C      0.049617    1.489508   -0.127353
  C      0.129206   -0.040559   -0.028823
  C      0.960501   -0.621540   -1.180695
  C      0.629515   -0.463775    1.362908
  C      0.713798   -1.985729    1.626200
  C      2.211172   -2.302192    1.501764
  C      2.883495   -0.964201    1.717394
  N      4.109105   -0.786463    1.965137
  O      1.965547    0.038913    1.594609
  H      1.043649    1.934323   -0.021770
  H     -0.360224    1.797029   -1.094283
  H     -0.589615    1.907597    0.657628
  H     -0.892050   -0.441849   -0.103623
  H      1.998794   -0.279259   -1.126832
  H      0.960600   -1.715883   -1.182026
  H      0.554611   -0.294976   -2.142983
  H     -0.007738    0.022208    2.110150
  H      0.359324   -2.205581    2.636740
  H      0.093311   -2.554761    0.930569
  H      2.574625   -3.036322    2.221528
  H      2.472804   -2.667951    0.504138
  H      4.313586    0.210650    2.052803

 Total Charge           Charge          ....    0
 Multiplicity           Mult            ....    1
 Number of Electrons    NEL             ....   70
 Basis Dimension        Dim             ....  357

ORBITAL ENERGIES
----------------

  NO   OCC          E(Eh)            E(eV)
   0   2.0000     -20.585747      -560.1667
   1   2.0000     -15.522210      -422.3808
   2   2.0000     -11.329822      -308.3001
   3   2.0000     -11.295523      -307.3668
   4   2.0000     -11.241237      -305.8896
   5   2.0000     -11.240339      -305.8652
   6   2.0000     -11.239258      -305.8358
   7   2.0000     -11.220747      -305.3321
   8   2.0000     -11.216579      -305.2186
   9   2.0000      -1.422637       -38.7119
  10   2.0000      -1.187752       -32.3204
  11   2.0000      -1.098475       -29.8910
  12   2.0000      -1.060002       -28.8441
  13   2.0000      -0.958339       -26.0777
  14   2.0000      -0.935727       -25.4624
  15   2.0000      -0.849282       -23.1101
  16   2.0000      -0.794818       -21.6281
  17   2.0000      -0.754759       -20.5380
  18   2.0000      -0.693786       -18.8789
  19   2.0000      -0.676747       -18.4152
  20   2.0000      -0.656428       -17.8623
  21   2.0000      -0.623710       -16.9720
  22   2.0000      -0.589675       -16.0459
  23   2.0000      -0.575964       -15.6728
  24   2.0000      -0.562326       -15.3017
  25   2.0000      -0.542127       -14.7520
  26   2.0000      -0.538077       -14.6418
  27   2.0000      -0.534194       -14.5361
  28   2.0000      -0.517524       -14.0826
  29   2.0000      -0.505213       -13.7475
  30   2.0000      -0.480023       -13.0621
  31   2.0000      -0.466578       -12.6962
  32   2.0000      -0.453902       -12.3513
  33   2.0000      -0.426585       -11.6080
  34   2.0000      -0.387926       -10.5560
  35   0.0000       0.123235         3.3534
  36   0.0000       0.150428         4.0933
  37   0.0000       0.155947         4.2435
  38   0.0000       0.158522         4.3136
  39   0.0000       0.179668         4.8890

MULLIKEN ATOMIC CHARGES
-----------------------
   0 C :   -0.410310
   1 C :   -0.051582
   2 C :   -0.438576
   3 C :    0.129188
   4 C :   -0.292446
   5 C :   -0.150101
   6 C :    0.089484
   7 N :   -0.377243
   8 O :   -0.276604
   9 H :    0.143432
  10 H :    0.131972
  11 H :    0.126000
  12 H :    0.089666
  13 H :    0.143787
  14 H :    0.129626
  15 H :    0.139132
  16 H :    0.108554
  17 H :    0.132729
  18 H :    0.138018
  19 H :    0.142685
  20 H :    0.132621
  21 H :    0.219967
Sum of atomic charges:   -0.0000000

LOEWDIN ATOMIC CHARGES
----------------------
   0 C :   -0.292071
   1 C :   -0.294418
   2 C :   -0.289687
   3 C :   -0.255324
   4 C :   -0.229145
   5 C :   -0.218393
   6 C :   -0.413671
   7 N :   -0.068509
   8 O :    0.256658
   9 H :    0.128311
  10 H :    0.123227
  11 H :    0.122912
  12 H :    0.155512
  13 H :    0.130200
  14 H :    0.121862
  15 H :    0.126563
  16 H :    0.145592
  17 H :    0.141037
  18 H :    0.141042
  19 H :    0.150351
  20 H :    0.151440
  21 H :    0.166509

  Mayer bond orders larger than 0.1
B(  0-C ,  1-C ) :   0.9143 B(  0-C ,  9-H ) :   0.9329 B(  0-C , 10-H ) :   0.9392
B(  0-C , 11-H ) :   0.9360 B(  1-C ,  2-C ) :   0.9095 B(  1-C ,  3-C ) :   0.9198
B(  1-C , 12-H ) :   0.9208 B(  2-C , 13-H ) :   0.9316 B(  2-C , 14-H ) :   0.9374
B(  2-C , 15-H ) :   0.9356 B(  3-C ,  4-C ) :   0.8805 B(  3-C ,  8-O ) :   0.8505
B(  3-C , 16-H ) :   0.9346 B(  4-C ,  5-C ) :   0.9669 B(  4-C , 17-H ) :   0.9273
B(  4-C , 18-H ) :   0.9389 B(  5-C ,  6-C ) :   0.9083 B(  5-C , 19-H ) :   0.9181
B(  5-C , 20-H ) :   0.9118 B(  6-C ,  7-N ) :   2.0700 B(  6-C ,  8-O ) :   1.0857
B(  7-N , 21-H ) :   0.8568

MP2 TOTAL ENERGY:     -403.693433927 Eh
FINAL SINGLE POINT ENERGY      -403.693433927012

DIPOLE MOMENT
-------------
                                X             Y             Z
Electronic contribution:      5.43280      -0.59875       5.79367
Nuclear contribution   :     -6.70386       0.47158      -6.10135
                        -----------------------------------------
Total Dipole Moment    :     -1.27106      -0.12717      -0.30767
                        -----------------------------------------
Magnitude (a.u.)       :      1.31393
Magnitude (Debye)      :      3.33975

                             ****ORCA TERMINATED NORMALLY****
TOTAL RUN TIME: 0 days 0 hours 23 minutes 5 seconds 996 msec
