                         Program Version 3.0.3 - RELEASE   -
|  1> ! RI-MP2 RIJK def2-TZVP def2-TZVP/C def2-TZVP/JK TIGHTSCF
|  2> % maxcore 2000
|  3> % mp2 density relaxed end
|  4> *xyz 0 1
|  5>  O        0.0807045584     1.4252003187    -0.0013293281
|  6>  C        0.0529553566     0.0338038697     0.2353377110
|  7>  C       -1.3484752152    -0.5284979376    -0.0268408155
|  8>  O       -1.7830136971    -0.1155641167    -1.3207921067
|  9>  C       -1.4115061637    -2.0539649255     0.0882561988
| 10>  C       -2.8181287153    -2.6566037791     0.0374574604
| 11>  C       -2.5486452817    -4.0496554744    -0.5478819149
| 12>  C       -1.3942109278    -3.7767175564    -1.5243118689
| 13>  O       -0.7292051380    -2.5949510556    -1.0553537533
| 14>  H       -0.4259652797     1.5491304636    -0.8148956552
| 15>  H        0.7782478979    -0.5036259213    -0.3981013145
| 16>  H        0.3385551674    -0.1293825667     1.2810287106
| 17>  H       -2.0486732608    -0.0782644302     0.6866792240
| 18>  H       -1.3487379028    -0.7314038559    -1.9292455629
| 19>  H       -0.8903606119    -2.3712178802     1.0057687150
| 20>  H       -3.2978814551    -2.6834794111     1.0185436247
| 21>  H       -3.4394558803    -2.0594366368    -0.6377815403
| 22>  H       -2.2279135224    -4.7384527611     0.2405407366
| 23>  H       -3.4175375197    -4.4897321370    -1.0425466271
| 24>  H       -0.6713788159    -4.5988531970    -1.5684440741
| 25>  H       -1.7605714629    -3.5923504193    -2.5426838995
| 26> *
| 27>
| 28>                          ****END OF INPUT****

CARTESIAN COORDINATES (ANGSTROEM)
---------------------------------
  O      0.080705    1.425200   -0.001329
  C      0.052955    0.033804    0.235338
  C     -1.348475   -0.528498   -0.026841
  O     -1.783014   -0.115564   -1.320792
  C     -1.411506   -2.053965    0.088256
  C     -2.818129   -2.656604    0.037457
  C     -2.548645   -4.049655   -0.547882
  C     -1.394211   -3.776718   -1.524312
  O     -0.729205   -2.594951   -1.055354
  H     -0.425965    1.549130   -0.814896
  H      0.778248   -0.503626   -0.398101
  H      0.338555   -0.129383    1.281029
  H     -2.048673   -0.078264    0.686679
  H     -1.348738   -0.731404   -1.929246
  H     -0.890361   -2.371218    1.005769
  H     -3.297881   -2.683479    1.018544
  H     -3.439456   -2.059437   -0.637782
  H     -2.227914   -4.738453    0.240541
  H     -3.417538   -4.489732   -1.042547
  H     -0.671379   -4.598853   -1.568444
  H     -1.760571   -3.592350   -2.542684

 Total Charge           Charge          ....    0
 Multiplicity           Mult            ....    1
 Number of Electrons    NEL             ....   72
 Basis Dimension        Dim             ....  351

ORBITAL ENERGIES
----------------

  NO   OCC          E(Eh)            E(eV)
   0   2.0000     -20.564708      -559.5941
   1   2.0000     -20.559989      -559.4657
   2   2.0000     -20.542162      -558.9806
   3   2.0000     -11.289787      -307.2107
   4   2.0000     -11.284812      -307.0753
   5   2.0000     -11.281625      -306.9886
   6   2.0000     -11.267369      -306.6007
   7   2.0000     -11.237534      -305.7888
   8   2.0000     -11.234043      -305.6938
   9   2.0000      -1.395594       -37.9761
  10   2.0000      -1.367069       -37.1999
  11   2.0000      -1.340357       -36.4730
  12   2.0000      -1.072976       -29.1972
  13   2.0000      -1.042701       -28.3733
  14   2.0000      -0.961270       -26.1575
  15   2.0000      -0.855719       -23.2853
  16   2.0000      -0.822988       -22.3946
  17   2.0000      -0.794265       -21.6130
  18   2.0000      -0.716996       -19.5105
  19   2.0000      -0.697818       -18.9886
  20   2.0000      -0.685090       -18.6422
  21   2.0000      -0.646149       -17.5826
  22   2.0000      -0.630739       -17.1633
  23   2.0000      -0.612694       -16.6722
  24   2.0000      -0.605361       -16.4727
  25   2.0000      -0.576293       -15.6817
  26   2.0000      -0.568830       -15.4787
  27   2.0000      -0.535168       -14.5627
  28   2.0000      -0.516509       -14.0549
  29   2.0000      -0.509438       -13.8625
  30   2.0000      -0.501832       -13.6555
  31   2.0000      -0.487890       -13.2762
  32   2.0000      -0.479754       -13.0548
  33   2.0000      -0.460528       -12.5316
  34   2.0000      -0.427722       -11.6389
  35   2.0000      -0.418699       -11.3934
  36   0.0000       0.127774         3.4769
  37   0.0000       0.149899         4.0790
  38   0.0000       0.157583         4.2881
  39   0.0000       0.167523         4.5585
  40   0.0000       0.185477         5.0471

MULLIKEN ATOMIC CHARGES
-----------------------
   0 O :   -0.480702
   1 C :   -0.010141
   2 C :    0.082297
   3 O :   -0.508124
   4 C :   -0.010343
   5 C :   -0.231163
   6 C :   -0.236272
   7 C :   -0.045463
   8 O :   -0.354761
   9 H :    0.328636
  10 H :    0.106154
  11 H :    0.100130
  12 H :    0.101481
  13 H :    0.330883
  14 H :    0.093404
  15 H :    0.127622
  16 H :    0.137147
  17 H :    0.120038
  18 H :    0.131459
  19 H :    0.114059
  20 H :    0.103658
Sum of atomic charges:   -0.0000000

LOEWDIN ATOMIC CHARGES
----------------------
   0 O :   -0.049220
   1 C :   -0.341094
   2 C :   -0.342677
   3 O :   -0.025940
   4 C :   -0.295775
   5 C :   -0.239629
   6 C :   -0.262914
   7 C :   -0.295251
   8 O :    0.146026
   9 H :    0.176914
  10 H :    0.120804
  11 H :    0.127831
  12 H :    0.149731
  13 H :    0.180713
  14 H :    0.143963
  15 H :    0.139510
  16 H :    0.147298
  17 H :    0.138134
  18 H :    0.138137
  19 H :    0.123251
  20 H :    0.120187

  Mayer bond orders larger than 0.1
B(  0-O ,  1-C ) :   0.9424 B(  0-O ,  9-H ) :   0.8244 B(  1-C ,  2-C ) :   0.9438
B(  1-C , 10-H ) :   0.9120 B(  1-C , 11-H ) :   0.9232 B(  2-C ,  3-O ) :   0.8767
B(  2-C ,  4-C ) :   0.8957 B(  2-C , 12-H ) :   0.9232 B(  3-O , 13-H ) :   0.8160
B(  4-C ,  5-C ) :   0.9158 B(  4-C ,  8-O ) :   0.9191 B(  4-C , 14-H ) :   0.9294
B(  5-C ,  6-C ) :   0.9144 B(  5-C , 15-H ) :   0.9231 B(  5-C , 16-H ) :   0.9260
B(  6-C ,  7-C ) :   0.9496 B(  6-C , 17-H ) :   0.9292 B(  6-C , 18-H ) :   0.9256
B(  7-C ,  8-O ) :   0.9050 B(  7-C , 19-H ) :   0.9306 B(  7-C , 20-H ) :   0.9313

MP2 TOTAL ENERGY:     -460.643173841 Eh
FINAL SINGLE POINT ENERGY      -460.643173841304

DIPOLE MOMENT
-------------
                                X             Y             Z
Electronic contribution:      2.07886       4.26693      -1.01709
Nuclear contribution   :     -2.66963      -5.68536       0.99789
                        -----------------------------------------
Total Dipole Moment    :     -0.59077      -1.41842      -0.01921
                        -----------------------------------------
Magnitude (a.u.)       :      1.53665
Magnitude (Debye)      :      3.90586

                             ****ORCA TERMINATED NORMALLY****
TOTAL RUN TIME: 0 days 0 hours 16 minutes 29 seconds 702 msec
