                         Program Version 3.0.3 - RELEASE   -
|  1> ! RI-MP2 RIJK def2-TZVP def2-TZVP/C def2-TZVP/JK TIGHTSCF
|  2> % maxcore 2000
|  3> % mp2 density relaxed end
|  4> *xyz 0 1
|  5>  C       -0.7528011530     1.3365456230    -1.0775608258
|  6>  C       -0.1037653919     0.1417476863    -0.3683597973
|  7>  C       -1.0616929425    -0.5156901439     0.5956780984
|  8>  O       -2.1400709067    -1.2866561029     0.0474808013
|  9>  C       -1.1740018022    -1.9596349464     0.8628450692
| 10>  C       -0.2980525053    -3.0398734139     0.2242373838
| 11>  C       -0.7311130801    -3.3994200836    -1.1989640078
| 12>  O        1.0526528378    -2.5911478795     0.3043543093
| 13>  C        2.0194363342    -3.6075280604     0.1728817522
| 14>  H       -0.0501107457     1.8146986373    -1.7664304968
| 15>  H       -1.6280434532     1.0159527782    -1.6508632774
| 16>  H       -1.0844095024     2.0948065286    -0.3592710361
| 17>  H        0.2594157495    -0.5868712748    -1.0949673675
| 18>  H        0.7749955038     0.4695085847     0.2003767309
| 19>  H       -1.3852783379     0.1430390390     1.4071334773
| 20>  H       -1.5650954835    -2.2372671231     1.8428557155
| 21>  H       -0.3922800120    -3.9435746472     0.8494937333
| 22>  H       -0.1118868988    -4.2064168728    -1.6000582304
| 23>  H       -1.7707662185    -3.7385697735    -1.1965059084
| 24>  H       -0.6653781125    -2.5371218720    -1.8647812208
| 25>  H        2.9926897926    -3.1505151349     0.3691255822
| 26>  H        1.8560908051    -4.4182477855     0.9007752294
| 27>  H        2.0399252031    -4.0492784925    -0.8336737146
| 28> *
| 29>
| 30>                          ****END OF INPUT****

CARTESIAN COORDINATES (ANGSTROEM)
---------------------------------
  C     -0.752801    1.336546   -1.077561
  C     -0.103765    0.141748   -0.368360
  C     -1.061693   -0.515690    0.595678
  O     -2.140071   -1.286656    0.047481
  C     -1.174002   -1.959635    0.862845
  C     -0.298053   -3.039873    0.224237
  C     -0.731113   -3.399420   -1.198964
  O      1.052653   -2.591148    0.304354
  C      2.019436   -3.607528    0.172882
  H     -0.050111    1.814699   -1.766430
  H     -1.628043    1.015953   -1.650863
  H     -1.084410    2.094807   -0.359271
  H      0.259416   -0.586871   -1.094967
  H      0.774996    0.469509    0.200377
  H     -1.385278    0.143039    1.407133
  H     -1.565095   -2.237267    1.842856
  H     -0.392280   -3.943575    0.849494
  H     -0.111887   -4.206417   -1.600058
  H     -1.770766   -3.738570   -1.196506
  H     -0.665378   -2.537122   -1.864781
  H      2.992690   -3.150515    0.369126
  H      1.856091   -4.418248    0.900775
  H      2.039925   -4.049278   -0.833674

 Total Charge           Charge          ....    0
 Multiplicity           Mult            ....    1
 Number of Electrons    NEL             ....   72
 Basis Dimension        Dim             ....  363

ORBITAL ENERGIES
----------------

  NO   OCC          E(Eh)            E(eV)
   0   2.0000     -20.557458      -559.3969
   1   2.0000     -20.556918      -559.3822
   2   2.0000     -11.288592      -307.1782
   3   2.0000     -11.279242      -306.9238
   4   2.0000     -11.278273      -306.8974
   5   2.0000     -11.273312      -306.7624
   6   2.0000     -11.218273      -305.2647
   7   2.0000     -11.214303      -305.1567
   8   2.0000     -11.209640      -305.0298
   9   2.0000      -1.403918       -38.2026
  10   2.0000      -1.374717       -37.4079
  11   2.0000      -1.043053       -28.3829
  12   2.0000      -1.040100       -28.3026
  13   2.0000      -0.942244       -25.6398
  14   2.0000      -0.912885       -24.8409
  15   2.0000      -0.882905       -24.0251
  16   2.0000      -0.809602       -22.0304
  17   2.0000      -0.768443       -20.9104
  18   2.0000      -0.703174       -19.1343
  19   2.0000      -0.664815       -18.0905
  20   2.0000      -0.649030       -17.6610
  21   2.0000      -0.635165       -17.2837
  22   2.0000      -0.606239       -16.4966
  23   2.0000      -0.596040       -16.2191
  24   2.0000      -0.571166       -15.5422
  25   2.0000      -0.551090       -14.9959
  26   2.0000      -0.542740       -14.7687
  27   2.0000      -0.534646       -14.5485
  28   2.0000      -0.513255       -13.9664
  29   2.0000      -0.506998       -13.7961
  30   2.0000      -0.490285       -13.3413
  31   2.0000      -0.480317       -13.0701
  32   2.0000      -0.466424       -12.6921
  33   2.0000      -0.436792       -11.8857
  34   2.0000      -0.423561       -11.5257
  35   2.0000      -0.414086       -11.2678
  36   0.0000       0.139735         3.8024
  37   0.0000       0.152275         4.1436
  38   0.0000       0.160975         4.3804
  39   0.0000       0.173377         4.7178
  40   0.0000       0.188694         5.1346

MULLIKEN ATOMIC CHARGES
-----------------------
   0 C :   -0.389479
   1 C :   -0.181637
   2 C :    0.021619
   3 O :   -0.343026
   4 C :    0.047631
   5 C :    0.087340
   6 C :   -0.399761
   7 O :   -0.298557
   8 C :   -0.229579
   9 H :    0.132212
  10 H :    0.138849
  11 H :    0.119867
  12 H :    0.117603
  13 H :    0.107644
  14 H :    0.104524
  15 H :    0.120899
  16 H :    0.073927
  17 H :    0.128004
  18 H :    0.139685
  19 H :    0.136153
  20 H :    0.140376
  21 H :    0.110855
  22 H :    0.114853
Sum of atomic charges:   -0.0000000

LOEWDIN ATOMIC CHARGES
----------------------
   0 C :   -0.314080
   1 C :   -0.278851
   2 C :   -0.261912
   3 O :    0.162417
   4 C :   -0.241051
   5 C :   -0.333267
   6 C :   -0.292488
   7 O :    0.157905
   8 C :   -0.361018
   9 H :    0.120504
  10 H :    0.125274
  11 H :    0.120369
  12 H :    0.140429
  13 H :    0.144647
  14 H :    0.138212
  15 H :    0.137347
  16 H :    0.139022
  17 H :    0.120517
  18 H :    0.132861
  19 H :    0.125970
  20 H :    0.114239
  21 H :    0.102412
  22 H :    0.100545

  Mayer bond orders larger than 0.1
B(  0-C ,  1-C ) :   0.9064 B(  0-C ,  9-H ) :   0.9418 B(  0-C , 10-H ) :   0.9355
B(  0-C , 11-H ) :   0.9376 B(  1-C ,  2-C ) :   0.9203 B(  1-C , 12-H ) :   0.9344
B(  1-C , 13-H ) :   0.9279 B(  2-C ,  3-O ) :   0.8861 B(  2-C ,  4-C ) :   1.0161
B(  2-C , 14-H ) :   0.9134 B(  3-O ,  4-C ) :   0.9102 B(  4-C ,  5-C ) :   0.8763
B(  4-C , 15-H ) :   0.9202 B(  5-C ,  6-C ) :   0.9383 B(  5-C ,  7-O ) :   0.9269
B(  5-C , 16-H ) :   0.9301 B(  6-C , 17-H ) :   0.9341 B(  6-C , 18-H ) :   0.9301
B(  6-C , 19-H ) :   0.9273 B(  7-O ,  8-C ) :   0.9224 B(  8-C , 20-H ) :   0.9403
B(  8-C , 21-H ) :   0.9348 B(  8-C , 22-H ) :   0.9342

MP2 TOTAL ENERGY:     -424.688105737 Eh
FINAL SINGLE POINT ENERGY      -424.688105736662

DIPOLE MOMENT
-------------
                                X             Y             Z
Electronic contribution:     -3.10713      -0.55402       3.80682
Nuclear contribution   :      3.68542       0.11927      -3.61676
                        -----------------------------------------
Total Dipole Moment    :      0.57829      -0.43475       0.19006
                        -----------------------------------------
Magnitude (a.u.)       :      0.74803
Magnitude (Debye)      :      1.90134

                             ****ORCA TERMINATED NORMALLY****
TOTAL RUN TIME: 0 days 0 hours 18 minutes 1 seconds 745 msec
