                         Program Version 3.0.3 - RELEASE   -
|  1> ! RI-MP2 RIJK def2-TZVP def2-TZVP/C def2-TZVP/JK TIGHTSCF
|  2> % maxcore 2000
|  3> % mp2 density relaxed end
|  4> *xyz 0 1
|  5>  N        0.1073821435    -1.1425405789    -0.0049773221
|  6>  C        0.0233839611     0.0109906493     0.0024534917
|  7>  C       -0.1025577821     1.4206364727     0.0118920683
|  8>  C       -1.1880456082     2.2414767261     0.0312266968
|  9>  C       -0.6049125937     3.5384164545     0.0303104447
| 10>  N        0.7161895804     3.4845597847     0.0121131156
| 11>  O        1.0344772845     2.1564267563     0.0005114305
| 12>  C       -1.2811709086     4.7921670556     0.0463794214
| 13>  N       -1.8682256946     5.7874060464     0.0598252271
| 14>  H       -2.2305160922     1.9747046534     0.0439867660
| 15> *
| 16>
| 17>                          ****END OF INPUT****

CARTESIAN COORDINATES (ANGSTROEM)
---------------------------------
  N      0.107382   -1.142541   -0.004977
  C      0.023384    0.010991    0.002453
  C     -0.102558    1.420636    0.011892
  C     -1.188046    2.241477    0.031227
  C     -0.604913    3.538416    0.030310
  N      0.716190    3.484560    0.012113
  O      1.034477    2.156427    0.000511
  C     -1.281171    4.792167    0.046379
  N     -1.868226    5.787406    0.059825
  H     -2.230516    1.974705    0.043987

 Total Charge           Charge          ....    0
 Multiplicity           Mult            ....    1
 Number of Electrons    NEL             ....   60
 Basis Dimension        Dim             ....  285

ORBITAL ENERGIES
----------------

  NO   OCC          E(Eh)            E(eV)
   0   2.0000     -20.721188      -563.8522
   1   2.0000     -15.706236      -427.3884
   2   2.0000     -15.631883      -425.3651
   3   2.0000     -15.622423      -425.1077
   4   2.0000     -11.402690      -310.2830
   5   2.0000     -11.372008      -309.4481
   6   2.0000     -11.327283      -308.2310
   7   2.0000     -11.321105      -308.0629
   8   2.0000     -11.319614      -308.0223
   9   2.0000      -1.575646       -42.8755
  10   2.0000      -1.276410       -34.7329
  11   2.0000      -1.269036       -34.5322
  12   2.0000      -1.230779       -33.4912
  13   2.0000      -1.159914       -31.5629
  14   2.0000      -0.958060       -26.0701
  15   2.0000      -0.955576       -26.0026
  16   2.0000      -0.856356       -23.3026
  17   2.0000      -0.735519       -20.0145
  18   2.0000      -0.727561       -19.7979
  19   2.0000      -0.715789       -19.4776
  20   2.0000      -0.650068       -17.6893
  21   2.0000      -0.610518       -16.6130
  22   2.0000      -0.601422       -16.3655
  23   2.0000      -0.565635       -15.3917
  24   2.0000      -0.563563       -15.3353
  25   2.0000      -0.546829       -14.8800
  26   2.0000      -0.521290       -14.1850
  27   2.0000      -0.507713       -13.8156
  28   2.0000      -0.462093       -12.5742
  29   2.0000      -0.421074       -11.4580
  30   0.0000       0.019822         0.5394
  31   0.0000       0.080908         2.2016
  32   0.0000       0.121573         3.3082
  33   0.0000       0.123421         3.3584
  34   0.0000       0.143659         3.9092

MULLIKEN ATOMIC CHARGES
-----------------------
   0 N :   -0.013503
   1 C :   -0.229929
   2 C :    0.352752
   3 C :   -0.211521
   4 C :    0.299595
   5 N :   -0.087860
   6 O :   -0.064383
   7 C :   -0.222373
   8 N :   -0.017122
   9 H :    0.194344
Sum of atomic charges:   -0.0000000

LOEWDIN ATOMIC CHARGES
----------------------
   0 N :    0.123564
   1 C :   -0.137031
   2 C :   -0.250905
   3 C :   -0.069175
   4 C :   -0.258770
   5 N :    0.104367
   6 O :    0.340897
   7 C :   -0.133159
   8 N :    0.113291
   9 H :    0.166921

  Mayer bond orders larger than 0.1
B(  0-N ,  1-C ) :   2.7980 B(  1-C ,  2-C ) :   0.9027 B(  2-C ,  3-C ) :   1.4718
B(  2-C ,  6-O ) :   1.0994 B(  3-C ,  4-C ) :   1.2142 B(  3-C ,  9-H ) :   0.8983
B(  4-C ,  5-N ) :   1.4861 B(  4-C ,  7-C ) :   0.8815 B(  5-N ,  6-O ) :   0.9358
B(  7-C ,  8-N ) :   2.8263

MP2 TOTAL ENERGY:     -429.739611241 Eh
FINAL SINGLE POINT ENERGY      -429.739611240769

DIPOLE MOMENT
-------------
                                X             Y             Z
Electronic contribution:      1.31025       0.06256      -0.01758
Nuclear contribution   :     -1.77204      -0.46862       0.02162
                        -----------------------------------------
Total Dipole Moment    :     -0.46179      -0.40606       0.00404
                        -----------------------------------------
Magnitude (a.u.)       :      0.61494
Magnitude (Debye)      :      1.56304

                             ****ORCA TERMINATED NORMALLY****
TOTAL RUN TIME: 0 days 0 hours 11 minutes 9 seconds 206 msec
