                         Program Version 3.0.3 - RELEASE   -
|  1> ! RI-MP2 RIJK def2-TZVP def2-TZVP/C def2-TZVP/JK TIGHTSCF
|  2> % maxcore 2000
|  3> % mp2 density relaxed end
|  4> *xyz 0 1
|  5>  C       -0.1023394744     1.5595399137     0.0594664884
|  6>  C        0.0536447415     0.0401969255    -0.0377012100
|  7>  C        0.6813665815    -0.5711821615     1.2144517977
|  8>  C        0.8506190926    -2.0842988847     1.1494159526
|  9>  C        1.4709115214    -2.7439446624     2.3703202405
| 10>  O        0.5114274376    -2.7269614972     0.1820960188
| 11>  H        0.8660617790     2.0531435940     0.2003523676
| 12>  H       -0.5535340791     1.9689382941    -0.8495274052
| 13>  H       -0.7413029016     1.8431468451     0.9036153860
| 14>  H       -0.9200732679    -0.4296599377    -0.2125568266
| 15>  H        0.6663614799    -0.2223988208    -0.9066590200
| 16>  H        1.6685576765    -0.1292116646     1.4152218349
| 17>  H        0.0846132501    -0.3361644485     2.1082324496
| 18>  H        2.4681006233    -2.3321097287     2.5625109639
| 19>  H        0.8678260369    -2.5412195655     3.2625771635
| 20>  H        1.5430451029    -3.8208035208     2.2135543983
| 21> *
| 22>
| 23>                          ****END OF INPUT****

CARTESIAN COORDINATES (ANGSTROEM)
---------------------------------
  C     -0.102339    1.559540    0.059466
  C      0.053645    0.040197   -0.037701
  C      0.681367   -0.571182    1.214452
  C      0.850619   -2.084299    1.149416
  C      1.470912   -2.743945    2.370320
  O      0.511427   -2.726961    0.182096
  H      0.866062    2.053144    0.200352
  H     -0.553534    1.968938   -0.849527
  H     -0.741303    1.843147    0.903615
  H     -0.920073   -0.429660   -0.212557
  H      0.666361   -0.222399   -0.906659
  H      1.668558   -0.129212    1.415222
  H      0.084613   -0.336164    2.108232
  H      2.468101   -2.332110    2.562511
  H      0.867826   -2.541220    3.262577
  H      1.543045   -3.820804    2.213554

 Total Charge           Charge          ....    0
 Multiplicity           Mult            ....    1
 Number of Electrons    NEL             ....   48
 Basis Dimension        Dim             ....  246

ORBITAL ENERGIES
----------------

  NO   OCC          E(Eh)            E(eV)
   0   2.0000     -20.541274      -558.9565
   1   2.0000     -11.327892      -308.2476
   2   2.0000     -11.236772      -305.7681
   3   2.0000     -11.233862      -305.6889
   4   2.0000     -11.221856      -305.3622
   5   2.0000     -11.216535      -305.2174
   6   2.0000      -1.385393       -37.6985
   7   2.0000      -1.075108       -29.2552
   8   2.0000      -1.014054       -27.5938
   9   2.0000      -0.944540       -25.7022
  10   2.0000      -0.822084       -22.3701
  11   2.0000      -0.733211       -19.9517
  12   2.0000      -0.652515       -17.7558
  13   2.0000      -0.647137       -17.6095
  14   2.0000      -0.624331       -16.9889
  15   2.0000      -0.595210       -16.1965
  16   2.0000      -0.566062       -15.4033
  17   2.0000      -0.558979       -15.2106
  18   2.0000      -0.543766       -14.7966
  19   2.0000      -0.501255       -13.6398
  20   2.0000      -0.489435       -13.3182
  21   2.0000      -0.484237       -13.1768
  22   2.0000      -0.474697       -12.9172
  23   2.0000      -0.407680       -11.0935
  24   0.0000       0.123547         3.3619
  25   0.0000       0.145554         3.9607
  26   0.0000       0.148741         4.0474
  27   0.0000       0.187777         5.1097
  28   0.0000       0.191087         5.1997

MULLIKEN ATOMIC CHARGES
-----------------------
   0 C :   -0.379054
   1 C :   -0.176665
   2 C :   -0.268873
   3 C :    0.213943
   4 C :   -0.396313
   5 O :   -0.293920
   6 H :    0.119774
   7 H :    0.137063
   8 H :    0.119774
   9 H :    0.117089
  10 H :    0.117092
  11 H :    0.128094
  12 H :    0.128093
  13 H :    0.140665
  14 H :    0.140666
  15 H :    0.152574
Sum of atomic charges:    0.0000000

LOEWDIN ATOMIC CHARGES
----------------------
   0 C :   -0.321373
   1 C :   -0.289602
   2 C :   -0.250448
   3 C :   -0.349230
   4 C :   -0.282646
   5 O :    0.147575
   6 H :    0.119319
   7 H :    0.121943
   8 H :    0.119319
   9 H :    0.140531
  10 H :    0.140532
  11 H :    0.150927
  12 H :    0.150926
  13 H :    0.134945
  14 H :    0.134945
  15 H :    0.132340

  Mayer bond orders larger than 0.1
B(  0-C ,  1-C ) :   0.9132 B(  0-C ,  6-H ) :   0.9377 B(  0-C ,  7-H ) :   0.9451
B(  0-C ,  8-H ) :   0.9377 B(  1-C ,  2-C ) :   0.9384 B(  1-C ,  9-H ) :   0.9347
B(  1-C , 10-H ) :   0.9347 B(  2-C ,  3-C ) :   0.9097 B(  2-C , 11-H ) :   0.9065
B(  2-C , 12-H ) :   0.9065 B(  3-C ,  4-C ) :   0.9263 B(  3-C ,  5-O ) :   1.9927
B(  4-C , 13-H ) :   0.9180 B(  4-C , 14-H ) :   0.9180 B(  4-C , 15-H ) :   0.9376

MP2 TOTAL ENERGY:     -271.193818615 Eh
FINAL SINGLE POINT ENERGY      -271.193818614775

DIPOLE MOMENT
-------------
                                X             Y             Z
Electronic contribution:      0.10143      -5.84965      -1.51543
Nuclear contribution   :      0.17159       6.42958       2.31275
                        -----------------------------------------
Total Dipole Moment    :      0.27302       0.57992       0.79732
                        -----------------------------------------
Magnitude (a.u.)       :      1.02302
Magnitude (Debye)      :      2.60032

                             ****ORCA TERMINATED NORMALLY****
TOTAL RUN TIME: 0 days 0 hours 6 minutes 6 seconds 992 msec
