                         Program Version 3.0.3 - RELEASE   -
|  1> ! RI-MP2 RIJK def2-TZVP def2-TZVP/C def2-TZVP/JK TIGHTSCF
|  2> % maxcore 2000
|  3> % mp2 density relaxed end
|  4> *xyz 0 1
|  5>  O       -0.0424446908     1.4170770617    -0.0242105317
|  6>  C       -0.0178856410     0.0431886287     0.0227312657
|  7>  C       -0.2714203332    -0.8344603555    -1.1717327490
|  8>  C       -1.1963858345    -0.9185411770     0.0196698635
|  9>  C       -0.5361616415    -1.7790090543     1.0996914841
| 10>  C        0.6782941821    -0.7645178544     1.1325223338
| 11>  O        1.9569509720    -1.2284732371     0.7593080746
| 12>  C        0.7445447931    -0.0366377269     2.4073984882
| 13>  N        0.8313634780     0.4918707655     3.4315445031
| 14>  H        0.7254208718     1.7234537173    -0.5205488781
| 15>  H       -0.6695979497    -0.2843026918    -2.0179805694
| 16>  H        0.3914616597    -1.6572681387    -1.4226528466
| 17>  H       -2.2512611157    -0.6897908944    -0.0456373430
| 18>  H       -1.0786809537    -1.8147493138     2.0451179423
| 19>  H       -0.2464450350    -2.7895512559     0.7975421740
| 20>  H        2.3431782582    -1.7092421534     1.5004796184
| 21> *
| 22>
| 23>                          ****END OF INPUT****

CARTESIAN COORDINATES (ANGSTROEM)
---------------------------------
  O     -0.042445    1.417077   -0.024211
  C     -0.017886    0.043189    0.022731
  C     -0.271420   -0.834460   -1.171733
  C     -1.196386   -0.918541    0.019670
  C     -0.536162   -1.779009    1.099691
  C      0.678294   -0.764518    1.132522
  O      1.956951   -1.228473    0.759308
  C      0.744545   -0.036638    2.407398
  N      0.831363    0.491871    3.431545
  H      0.725421    1.723454   -0.520549
  H     -0.669598   -0.284303   -2.017981
  H      0.391462   -1.657268   -1.422653
  H     -2.251261   -0.689791   -0.045637
  H     -1.078681   -1.814749    2.045118
  H     -0.246445   -2.789551    0.797542
  H      2.343178   -1.709242    1.500480

 Total Charge           Charge          ....    0
 Multiplicity           Mult            ....    1
 Number of Electrons    NEL             ....   66
 Basis Dimension        Dim             ....  321

ORBITAL ENERGIES
----------------

  NO   OCC          E(Eh)            E(eV)
   0   2.0000     -20.592978      -560.3634
   1   2.0000     -20.586485      -560.1867
   2   2.0000     -15.577811      -423.8938
   3   2.0000     -11.348555      -308.8099
   4   2.0000     -11.315214      -307.9026
   5   2.0000     -11.275449      -306.8206
   6   2.0000     -11.259277      -306.3805
   7   2.0000     -11.256577      -306.3070
   8   2.0000     -11.248527      -306.0880
   9   2.0000      -1.411688       -38.4140
  10   2.0000      -1.394827       -37.9552
  11   2.0000      -1.224384       -33.3172
  12   2.0000      -1.203361       -32.7451
  13   2.0000      -1.025556       -27.9068
  14   2.0000      -0.935459       -25.4551
  15   2.0000      -0.838478       -22.8162
  16   2.0000      -0.802599       -21.8398
  17   2.0000      -0.769707       -20.9448
  18   2.0000      -0.725941       -19.7539
  19   2.0000      -0.673974       -18.3398
  20   2.0000      -0.657672       -17.8962
  21   2.0000      -0.624715       -16.9994
  22   2.0000      -0.616852       -16.7854
  23   2.0000      -0.580887       -15.8067
  24   2.0000      -0.571753       -15.5582
  25   2.0000      -0.552078       -15.0228
  26   2.0000      -0.543887       -14.7999
  27   2.0000      -0.513258       -13.9665
  28   2.0000      -0.489554       -13.3215
  29   2.0000      -0.473243       -12.8776
  30   2.0000      -0.450266       -12.2524
  31   2.0000      -0.419407       -11.4126
  32   2.0000      -0.408001       -11.1023
  33   0.0000       0.120601         3.2817
  34   0.0000       0.139947         3.8082
  35   0.0000       0.149664         4.0726
  36   0.0000       0.166613         4.5338
  37   0.0000       0.168280         4.5791

MULLIKEN ATOMIC CHARGES
-----------------------
   0 O :   -0.447694
   1 C :    0.169223
   2 C :   -0.290983
   3 C :   -0.148465
   4 C :   -0.242930
   5 C :    0.371172
   6 O :   -0.454594
   7 C :   -0.290090
   8 N :   -0.041315
   9 H :    0.337488
  10 H :    0.145248
  11 H :    0.143825
  12 H :    0.149778
  13 H :    0.146378
  14 H :    0.122679
  15 H :    0.330282
Sum of atomic charges:    0.0000000

LOEWDIN ATOMIC CHARGES
----------------------
   0 O :    0.054308
   1 C :   -0.303231
   2 C :   -0.179818
   3 C :   -0.152633
   4 C :   -0.156616
   5 C :   -0.317344
   6 O :    0.036684
   7 C :   -0.147796
   8 N :    0.076871
   9 H :    0.194333
  10 H :    0.147753
  11 H :    0.137623
  12 H :    0.142811
  13 H :    0.144709
  14 H :    0.135875
  15 H :    0.186472

  Mayer bond orders larger than 0.1
B(  0-O ,  1-C ) :   1.0389 B(  0-O ,  9-H ) :   0.8283 B(  1-C ,  2-C ) :   0.9086
B(  1-C ,  3-C ) :   0.8544 B(  1-C ,  5-C ) :   0.8941 B(  2-C ,  3-C ) :   0.8854
B(  2-C , 10-H ) :   0.9300 B(  2-C , 11-H ) :   0.8990 B(  3-C ,  4-C ) :   0.9635
B(  3-C , 12-H ) :   0.9056 B(  4-C ,  5-C ) :   0.8918 B(  4-C , 13-H ) :   0.9171
B(  4-C , 14-H ) :   0.9038 B(  5-C ,  6-O ) :   0.9775 B(  5-C ,  7-C ) :   0.9117
B(  6-O , 15-H ) :   0.8312 B(  7-C ,  8-N ) :   2.8678

MP2 TOTAL ENERGY:     -437.142545080 Eh
FINAL SINGLE POINT ENERGY      -437.142545080428

DIPOLE MOMENT
-------------
                                X             Y             Z
Electronic contribution:      2.48708       3.21076       3.94544
Nuclear contribution   :     -2.51365      -4.18934      -5.05401
                        -----------------------------------------
Total Dipole Moment    :     -0.02657      -0.97858      -1.10856
                        -----------------------------------------
Magnitude (a.u.)       :      1.47893
Magnitude (Debye)      :      3.75915

                             ****ORCA TERMINATED NORMALLY****
TOTAL RUN TIME: 0 days 0 hours 16 minutes 37 seconds 64 msec
