                         Program Version 3.0.3 - RELEASE   -
|  1> ! RI-MP2 RIJK def2-TZVP def2-TZVP/C def2-TZVP/JK TIGHTSCF
|  2> % maxcore 2000
|  3> % mp2 density relaxed end
|  4> *xyz 0 1
|  5>  C        0.0978583299     1.6183649493     0.0967863917
|  6>  C        0.1930578646     0.0947699860    -0.0056665701
|  7>  C        0.5946918933    -0.5677392710     1.3274799643
|  8>  C        0.6565712905    -2.0595672200     1.2484937748
|  9>  N       -0.3559548133    -2.8850648810     1.4106837937
| 10>  C        0.1400519057    -4.1562488867     1.1998956923
| 11>  C       -0.7323922248    -5.3645075675     1.3072445203
| 12>  C        1.4766428699    -4.0902507393     0.9050792260
| 13>  N        1.7954697028    -2.7469624885     0.9372872090
| 14>  H        1.0567613275     2.0591694977     0.3927907815
| 15>  H       -0.1909778850     2.0632774135    -0.8603731145
| 16>  H       -0.6468555687     1.9186941522     0.8421105822
| 17>  H       -0.7681896211    -0.3242581762    -0.3228316455
| 18>  H        0.9196609670    -0.1820040402    -0.7801768966
| 19>  H        1.5629095320    -0.1691021714     1.6580992692
| 20>  H       -0.1378351919    -0.3032155168     2.0967300730
| 21>  H       -0.1657461910    -6.2789716529     1.1106255480
| 22>  H       -1.1744487776    -5.4447169558     2.3064023235
| 23>  H       -1.5622209043    -5.3171037972     0.5935149554
| 24>  H        2.2126888159    -4.8473236805     0.6903970210
| 25>  H        2.7047236786    -2.3489670335     0.7737365408
| 26> *
| 27>
| 28>                          ****END OF INPUT****

CARTESIAN COORDINATES (ANGSTROEM)
---------------------------------
  C      0.097858    1.618365    0.096786
  C      0.193058    0.094770   -0.005667
  C      0.594692   -0.567739    1.327480
  C      0.656571   -2.059567    1.248494
  N     -0.355955   -2.885065    1.410684
  C      0.140052   -4.156249    1.199896
  C     -0.732392   -5.364508    1.307245
  C      1.476643   -4.090251    0.905079
  N      1.795470   -2.746962    0.937287
  H      1.056761    2.059169    0.392791
  H     -0.190978    2.063277   -0.860373
  H     -0.646856    1.918694    0.842111
  H     -0.768190   -0.324258   -0.322832
  H      0.919661   -0.182004   -0.780177
  H      1.562910   -0.169102    1.658099
  H     -0.137835   -0.303216    2.096730
  H     -0.165746   -6.278972    1.110626
  H     -1.174449   -5.444717    2.306402
  H     -1.562221   -5.317104    0.593515
  H      2.212689   -4.847324    0.690397
  H      2.704724   -2.348967    0.773737

 Total Charge           Charge          ....    0
 Multiplicity           Mult            ....    1
 Number of Electrons    NEL             ....   68
 Basis Dimension        Dim             ....  351

ORBITAL ENERGIES
----------------

  NO   OCC          E(Eh)            E(eV)
   0   2.0000     -15.605287      -424.6415
   1   2.0000     -15.526149      -422.4880
   2   2.0000     -11.290512      -307.2304
   3   2.0000     -11.242020      -305.9109
   4   2.0000     -11.238562      -305.8168
   5   2.0000     -11.235621      -305.7368
   6   2.0000     -11.227065      -305.5040
   7   2.0000     -11.217575      -305.2457
   8   2.0000     -11.210866      -305.0632
   9   2.0000      -1.328926       -36.1619
  10   2.0000      -1.155657       -31.4470
  11   2.0000      -1.080848       -29.4114
  12   2.0000      -1.022078       -27.8122
  13   2.0000      -0.958761       -26.0892
  14   2.0000      -0.909859       -24.7585
  15   2.0000      -0.823741       -22.4151
  16   2.0000      -0.792171       -21.5561
  17   2.0000      -0.764743       -20.8097
  18   2.0000      -0.701270       -19.0825
  19   2.0000      -0.636691       -17.3252
  20   2.0000      -0.609798       -16.5935
  21   2.0000      -0.605612       -16.4795
  22   2.0000      -0.593401       -16.1473
  23   2.0000      -0.565207       -15.3801
  24   2.0000      -0.549782       -14.9603
  25   2.0000      -0.537311       -14.6210
  26   2.0000      -0.531008       -14.4495
  27   2.0000      -0.520548       -14.1648
  28   2.0000      -0.492615       -13.4047
  29   2.0000      -0.485517       -13.2116
  30   2.0000      -0.477401       -12.9908
  31   2.0000      -0.422111       -11.4862
  32   2.0000      -0.383719       -10.4415
  33   2.0000      -0.298384        -8.1194
  34   0.0000       0.121520         3.3067
  35   0.0000       0.148080         4.0295
  36   0.0000       0.160621         4.3707
  37   0.0000       0.174221         4.7408
  38   0.0000       0.181144         4.9292

MULLIKEN ATOMIC CHARGES
-----------------------
   0 C :   -0.388671
   1 C :   -0.186370
   2 C :   -0.325110
   3 C :    0.279463
   4 N :   -0.308973
   5 C :    0.094849
   6 C :   -0.420442
   7 C :   -0.117680
   8 N :   -0.280780
   9 H :    0.117546
  10 H :    0.134879
  11 H :    0.127257
  12 H :    0.129936
  13 H :    0.098490
  14 H :    0.116349
  15 H :    0.137587
  16 H :    0.125661
  17 H :    0.140064
  18 H :    0.139610
  19 H :    0.142821
  20 H :    0.243515
Sum of atomic charges:   -0.0000000

LOEWDIN ATOMIC CHARGES
----------------------
   0 C :   -0.321435
   1 C :   -0.287339
   2 C :   -0.238994
   3 C :   -0.321579
   4 N :    0.128523
   5 C :   -0.291488
   6 C :   -0.277719
   7 C :   -0.228055
   8 N :    0.191886
   9 H :    0.118831
  10 H :    0.121775
  11 H :    0.121926
  12 H :    0.141424
  13 H :    0.131814
  14 H :    0.141006
  15 H :    0.154515
  16 H :    0.127331
  17 H :    0.131091
  18 H :    0.130953
  19 H :    0.133578
  20 H :    0.191955

  Mayer bond orders larger than 0.1
B(  0-C ,  1-C ) :   0.9142 B(  0-C ,  9-H ) :   0.9377 B(  0-C , 10-H ) :   0.9413
B(  0-C , 11-H ) :   0.9398 B(  1-C ,  2-C ) :   0.9163 B(  1-C , 12-H ) :   0.9354
B(  1-C , 13-H ) :   0.9303 B(  2-C ,  3-C ) :   0.9015 B(  2-C , 14-H ) :   0.9459
B(  2-C , 15-H ) :   0.9321 B(  3-C ,  4-N ) :   1.5654 B(  3-C ,  8-N ) :   1.1446
B(  4-N ,  5-C ) :   1.2509 B(  5-C ,  6-C ) :   0.8777 B(  5-C ,  7-C ) :   1.5326
B(  6-C , 16-H ) :   0.9532 B(  6-C , 17-H ) :   0.9371 B(  6-C , 18-H ) :   0.9372
B(  7-C ,  8-N ) :   1.1185 B(  7-C , 19-H ) :   0.9038 B(  8-N , 20-H ) :   0.8677

MP2 TOTAL ENERGY:     -382.648953605 Eh
FINAL SINGLE POINT ENERGY      -382.648953605476

DIPOLE MOMENT
-------------
                                X             Y             Z
Electronic contribution:      2.46021      -6.48636       2.07805
Nuclear contribution   :     -1.24007       6.72355      -2.39950
                        -----------------------------------------
Total Dipole Moment    :      1.22014       0.23720      -0.32146
                        -----------------------------------------
Magnitude (a.u.)       :      1.28388
Magnitude (Debye)      :      3.26335

                             ****ORCA TERMINATED NORMALLY****
TOTAL RUN TIME: 0 days 0 hours 17 minutes 45 seconds 903 msec
