                         Program Version 3.0.3 - RELEASE   -
|  1> ! RI-MP2 RIJK def2-TZVP def2-TZVP/C def2-TZVP/JK TIGHTSCF
|  2> % maxcore 2000
|  3> % mp2 density relaxed end
|  4> *xyz 0 1
|  5>  C       -0.0324880218     1.5224255565     0.0702287009
|  6>  C        0.0016814868     0.0217141059    -0.0255065137
|  7>  C        0.0041177074    -0.6244957628    -1.1942540278
|  8>  C        0.0252582539    -2.1239484575    -1.3397586415
|  9>  C       -0.4173016688    -2.8294505335    -0.0484980604
| 10>  C        0.2847621953    -2.2071759433     1.1376419162
| 11>  C        0.6991512249    -3.0144262602     2.2893276927
| 12>  O        1.6555535756    -2.6178184137     1.3021900313
| 13>  C        0.0323225180    -0.7192914133     1.2955786722
| 14>  H        0.8553545708     1.9073678079     0.5886270235
| 15>  H       -0.0789003974     1.9891600736    -0.9172557996
| 16>  H       -0.9009413846     1.8637964265     0.6493507549
| 17>  H        0.0003436250    -0.0449940792    -2.1154556113
| 18>  H       -0.6181005391    -2.4289609665    -2.1736744009
| 19>  H        1.0388405223    -2.4562263983    -1.6059399255
| 20>  H       -1.5011144777    -2.7131611956     0.0799161906
| 21>  H       -0.2004852629    -3.9007202678    -0.0943564814
| 22>  H        0.8151229852    -2.5452124209     3.2665187192
| 23>  H        0.4662781566    -4.0788570762     2.3162935661
| 24>  H        0.8128266216    -0.3002969930     1.9430616713
| 25>  H       -0.9191774308    -0.5577925086     1.8256240131
| 26> *
| 27>
| 28>                          ****END OF INPUT****

CARTESIAN COORDINATES (ANGSTROEM)
---------------------------------
  C     -0.032488    1.522426    0.070229
  C      0.001681    0.021714   -0.025507
  C      0.004118   -0.624496   -1.194254
  C      0.025258   -2.123948   -1.339759
  C     -0.417302   -2.829451   -0.048498
  C      0.284762   -2.207176    1.137642
  C      0.699151   -3.014426    2.289328
  O      1.655554   -2.617818    1.302190
  C      0.032323   -0.719291    1.295579
  H      0.855355    1.907368    0.588627
  H     -0.078900    1.989160   -0.917256
  H     -0.900941    1.863796    0.649351
  H      0.000344   -0.044994   -2.115456
  H     -0.618101   -2.428961   -2.173674
  H      1.038841   -2.456226   -1.605940
  H     -1.501114   -2.713161    0.079916
  H     -0.200485   -3.900720   -0.094356
  H      0.815123   -2.545212    3.266519
  H      0.466278   -4.078857    2.316294
  H      0.812827   -0.300297    1.943062
  H     -0.919177   -0.557793    1.825624

 Total Charge           Charge          ....    0
 Multiplicity           Mult            ....    1
 Number of Electrons    NEL             ....   68
 Basis Dimension        Dim             ....  351

ORBITAL ENERGIES
----------------

  NO   OCC          E(Eh)            E(eV)
   0   2.0000     -20.557888      -559.4086
   1   2.0000     -11.286151      -307.1118
   2   2.0000     -11.275960      -306.8345
   3   2.0000     -11.231479      -305.6241
   4   2.0000     -11.230175      -305.5886
   5   2.0000     -11.225476      -305.4607
   6   2.0000     -11.223318      -305.4020
   7   2.0000     -11.219594      -305.3007
   8   2.0000     -11.216539      -305.2175
   9   2.0000      -1.402310       -38.1588
  10   2.0000      -1.122186       -30.5362
  11   2.0000      -1.035492       -28.1772
  12   2.0000      -0.996166       -27.1071
  13   2.0000      -0.931848       -25.3569
  14   2.0000      -0.901042       -24.5186
  15   2.0000      -0.846221       -23.0269
  16   2.0000      -0.781679       -21.2706
  17   2.0000      -0.694980       -18.9114
  18   2.0000      -0.669641       -18.2219
  19   2.0000      -0.662683       -18.0325
  20   2.0000      -0.623519       -16.9668
  21   2.0000      -0.596679       -16.2364
  22   2.0000      -0.581270       -15.8172
  23   2.0000      -0.574913       -15.6442
  24   2.0000      -0.556675       -15.1479
  25   2.0000      -0.534241       -14.5374
  26   2.0000      -0.525476       -14.2989
  27   2.0000      -0.511810       -13.9271
  28   2.0000      -0.506474       -13.7819
  29   2.0000      -0.484042       -13.1715
  30   2.0000      -0.468395       -12.7457
  31   2.0000      -0.430989       -11.7278
  32   2.0000      -0.411911       -11.2087
  33   2.0000      -0.336258        -9.1501
  34   0.0000       0.133200         3.6246
  35   0.0000       0.155723         4.2374
  36   0.0000       0.160445         4.3659
  37   0.0000       0.166393         4.5278
  38   0.0000       0.183062         4.9814

MULLIKEN ATOMIC CHARGES
-----------------------
   0 C :   -0.420389
   1 C :    0.010158
   2 C :   -0.198741
   3 C :   -0.169617
   4 C :   -0.224417
   5 C :    0.185106
   6 C :   -0.070471
   7 O :   -0.345268
   8 C :   -0.240122
   9 H :    0.138173
  10 H :    0.131940
  11 H :    0.131411
  12 H :    0.112446
  13 H :    0.123855
  14 H :    0.125884
  15 H :    0.113670
  16 H :    0.123450
  17 H :    0.110410
  18 H :    0.110566
  19 H :    0.129682
  20 H :    0.122273
Sum of atomic charges:    0.0000000

LOEWDIN ATOMIC CHARGES
----------------------
   0 C :   -0.272575
   1 C :   -0.192886
   2 C :   -0.150754
   3 C :   -0.245633
   4 C :   -0.212507
   5 C :   -0.314836
   6 C :   -0.248381
   7 O :    0.156916
   8 C :   -0.181989
   9 H :    0.129434
  10 H :    0.128170
  11 H :    0.128430
  12 H :    0.142528
  13 H :    0.141359
  14 H :    0.149600
  15 H :    0.148198
  16 H :    0.144796
  17 H :    0.120364
  18 H :    0.119947
  19 H :    0.156949
  20 H :    0.152871

  Mayer bond orders larger than 0.1
B(  0-C ,  1-C ) :   0.8951 B(  0-C ,  9-H ) :   0.9331 B(  0-C , 10-H ) :   0.9438
B(  0-C , 11-H ) :   0.9300 B(  1-C ,  2-C ) :   1.7651 B(  1-C ,  8-C ) :   0.9800
B(  2-C ,  3-C ) :   0.9396 B(  2-C , 12-H ) :   0.9242 B(  3-C ,  4-C ) :   0.9521
B(  3-C , 13-H ) :   0.9317 B(  3-C , 14-H ) :   0.9075 B(  4-C ,  5-C ) :   0.9083
B(  4-C , 15-H ) :   0.9268 B(  4-C , 16-H ) :   0.9247 B(  5-C ,  6-C ) :   0.9782
B(  5-C ,  7-O ) :   0.8432 B(  5-C ,  8-C ) :   0.9312 B(  6-C ,  7-O ) :   0.9097
B(  6-C , 17-H ) :   0.9117 B(  6-C , 18-H ) :   0.9003 B(  8-C , 19-H ) :   0.9118
B(  8-C , 20-H ) :   0.9073

MP2 TOTAL ENERGY:     -386.414622572 Eh
FINAL SINGLE POINT ENERGY      -386.414622572177

DIPOLE MOMENT
-------------
                                X             Y             Z
Electronic contribution:      2.52643      -3.33890       1.25267
Nuclear contribution   :     -3.22610       3.40688      -1.06825
                        -----------------------------------------
Total Dipole Moment    :     -0.69966       0.06798       0.18442
                        -----------------------------------------
Magnitude (a.u.)       :      0.72675
Magnitude (Debye)      :      1.84724

                             ****ORCA TERMINATED NORMALLY****
TOTAL RUN TIME: 0 days 0 hours 20 minutes 59 seconds 169 msec
