                         Program Version 3.0.3 - RELEASE   -
|  1> ! RI-MP2 RIJK def2-TZVP def2-TZVP/C def2-TZVP/JK TIGHTSCF
|  2> % maxcore 2000
|  3> % mp2 density relaxed end
|  4> *xyz 0 1
|  5>  C        0.0399001420     1.5299519325     0.0529973075
|  6>  C       -0.0385302607     0.0353655199    -0.0354739198
|  7>  C       -0.8813948519    -0.7993843299     0.8431226910
|  8>  N        0.5875870686    -0.8881250668     1.0042681076
|  9>  C        1.0370599640    -1.7949196606    -0.1307885970
| 10>  C        0.4944044487    -0.7962741961    -1.2017561822
| 11>  C        2.4695562933    -2.0121363425    -0.1433946425
| 12>  C        3.6574316758    -2.1922524234    -0.1789715648
| 13>  H        1.0331764967     1.8905274189    -0.2346262374
| 14>  H       -0.6955570572     1.9972621881    -0.6127308395
| 15>  H       -0.1626002379     1.8689174701     1.0730450399
| 16>  H       -1.3642432030    -0.3151619018     1.6865711072
| 17>  H       -1.4220077153    -1.6570569600     0.4453209169
| 18>  H        0.5179679265    -2.7603915885    -0.1026669659
| 19>  H       -0.2357536669    -1.1763289024    -1.9218472496
| 20>  H        1.3069188251    -0.3046912085    -1.7386242734
| 21>  H        4.7066139222    -2.3546560989    -0.1981589079
| 22> *
| 23>
| 24>                          ****END OF INPUT****

CARTESIAN COORDINATES (ANGSTROEM)
---------------------------------
  C      0.039900    1.529952    0.052997
  C     -0.038530    0.035366   -0.035474
  C     -0.881395   -0.799384    0.843123
  N      0.587587   -0.888125    1.004268
  C      1.037060   -1.794920   -0.130789
  C      0.494404   -0.796274   -1.201756
  C      2.469556   -2.012136   -0.143395
  C      3.657432   -2.192252   -0.178972
  H      1.033176    1.890527   -0.234626
  H     -0.695557    1.997262   -0.612731
  H     -0.162600    1.868917    1.073045
  H     -1.364243   -0.315162    1.686571
  H     -1.422008   -1.657057    0.445321
  H      0.517968   -2.760392   -0.102667
  H     -0.235754   -1.176329   -1.921847
  H      1.306919   -0.304691   -1.738624
  H      4.706614   -2.354656   -0.198159

 Total Charge           Charge          ....    0
 Multiplicity           Mult            ....    1
 Number of Electrons    NEL             ....   58
 Basis Dimension        Dim             ....  302

ORBITAL ENERGIES
----------------

  NO   OCC          E(Eh)            E(eV)
   0   2.0000     -15.564398      -423.5288
   1   2.0000     -11.287138      -307.1386
   2   2.0000     -11.272532      -306.7412
   3   2.0000     -11.258036      -306.3467
   4   2.0000     -11.240204      -305.8615
   5   2.0000     -11.230764      -305.6046
   6   2.0000     -11.225170      -305.4524
   7   2.0000     -11.222117      -305.3693
   8   2.0000      -1.295866       -35.2623
   9   2.0000      -1.063103       -28.9285
  10   2.0000      -1.006601       -27.3910
  11   2.0000      -0.991343       -26.9758
  12   2.0000      -0.911324       -24.7984
  13   2.0000      -0.844411       -22.9776
  14   2.0000      -0.742340       -20.2001
  15   2.0000      -0.716622       -19.5003
  16   2.0000      -0.682345       -18.5676
  17   2.0000      -0.651662       -17.7326
  18   2.0000      -0.614293       -16.7158
  19   2.0000      -0.586564       -15.9612
  20   2.0000      -0.570824       -15.5329
  21   2.0000      -0.559146       -15.2151
  22   2.0000      -0.541910       -14.7461
  23   2.0000      -0.492030       -13.3888
  24   2.0000      -0.461085       -12.5468
  25   2.0000      -0.432411       -11.7665
  26   2.0000      -0.389200       -10.5907
  27   2.0000      -0.385644       -10.4939
  28   2.0000      -0.367498       -10.0001
  29   0.0000       0.137868         3.7516
  30   0.0000       0.153612         4.1800
  31   0.0000       0.165090         4.4923
  32   0.0000       0.167595         4.5605
  33   0.0000       0.182056         4.9540

MULLIKEN ATOMIC CHARGES
-----------------------
   0 C :   -0.424784
   1 C :    0.106259
   2 C :   -0.179136
   3 N :   -0.223289
   4 C :   -0.175919
   5 C :   -0.199232
   6 C :   -0.024020
   7 C :   -0.103199
   8 H :    0.135037
   9 H :    0.133886
  10 H :    0.139824
  11 H :    0.130079
  12 H :    0.118197
  13 H :    0.118913
  14 H :    0.123287
  15 H :    0.132233
  16 H :    0.191865
Sum of atomic charges:   -0.0000000

LOEWDIN ATOMIC CHARGES
----------------------
   0 C :   -0.271009
   1 C :   -0.278014
   2 C :   -0.230404
   3 N :    0.139627
   4 C :   -0.232156
   5 C :   -0.170002
   6 C :   -0.086854
   7 C :   -0.087074
   8 H :    0.130465
   9 H :    0.131183
  10 H :    0.134274
  11 H :    0.134738
  12 H :    0.126703
  13 H :    0.154654
  14 H :    0.131229
  15 H :    0.145372
  16 H :    0.127270

  Mayer bond orders larger than 0.1
B(  0-C ,  1-C ) :   0.8861 B(  0-C ,  8-H ) :   0.9386 B(  0-C ,  9-H ) :   0.9341
B(  0-C , 10-H ) :   0.9363 B(  1-C ,  2-C ) :   0.9639 B(  1-C ,  3-N ) :   0.8097
B(  1-C ,  5-C ) :   0.9139 B(  2-C ,  3-N ) :   0.9121 B(  2-C , 11-H ) :   0.9172
B(  2-C , 12-H ) :   0.9008 B(  3-N ,  4-C ) :   1.0038 B(  4-C ,  5-C ) :   0.9088
B(  4-C ,  6-C ) :   1.2172 B(  4-C ,  7-C ) :  -0.1328 B(  4-C , 13-H ) :   0.9155
B(  5-C , 14-H ) :   0.9085 B(  5-C , 15-H ) :   0.9269 B(  6-C ,  7-C ) :   2.5661
B(  7-C , 16-H ) :   0.8916

MP2 TOTAL ENERGY:     -326.049475430 Eh
FINAL SINGLE POINT ENERGY      -326.049475429834

DIPOLE MOMENT
-------------
                                X             Y             Z
Electronic contribution:      3.41151      -4.13835       1.13935
Nuclear contribution   :     -3.90134       4.27207      -1.72851
                        -----------------------------------------
Total Dipole Moment    :     -0.48983       0.13372      -0.58917
                        -----------------------------------------
Magnitude (a.u.)       :      0.77778
Magnitude (Debye)      :      1.97695

                             ****ORCA TERMINATED NORMALLY****
TOTAL RUN TIME: 0 days 0 hours 13 minutes 28 seconds 834 msec
