                         Program Version 3.0.3 - RELEASE   -
|  1> ! RI-MP2 RIJK def2-TZVP def2-TZVP/C def2-TZVP/JK TIGHTSCF
|  2> % maxcore 2000
|  3> % mp2 density relaxed end
|  4> *xyz 0 1
|  5>  C        0.0733106212     1.4864901943     0.0402682357
|  6>  C        0.0413202588     0.0316803614     0.0363080973
|  7>  C        0.0254927585    -1.1724415406     0.0309237233
|  8>  C        0.0187180176    -2.6111626327     0.0157867630
|  9>  C       -0.4889952079    -3.3750591600     1.2519643844
| 10>  C       -1.3213967688    -3.3843687015     0.0145655947
| 11>  C       -2.6290108475    -2.6361676762    -0.0717184996
| 12>  C        1.1027898299    -3.2268651508    -0.7151000946
| 13>  N        1.9606801667    -3.7371536205    -1.2996385674
| 14>  H        1.0393581002     1.8538625144    -0.3223746585
| 15>  H       -0.7057106713     1.9064564612    -0.6052142083
| 16>  H       -0.0756430663     1.8857501571     1.0494140514
| 17>  H        0.0572582607    -4.2680524404     1.5314100512
| 18>  H       -0.8035393324    -2.7469204972     2.0775748473
| 19>  H       -1.2763276924    -4.2991933663    -0.5687089925
| 20>  H       -2.5851638510    -1.6955864896     0.4825436255
| 21>  H       -2.8813845045    -2.4035361670    -1.1108207883
| 22>  H       -3.4384506015    -3.2440067256     0.3459145953
| 23> *
| 24>
| 25>                          ****END OF INPUT****

CARTESIAN COORDINATES (ANGSTROEM)
---------------------------------
  C      0.073311    1.486490    0.040268
  C      0.041320    0.031680    0.036308
  C      0.025493   -1.172442    0.030924
  C      0.018718   -2.611163    0.015787
  C     -0.488995   -3.375059    1.251964
  C     -1.321397   -3.384369    0.014566
  C     -2.629011   -2.636168   -0.071718
  C      1.102790   -3.226865   -0.715100
  N      1.960680   -3.737154   -1.299639
  H      1.039358    1.853863   -0.322375
  H     -0.705711    1.906456   -0.605214
  H     -0.075643    1.885750    1.049414
  H      0.057258   -4.268052    1.531410
  H     -0.803539   -2.746920    2.077575
  H     -1.276328   -4.299193   -0.568709
  H     -2.585164   -1.695586    0.482544
  H     -2.881385   -2.403536   -1.110821
  H     -3.438451   -3.244007    0.345915

 Total Charge           Charge          ....    0
 Multiplicity           Mult            ....    1
 Number of Electrons    NEL             ....   64
 Basis Dimension        Dim             ....  333

ORBITAL ENERGIES
----------------

  NO   OCC          E(Eh)            E(eV)
   0   2.0000     -15.564293      -423.5259
   1   2.0000     -11.308455      -307.7187
   2   2.0000     -11.273743      -306.7741
   3   2.0000     -11.272014      -306.7271
   4   2.0000     -11.264538      -306.5237
   5   2.0000     -11.256180      -306.2962
   6   2.0000     -11.242040      -305.9115
   7   2.0000     -11.236674      -305.7654
   8   2.0000     -11.236179      -305.7520
   9   2.0000      -1.225710       -33.3533
  10   2.0000      -1.185022       -32.2461
  11   2.0000      -1.069217       -29.0949
  12   2.0000      -1.005887       -27.3716
  13   2.0000      -0.972511       -26.4634
  14   2.0000      -0.906877       -24.6774
  15   2.0000      -0.819961       -22.3123
  16   2.0000      -0.765173       -20.8214
  17   2.0000      -0.682348       -18.5676
  18   2.0000      -0.638474       -17.3738
  19   2.0000      -0.617009       -16.7897
  20   2.0000      -0.599549       -16.3145
  21   2.0000      -0.596321       -16.2267
  22   2.0000      -0.589288       -16.0353
  23   2.0000      -0.569858       -15.5066
  24   2.0000      -0.551734       -15.0134
  25   2.0000      -0.535492       -14.5715
  26   2.0000      -0.518819       -14.1178
  27   2.0000      -0.493451       -13.4275
  28   2.0000      -0.444470       -12.0946
  29   2.0000      -0.437682       -11.9099
  30   2.0000      -0.387246       -10.5375
  31   2.0000      -0.359525        -9.7832
  32   0.0000       0.124163         3.3786
  33   0.0000       0.138604         3.7716
  34   0.0000       0.152040         4.1372
  35   0.0000       0.159169         4.3312
  36   0.0000       0.164631         4.4798

MULLIKEN ATOMIC CHARGES
-----------------------
   0 C :   -0.482972
   1 C :    0.106359
   2 C :   -0.038781
   3 C :    0.039787
   4 C :   -0.259033
   5 C :   -0.066474
   6 C :   -0.407529
   7 C :   -0.214786
   8 N :   -0.059038
   9 H :    0.171158
  10 H :    0.165246
  11 H :    0.164503
  12 H :    0.159664
  13 H :    0.147334
  14 H :    0.147357
  15 H :    0.140591
  16 H :    0.143809
  17 H :    0.142803
Sum of atomic charges:   -0.0000000

LOEWDIN ATOMIC CHARGES
----------------------
   0 C :   -0.290531
   1 C :   -0.079178
   2 C :   -0.035455
   3 C :   -0.203754
   4 C :   -0.137490
   5 C :   -0.177935
   6 C :   -0.279888
   7 C :   -0.138247
   8 N :    0.064726
   9 H :    0.145672
  10 H :    0.142090
  11 H :    0.142224
  12 H :    0.144666
  13 H :    0.146428
  14 H :    0.160039
  15 H :    0.133638
  16 H :    0.132060
  17 H :    0.130935

  Mayer bond orders larger than 0.1
B(  0-C ,  1-C ) :   0.8357 B(  0-C ,  9-H ) :   0.9466 B(  0-C , 10-H ) :   0.9463
B(  0-C , 11-H ) :   0.9479 B(  1-C ,  2-C ) :   2.5930 B(  1-C ,  3-C ) :  -0.1531
B(  2-C ,  3-C ) :   1.2133 B(  3-C ,  4-C ) :   0.7967 B(  3-C ,  5-C ) :   0.7992
B(  3-C ,  7-C ) :   0.9490 B(  4-C ,  5-C ) :   0.9255 B(  4-C , 12-H ) :   0.9192
B(  4-C , 13-H ) :   0.9229 B(  5-C ,  6-C ) :   0.9156 B(  5-C , 14-H ) :   0.9185
B(  6-C , 15-H ) :   0.9302 B(  6-C , 16-H ) :   0.9369 B(  6-C , 17-H ) :   0.9350
B(  7-C ,  8-N ) :   2.8555

MP2 TOTAL ENERGY:     -364.120067567 Eh
FINAL SINGLE POINT ENERGY      -364.120067567129

DIPOLE MOMENT
-------------
                                X             Y             Z
Electronic contribution:      7.08470      -4.30836      -2.41904
Nuclear contribution   :     -8.47764       5.09237       3.26591
                        -----------------------------------------
Total Dipole Moment    :     -1.39293       0.78401       0.84687
                        -----------------------------------------
Magnitude (a.u.)       :      1.80890
Magnitude (Debye)      :      4.59786

                             ****ORCA TERMINATED NORMALLY****
TOTAL RUN TIME: 0 days 0 hours 15 minutes 57 seconds 679 msec
