                         Program Version 3.0.3 - RELEASE   -
|  1> ! RI-MP2 RIJK def2-TZVP def2-TZVP/C def2-TZVP/JK TIGHTSCF
|  2> % maxcore 2000
|  3> % mp2 density relaxed end
|  4> *xyz 0 1
|  5>  N       -0.0223596618     1.3627862129     0.0099295707
|  6>  C        1.2876508028     1.7676618771    -0.0006445798
|  7>  N        2.1470264326     0.7822030945    -0.0144226897
|  8>  C        1.3637232442    -0.3607410747    -0.0129482418
|  9>  C       -0.0061574943    -0.0194403710     0.0023126508
| 10>  C       -0.9882612632    -1.0061984032     0.0065804576
| 11>  N       -0.6516584484    -2.2915295369    -0.0036803709
| 12>  C        0.6567299780    -2.6209174798    -0.0182833876
| 13>  C        1.7065898959    -1.7136108691    -0.0236459458
| 14>  H       -0.8319089149     1.9598598179     0.0212001671
| 15>  H        1.5466941789     2.8176465661     0.0025106617
| 16>  H       -2.0497511338    -0.7673459323     0.0182768056
| 17>  H        0.8653339275    -3.6872239584    -0.0261122120
| 18>  H        2.7405607965    -2.0369438329    -0.0355301059
| 19> *
| 20>
| 21>                          ****END OF INPUT****

CARTESIAN COORDINATES (ANGSTROEM)
---------------------------------
  N     -0.022360    1.362786    0.009930
  C      1.287651    1.767662   -0.000645
  N      2.147026    0.782203   -0.014423
  C      1.363723   -0.360741   -0.012948
  C     -0.006157   -0.019440    0.002313
  C     -0.988261   -1.006198    0.006580
  N     -0.651658   -2.291530   -0.003680
  C      0.656730   -2.620917   -0.018283
  C      1.706590   -1.713611   -0.023646
  H     -0.831909    1.959860    0.021200
  H      1.546694    2.817647    0.002511
  H     -2.049751   -0.767346    0.018277
  H      0.865334   -3.687224   -0.026112
  H      2.740561   -2.036944   -0.035530

 Total Charge           Charge          ....    0
 Multiplicity           Mult            ....    1
 Number of Electrons    NEL             ....   62
 Basis Dimension        Dim             ....  309

ORBITAL ENERGIES
----------------

  NO   OCC          E(Eh)            E(eV)
   0   2.0000     -15.633314      -425.4041
   1   2.0000     -15.562372      -423.4737
   2   2.0000     -15.560291      -423.4171
   3   2.0000     -11.331753      -308.3527
   4   2.0000     -11.279440      -306.9292
   5   2.0000     -11.277959      -306.8889
   6   2.0000     -11.273758      -306.7746
   7   2.0000     -11.262727      -306.4744
   8   2.0000     -11.235189      -305.7250
   9   2.0000      -1.359917       -37.0052
  10   2.0000      -1.247852       -33.9558
  11   2.0000      -1.193238       -32.4697
  12   2.0000      -1.064861       -28.9763
  13   2.0000      -1.027023       -27.9467
  14   2.0000      -0.885695       -24.1010
  15   2.0000      -0.857060       -23.3218
  16   2.0000      -0.835843       -22.7444
  17   2.0000      -0.761935       -20.7333
  18   2.0000      -0.700455       -19.0604
  19   2.0000      -0.673783       -18.3346
  20   2.0000      -0.635756       -17.2998
  21   2.0000      -0.627029       -17.0623
  22   2.0000      -0.616647       -16.7798
  23   2.0000      -0.590443       -16.0668
  24   2.0000      -0.534404       -14.5419
  25   2.0000      -0.516977       -14.0677
  26   2.0000      -0.452728       -12.3194
  27   2.0000      -0.446331       -12.1453
  28   2.0000      -0.418855       -11.3976
  29   2.0000      -0.342119        -9.3095
  30   2.0000      -0.324812        -8.8386
  31   0.0000       0.094671         2.5761
  32   0.0000       0.116345         3.1659
  33   0.0000       0.140856         3.8329
  34   0.0000       0.163710         4.4548
  35   0.0000       0.176111         4.7922

MULLIKEN ATOMIC CHARGES
-----------------------
   0 N :   -0.292055
   1 C :    0.088999
   2 N :   -0.259786
   3 C :    0.090176
   4 C :    0.105531
   5 C :   -0.069882
   6 N :   -0.243458
   7 C :   -0.013069
   8 C :   -0.204295
   9 H :    0.256255
  10 H :    0.156578
  11 H :    0.123086
  12 H :    0.129067
  13 H :    0.132852
Sum of atomic charges:   -0.0000000

LOEWDIN ATOMIC CHARGES
----------------------
   0 N :    0.191501
   1 C :   -0.278114
   2 N :    0.120731
   3 C :   -0.199334
   4 C :   -0.180093
   5 C :   -0.207318
   6 N :    0.126207
   7 C :   -0.223861
   8 C :   -0.111996
   9 H :    0.196815
  10 H :    0.134962
  11 H :    0.137931
  12 H :    0.138608
  13 H :    0.153959

  Mayer bond orders larger than 0.1
B(  0-N ,  1-C ) :   1.1433 B(  0-N ,  4-C ) :   1.0898 B(  0-N ,  9-H ) :   0.8616
B(  1-C ,  2-N ) :   1.5832 B(  1-C , 10-H ) :   0.9230 B(  2-N ,  3-C ) :   1.2707
B(  3-C ,  4-C ) :   1.2026 B(  3-C ,  8-C ) :   1.2910 B(  4-C ,  5-C ) :   1.1833
B(  5-C ,  6-N ) :   1.4944 B(  5-C , 11-H ) :   0.9529 B(  6-N ,  7-C ) :   1.3108
B(  7-C ,  8-C ) :   1.3945 B(  7-C , 12-H ) :   0.9404 B(  8-C , 13-H ) :   0.9213

MP2 TOTAL ENERGY:     -395.117288091 Eh
FINAL SINGLE POINT ENERGY      -395.117288090986

DIPOLE MOMENT
-------------
                                X             Y             Z
Electronic contribution:      0.03250       0.93690       0.00474
Nuclear contribution   :     -0.67524       0.41684       0.00895
                        -----------------------------------------
Total Dipole Moment    :     -0.64274       1.35374       0.01369
                        -----------------------------------------
Magnitude (a.u.)       :      1.49864
Magnitude (Debye)      :      3.80923

                             ****ORCA TERMINATED NORMALLY****
TOTAL RUN TIME: 0 days 0 hours 16 minutes 36 seconds 394 msec
