                         Program Version 3.0.3 - RELEASE   -
|  1> ! RI-MP2 RIJK def2-TZVP def2-TZVP/C def2-TZVP/JK TIGHTSCF
|  2> % maxcore 2000
|  3> % mp2 density relaxed end
|  4> *xyz 0 1
|  5>  C       -0.7438632075     0.9352920250    -0.1135689726
|  6>  C        0.1938969142    -0.2603527775     0.0478688048
|  7>  N        0.8228126354    -0.6772363269    -1.2080416742
|  8>  C        1.7384993580     0.3255573844    -1.7424058645
|  9>  C        1.4815794572    -1.9692630817    -1.0965255219
| 10>  C        1.6251686345    -2.6863853764    -2.4328491040
| 11>  O        2.5678019589    -3.4104050012    -2.6745213402
| 12>  C        0.5088748535    -2.5475261048    -3.4584285351
| 13>  O        0.7551341595    -3.3468007786    -4.5779236481
| 14>  H       -0.2064108470     1.8566054994    -0.3545178859
| 15>  H       -1.4731052692     0.7454130033    -0.9067222239
| 16>  H       -1.2852242773     1.1102062981     0.8210077501
| 17>  H        0.9518025852    -0.0347546423     0.8234423108
| 18>  H       -0.3859978037    -1.1135653397     0.4170070273
| 19>  H        2.5657517566     0.5591439407    -1.0463216470
| 20>  H        2.1817670881    -0.0337666485    -2.6760358240
| 21>  H        1.2056442396     1.2517346334    -1.9668142659
| 22>  H        2.4775177784    -1.9314052668    -0.6212265203
| 23>  H        0.8598484110    -2.6274729879    -0.4745188790
| 24>  H       -0.4403266418    -2.8169335011    -2.9654151437
| 25>  H        0.4076140436    -1.4875174787    -3.7321249621
| 26>  H        1.5976602228    -3.7908082922    -4.3893652104
| 27> *
| 28>
| 29>                          ****END OF INPUT****

CARTESIAN COORDINATES (ANGSTROEM)
---------------------------------
  C     -0.743863    0.935292   -0.113569
  C      0.193897   -0.260353    0.047869
  N      0.822813   -0.677236   -1.208042
  C      1.738499    0.325557   -1.742406
  C      1.481579   -1.969263   -1.096526
  C      1.625169   -2.686385   -2.432849
  O      2.567802   -3.410405   -2.674521
  C      0.508875   -2.547526   -3.458429
  O      0.755134   -3.346801   -4.577924
  H     -0.206411    1.856605   -0.354518
  H     -1.473105    0.745413   -0.906722
  H     -1.285224    1.110206    0.821008
  H      0.951803   -0.034755    0.823442
  H     -0.385998   -1.113565    0.417007
  H      2.565752    0.559144   -1.046322
  H      2.181767   -0.033767   -2.676036
  H      1.205644    1.251735   -1.966814
  H      2.477518   -1.931405   -0.621227
  H      0.859848   -2.627473   -0.474519
  H     -0.440327   -2.816934   -2.965415
  H      0.407614   -1.487517   -3.732125
  H      1.597660   -3.790808   -4.389365

 Total Charge           Charge          ....    0
 Multiplicity           Mult            ....    1
 Number of Electrons    NEL             ....   72
 Basis Dimension        Dim             ....  357

ORBITAL ENERGIES
----------------

  NO   OCC          E(Eh)            E(eV)
   0   2.0000     -20.562553      -559.5355
   1   2.0000     -20.549366      -559.1767
   2   2.0000     -15.569567      -423.6695
   3   2.0000     -11.340626      -308.5941
   4   2.0000     -11.285462      -307.0930
   5   2.0000     -11.276373      -306.8457
   6   2.0000     -11.266081      -306.5657
   7   2.0000     -11.259294      -306.3810
   8   2.0000     -11.226270      -305.4823
   9   2.0000      -1.413678       -38.4681
  10   2.0000      -1.354371       -36.8543
  11   2.0000      -1.250337       -34.0234
  12   2.0000      -1.043663       -28.3995
  13   2.0000      -1.003420       -27.3044
  14   2.0000      -0.956385       -26.0246
  15   2.0000      -0.906016       -24.6540
  16   2.0000      -0.813214       -22.1287
  17   2.0000      -0.765827       -20.8392
  18   2.0000      -0.704940       -19.1824
  19   2.0000      -0.678319       -18.4580
  20   2.0000      -0.673864       -18.3368
  21   2.0000      -0.655429       -17.8351
  22   2.0000      -0.639359       -17.3978
  23   2.0000      -0.605100       -16.4656
  24   2.0000      -0.601261       -16.3611
  25   2.0000      -0.585363       -15.9285
  26   2.0000      -0.565038       -15.3755
  27   2.0000      -0.548605       -14.9283
  28   2.0000      -0.536418       -14.5967
  29   2.0000      -0.525255       -14.2929
  30   2.0000      -0.515717       -14.0334
  31   2.0000      -0.505326       -13.7506
  32   2.0000      -0.496282       -13.5045
  33   2.0000      -0.447490       -12.1768
  34   2.0000      -0.431457       -11.7405
  35   2.0000      -0.377423       -10.2702
  36   0.0000       0.117117         3.1869
  37   0.0000       0.132998         3.6191
  38   0.0000       0.154270         4.1979
  39   0.0000       0.161941         4.4066
  40   0.0000       0.164286         4.4705

MULLIKEN ATOMIC CHARGES
-----------------------
   0 C :   -0.398188
   1 C :   -0.128347
   2 N :   -0.178330
   3 C :   -0.348586
   4 C :   -0.131845
   5 C :    0.137472
   6 O :   -0.314622
   7 C :   -0.007653
   8 O :   -0.487226
   9 H :    0.130863
  10 H :    0.133689
  11 H :    0.135078
  12 H :    0.092322
  13 H :    0.113676
  14 H :    0.120878
  15 H :    0.147042
  16 H :    0.145917
  17 H :    0.119699
  18 H :    0.143873
  19 H :    0.113798
  20 H :    0.126949
  21 H :    0.333542
Sum of atomic charges:   -0.0000000

LOEWDIN ATOMIC CHARGES
----------------------
   0 C :   -0.317414
   1 C :   -0.315257
   2 N :    0.059080
   3 C :   -0.320091
   4 C :   -0.261572
   5 C :   -0.328962
   6 O :    0.140057
   7 C :   -0.340237
   8 O :   -0.037655
   9 H :    0.119194
  10 H :    0.124875
  11 H :    0.125881
  12 H :    0.120223
  13 H :    0.133040
  14 H :    0.108582
  15 H :    0.122474
  16 H :    0.120029
  17 H :    0.136602
  18 H :    0.154561
  19 H :    0.137946
  20 H :    0.138338
  21 H :    0.180307

  Mayer bond orders larger than 0.1
B(  0-C ,  1-C ) :   0.9273 B(  0-C ,  9-H ) :   0.9409 B(  0-C , 10-H ) :   0.9339
B(  0-C , 11-H ) :   0.9359 B(  1-C ,  2-N ) :   0.9194 B(  1-C , 12-H ) :   0.9227
B(  1-C , 13-H ) :   0.9296 B(  2-N ,  3-C ) :   0.8922 B(  2-N ,  4-C ) :   0.9305
B(  3-C , 14-H ) :   0.9244 B(  3-C , 15-H ) :   0.9339 B(  3-C , 16-H ) :   0.9397
B(  4-C ,  5-C ) :   0.9100 B(  4-C , 17-H ) :   0.9060 B(  4-C , 18-H ) :   0.9018
B(  5-C ,  6-O ) :   1.9326 B(  5-C ,  7-C ) :   0.9559 B(  7-C ,  8-O ) :   1.0034
B(  7-C , 19-H ) :   0.9004 B(  7-C , 20-H ) :   0.8976 B(  8-O , 21-H ) :   0.8058

MP2 TOTAL ENERGY:     -440.762777389 Eh
FINAL SINGLE POINT ENERGY      -440.762777389020

DIPOLE MOMENT
-------------
                                X             Y             Z
Electronic contribution:      3.95313      -9.87801      -6.57012
Nuclear contribution   :     -4.21980      10.79036       7.72273
                        -----------------------------------------
Total Dipole Moment    :     -0.26667       0.91236       1.15261
                        -----------------------------------------
Magnitude (a.u.)       :      1.49399
Magnitude (Debye)      :      3.79743

                             ****ORCA TERMINATED NORMALLY****
TOTAL RUN TIME: 0 days 0 hours 18 minutes 1 seconds 36 msec
