                         Program Version 3.0.3 - RELEASE   -
|  1> ! RI-MP2 RIJK def2-TZVP def2-TZVP/C def2-TZVP/JK TIGHTSCF
|  2> % maxcore 2000
|  3> % mp2 density relaxed end
|  4> *xyz 0 1
|  5>  O       -0.0573189880     0.0337305518    -0.0247680587
|  6>  C       -0.0108989445     1.2227563215     0.0529615835
|  7>  O        1.1404748309     1.9158528307    -0.1091640719
|  8>  C        1.0372601036     3.3251622620    -0.0614586368
|  9>  C        2.4314854230     3.9058208924     0.1284682194
| 10>  C        2.3761353075     5.4375467217     0.0213539738
| 11>  C        1.6560362083     5.8552499040    -1.2686262553
| 12>  C        0.3054024632     5.1457230018    -1.3654100031
| 13>  O        0.4546452803     3.7305280558    -1.2762946227
| 14>  H       -0.8766863869     1.8738821406     0.2728609134
| 15>  H        0.3770415963     3.6202114810     0.7766429170
| 16>  H        2.8319478319     3.5843672940     1.0947000593
| 17>  H        3.0716576332     3.4866678895    -0.6553362023
| 18>  H        1.8374322848     5.8459342359     0.8873806471
| 19>  H        3.3868477190     5.8547978708     0.0582407983
| 20>  H        1.5048673562     6.9398075778    -1.3005765417
| 21>  H        2.2621531248     5.5823156164    -2.1405480937
| 22>  H       -0.3668877433     5.5006925436    -0.5655471449
| 23>  H       -0.1852606703     5.3315573489    -2.3237631107
| 24> *
| 25>
| 26>                          ****END OF INPUT****

CARTESIAN COORDINATES (ANGSTROEM)
---------------------------------
  O     -0.057319    0.033731   -0.024768
  C     -0.010899    1.222756    0.052962
  O      1.140475    1.915853   -0.109164
  C      1.037260    3.325162   -0.061459
  C      2.431485    3.905821    0.128468
  C      2.376135    5.437547    0.021354
  C      1.656036    5.855250   -1.268626
  C      0.305402    5.145723   -1.365410
  O      0.454645    3.730528   -1.276295
  H     -0.876686    1.873882    0.272861
  H      0.377042    3.620211    0.776643
  H      2.831948    3.584367    1.094700
  H      3.071658    3.486668   -0.655336
  H      1.837432    5.845934    0.887381
  H      3.386848    5.854798    0.058241
  H      1.504867    6.939808   -1.300577
  H      2.262153    5.582316   -2.140548
  H     -0.366888    5.500693   -0.565547
  H     -0.185261    5.331557   -2.323763

 Total Charge           Charge          ....    0
 Multiplicity           Mult            ....    1
 Number of Electrons    NEL             ....   70
 Basis Dimension        Dim             ....  339

ORBITAL ENERGIES
----------------

  NO   OCC          E(Eh)            E(eV)
   0   2.0000     -20.607872      -560.7687
   1   2.0000     -20.577084      -559.9309
   2   2.0000     -20.549524      -559.1810
   3   2.0000     -11.381047      -309.6940
   4   2.0000     -11.359403      -309.1051
   5   2.0000     -11.293368      -307.3082
   6   2.0000     -11.242792      -305.9319
   7   2.0000     -11.239434      -305.8406
   8   2.0000     -11.238611      -305.8181
   9   2.0000      -1.474826       -40.1321
  10   2.0000      -1.406172       -38.2639
  11   2.0000      -1.360903       -37.0320
  12   2.0000      -1.097300       -29.8590
  13   2.0000      -1.044935       -28.4341
  14   2.0000      -0.914304       -24.8795
  15   2.0000      -0.886843       -24.1322
  16   2.0000      -0.845757       -23.0142
  17   2.0000      -0.798495       -21.7282
  18   2.0000      -0.747468       -20.3396
  19   2.0000      -0.698600       -19.0099
  20   2.0000      -0.683591       -18.6015
  21   2.0000      -0.660190       -17.9647
  22   2.0000      -0.631599       -17.1867
  23   2.0000      -0.629704       -17.1351
  24   2.0000      -0.598028       -16.2732
  25   2.0000      -0.575350       -15.6561
  26   2.0000      -0.570231       -15.5168
  27   2.0000      -0.559118       -15.2144
  28   2.0000      -0.517166       -14.0728
  29   2.0000      -0.507015       -13.7966
  30   2.0000      -0.497602       -13.5404
  31   2.0000      -0.479671       -13.0525
  32   2.0000      -0.469321       -12.7709
  33   2.0000      -0.457495       -12.4491
  34   2.0000      -0.429292       -11.6816
  35   0.0000       0.123354         3.3566
  36   0.0000       0.136241         3.7073
  37   0.0000       0.150971         4.1081
  38   0.0000       0.165095         4.4925
  39   0.0000       0.176108         4.7921

MULLIKEN ATOMIC CHARGES
-----------------------
   0 O :   -0.263291
   1 C :    0.201970
   2 O :   -0.195768
   3 C :    0.114630
   4 C :   -0.179029
   5 C :   -0.239450
   6 C :   -0.210272
   7 C :   -0.096325
   8 O :   -0.284055
   9 H :    0.083742
  10 H :    0.073558
  11 H :    0.135622
  12 H :    0.126181
  13 H :    0.114912
  14 H :    0.135371
  15 H :    0.124704
  16 H :    0.116614
  17 H :    0.102031
  18 H :    0.138854
Sum of atomic charges:    0.0000000

LOEWDIN ATOMIC CHARGES
----------------------
   0 O :    0.126768
   1 C :   -0.433909
   2 O :    0.267737
   3 C :   -0.402747
   4 C :   -0.241715
   5 C :   -0.263434
   6 C :   -0.270902
   7 C :   -0.306757
   8 O :    0.181225
   9 H :    0.106385
  10 H :    0.125361
  11 H :    0.145157
  12 H :    0.149701
  13 H :    0.138892
  14 H :    0.139913
  15 H :    0.141121
  16 H :    0.142196
  17 H :    0.122062
  18 H :    0.132947

  Mayer bond orders larger than 0.1
B(  0-O ,  1-C ) :   2.0349 B(  1-C ,  2-O ) :   1.0370 B(  1-C ,  9-H ) :   0.9162
B(  2-O ,  3-C ) :   0.9501 B(  3-C ,  4-C ) :   0.9312 B(  3-C ,  8-O ) :   0.9775
B(  3-C , 10-H ) :   0.9424 B(  4-C ,  5-C ) :   0.9033 B(  4-C , 11-H ) :   0.9269
B(  4-C , 12-H ) :   0.9214 B(  5-C ,  6-C ) :   0.9183 B(  5-C , 13-H ) :   0.9355
B(  5-C , 14-H ) :   0.9304 B(  6-C ,  7-C ) :   0.9399 B(  6-C , 15-H ) :   0.9229
B(  6-C , 16-H ) :   0.9224 B(  7-C ,  8-O ) :   0.9012 B(  7-C , 17-H ) :   0.9398
B(  7-C , 18-H ) :   0.9303

MP2 TOTAL ENERGY:     -459.467795524 Eh
FINAL SINGLE POINT ENERGY      -459.467795523502

DIPOLE MOMENT
-------------
                                X             Y             Z
Electronic contribution:     -3.31272     -10.97035      -0.04779
Nuclear contribution   :      3.43578      13.04654       0.41118
                        -----------------------------------------
Total Dipole Moment    :      0.12306       2.07618       0.36339
                        -----------------------------------------
Magnitude (a.u.)       :      2.11133
Magnitude (Debye)      :      5.36658

                             ****ORCA TERMINATED NORMALLY****
TOTAL RUN TIME: 0 days 0 hours 16 minutes 2 seconds 823 msec
