                         Program Version 3.0.3 - RELEASE   -
|  1> ! RI-MP2 RIJK def2-TZVP def2-TZVP/C def2-TZVP/JK TIGHTSCF
|  2> % maxcore 2000
|  3> % mp2 density relaxed end
|  4> *xyz 0 1
|  5>  C       -0.1504918892     1.5762330710    -0.1276931532
|  6>  C        0.0003472893     0.0597220406    -0.0613360032
|  7>  C       -1.3420421175    -0.6039845246     0.2497288834
|  8>  C        0.7019426966    -0.6333092084    -1.2463304921
|  9>  C        2.1423096769    -0.2246434477    -1.3768224575
| 10>  C        1.7650243228    -1.2275434281    -0.3276107373
| 11>  C        1.1415988665    -0.5254153344     0.8957036338
| 12>  C        1.9764682792     0.3930533470     1.6468691472
| 13>  C        2.6647009876     1.1694052194     2.2568036014
| 14>  H        0.7958499868     2.0772449435    -0.3429642011
| 15>  H       -0.8662450928     1.8512604840    -0.9107767616
| 16>  H       -0.5221142353     1.9733248605     0.8231178117
| 17>  H       -2.0833230899    -0.3563733654    -0.5188701427
| 18>  H       -1.2491928089    -1.6947667327     0.2835100170
| 19>  H       -1.7343063625    -0.2643008370     1.2146964082
| 20>  H        0.1709851610    -1.1150425202    -2.0600503973
| 21>  H        2.6581911345    -0.6345537113    -2.2393431722
| 22>  H        2.4792165120     0.7672069857    -1.0899186404
| 23>  H        2.1768017316    -2.2288613495    -0.3064057912
| 24>  H        0.6941259700    -1.2514241395     1.5811322751
| 25>  H        3.2757374114     1.8453833669     2.8017206020
| 26> *
| 27>
| 28>                          ****END OF INPUT****

CARTESIAN COORDINATES (ANGSTROEM)
---------------------------------
  C     -0.150492    1.576233   -0.127693
  C      0.000347    0.059722   -0.061336
  C     -1.342042   -0.603985    0.249729
  C      0.701943   -0.633309   -1.246330
  C      2.142310   -0.224643   -1.376822
  C      1.765024   -1.227543   -0.327611
  C      1.141599   -0.525415    0.895704
  C      1.976468    0.393053    1.646869
  C      2.664701    1.169405    2.256804
  H      0.795850    2.077245   -0.342964
  H     -0.866245    1.851260   -0.910777
  H     -0.522114    1.973325    0.823118
  H     -2.083323   -0.356373   -0.518870
  H     -1.249193   -1.694767    0.283510
  H     -1.734306   -0.264301    1.214696
  H      0.170985   -1.115043   -2.060050
  H      2.658191   -0.634554   -2.239343
  H      2.479217    0.767207   -1.089919
  H      2.176802   -2.228861   -0.306406
  H      0.694126   -1.251424    1.581132
  H      3.275737    1.845383    2.801721

 Total Charge           Charge          ....    0
 Multiplicity           Mult            ....    1
 Number of Electrons    NEL             ....   66
 Basis Dimension        Dim             ....  351

ORBITAL ENERGIES
----------------

  NO   OCC          E(Eh)            E(eV)
   0   2.0000     -11.252774      -306.2035
   1   2.0000     -11.247505      -306.0602
   2   2.0000     -11.236646      -305.7647
   3   2.0000     -11.231294      -305.6190
   4   2.0000     -11.227214      -305.5080
   5   2.0000     -11.226289      -305.4829
   6   2.0000     -11.216890      -305.2271
   7   2.0000     -11.215317      -305.1843
   8   2.0000     -11.208422      -304.9967
   9   2.0000      -1.199524       -32.6407
  10   2.0000      -1.054632       -28.6980
  11   2.0000      -1.031723       -28.0746
  12   2.0000      -0.949115       -25.8267
  13   2.0000      -0.930820       -25.3289
  14   2.0000      -0.848129       -23.0788
  15   2.0000      -0.797370       -21.6975
  16   2.0000      -0.738295       -20.0900
  17   2.0000      -0.700088       -19.0504
  18   2.0000      -0.675066       -18.3695
  19   2.0000      -0.637233       -17.3400
  20   2.0000      -0.631607       -17.1869
  21   2.0000      -0.585633       -15.9359
  22   2.0000      -0.561957       -15.2916
  23   2.0000      -0.553735       -15.0679
  24   2.0000      -0.534015       -14.5313
  25   2.0000      -0.525827       -14.3085
  26   2.0000      -0.487170       -13.2566
  27   2.0000      -0.473028       -12.8717
  28   2.0000      -0.458461       -12.4754
  29   2.0000      -0.415309       -11.3011
  30   2.0000      -0.389277       -10.5928
  31   2.0000      -0.374051       -10.1784
  32   2.0000      -0.369138       -10.0448
  33   0.0000       0.136327         3.7096
  34   0.0000       0.156256         4.2519
  35   0.0000       0.161054         4.3825
  36   0.0000       0.171627         4.6702
  37   0.0000       0.175086         4.7643

MULLIKEN ATOMIC CHARGES
-----------------------
   0 C :   -0.390599
   1 C :    0.159510
   2 C :   -0.454263
   3 C :   -0.146683
   4 C :   -0.278683
   5 C :   -0.122401
   6 C :   -0.197924
   7 C :   -0.050811
   8 C :   -0.163581
   9 H :    0.131154
  10 H :    0.129372
  11 H :    0.132797
  12 H :    0.131055
  13 H :    0.139516
  14 H :    0.138941
  15 H :    0.125374
  16 H :    0.130990
  17 H :    0.140556
  18 H :    0.130736
  19 H :    0.128858
  20 H :    0.186087
Sum of atomic charges:    0.0000000

LOEWDIN ATOMIC CHARGES
----------------------
   0 C :   -0.264624
   1 C :   -0.244962
   2 C :   -0.267510
   3 C :   -0.146883
   4 C :   -0.197897
   5 C :   -0.145937
   6 C :   -0.155701
   7 C :   -0.085895
   8 C :   -0.103888
   9 H :    0.127437
  10 H :    0.127835
  11 H :    0.129616
  12 H :    0.126933
  13 H :    0.128321
  14 H :    0.127736
  15 H :    0.137612
  16 H :    0.140787
  17 H :    0.134800
  18 H :    0.135599
  19 H :    0.171070
  20 H :    0.125550

  Mayer bond orders larger than 0.1
B(  0-C ,  1-C ) :   0.9326 B(  0-C ,  9-H ) :   0.9298 B(  0-C , 10-H ) :   0.9371
B(  0-C , 11-H ) :   0.9312 B(  1-C ,  2-C ) :   0.8679 B(  1-C ,  3-C ) :   0.9311
B(  1-C ,  6-C ) :   0.8948 B(  2-C , 12-H ) :   0.9359 B(  2-C , 13-H ) :   0.9360
B(  2-C , 14-H ) :   0.9394 B(  3-C ,  4-C ) :   0.8682 B(  3-C ,  5-C ) :   0.8433
B(  3-C , 15-H ) :   0.9214 B(  4-C ,  5-C ) :   0.9000 B(  4-C , 16-H ) :   0.9320
B(  4-C , 17-H ) :   0.9148 B(  5-C ,  6-C ) :   0.8924 B(  5-C , 18-H ) :   0.9287
B(  6-C ,  7-C ) :   1.1738 B(  6-C , 19-H ) :   0.9315 B(  7-C ,  8-C ) :   2.5592
B(  8-C , 20-H ) :   0.9020

MP2 TOTAL ENERGY:     -349.244608128 Eh
FINAL SINGLE POINT ENERGY      -349.244608127996

DIPOLE MOMENT
-------------
                                X             Y             Z
Electronic contribution:      4.93359      -0.98295       2.58476
Nuclear contribution   :     -5.12227       0.83623      -2.79277
                        -----------------------------------------
Total Dipole Moment    :     -0.18868      -0.14672      -0.20801
                        -----------------------------------------
Magnitude (a.u.)       :      0.31685
Magnitude (Debye)      :      0.80538

                             ****ORCA TERMINATED NORMALLY****
TOTAL RUN TIME: 0 days 0 hours 26 minutes 27 seconds 922 msec
