                         Program Version 3.0.3 - RELEASE   -
|  1> ! RI-MP2 RIJK def2-TZVP def2-TZVP/C def2-TZVP/JK TIGHTSCF
|  2> % maxcore 2000
|  3> % mp2 density relaxed end
|  4> *xyz 0 1
|  5>  O        0.2389827310     1.3484966431     0.2201027518
|  6>  C        0.0473562863    -0.0077010551     0.0254139577
|  7>  C       -0.4619722417    -0.8433264066     1.1644016047
|  8>  O       -0.9460747288    -0.0408272431     2.2188588856
|  9>  C       -2.3294186383     0.2355332697     1.9923241272
| 10>  C       -2.5510297674     0.1845416488     0.4489160653
| 11>  C       -2.7148843265     1.5085408856    -0.1607586982
| 12>  N       -2.9231662500     2.5442684675    -0.6288079034
| 13>  C       -1.3470942242    -0.6271188413    -0.0428666323
| 14>  H        0.0848264360     1.5178485434     1.1605278446
| 15>  H        0.7806577023    -0.4440757937    -0.6469069875
| 16>  H       -0.0433049484    -1.7974646847     1.4670793643
| 17>  H       -2.9477330165    -0.5326139077     2.4745569574
| 18>  H       -2.5594581242     1.2080120794     2.4317265950
| 19>  H       -3.4680719992    -0.3722942094     0.2326355512
| 20>  H       -1.5267512604    -1.4141450558    -0.7644847134
| 21> *
| 22>
| 23>                          ****END OF INPUT****

CARTESIAN COORDINATES (ANGSTROEM)
---------------------------------
  O      0.238983    1.348497    0.220103
  C      0.047356   -0.007701    0.025414
  C     -0.461972   -0.843326    1.164402
  O     -0.946075   -0.040827    2.218859
  C     -2.329419    0.235533    1.992324
  C     -2.551030    0.184542    0.448916
  C     -2.714884    1.508541   -0.160759
  N     -2.923166    2.544268   -0.628808
  C     -1.347094   -0.627119   -0.042867
  H      0.084826    1.517849    1.160528
  H      0.780658   -0.444076   -0.646907
  H     -0.043305   -1.797465    1.467079
  H     -2.947733   -0.532614    2.474557
  H     -2.559458    1.208012    2.431727
  H     -3.468072   -0.372294    0.232636
  H     -1.526751   -1.414145   -0.764485

 Total Charge           Charge          ....    0
 Multiplicity           Mult            ....    1
 Number of Electrons    NEL             ....   66
 Basis Dimension        Dim             ....  321

ORBITAL ENERGIES
----------------

  NO   OCC          E(Eh)            E(eV)
   0   2.0000     -20.594587      -560.4072
   1   2.0000     -20.571627      -559.7824
   2   2.0000     -15.566479      -423.5854
   3   2.0000     -11.316353      -307.9336
   4   2.0000     -11.307921      -307.7042
   5   2.0000     -11.307198      -307.6845
   6   2.0000     -11.302699      -307.5621
   7   2.0000     -11.270850      -306.6954
   8   2.0000     -11.265758      -306.5569
   9   2.0000      -1.429965       -38.9113
  10   2.0000      -1.379113       -37.5276
  11   2.0000      -1.216892       -33.1133
  12   2.0000      -1.152096       -31.3501
  13   2.0000      -1.078707       -29.3531
  14   2.0000      -0.913939       -24.8696
  15   2.0000      -0.838788       -22.8246
  16   2.0000      -0.830213       -22.5912
  17   2.0000      -0.761163       -20.7123
  18   2.0000      -0.736003       -20.0277
  19   2.0000      -0.684566       -18.6280
  20   2.0000      -0.649220       -17.6662
  21   2.0000      -0.641774       -17.4636
  22   2.0000      -0.612832       -16.6760
  23   2.0000      -0.594766       -16.1844
  24   2.0000      -0.580146       -15.7866
  25   2.0000      -0.553209       -15.0536
  26   2.0000      -0.548217       -14.9177
  27   2.0000      -0.529276       -14.4023
  28   2.0000      -0.502596       -13.6763
  29   2.0000      -0.459311       -12.4985
  30   2.0000      -0.448628       -12.2078
  31   2.0000      -0.428195       -11.6518
  32   2.0000      -0.402776       -10.9601
  33   0.0000       0.116526         3.1708
  34   0.0000       0.144493         3.9318
  35   0.0000       0.157276         4.2797
  36   0.0000       0.160920         4.3788
  37   0.0000       0.175825         4.7844

MULLIKEN ATOMIC CHARGES
-----------------------
   0 O :   -0.458346
   1 C :    0.047868
   2 C :    0.039808
   3 O :   -0.344015
   4 C :   -0.052847
   5 C :    0.000320
   6 C :   -0.198516
   7 N :   -0.047923
   8 C :   -0.149357
   9 H :    0.340263
  10 H :    0.131920
  11 H :    0.132435
  12 H :    0.111654
  13 H :    0.150118
  14 H :    0.147256
  15 H :    0.149363
Sum of atomic charges:    0.0000000

LOEWDIN ATOMIC CHARGES
----------------------
   0 O :    0.030711
   1 C :   -0.294635
   2 C :   -0.260350
   3 O :    0.176588
   4 C :   -0.240864
   5 C :   -0.213820
   6 C :   -0.173980
   7 N :    0.065524
   8 C :   -0.155859
   9 H :    0.187618
  10 H :    0.145157
  11 H :    0.135981
  12 H :    0.127682
  13 H :    0.136857
  14 H :    0.182073
  15 H :    0.151319

  Mayer bond orders larger than 0.1
B(  0-O ,  1-C ) :   0.9850 B(  0-O ,  9-H ) :   0.8111 B(  1-C ,  2-C ) :   0.8928
B(  1-C ,  8-C ) :   0.8535 B(  1-C , 10-H ) :   0.9459 B(  2-C ,  3-O ) :   0.9285
B(  2-C ,  8-C ) :   0.8567 B(  2-C , 11-H ) :   0.9319 B(  3-O ,  4-C ) :   0.9073
B(  4-C ,  5-C ) :   0.9216 B(  4-C , 12-H ) :   0.9211 B(  4-C , 13-H ) :   0.9269
B(  5-C ,  6-C ) :   0.9282 B(  5-C ,  8-C ) :   0.8814 B(  5-C , 14-H ) :   0.9064
B(  6-C ,  7-N ) :   2.8665 B(  8-C , 15-H ) :   0.9065

MP2 TOTAL ENERGY:     -437.150902648 Eh
FINAL SINGLE POINT ENERGY      -437.150902648068

DIPOLE MOMENT
-------------
                                X             Y             Z
Electronic contribution:     -0.24368       2.98270      -1.20265
Nuclear contribution   :      0.09438      -4.86019       1.89047
                        -----------------------------------------
Total Dipole Moment    :     -0.14930      -1.87749       0.68782
                        -----------------------------------------
Magnitude (a.u.)       :      2.00509
Magnitude (Debye)      :      5.09653

                             ****ORCA TERMINATED NORMALLY****
TOTAL RUN TIME: 0 days 0 hours 17 minutes 4 seconds 641 msec
