                         Program Version 3.0.3 - RELEASE   -
|  1> ! RI-MP2 RIJK def2-TZVP def2-TZVP/C def2-TZVP/JK TIGHTSCF
|  2> % maxcore 2000
|  3> % mp2 density relaxed end
|  4> *xyz 0 1
|  5>  O       -0.0838557980     0.0166432180    -0.2730586567
|  6>  C       -0.0875670602     1.1940408635    -0.1152120798
|  7>  C       -1.2334059859     2.2578147333     0.1925527442
|  8>  C       -0.1576593916     2.9223135381     1.0984860655
|  9>  C        0.8643476420     4.1337854762     1.0700351313
| 10>  C        2.0022133520     3.0117729357     1.1303224183
| 11>  C        0.9493985918     2.3025448402     0.2400697264
| 12>  O        0.9411497357     3.1357120392    -0.9510940193
| 13>  C        0.8908009971     4.4735841790    -0.4090776377
| 14>  H       -1.5309476129     2.8063023277    -0.6992622346
| 15>  H       -2.1107652565     1.8497125519     0.6967276986
| 16>  H       -0.1809139344     2.4833029185     2.0970934493
| 17>  H        0.8163589060     4.9436890720     1.7969726960
| 18>  H        2.9728359034     3.2513298641     0.6912213140
| 19>  H        2.1077336468     2.5778215427     2.1242851275
| 20>  H       -0.0079227899     4.9932332055    -0.7604245999
| 21>  H        1.7768556947     5.0379735745    -0.7197410330
| 22> *
| 23>
| 24>                          ****END OF INPUT****

CARTESIAN COORDINATES (ANGSTROEM)
---------------------------------
  O     -0.083856    0.016643   -0.273059
  C     -0.087567    1.194041   -0.115212
  C     -1.233406    2.257815    0.192553
  C     -0.157659    2.922314    1.098486
  C      0.864348    4.133785    1.070035
  C      2.002213    3.011773    1.130322
  C      0.949399    2.302545    0.240070
  O      0.941150    3.135712   -0.951094
  C      0.890801    4.473584   -0.409078
  H     -1.530948    2.806302   -0.699262
  H     -2.110765    1.849713    0.696728
  H     -0.180914    2.483303    2.097093
  H      0.816359    4.943689    1.796973
  H      2.972836    3.251330    0.691221
  H      2.107734    2.577822    2.124285
  H     -0.007923    4.993233   -0.760425
  H      1.776856    5.037974   -0.719741

 Total Charge           Charge          ....    0
 Multiplicity           Mult            ....    1
 Number of Electrons    NEL             ....   66
 Basis Dimension        Dim             ....  327

ORBITAL ENERGIES
----------------

  NO   OCC          E(Eh)            E(eV)
   0   2.0000     -20.567428      -559.6682
   1   2.0000     -20.560967      -559.4924
   2   2.0000     -11.351169      -308.8810
   3   2.0000     -11.304172      -307.6022
   4   2.0000     -11.288137      -307.1658
   5   2.0000     -11.272277      -306.7342
   6   2.0000     -11.259641      -306.3904
   7   2.0000     -11.255584      -306.2800
   8   2.0000     -11.247112      -306.0495
   9   2.0000      -1.413081       -38.4519
  10   2.0000      -1.396325       -37.9959
  11   2.0000      -1.159448       -31.5502
  12   2.0000      -1.068968       -29.0881
  13   2.0000      -0.978098       -26.6154
  14   2.0000      -0.870539       -23.6886
  15   2.0000      -0.838784       -22.8245
  16   2.0000      -0.792936       -21.5769
  17   2.0000      -0.744333       -20.2543
  18   2.0000      -0.689774       -18.7697
  19   2.0000      -0.677433       -18.4339
  20   2.0000      -0.647346       -17.6152
  21   2.0000      -0.628123       -17.0921
  22   2.0000      -0.605921       -16.4879
  23   2.0000      -0.594187       -16.1687
  24   2.0000      -0.545893       -14.8545
  25   2.0000      -0.533656       -14.5215
  26   2.0000      -0.528652       -14.3854
  27   2.0000      -0.503708       -13.7066
  28   2.0000      -0.499909       -13.6032
  29   2.0000      -0.475204       -12.9310
  30   2.0000      -0.460964       -12.5435
  31   2.0000      -0.395123       -10.7518
  32   2.0000      -0.385746       -10.4967
  33   0.0000       0.129473         3.5231
  34   0.0000       0.138791         3.7767
  35   0.0000       0.148807         4.0492
  36   0.0000       0.160873         4.3776
  37   0.0000       0.167647         4.5619

MULLIKEN ATOMIC CHARGES
-----------------------
   0 O :   -0.214214
   1 C :    0.107036
   2 C :   -0.223449
   3 C :   -0.159580
   4 C :   -0.085129
   5 C :   -0.247607
   6 C :    0.168125
   7 O :   -0.319595
   8 C :   -0.085907
   9 H :    0.144453
  10 H :    0.136994
  11 H :    0.123709
  12 H :    0.143630
  13 H :    0.132837
  14 H :    0.140599
  15 H :    0.117555
  16 H :    0.120544
Sum of atomic charges:   -0.0000000

LOEWDIN ATOMIC CHARGES
----------------------
   0 O :    0.184071
   1 C :   -0.259255
   2 C :   -0.185728
   3 C :   -0.154143
   4 C :   -0.188438
   5 C :   -0.170458
   6 C :   -0.250412
   7 O :    0.185768
   8 C :   -0.270515
   9 H :    0.145633
  10 H :    0.135213
  11 H :    0.161186
  12 H :    0.138996
  13 H :    0.132507
  14 H :    0.141822
  15 H :    0.125955
  16 H :    0.127797

  Mayer bond orders larger than 0.1
B(  0-O ,  1-C ) :   2.0857 B(  1-C ,  2-C ) :   0.9190 B(  1-C ,  6-C ) :   0.7318
B(  2-C ,  3-C ) :   0.9270 B(  2-C ,  6-C ) :  -0.1291 B(  2-C ,  9-H ) :   0.8937
B(  2-C , 10-H ) :   0.9119 B(  3-C ,  4-C ) :   0.8570 B(  3-C ,  6-C ) :   0.8654
B(  3-C , 11-H ) :   0.9266 B(  4-C ,  5-C ) :   0.9050 B(  4-C ,  8-C ) :   0.9543
B(  4-C , 12-H ) :   0.8998 B(  5-C ,  6-C ) :   0.9261 B(  5-C , 13-H ) :   0.9182
B(  5-C , 14-H ) :   0.9227 B(  6-C ,  7-O ) :   0.8819 B(  7-O ,  8-C ) :   0.9072
B(  8-C , 15-H ) :   0.9353 B(  8-C , 16-H ) :   0.9142

MP2 TOTAL ENERGY:     -421.042312761 Eh
FINAL SINGLE POINT ENERGY      -421.042312760503

DIPOLE MOMENT
-------------
                                X             Y             Z
Electronic contribution:     -0.20948      -5.37627      -2.55272
Nuclear contribution   :      0.19720       6.69491       3.41644
                        -----------------------------------------
Total Dipole Moment    :     -0.01228       1.31864       0.86372
                        -----------------------------------------
Magnitude (a.u.)       :      1.57637
Magnitude (Debye)      :      4.00683

                             ****ORCA TERMINATED NORMALLY****
TOTAL RUN TIME: 0 days 0 hours 19 minutes 35 seconds 867 msec
