                         Program Version 3.0.3 - RELEASE   -
|  1> ! RI-MP2 RIJK def2-TZVP def2-TZVP/C def2-TZVP/JK TIGHTSCF
|  2> % maxcore 2000
|  3> % mp2 density relaxed end
|  4> *xyz 0 1
|  5>  C        0.1607910602     1.5053662003    -0.0421842193
|  6>  C        0.0407908605    -0.0056417183     0.1529398680
|  7>  O        0.5313524302    -0.3943248432     1.4401042615
|  8>  C       -1.3919247126    -0.5383996561     0.0088039465
|  9>  C       -1.5634592816    -2.0910310547     0.1237886614
| 10>  O       -0.4284143391    -2.8284478477     0.4792232998
| 11>  C       -2.6120562736    -1.7940571411     1.2322363802
| 12>  N       -2.1861258777    -0.3748929798     1.2547738467
| 13>  C       -3.2178334859     0.6412539136     1.3190722561
| 14>  H        1.1976415185     1.8195983267     0.1043448050
| 15>  H       -0.1529108826     1.7986713438    -1.0497671084
| 16>  H       -0.4587900591     2.0458624144     0.6814175168
| 17>  H        0.6714422977    -0.5212359582    -0.5807254066
| 18>  H       -0.2322380892    -0.2430311105     2.0261637786
| 19>  H       -1.8806169285    -0.1215357929    -0.8838850585
| 20>  H       -1.9811178922    -2.5674980002    -0.7655984352
| 21>  H        0.1082030830    -2.2674444370     1.0634822581
| 22>  H       -3.6493639126    -1.9271253895     0.8896608313
| 23>  H       -2.4763079404    -2.3261850953     2.1797926065
| 24>  H       -3.7362392982     0.5800324281     2.2816956797
| 25>  H       -2.7756561797     1.6387236031     1.2405353559
| 26>  H       -3.9723268472     0.5356250345     0.5183252060
| 27> *
| 28>
| 29>                          ****END OF INPUT****

CARTESIAN COORDINATES (ANGSTROEM)
---------------------------------
  C      0.160791    1.505366   -0.042184
  C      0.040791   -0.005642    0.152940
  O      0.531352   -0.394325    1.440104
  C     -1.391925   -0.538400    0.008804
  C     -1.563459   -2.091031    0.123789
  O     -0.428414   -2.828448    0.479223
  C     -2.612056   -1.794057    1.232236
  N     -2.186126   -0.374893    1.254774
  C     -3.217833    0.641254    1.319072
  H      1.197642    1.819598    0.104345
  H     -0.152911    1.798671   -1.049767
  H     -0.458790    2.045862    0.681418
  H      0.671442   -0.521236   -0.580725
  H     -0.232238   -0.243031    2.026164
  H     -1.880617   -0.121536   -0.883885
  H     -1.981118   -2.567498   -0.765598
  H      0.108203   -2.267444    1.063482
  H     -3.649364   -1.927125    0.889661
  H     -2.476308   -2.326185    2.179793
  H     -3.736239    0.580032    2.281696
  H     -2.775656    1.638724    1.240535
  H     -3.972327    0.535625    0.518325

 Total Charge           Charge          ....    0
 Multiplicity           Mult            ....    1
 Number of Electrons    NEL             ....   72
 Basis Dimension        Dim             ....  357

ORBITAL ENERGIES
----------------

  NO   OCC          E(Eh)            E(eV)
   0   2.0000     -20.554911      -559.3276
   1   2.0000     -20.544173      -559.0354
   2   2.0000     -15.560534      -423.4237
   3   2.0000     -11.283350      -307.0356
   4   2.0000     -11.282990      -307.0258
   5   2.0000     -11.263449      -306.4940
   6   2.0000     -11.255636      -306.2814
   7   2.0000     -11.254145      -306.2409
   8   2.0000     -11.220677      -305.3301
   9   2.0000      -1.374681       -37.4070
  10   2.0000      -1.349763       -36.7289
  11   2.0000      -1.249587       -34.0030
  12   2.0000      -1.039702       -28.2917
  13   2.0000      -1.012118       -27.5411
  14   2.0000      -0.931678       -25.3523
  15   2.0000      -0.881136       -23.9769
  16   2.0000      -0.833426       -22.6787
  17   2.0000      -0.759605       -20.6699
  18   2.0000      -0.709829       -19.3154
  19   2.0000      -0.697780       -18.9876
  20   2.0000      -0.652149       -17.7459
  21   2.0000      -0.620096       -16.8737
  22   2.0000      -0.616293       -16.7702
  23   2.0000      -0.605639       -16.4803
  24   2.0000      -0.593782       -16.1576
  25   2.0000      -0.575971       -15.6730
  26   2.0000      -0.565918       -15.3994
  27   2.0000      -0.547796       -14.9063
  28   2.0000      -0.541241       -14.7279
  29   2.0000      -0.525554       -14.3010
  30   2.0000      -0.510242       -13.8844
  31   2.0000      -0.478816       -13.0293
  32   2.0000      -0.463387       -12.6094
  33   2.0000      -0.443662       -12.0727
  34   2.0000      -0.409398       -11.1403
  35   2.0000      -0.372078       -10.1247
  36   0.0000       0.130321         3.5462
  37   0.0000       0.153675         4.1817
  38   0.0000       0.157430         4.2839
  39   0.0000       0.174560         4.7500
  40   0.0000       0.190187         5.1753

MULLIKEN ATOMIC CHARGES
-----------------------
   0 C :   -0.387479
   1 C :    0.087734
   2 O :   -0.502618
   3 C :   -0.095510
   4 C :    0.097497
   5 O :   -0.467484
   6 C :   -0.162815
   7 N :   -0.220793
   8 C :   -0.331638
   9 H :    0.146222
  10 H :    0.124417
  11 H :    0.114725
  12 H :    0.114558
  13 H :    0.329151
  14 H :    0.100970
  15 H :    0.110213
  16 H :    0.334924
  17 H :    0.103620
  18 H :    0.115813
  19 H :    0.143080
  20 H :    0.132997
  21 H :    0.112416
Sum of atomic charges:    0.0000000

LOEWDIN ATOMIC CHARGES
----------------------
   0 C :   -0.299373
   1 C :   -0.353388
   2 O :   -0.030821
   3 C :   -0.229438
   4 C :   -0.309703
   5 O :   -0.008610
   6 C :   -0.237572
   7 N :    0.072417
   8 C :   -0.338837
   9 H :    0.128149
  10 H :    0.125096
  11 H :    0.121296
  12 H :    0.149517
  13 H :    0.172201
  14 H :    0.142322
  15 H :    0.134045
  16 H :    0.174744
  17 H :    0.122915
  18 H :    0.123648
  19 H :    0.120525
  20 H :    0.115791
  21 H :    0.105077

  Mayer bond orders larger than 0.1
B(  0-C ,  1-C ) :   0.9034 B(  0-C ,  9-H ) :   0.9412 B(  0-C , 10-H ) :   0.9316
B(  0-C , 11-H ) :   0.9335 B(  1-C ,  2-O ) :   0.8750 B(  1-C ,  3-C ) :   0.9111
B(  1-C , 12-H ) :   0.9379 B(  2-O , 13-H ) :   0.7924 B(  3-C ,  4-C ) :   0.9192
B(  3-C ,  7-N ) :   0.9099 B(  3-C , 14-H ) :   0.9046 B(  4-C ,  5-O ) :   1.0280
B(  4-C ,  6-C ) :   0.9204 B(  4-C , 15-H ) :   0.9386 B(  5-O , 16-H ) :   0.7925
B(  6-C ,  7-N ) :   0.8934 B(  6-C , 17-H ) :   0.9149 B(  6-C , 18-H ) :   0.9198
B(  7-N ,  8-C ) :   0.9093 B(  8-C , 19-H ) :   0.9365 B(  8-C , 20-H ) :   0.9361
B(  8-C , 21-H ) :   0.9272

MP2 TOTAL ENERGY:     -440.751205360 Eh
FINAL SINGLE POINT ENERGY      -440.751205360213

DIPOLE MOMENT
-------------
                                X             Y             Z
Electronic contribution:      3.04700      -5.65143       0.84832
Nuclear contribution   :     -4.02052       6.49088      -1.09192
                        -----------------------------------------
Total Dipole Moment    :     -0.97352       0.83945      -0.24360
                        -----------------------------------------
Magnitude (a.u.)       :      1.30834
Magnitude (Debye)      :      3.32554

                             ****ORCA TERMINATED NORMALLY****
TOTAL RUN TIME: 0 days 0 hours 21 minutes 51 seconds 247 msec
