                         Program Version 3.0.3 - RELEASE   -
|  1> ! RI-MP2 RIJK def2-TZVP def2-TZVP/C def2-TZVP/JK TIGHTSCF
|  2> % maxcore 2000
|  3> % mp2 density relaxed end
|  4> *xyz 0 1
|  5>  O       -0.9332265014     1.0678271632     0.3245510930
|  6>  C        0.2003283111     0.8614955153    -0.0196514010
|  7>  C        1.2831751612     1.9295125416     0.0485025468
|  8>  C        1.4569684310     2.4878065069     1.4670762153
|  9>  N        2.6061868485     3.3746504838     1.5490201678
| 10>  C        3.8206164797     2.6764055036     1.1435559406
| 11>  C        3.7245030921     1.7206364427    -0.0475971404
| 12>  O        4.6902590683     1.2539731673    -0.5817894055
| 13>  O        2.4866297860     1.3408129754    -0.4683559150
| 14>  H        0.5511072988    -0.1235558317    -0.3957579667
| 15>  H        0.9882404019     2.7481530838    -0.6239850308
| 16>  H        0.5403963200     3.0087674985     1.7526737910
| 17>  H        1.6027684545     1.6632622427     2.1761552591
| 18>  H        2.4575279844     4.1856095905     0.9563913101
| 19>  H        4.6165517000     3.3906666096     0.9227864730
| 20>  H        4.1825666939     2.0639068569     1.9813969327
| 21> *
| 22>
| 23>                          ****END OF INPUT****

CARTESIAN COORDINATES (ANGSTROEM)
---------------------------------
  O     -0.933227    1.067827    0.324551
  C      0.200328    0.861496   -0.019651
  C      1.283175    1.929513    0.048503
  C      1.456968    2.487807    1.467076
  N      2.606187    3.374650    1.549020
  C      3.820616    2.676406    1.143556
  C      3.724503    1.720636   -0.047597
  O      4.690259    1.253973   -0.581789
  O      2.486630    1.340813   -0.468356
  H      0.551107   -0.123556   -0.395758
  H      0.988240    2.748153   -0.623985
  H      0.540396    3.008767    1.752674
  H      1.602768    1.663262    2.176155
  H      2.457528    4.185610    0.956391
  H      4.616552    3.390667    0.922786
  H      4.182567    2.063907    1.981397

 Total Charge           Charge          ....    0
 Multiplicity           Mult            ....    1
 Number of Electrons    NEL             ....   68
 Basis Dimension        Dim             ....  321

ORBITAL ENERGIES
----------------

  NO   OCC          E(Eh)            E(eV)
   0   2.0000     -20.620782      -561.1200
   1   2.0000     -20.582421      -560.0762
   2   2.0000     -20.551300      -559.2293
   3   2.0000     -15.584834      -424.0849
   4   2.0000     -11.394323      -310.0553
   5   2.0000     -11.354927      -308.9833
   6   2.0000     -11.330124      -308.3084
   7   2.0000     -11.293909      -307.3229
   8   2.0000     -11.291433      -307.2555
   9   2.0000      -1.474284       -40.1173
  10   2.0000      -1.422200       -38.7000
  11   2.0000      -1.378728       -37.5171
  12   2.0000      -1.251656       -34.0593
  13   2.0000      -1.075260       -29.2593
  14   2.0000      -0.980258       -26.6742
  15   2.0000      -0.922892       -25.1132
  16   2.0000      -0.831629       -22.6298
  17   2.0000      -0.794505       -21.6196
  18   2.0000      -0.733103       -19.9488
  19   2.0000      -0.713085       -19.4040
  20   2.0000      -0.692689       -18.8490
  21   2.0000      -0.681558       -18.5461
  22   2.0000      -0.663390       -18.0518
  23   2.0000      -0.646110       -17.5815
  24   2.0000      -0.631808       -17.1924
  25   2.0000      -0.576208       -15.6794
  26   2.0000      -0.566753       -15.4221
  27   2.0000      -0.557911       -15.1815
  28   2.0000      -0.543794       -14.7974
  29   2.0000      -0.525241       -14.2925
  30   2.0000      -0.491309       -13.3692
  31   2.0000      -0.476570       -12.9681
  32   2.0000      -0.447394       -12.1742
  33   2.0000      -0.395288       -10.7563
  34   0.0000       0.094895         2.5822
  35   0.0000       0.120049         3.2667
  36   0.0000       0.142003         3.8641
  37   0.0000       0.150179         4.0866
  38   0.0000       0.165699         4.5089

MULLIKEN ATOMIC CHARGES
-----------------------
   0 O :   -0.256681
   1 C :    0.068441
   2 C :    0.099092
   3 C :   -0.205715
   4 N :   -0.311461
   5 C :   -0.193421
   6 C :    0.239977
   7 O :   -0.277623
   8 O :   -0.221505
   9 H :    0.115180
  10 H :    0.118203
  11 H :    0.163087
  12 H :    0.137122
  13 H :    0.214085
  14 H :    0.167154
  15 H :    0.144065
Sum of atomic charges:    0.0000000

LOEWDIN ATOMIC CHARGES
----------------------
   0 O :    0.150474
   1 C :   -0.263939
   2 C :   -0.300266
   3 C :   -0.284621
   4 N :   -0.014392
   5 C :   -0.280306
   6 C :   -0.476627
   7 O :    0.144745
   8 O :    0.273007
   9 H :    0.120465
  10 H :    0.154879
  11 H :    0.148889
  12 H :    0.144580
  13 H :    0.173655
  14 H :    0.153553
  15 H :    0.155903

  Mayer bond orders larger than 0.1
B(  0-O ,  1-C ) :   1.9812 B(  1-C ,  2-C ) :   0.8460 B(  1-C ,  9-H ) :   0.9292
B(  2-C ,  3-C ) :   0.9265 B(  2-C ,  8-O ) :   0.8620 B(  2-C , 10-H ) :   0.8925
B(  3-C ,  4-N ) :   0.9430 B(  3-C , 11-H ) :   0.9216 B(  3-C , 12-H ) :   0.9270
B(  4-N ,  5-C ) :   0.9545 B(  4-N , 13-H ) :   0.8795 B(  5-C ,  6-C ) :   0.9179
B(  5-C , 14-H ) :   0.9192 B(  5-C , 15-H ) :   0.9072 B(  6-C ,  7-O ) :   2.0269
B(  6-C ,  8-O ) :   1.1001

MP2 TOTAL ENERGY:     -474.297423668 Eh
FINAL SINGLE POINT ENERGY      -474.297423668462

DIPOLE MOMENT
-------------
                                X             Y             Z
Electronic contribution:     -0.12559      -2.90725      -3.50382
Nuclear contribution   :     -0.09433       3.70579       3.88673
                        -----------------------------------------
Total Dipole Moment    :     -0.21992       0.79854       0.38291
                        -----------------------------------------
Magnitude (a.u.)       :      0.91250
Magnitude (Debye)      :      2.31938

                             ****ORCA TERMINATED NORMALLY****
TOTAL RUN TIME: 0 days 0 hours 14 minutes 45 seconds 575 msec
