                         Program Version 3.0.3 - RELEASE   -
|  1> ! RI-MP2 RIJK def2-TZVP def2-TZVP/C def2-TZVP/JK TIGHTSCF
|  2> % maxcore 2000
|  3> % mp2 density relaxed end
|  4> *xyz 0 1
|  5>  C       -0.1135109042     1.5930976271    -0.0876873094
|  6>  C       -0.1298332497     0.0636204463    -0.1463132708
|  7>  C        0.8904561401    -0.5096714401    -1.1421017731
|  8>  C        0.9032827740    -2.0118989395    -1.1913454266
|  9>  C       -0.1081332092    -2.8208524771    -1.9859545464
| 10>  C        1.3591080762    -2.9713030788    -2.2843128952
| 11>  O        1.9028315925    -2.6391229086    -3.5148023695
| 12>  C        2.0328977186    -3.8894332709    -1.2613963770
| 13>  C        1.5235442510    -2.9356582140    -0.1280118478
| 14>  H        0.8706222210     1.9675292650     0.2158722539
| 15>  H       -0.3429207623     2.0292227093    -1.0665513763
| 16>  H       -0.8493751172     1.9744831426     0.6272944914
| 17>  H        0.0718704155    -0.3440668936     0.8527868868
| 18>  H       -1.1326936500    -0.2875786001    -0.4200165954
| 19>  H        0.6827567918    -0.1187802031    -2.1467301432
| 20>  H        1.8940630484    -0.1472187330    -0.8771083621
| 21>  H       -0.6816999748    -3.6219863866    -1.5221612508
| 22>  H       -0.6519060730    -2.2452394406    -2.7296138881
| 23>  H        1.5428953720    -3.2374988829    -4.1785403221
| 24>  H        1.6975373203    -4.9322435819    -1.2326497571
| 25>  H        3.1211953469    -3.8682092191    -1.3537950992
| 26>  H        2.3428668257    -2.4655141012     0.4223014094
| 27>  H        0.8233158864    -3.3726939792     0.5912861888
| 28> *
| 29>
| 30>                          ****END OF INPUT****

CARTESIAN COORDINATES (ANGSTROEM)
---------------------------------
  C     -0.113511    1.593098   -0.087687
  C     -0.129833    0.063620   -0.146313
  C      0.890456   -0.509671   -1.142102
  C      0.903283   -2.011899   -1.191345
  C     -0.108133   -2.820852   -1.985955
  C      1.359108   -2.971303   -2.284313
  O      1.902832   -2.639123   -3.514802
  C      2.032898   -3.889433   -1.261396
  C      1.523544   -2.935658   -0.128012
  H      0.870622    1.967529    0.215872
  H     -0.342921    2.029223   -1.066551
  H     -0.849375    1.974483    0.627294
  H      0.071870   -0.344067    0.852787
  H     -1.132694   -0.287579   -0.420017
  H      0.682757   -0.118780   -2.146730
  H      1.894063   -0.147219   -0.877108
  H     -0.681700   -3.621986   -1.522161
  H     -0.651906   -2.245239   -2.729614
  H      1.542895   -3.237499   -4.178540
  H      1.697537   -4.932244   -1.232650
  H      3.121195   -3.868209   -1.353795
  H      2.342867   -2.465514    0.422301
  H      0.823316   -3.372694    0.591286

 Total Charge           Charge          ....    0
 Multiplicity           Mult            ....    1
 Number of Electrons    NEL             ....   70
 Basis Dimension        Dim             ....  363

ORBITAL ENERGIES
----------------

  NO   OCC          E(Eh)            E(eV)
   0   2.0000     -20.563091      -559.5501
   1   2.0000     -11.280230      -306.9507
   2   2.0000     -11.229418      -305.5680
   3   2.0000     -11.222397      -305.3770
   4   2.0000     -11.221027      -305.3397
   5   2.0000     -11.220993      -305.3387
   6   2.0000     -11.217233      -305.2364
   7   2.0000     -11.215710      -305.1950
   8   2.0000     -11.209604      -305.0288
   9   2.0000      -1.373484       -37.3744
  10   2.0000      -1.180107       -32.1123
  11   2.0000      -1.054865       -28.7043
  12   2.0000      -0.984258       -26.7830
  13   2.0000      -0.943239       -25.6668
  14   2.0000      -0.866921       -23.5901
  15   2.0000      -0.818696       -22.2778
  16   2.0000      -0.787019       -21.4159
  17   2.0000      -0.727591       -19.7988
  18   2.0000      -0.673116       -18.3164
  19   2.0000      -0.640607       -17.4318
  20   2.0000      -0.626341       -17.0436
  21   2.0000      -0.616110       -16.7652
  22   2.0000      -0.609344       -16.5811
  23   2.0000      -0.568336       -15.4652
  24   2.0000      -0.548056       -14.9134
  25   2.0000      -0.531196       -14.4546
  26   2.0000      -0.521025       -14.1778
  27   2.0000      -0.514552       -14.0017
  28   2.0000      -0.504335       -13.7236
  29   2.0000      -0.480649       -13.0791
  30   2.0000      -0.468318       -12.7436
  31   2.0000      -0.459167       -12.4946
  32   2.0000      -0.445521       -12.1232
  33   2.0000      -0.383795       -10.4436
  34   2.0000      -0.360366        -9.8061
  35   0.0000       0.133475         3.6320
  36   0.0000       0.144062         3.9201
  37   0.0000       0.159470         4.3394
  38   0.0000       0.171898         4.6776
  39   0.0000       0.181293         4.9332

MULLIKEN ATOMIC CHARGES
-----------------------
   0 C :   -0.388263
   1 C :   -0.191631
   2 C :   -0.314132
   3 C :    0.119547
   4 C :   -0.339398
   5 C :    0.154043
   6 O :   -0.452726
   7 C :   -0.218252
   8 C :   -0.226182
   9 H :    0.121966
  10 H :    0.122019
  11 H :    0.132712
  12 H :    0.109960
  13 H :    0.110567
  14 H :    0.123217
  15 H :    0.111806
  16 H :    0.120960
  17 H :    0.133675
  18 H :    0.325887
  19 H :    0.106398
  20 H :    0.109095
  21 H :    0.112663
  22 H :    0.116071
Sum of atomic charges:   -0.0000000

LOEWDIN ATOMIC CHARGES
----------------------
   0 C :   -0.322277
   1 C :   -0.287553
   2 C :   -0.230686
   3 C :   -0.191496
   4 C :   -0.181761
   5 C :   -0.326683
   6 O :    0.025542
   7 C :   -0.198702
   8 C :   -0.188520
   9 H :    0.120034
  10 H :    0.120113
  11 H :    0.119948
  12 H :    0.135265
  13 H :    0.135359
  14 H :    0.147561
  15 H :    0.143877
  16 H :    0.129894
  17 H :    0.143199
  18 H :    0.183955
  19 H :    0.123662
  20 H :    0.137815
  21 H :    0.134472
  22 H :    0.126983

  Mayer bond orders larger than 0.1
B(  0-C ,  1-C ) :   0.9174 B(  0-C ,  9-H ) :   0.9397 B(  0-C , 10-H ) :   0.9400
B(  0-C , 11-H ) :   0.9443 B(  1-C ,  2-C ) :   0.9354 B(  1-C , 12-H ) :   0.9331
B(  1-C , 13-H ) :   0.9340 B(  2-C ,  3-C ) :   0.8916 B(  2-C , 14-H ) :   0.9262
B(  2-C , 15-H ) :   0.9294 B(  3-C ,  4-C ) :   0.8448 B(  3-C ,  5-C ) :   0.7950
B(  3-C ,  8-C ) :   0.9210 B(  4-C ,  5-C ) :   0.9226 B(  4-C , 16-H ) :   0.8993
B(  4-C , 17-H ) :   0.9295 B(  5-C ,  6-O ) :   1.0763 B(  5-C ,  7-C ) :   1.0126
B(  6-O , 18-H ) :   0.8346 B(  7-C ,  8-C ) :   0.9901 B(  7-C , 19-H ) :   0.9110
B(  7-C , 20-H ) :   0.9069 B(  8-C , 21-H ) :   0.9197 B(  8-C , 22-H ) :   0.9145

MP2 TOTAL ENERGY:     -387.591280021 Eh
FINAL SINGLE POINT ENERGY      -387.591280021247

DIPOLE MOMENT
-------------
                                X             Y             Z
Electronic contribution:      2.94970      -5.99816      -5.42326
Nuclear contribution   :     -3.27855       5.67831       5.42434
                        -----------------------------------------
Total Dipole Moment    :     -0.32885      -0.31985       0.00108
                        -----------------------------------------
Magnitude (a.u.)       :      0.45874
Magnitude (Debye)      :      1.16604

                             ****ORCA TERMINATED NORMALLY****
TOTAL RUN TIME: 0 days 0 hours 18 minutes 28 seconds 293 msec
