                         Program Version 3.0.3 - RELEASE   -
|  1> ! RI-MP2 RIJK def2-TZVP def2-TZVP/C def2-TZVP/JK TIGHTSCF
|  2> % maxcore 2000
|  3> % mp2 density relaxed end
|  4> *xyz 0 1
|  5>  C       -0.0676229261     1.6291267919    -0.0349704666
|  6>  C        0.0717308267     0.1158668725     0.1123987636
|  7>  N       -1.2232029893    -0.5397325396     0.1374704873
|  8>  C       -2.0927013108    -0.3830864529     1.3212405623
|  9>  C       -2.5368051019    -1.8534959149     1.1451992070
| 10>  C       -1.2702599466    -2.0070623979     0.2467445845
| 11>  C       -1.4686750664    -2.7378371846    -1.0616163094
| 12>  O       -1.0592876285    -3.8447286292    -1.2995482818
| 13>  H        0.9166535962     2.1052829732    -0.0694070458
| 14>  H       -0.6102235020     1.8787721217    -0.9512280233
| 15>  H       -0.6151114703     2.0594755288     0.8103310640
| 16>  H        0.6346881154    -0.2911142889    -0.7367233369
| 17>  H        0.6585380446    -0.1180042745     1.0228223935
| 18>  H       -1.5271344235    -0.2311613349     2.2555098584
| 19>  H       -2.8555188183     0.3975561584     1.2402259541
| 20>  H       -2.5792496676    -2.4848609663     2.0315418826
| 21>  H       -3.4656487802    -1.9514954268     0.5789635814
| 22>  H       -0.4280369473    -2.4566952149     0.7947373500
| 23>  H       -2.0682986640    -2.1550358711    -1.7988994550
| 24> *
| 25>
| 26>                          ****END OF INPUT****

CARTESIAN COORDINATES (ANGSTROEM)
---------------------------------
  C     -0.067623    1.629127   -0.034970
  C      0.071731    0.115867    0.112399
  N     -1.223203   -0.539733    0.137470
  C     -2.092701   -0.383086    1.321241
  C     -2.536805   -1.853496    1.145199
  C     -1.270260   -2.007062    0.246745
  C     -1.468675   -2.737837   -1.061616
  O     -1.059288   -3.844729   -1.299548
  H      0.916654    2.105283   -0.069407
  H     -0.610224    1.878772   -0.951228
  H     -0.615111    2.059476    0.810331
  H      0.634688   -0.291114   -0.736723
  H      0.658538   -0.118004    1.022822
  H     -1.527134   -0.231161    2.255510
  H     -2.855519    0.397556    1.240226
  H     -2.579250   -2.484861    2.031542
  H     -3.465649   -1.951495    0.578964
  H     -0.428037   -2.456695    0.794737
  H     -2.068299   -2.155036   -1.798899

 Total Charge           Charge          ....    0
 Multiplicity           Mult            ....    1
 Number of Electrons    NEL             ....   62
 Basis Dimension        Dim             ....  314

ORBITAL ENERGIES
----------------

  NO   OCC          E(Eh)            E(eV)
   0   2.0000     -20.556319      -559.3659
   1   2.0000     -15.559097      -423.3846
   2   2.0000     -11.325690      -308.1877
   3   2.0000     -11.271132      -306.7031
   4   2.0000     -11.264442      -306.5210
   5   2.0000     -11.257571      -306.3341
   6   2.0000     -11.244843      -305.9877
   7   2.0000     -11.220592      -305.3278
   8   2.0000      -1.394347       -37.9421
   9   2.0000      -1.266220       -34.4556
  10   2.0000      -1.065024       -28.9808
  11   2.0000      -0.969091       -26.3703
  12   2.0000      -0.960644       -26.1405
  13   2.0000      -0.847112       -23.0511
  14   2.0000      -0.812724       -22.1153
  15   2.0000      -0.769310       -20.9340
  16   2.0000      -0.687767       -18.7151
  17   2.0000      -0.673418       -18.3246
  18   2.0000      -0.644437       -17.5360
  19   2.0000      -0.631107       -17.1733
  20   2.0000      -0.592203       -16.1147
  21   2.0000      -0.581564       -15.8251
  22   2.0000      -0.550833       -14.9889
  23   2.0000      -0.543783       -14.7971
  24   2.0000      -0.529928       -14.4201
  25   2.0000      -0.511403       -13.9160
  26   2.0000      -0.489740       -13.3265
  27   2.0000      -0.486533       -13.2392
  28   2.0000      -0.463162       -12.6033
  29   2.0000      -0.415828       -11.3152
  30   2.0000      -0.373385       -10.1603
  31   0.0000       0.118518         3.2250
  32   0.0000       0.132035         3.5929
  33   0.0000       0.154447         4.2027
  34   0.0000       0.166325         4.5259
  35   0.0000       0.171178         4.6580

MULLIKEN ATOMIC CHARGES
-----------------------
   0 C :   -0.378946
   1 C :   -0.159091
   2 N :   -0.155748
   3 C :   -0.171056
   4 C :   -0.224668
   5 C :    0.058978
   6 C :    0.045781
   7 O :   -0.257368
   8 H :    0.131546
   9 H :    0.129887
  10 H :    0.126258
  11 H :    0.120748
  12 H :    0.092759
  13 H :    0.097486
  14 H :    0.119333
  15 H :    0.136205
  16 H :    0.123296
  17 H :    0.085810
  18 H :    0.078789
Sum of atomic charges:   -0.0000000

LOEWDIN ATOMIC CHARGES
----------------------
   0 C :   -0.314705
   1 C :   -0.323335
   2 N :    0.107875
   3 C :   -0.251944
   4 C :   -0.204746
   5 C :   -0.253118
   6 C :   -0.281449
   7 O :    0.134952
   8 H :    0.123825
   9 H :    0.123809
  10 H :    0.121192
  11 H :    0.134488
  12 H :    0.117665
  13 H :    0.121290
  14 H :    0.119900
  15 H :    0.130165
  16 H :    0.137945
  17 H :    0.143544
  18 H :    0.112647

  Mayer bond orders larger than 0.1
B(  0-C ,  1-C ) :   0.9345 B(  0-C ,  8-H ) :   0.9368 B(  0-C ,  9-H ) :   0.9347
B(  0-C , 10-H ) :   0.9354 B(  1-C ,  2-N ) :   0.9168 B(  1-C , 11-H ) :   0.9248
B(  1-C , 12-H ) :   0.9242 B(  2-N ,  3-C ) :   0.9319 B(  2-N ,  5-C ) :   0.9035
B(  3-C ,  4-C ) :   0.9411 B(  3-C , 13-H ) :   0.9168 B(  3-C , 14-H ) :   0.9190
B(  4-C ,  5-C ) :   0.9062 B(  4-C , 15-H ) :   0.9299 B(  4-C , 16-H ) :   0.9161
B(  5-C ,  6-C ) :   0.8390 B(  5-C , 17-H ) :   0.8900 B(  6-C ,  7-O ) :   2.0094
B(  6-C , 18-H ) :   0.9438

MP2 TOTAL ENERGY:     -364.422396157 Eh
FINAL SINGLE POINT ENERGY      -364.422396156942

DIPOLE MOMENT
-------------
                                X             Y             Z
Electronic contribution:     -1.23122      -8.33946      -3.48325
Nuclear contribution   :      1.07290       9.25154       4.18866
                        -----------------------------------------
Total Dipole Moment    :     -0.15832       0.91208       0.70541
                        -----------------------------------------
Magnitude (a.u.)       :      1.16386
Magnitude (Debye)      :      2.95829

                             ****ORCA TERMINATED NORMALLY****
TOTAL RUN TIME: 0 days 0 hours 13 minutes 53 seconds 760 msec
