                         Program Version 3.0.3 - RELEASE   -
|  1> ! RI-MP2 RIJK def2-TZVP def2-TZVP/C def2-TZVP/JK TIGHTSCF
|  2> % maxcore 2000
|  3> % mp2 density relaxed end
|  4> *xyz 0 1
|  5>  C        0.0056233513     1.3685300650     0.1087886698
|  6>  N       -0.0195961095    -0.0792879417     0.0074445966
|  7>  C       -0.0907220038    -0.8334707070    -1.1249445686
|  8>  C       -0.0359726882    -2.1528771752    -0.7351827708
|  9>  C        0.0702542991    -2.0658069945     0.6630484384
| 10>  N        0.0822155470    -0.8176733771     1.1156248502
| 11>  N        0.1551201396    -3.1825220307     1.5834166454
| 12>  O        0.1371435051    -4.2984067183     1.0707701846
| 13>  O        0.2376163850    -2.9472440077     2.7777052946
| 14>  H        1.0190894577     1.7207014009     0.3197902448
| 15>  H       -0.3385400177     1.7942370568    -0.8347121133
| 16>  H       -0.6569695754     1.6814141604     0.9168009958
| 17>  H       -0.1753419141    -0.3769026537    -2.0983043475
| 18>  H       -0.0726406863    -3.0413025773    -1.3397165399
| 19> *
| 20>
| 21>                          ****END OF INPUT****

CARTESIAN COORDINATES (ANGSTROEM)
---------------------------------
  C      0.005623    1.368530    0.108789
  N     -0.019596   -0.079288    0.007445
  C     -0.090722   -0.833471   -1.124945
  C     -0.035973   -2.152877   -0.735183
  C      0.070254   -2.065807    0.663048
  N      0.082216   -0.817673    1.115625
  N      0.155120   -3.182522    1.583417
  O      0.137144   -4.298407    1.070770
  O      0.237616   -2.947244    2.777705
  H      1.019089    1.720701    0.319790
  H     -0.338540    1.794237   -0.834712
  H     -0.656970    1.681414    0.916801
  H     -0.175342   -0.376903   -2.098304
  H     -0.072641   -3.041303   -1.339717

 Total Charge           Charge          ....    0
 Multiplicity           Mult            ....    1
 Number of Electrons    NEL             ....   66
 Basis Dimension        Dim             ....  309

ORBITAL ENERGIES
----------------

  NO   OCC          E(Eh)            E(eV)
   0   2.0000     -20.597599      -560.4892
   1   2.0000     -20.594260      -560.3983
   2   2.0000     -15.850291      -431.3083
   3   2.0000     -15.683260      -426.7632
   4   2.0000     -15.631449      -425.3534
   5   2.0000     -11.326825      -308.2186
   6   2.0000     -11.306192      -307.6571
   7   2.0000     -11.300254      -307.4955
   8   2.0000     -11.260040      -306.4013
   9   2.0000      -1.601735       -43.5854
  10   2.0000      -1.426409       -38.8146
  11   2.0000      -1.394753       -37.9532
  12   2.0000      -1.176899       -32.0251
  13   2.0000      -1.100372       -29.9427
  14   2.0000      -1.040303       -28.3081
  15   2.0000      -0.939125       -25.5549
  16   2.0000      -0.841990       -22.9117
  17   2.0000      -0.804112       -21.8810
  18   2.0000      -0.772443       -21.0193
  19   2.0000      -0.722523       -19.6609
  20   2.0000      -0.719274       -19.5724
  21   2.0000      -0.695728       -18.9317
  22   2.0000      -0.681348       -18.5404
  23   2.0000      -0.633749       -17.2452
  24   2.0000      -0.616394       -16.7729
  25   2.0000      -0.591451       -16.0942
  26   2.0000      -0.579440       -15.7674
  27   2.0000      -0.506623       -13.7859
  28   2.0000      -0.495614       -13.4863
  29   2.0000      -0.490345       -13.3430
  30   2.0000      -0.448431       -12.2024
  31   2.0000      -0.394029       -10.7221
  32   2.0000      -0.380448       -10.3525
  33   0.0000       0.059203         1.6110
  34   0.0000       0.121866         3.3161
  35   0.0000       0.127366         3.4658
  36   0.0000       0.155769         4.2387
  37   0.0000       0.180920         4.9231

MULLIKEN ATOMIC CHARGES
-----------------------
   0 C :   -0.307034
   1 N :    0.137853
   2 C :   -0.098955
   3 C :   -0.218640
   4 C :    0.059360
   5 N :   -0.225088
   6 N :    0.416506
   7 O :   -0.309212
   8 O :   -0.278647
   9 H :    0.161946
  10 H :    0.148484
  11 H :    0.173010
  12 H :    0.164963
  13 H :    0.175455
Sum of atomic charges:   -0.0000000

LOEWDIN ATOMIC CHARGES
----------------------
   0 C :   -0.261106
   1 N :    0.185263
   2 C :   -0.198344
   3 C :   -0.155751
   4 C :   -0.299776
   5 N :    0.088583
   6 N :   -0.057163
   7 O :   -0.007155
   8 O :    0.017324
   9 H :    0.128958
  10 H :    0.128565
  11 H :    0.133500
  12 H :    0.143161
  13 H :    0.153939

  Mayer bond orders larger than 0.1
B(  0-C ,  1-N ) :   0.8617 B(  0-C ,  9-H ) :   0.9249 B(  0-C , 10-H ) :   0.9277
B(  0-C , 11-H ) :   0.9271 B(  1-N ,  2-C ) :   1.1970 B(  1-N ,  5-N ) :   1.0142
B(  2-C ,  3-C ) :   1.4312 B(  2-C , 12-H ) :   0.9021 B(  3-C ,  4-C ) :   1.3175
B(  3-C , 13-H ) :   0.8988 B(  4-C ,  5-N ) :   1.4804 B(  4-C ,  6-N ) :   0.9191
B(  6-N ,  7-O ) :   1.4482 B(  6-N ,  8-O ) :   1.4666 B(  7-O ,  8-O ) :   0.1800

MP2 TOTAL ENERGY:     -469.191570338 Eh
FINAL SINGLE POINT ENERGY      -469.191570338064

DIPOLE MOMENT
-------------
                                X             Y             Z
Electronic contribution:      0.35073      -7.62184       4.09930
Nuclear contribution   :     -0.50973       9.57063      -5.88296
                        -----------------------------------------
Total Dipole Moment    :     -0.15900       1.94878      -1.78366
                        -----------------------------------------
Magnitude (a.u.)       :      2.64660
Magnitude (Debye)      :      6.72713

                             ****ORCA TERMINATED NORMALLY****
TOTAL RUN TIME: 0 days 0 hours 14 minutes 41 seconds 874 msec
