                         Program Version 3.0.3 - RELEASE   -
|  1> ! RI-MP2 RIJK def2-TZVP def2-TZVP/C def2-TZVP/JK TIGHTSCF
|  2> % maxcore 2000
|  3> % mp2 density relaxed end
|  4> *xyz 0 1
|  5>  C       -0.3386630052     1.4178501334     0.0286839105
|  6>  N        0.0303518669     0.0068994131     0.0232106444
|  7>  C        0.3869485186    -0.6015520864     1.2005181419
|  8>  O        0.3631945359    -0.0777454932     2.2926981339
|  9>  C        0.0389509354    -0.6965860338    -1.1924761174
| 10>  C       -0.3535538934    -2.0050524334    -1.4187595019
| 11>  N       -0.1445029536    -2.2301493825    -2.7394738957
| 12>  N        0.3304653434    -1.1609635516    -3.3969755344
| 13>  C        0.4509165929    -0.2233042219    -2.4623205650
| 14>  H        0.4194856459     2.0290802771    -0.4735530029
| 15>  H       -1.2979069761     1.5598071876    -0.4772843626
| 16>  H       -0.4143955864     1.7313892574     1.0695527779
| 17>  H        0.7085413530    -1.6462945217     1.0348882955
| 18>  H       -0.7618510179    -2.7563766483    -0.7632917385
| 19>  H       -0.3139879527    -3.0802384707    -3.2495538877
| 20>  H        0.8200735432     0.7558898548    -2.7262095278
| 21> *
| 22>
| 23>                          ****END OF INPUT****

CARTESIAN COORDINATES (ANGSTROEM)
---------------------------------
  C     -0.338663    1.417850    0.028684
  N      0.030352    0.006899    0.023211
  C      0.386949   -0.601552    1.200518
  O      0.363195   -0.077745    2.292698
  C      0.038951   -0.696586   -1.192476
  C     -0.353554   -2.005052   -1.418760
  N     -0.144503   -2.230149   -2.739474
  N      0.330465   -1.160964   -3.396976
  C      0.450917   -0.223304   -2.462321
  H      0.419486    2.029080   -0.473553
  H     -1.297907    1.559807   -0.477284
  H     -0.414396    1.731389    1.069553
  H      0.708541   -1.646295    1.034888
  H     -0.761851   -2.756377   -0.763292
  H     -0.313988   -3.080238   -3.249554
  H      0.820074    0.755890   -2.726210

 Total Charge           Charge          ....    0
 Multiplicity           Mult            ....    1
 Number of Electrons    NEL             ....   66
 Basis Dimension        Dim             ....  321

ORBITAL ENERGIES
----------------

  NO   OCC          E(Eh)            E(eV)
   0   2.0000     -20.529985      -558.6493
   1   2.0000     -15.653426      -425.9514
   2   2.0000     -15.606487      -424.6741
   3   2.0000     -15.604747      -424.6268
   4   2.0000     -11.354141      -308.9619
   5   2.0000     -11.289673      -307.2076
   6   2.0000     -11.280495      -306.9579
   7   2.0000     -11.266448      -306.5756
   8   2.0000     -11.265507      -306.5500
   9   2.0000      -1.395105       -37.9627
  10   2.0000      -1.389146       -37.8006
  11   2.0000      -1.267506       -34.4906
  12   2.0000      -1.113060       -30.2879
  13   2.0000      -1.061400       -28.8822
  14   2.0000      -0.970502       -26.4087
  15   2.0000      -0.873044       -23.7567
  16   2.0000      -0.826730       -22.4965
  17   2.0000      -0.776645       -21.1336
  18   2.0000      -0.766698       -20.8629
  19   2.0000      -0.702236       -19.1088
  20   2.0000      -0.656546       -17.8655
  21   2.0000      -0.648189       -17.6381
  22   2.0000      -0.624276       -16.9874
  23   2.0000      -0.615688       -16.7537
  24   2.0000      -0.602557       -16.3964
  25   2.0000      -0.578273       -15.7356
  26   2.0000      -0.556841       -15.1524
  27   2.0000      -0.542735       -14.7686
  28   2.0000      -0.481789       -13.1102
  29   2.0000      -0.442158       -12.0317
  30   2.0000      -0.433255       -11.7895
  31   2.0000      -0.376528       -10.2458
  32   2.0000      -0.330576        -8.9954
  33   0.0000       0.122190         3.3250
  34   0.0000       0.129244         3.5169
  35   0.0000       0.140833         3.8323
  36   0.0000       0.148700         4.0463
  37   0.0000       0.166178         4.5219

MULLIKEN ATOMIC CHARGES
-----------------------
   0 C :   -0.336760
   1 N :   -0.087146
   2 C :    0.136647
   3 O :   -0.350801
   4 C :    0.103322
   5 C :   -0.162588
   6 N :   -0.087142
   7 N :   -0.208245
   8 C :   -0.141137
   9 H :    0.138751
  10 H :    0.147760
  11 H :    0.181971
  12 H :    0.091057
  13 H :    0.172540
  14 H :    0.261216
  15 H :    0.140554
Sum of atomic charges:    0.0000000

LOEWDIN ATOMIC CHARGES
----------------------
   0 C :   -0.271187
   1 N :    0.186837
   2 C :   -0.397323
   3 O :    0.066752
   4 C :   -0.240446
   5 C :   -0.220975
   6 N :    0.131716
   7 N :    0.025179
   8 C :   -0.249281
   9 H :    0.119367
  10 H :    0.123018
  11 H :    0.135929
  12 H :    0.119529
  13 H :    0.141361
  14 H :    0.191237
  15 H :    0.138287

  Mayer bond orders larger than 0.1
B(  0-C ,  1-N ) :   0.8549 B(  0-C ,  9-H ) :   0.9341 B(  0-C , 10-H ) :   0.9310
B(  0-C , 11-H ) :   0.9160 B(  1-N ,  2-C ) :   1.1033 B(  1-N ,  4-C ) :   0.9737
B(  2-C ,  3-O ) :   1.9103 B(  2-C , 12-H ) :   0.9314 B(  4-C ,  5-C ) :   1.4038
B(  4-C ,  8-C ) :   1.2704 B(  5-C ,  6-N ) :   1.1935 B(  5-C ,  7-N ) :   0.1228
B(  5-C , 13-H ) :   0.8967 B(  6-N ,  7-N ) :   1.0787 B(  6-N , 14-H ) :   0.8728
B(  7-N ,  8-C ) :   1.5276 B(  8-C , 15-H ) :   0.9389

MP2 TOTAL ENERGY:     -433.378205762 Eh
FINAL SINGLE POINT ENERGY      -433.378205762142

DIPOLE MOMENT
-------------
                                X             Y             Z
Electronic contribution:      0.84223      -3.33325      -0.92619
Nuclear contribution   :     -1.32001       2.63607       0.07307
                        -----------------------------------------
Total Dipole Moment    :     -0.47778      -0.69718      -0.85312
                        -----------------------------------------
Magnitude (a.u.)       :      1.20090
Magnitude (Debye)      :      3.05244

                             ****ORCA TERMINATED NORMALLY****
TOTAL RUN TIME: 0 days 0 hours 16 minutes 1 seconds 41 msec
