                         Program Version 3.0.3 - RELEASE   -
|  1> ! RI-MP2 RIJK def2-TZVP def2-TZVP/C def2-TZVP/JK TIGHTSCF
|  2> % maxcore 2000
|  3> % mp2 density relaxed end
|  4> *xyz 0 1
|  5>  O        0.3624538947     1.3508472295    -0.0334946602
|  6>  C        0.2490532362    -0.0570367374    -0.0907631286
|  7>  C       -1.1969043685    -0.5537487048    -0.0058678662
|  8>  C       -2.0904592878     0.0539614251    -1.0974707901
|  9>  C       -2.2750335231     1.5525950836    -0.9589451506
| 10>  O       -2.0165920745     2.3457345578    -1.8328981775
| 11>  C       -1.3245405906    -2.0852116558     0.1892181456
| 12>  C       -1.9568054146    -1.7191407003     1.5463081036
| 13>  O       -1.7691993098    -0.3085221022     1.3081383293
| 14>  H        0.2084015450     1.7186749450    -0.9097038985
| 15>  H        0.7140098437    -0.4752336249    -0.9975202273
| 16>  H        0.7953885087    -0.4490364342     0.7735608836
| 17>  H       -1.6949032571    -0.1629299744    -2.0954781234
| 18>  H       -3.0848063820    -0.4037002763    -1.0113832540
| 19>  H       -2.6968255216     1.8760702490     0.0135588012
| 20>  H       -1.9743622911    -2.5975367218    -0.5217200183
| 21>  H       -0.3707416760    -2.6141960465     0.2482124147
| 22>  H       -3.0165978917    -1.9768649125     1.6602677850
| 23>  H       -1.4141228598    -2.0591228090     2.4355407317
| 24> *
| 25>
| 26>                          ****END OF INPUT****

CARTESIAN COORDINATES (ANGSTROEM)
---------------------------------
  O      0.362454    1.350847   -0.033495
  C      0.249053   -0.057037   -0.090763
  C     -1.196904   -0.553749   -0.005868
  C     -2.090459    0.053961   -1.097471
  C     -2.275034    1.552595   -0.958945
  O     -2.016592    2.345735   -1.832898
  C     -1.324541   -2.085212    0.189218
  C     -1.956805   -1.719141    1.546308
  O     -1.769199   -0.308522    1.308138
  H      0.208402    1.718675   -0.909704
  H      0.714010   -0.475234   -0.997520
  H      0.795389   -0.449036    0.773561
  H     -1.694903   -0.162930   -2.095478
  H     -3.084806   -0.403700   -1.011383
  H     -2.696826    1.876070    0.013559
  H     -1.974362   -2.597537   -0.521720
  H     -0.370742   -2.614196    0.248212
  H     -3.016598   -1.976865    1.660268
  H     -1.414123   -2.059123    2.435541

 Total Charge           Charge          ....    0
 Multiplicity           Mult            ....    1
 Number of Electrons    NEL             ....   70
 Basis Dimension        Dim             ....  339

ORBITAL ENERGIES
----------------

  NO   OCC          E(Eh)            E(eV)
   0   2.0000     -20.563150      -559.5518
   1   2.0000     -20.559463      -559.4514
   2   2.0000     -20.555406      -559.3410
   3   2.0000     -11.334013      -308.4142
   4   2.0000     -11.308969      -307.7327
   5   2.0000     -11.292728      -307.2908
   6   2.0000     -11.287848      -307.1580
   7   2.0000     -11.248933      -306.0990
   8   2.0000     -11.247647      -306.0640
   9   2.0000      -1.398864       -38.0650
  10   2.0000      -1.392404       -37.8892
  11   2.0000      -1.366607       -37.1873
  12   2.0000      -1.077911       -29.3314
  13   2.0000      -1.019890       -27.7526
  14   2.0000      -0.969789       -26.3893
  15   2.0000      -0.876924       -23.8623
  16   2.0000      -0.807741       -21.9798
  17   2.0000      -0.756160       -20.5762
  18   2.0000      -0.715271       -19.4635
  19   2.0000      -0.697091       -18.9688
  20   2.0000      -0.683876       -18.6092
  21   2.0000      -0.659550       -17.9473
  22   2.0000      -0.638291       -17.3688
  23   2.0000      -0.614203       -16.7133
  24   2.0000      -0.599688       -16.3183
  25   2.0000      -0.574171       -15.6240
  26   2.0000      -0.562651       -15.3105
  27   2.0000      -0.553616       -15.0647
  28   2.0000      -0.537881       -14.6365
  29   2.0000      -0.503420       -13.6988
  30   2.0000      -0.489108       -13.3093
  31   2.0000      -0.475963       -12.9516
  32   2.0000      -0.464834       -12.6488
  33   2.0000      -0.417672       -11.3654
  34   2.0000      -0.413467       -11.2510
  35   0.0000       0.123840         3.3699
  36   0.0000       0.134079         3.6485
  37   0.0000       0.146431         3.9846
  38   0.0000       0.156941         4.2706
  39   0.0000       0.163444         4.4475

MULLIKEN ATOMIC CHARGES
-----------------------
   0 O :   -0.460120
   1 C :   -0.110607
   2 C :    0.287546
   3 C :   -0.216125
   4 C :    0.058367
   5 O :   -0.281914
   6 C :   -0.315575
   7 C :   -0.022108
   8 O :   -0.345393
   9 H :    0.332144
  10 H :    0.124400
  11 H :    0.115978
  12 H :    0.123806
  13 H :    0.131297
  14 H :    0.103855
  15 H :    0.134954
  16 H :    0.133207
  17 H :    0.100844
  18 H :    0.105444
Sum of atomic charges:    0.0000000

LOEWDIN ATOMIC CHARGES
----------------------
   0 O :   -0.014359
   1 C :   -0.311913
   2 C :   -0.327833
   3 C :   -0.225017
   4 C :   -0.293970
   5 O :    0.111784
   6 C :   -0.204733
   7 C :   -0.268983
   8 O :    0.157386
   9 H :    0.176956
  10 H :    0.126407
  11 H :    0.137608
  12 H :    0.150872
  13 H :    0.159438
  14 H :    0.120260
  15 H :    0.133914
  16 H :    0.136248
  17 H :    0.117293
  18 H :    0.118643

  Mayer bond orders larger than 0.1
B(  0-O ,  1-C ) :   0.9916 B(  0-O ,  9-H ) :   0.8314 B(  1-C ,  2-C ) :   0.9007
B(  1-C , 10-H ) :   0.9486 B(  1-C , 11-H ) :   0.9192 B(  2-C ,  3-C ) :   0.8936
B(  2-C ,  6-C ) :   0.8433 B(  2-C ,  8-O ) :   0.8673 B(  3-C ,  4-C ) :   0.9131
B(  3-C , 12-H ) :   0.9093 B(  3-C , 13-H ) :   0.9013 B(  4-C ,  5-O ) :   1.9651
B(  4-C , 14-H ) :   0.9335 B(  6-C ,  7-C ) :   0.9820 B(  6-C , 15-H ) :   0.9264
B(  6-C , 16-H ) :   0.9274 B(  7-C ,  8-O ) :   0.9536 B(  7-C , 17-H ) :   0.9160
B(  7-C , 18-H ) :   0.9176

MP2 TOTAL ENERGY:     -459.411682186 Eh
FINAL SINGLE POINT ENERGY      -459.411682186092

DIPOLE MOMENT
-------------
                                X             Y             Z
Electronic contribution:     -0.68231       5.89595      -0.79489
Nuclear contribution   :      0.54872      -7.61329       0.65176
                        -----------------------------------------
Total Dipole Moment    :     -0.13359      -1.71734      -0.14313
                        -----------------------------------------
Magnitude (a.u.)       :      1.72847
Magnitude (Debye)      :      4.39341

                             ****ORCA TERMINATED NORMALLY****
TOTAL RUN TIME: 0 days 0 hours 18 minutes 29 seconds 352 msec
