                         Program Version 3.0.3 - RELEASE   -
|  1> ! RI-MP2 RIJK def2-TZVP def2-TZVP/C def2-TZVP/JK TIGHTSCF
|  2> % maxcore 2000
|  3> % mp2 density relaxed end
|  4> *xyz 0 1
|  5>  C        0.0121773991     1.4892667087     0.0370990092
|  6>  N       -0.0095623081     0.0326100629     0.0481759220
|  7>  C       -1.1781916137    -0.6705383841     0.0830205511
|  8>  C       -1.2203704151    -2.0279923135     0.0120986511
|  9>  C       -2.4934888627    -2.8139963618     0.0627887409
| 10>  C        0.0412983927    -2.7485841894    -0.1148846871
| 11>  O        0.1325529083    -3.9718933630    -0.1871095681
| 12>  C        1.2073122933    -1.8600312138    -0.1446658215
| 13>  N        1.1872719776    -0.5612165156    -0.0737989570
| 14>  H        0.9554110113     1.8176510345     0.4722453276
| 15>  H       -0.0650632544     1.8793597523    -0.9839270105
| 16>  H       -0.8193894199     1.8738166953     0.6311557855
| 17>  H       -2.0735612743    -0.0646756012     0.1773013180
| 18>  H       -2.5972921038    -3.4268905071    -0.8389649535
| 19>  H       -2.4736657027    -3.5162053888     0.9031331525
| 20>  H       -3.3712143723    -2.1691175027     0.1582396043
| 21>  H        2.1901702846    -2.3136691427    -0.2326262142
| 22> *
| 23>
| 24>                          ****END OF INPUT****

CARTESIAN COORDINATES (ANGSTROEM)
---------------------------------
  C      0.012177    1.489267    0.037099
  N     -0.009562    0.032610    0.048176
  C     -1.178192   -0.670538    0.083021
  C     -1.220370   -2.027992    0.012099
  C     -2.493489   -2.813996    0.062789
  C      0.041298   -2.748584   -0.114885
  O      0.132553   -3.971893   -0.187110
  C      1.207312   -1.860031   -0.144666
  N      1.187272   -0.561217   -0.073799
  H      0.955411    1.817651    0.472245
  H     -0.065063    1.879360   -0.983927
  H     -0.819389    1.873817    0.631156
  H     -2.073561   -0.064676    0.177301
  H     -2.597292   -3.426891   -0.838965
  H     -2.473666   -3.516205    0.903133
  H     -3.371214   -2.169118    0.158240
  H      2.190170   -2.313669   -0.232626

 Total Charge           Charge          ....    0
 Multiplicity           Mult            ....    1
 Number of Electrons    NEL             ....   66
 Basis Dimension        Dim             ....  327

ORBITAL ENERGIES
----------------

  NO   OCC          E(Eh)            E(eV)
   0   2.0000     -20.511929      -558.1580
   1   2.0000     -15.659785      -426.1244
   2   2.0000     -15.638066      -425.5334
   3   2.0000     -11.318671      -307.9967
   4   2.0000     -11.308555      -307.7214
   5   2.0000     -11.289359      -307.1991
   6   2.0000     -11.276822      -306.8579
   7   2.0000     -11.246444      -306.0313
   8   2.0000     -11.226581      -305.4908
   9   2.0000      -1.393843       -37.9284
  10   2.0000      -1.352902       -36.8143
  11   2.0000      -1.168602       -31.7993
  12   2.0000      -1.108783       -30.1715
  13   2.0000      -0.987967       -26.8839
  14   2.0000      -0.962816       -26.1996
  15   2.0000      -0.879466       -23.9315
  16   2.0000      -0.848650       -23.0929
  17   2.0000      -0.740729       -20.1563
  18   2.0000      -0.708612       -19.2823
  19   2.0000      -0.673180       -18.3182
  20   2.0000      -0.666685       -18.1414
  21   2.0000      -0.616474       -16.7751
  22   2.0000      -0.595577       -16.2065
  23   2.0000      -0.588536       -16.0149
  24   2.0000      -0.584865       -15.9150
  25   2.0000      -0.558939       -15.2095
  26   2.0000      -0.553050       -15.0493
  27   2.0000      -0.536075       -14.5873
  28   2.0000      -0.507533       -13.8107
  29   2.0000      -0.495732       -13.4896
  30   2.0000      -0.415451       -11.3050
  31   2.0000      -0.399590       -10.8734
  32   2.0000      -0.319059        -8.6820
  33   0.0000       0.093814         2.5528
  34   0.0000       0.112402         3.0586
  35   0.0000       0.125185         3.4065
  36   0.0000       0.153860         4.1867
  37   0.0000       0.167769         4.5652

MULLIKEN ATOMIC CHARGES
-----------------------
   0 C :   -0.307742
   1 N :    0.119675
   2 C :   -0.099862
   3 C :   -0.001577
   4 C :   -0.390084
   5 C :    0.164260
   6 O :   -0.372002
   7 C :   -0.098007
   8 N :   -0.210648
   9 H :    0.172857
  10 H :    0.152834
  11 H :    0.147025
  12 H :    0.143855
  13 H :    0.153492
  14 H :    0.153177
  15 H :    0.125485
  16 H :    0.147262
Sum of atomic charges:   -0.0000000

LOEWDIN ATOMIC CHARGES
----------------------
   0 C :   -0.270166
   1 N :    0.159897
   2 C :   -0.165062
   3 C :   -0.156046
   4 C :   -0.257992
   5 C :   -0.370784
   6 O :    0.078190
   7 C :   -0.189805
   8 N :    0.082846
   9 H :    0.132335
  10 H :    0.123492
  11 H :    0.125186
  12 H :    0.151426
  13 H :    0.141256
  14 H :    0.141133
  15 H :    0.126146
  16 H :    0.147947

  Mayer bond orders larger than 0.1
B(  0-C ,  1-N ) :   0.8658 B(  0-C ,  9-H ) :   0.9278 B(  0-C , 10-H ) :   0.9260
B(  0-C , 11-H ) :   0.9283 B(  1-N ,  2-C ) :   1.1817 B(  1-N ,  8-N ) :   0.9673
B(  2-C ,  3-C ) :   1.5091 B(  2-C , 12-H ) :   0.8912 B(  3-C ,  4-C ) :   0.9039
B(  3-C ,  5-C ) :   1.0192 B(  4-C , 13-H ) :   0.9205 B(  4-C , 14-H ) :   0.9192
B(  4-C , 15-H ) :   0.9474 B(  5-C ,  6-O ) :   1.8923 B(  5-C ,  7-C ) :   1.0854
B(  7-C ,  8-N ) :   1.5923 B(  7-C , 16-H ) :   0.9132

MP2 TOTAL ENERGY:     -417.322044807 Eh
FINAL SINGLE POINT ENERGY      -417.322044806524

DIPOLE MOMENT
-------------
                                X             Y             Z
Electronic contribution:      4.83375      -3.25821      -0.34591
Nuclear contribution   :     -5.71452       5.34051       0.49882
                        -----------------------------------------
Total Dipole Moment    :     -0.88077       2.08230       0.15290
                        -----------------------------------------
Magnitude (a.u.)       :      2.26608
Magnitude (Debye)      :      5.75991

                             ****ORCA TERMINATED NORMALLY****
TOTAL RUN TIME: 0 days 0 hours 17 minutes 34 seconds 884 msec
