                         Program Version 3.0.3 - RELEASE   -
|  1> ! RI-MP2 RIJK def2-TZVP def2-TZVP/C def2-TZVP/JK TIGHTSCF
|  2> % maxcore 2000
|  3> % mp2 density relaxed end
|  4> *xyz 0 1
|  5>  O       -0.2300108955     1.3795159565    -0.0032851558
|  6>  C       -0.0370788254     0.0327651734     0.0181706650
|  7>  C        0.0613093350    -1.0332534510    -1.0147736441
|  8>  N        1.2943615774    -1.5754091649    -0.4698389674
|  9>  C        0.9230172395    -0.9508280720     0.8343792620
| 10>  C       -0.3508359977    -1.6895093828     1.3320745050
| 11>  C       -1.0665370910    -1.0799642052     0.1245203100
| 12>  C       -2.4460627934    -1.0587889297    -0.1932788833
| 13>  C       -3.6204707638    -1.0508764725    -0.4614658623
| 14>  H        0.4674151650     1.7833439806    -0.5337210624
| 15>  H       -0.2167094149    -1.0462401768    -2.0605597677
| 16>  H        1.3196292233    -2.5956746423    -0.4256520123
| 17>  H        1.7349584706    -0.6910373426     1.5104072691
| 18>  H       -0.2918936523    -2.7812541058     1.4104403235
| 19>  H       -0.7312461391    -1.2669079882     2.2648386039
| 20>  H       -4.6563806578    -1.0351880567    -0.6919841930
| 21> *
| 22>
| 23>                          ****END OF INPUT****

CARTESIAN COORDINATES (ANGSTROEM)
---------------------------------
  O     -0.230011    1.379516   -0.003285
  C     -0.037079    0.032765    0.018171
  C      0.061309   -1.033253   -1.014774
  N      1.294362   -1.575409   -0.469839
  C      0.923017   -0.950828    0.834379
  C     -0.350836   -1.689509    1.332075
  C     -1.066537   -1.079964    0.124520
  C     -2.446063   -1.058789   -0.193279
  C     -3.620471   -1.050876   -0.461466
  H      0.467415    1.783344   -0.533721
  H     -0.216709   -1.046240   -2.060560
  H      1.319629   -2.595675   -0.425652
  H      1.734958   -0.691037    1.510407
  H     -0.291894   -2.781254    1.410440
  H     -0.731246   -1.266908    2.264839
  H     -4.656381   -1.035188   -0.691984

 Total Charge           Charge          ....    0
 Multiplicity           Mult            ....    1
 Number of Electrons    NEL             ....   64
 Basis Dimension        Dim             ....  321

ORBITAL ENERGIES
----------------

  NO   OCC          E(Eh)            E(eV)
   0   2.0000     -20.588156      -560.2322
   1   2.0000     -15.561702      -423.4554
   2   2.0000     -11.308281      -307.7140
   3   2.0000     -11.276642      -306.8530
   4   2.0000     -11.276086      -306.8379
   5   2.0000     -11.261803      -306.4492
   6   2.0000     -11.240391      -305.8666
   7   2.0000     -11.235080      -305.7221
   8   2.0000     -11.221622      -305.3559
   9   2.0000      -1.402916       -38.1753
  10   2.0000      -1.294302       -35.2197
  11   2.0000      -1.104937       -30.0669
  12   2.0000      -1.022678       -27.8285
  13   2.0000      -0.985499       -26.8168
  14   2.0000      -0.894127       -24.3304
  15   2.0000      -0.818393       -22.2696
  16   2.0000      -0.780803       -21.2467
  17   2.0000      -0.741037       -20.1647
  18   2.0000      -0.701745       -19.0955
  19   2.0000      -0.671678       -18.2773
  20   2.0000      -0.649112       -17.6632
  21   2.0000      -0.633290       -17.2327
  22   2.0000      -0.608819       -16.5668
  23   2.0000      -0.555212       -15.1081
  24   2.0000      -0.528992       -14.3946
  25   2.0000      -0.522722       -14.2240
  26   2.0000      -0.488171       -13.2838
  27   2.0000      -0.450499       -12.2587
  28   2.0000      -0.423591       -11.5265
  29   2.0000      -0.411475       -11.1968
  30   2.0000      -0.364917        -9.9299
  31   2.0000      -0.332427        -9.0458
  32   0.0000       0.135702         3.6927
  33   0.0000       0.139760         3.8031
  34   0.0000       0.161592         4.3972
  35   0.0000       0.168899         4.5960
  36   0.0000       0.174444         4.7469

MULLIKEN ATOMIC CHARGES
-----------------------
   0 O :   -0.426647
   1 C :    0.126047
   2 C :   -0.130153
   3 N :   -0.287201
   4 C :   -0.077627
   5 C :   -0.165672
   6 C :   -0.165049
   7 C :   -0.003993
   8 C :   -0.138054
   9 H :    0.340754
  10 H :    0.152225
  11 H :    0.203894
  12 H :    0.141319
  13 H :    0.113983
  14 H :    0.126602
  15 H :    0.189572
Sum of atomic charges:    0.0000000

LOEWDIN ATOMIC CHARGES
----------------------
   0 O :    0.060841
   1 C :   -0.265374
   2 C :   -0.180007
   3 N :    0.036480
   4 C :   -0.179437
   5 C :   -0.171932
   6 C :   -0.162432
   7 C :   -0.078989
   8 C :   -0.089079
   9 H :    0.196471
  10 H :    0.141454
  11 H :    0.161084
  12 H :    0.129614
  13 H :    0.126656
  14 H :    0.148303
  15 H :    0.126347

  Mayer bond orders larger than 0.1
B(  0-O ,  1-C ) :   1.1161 B(  0-O ,  6-C ) :  -0.1192 B(  0-O ,  9-H ) :   0.8252
B(  1-C ,  2-C ) :   0.8661 B(  1-C ,  4-C ) :   0.8708 B(  1-C ,  6-C ) :   0.8102
B(  2-C ,  3-N ) :   0.9924 B(  2-C ,  6-C ) :   0.7301 B(  2-C , 10-H ) :   0.9279
B(  3-N ,  4-C ) :   0.9553 B(  3-N , 11-H ) :   0.8700 B(  4-C ,  5-C ) :   0.9261
B(  4-C , 12-H ) :   0.9121 B(  5-C ,  6-C ) :   0.9055 B(  5-C , 13-H ) :   0.9080
B(  5-C , 14-H ) :   0.9167 B(  6-C ,  7-C ) :   1.2445 B(  6-C ,  8-C ) :  -0.1761
B(  7-C ,  8-C ) :   2.6185 B(  8-C , 15-H ) :   0.8720

MP2 TOTAL ENERGY:     -399.942728764 Eh
FINAL SINGLE POINT ENERGY      -399.942728763644

DIPOLE MOMENT
-------------
                                X             Y             Z
Electronic contribution:     -1.00602       2.06545      -1.27612
Nuclear contribution   :      1.39009      -2.26980       1.24219
                        -----------------------------------------
Total Dipole Moment    :      0.38407      -0.20434      -0.03392
                        -----------------------------------------
Magnitude (a.u.)       :      0.43637
Magnitude (Debye)      :      1.10915

                             ****ORCA TERMINATED NORMALLY****
TOTAL RUN TIME: 0 days 0 hours 16 minutes 57 seconds 258 msec
