                         Program Version 3.0.3 - RELEASE   -
|  1> ! RI-MP2 RIJK def2-TZVP def2-TZVP/C def2-TZVP/JK TIGHTSCF
|  2> % maxcore 2000
|  3> % mp2 density relaxed end
|  4> *xyz 0 1
|  5>  N        0.0273850794     1.2782860718     0.1566045269
|  6>  C       -0.0532970294    -0.0656730766     0.0537286371
|  7>  N       -1.1321842376    -0.7966500137     0.0083827036
|  8>  N       -0.5795866475    -2.0643082570    -0.0049723969
|  9>  N       -0.9961543761    -3.3397792512    -0.0546010593
| 10>  N        0.1123859160    -4.0338615841    -0.0620132353
| 11>  N        1.2468389300    -3.2524476403    -0.0224335464
| 12>  C        0.7510251066    -2.0463843250     0.0124024753
| 13>  O        1.1474781861    -0.7476736216     0.0545318626
| 14>  H        0.8789371694     1.7081931384    -0.1693074273
| 15>  H       -0.8256260968     1.7820705092    -0.0307445103
| 16> *
| 17>
| 18>                          ****END OF INPUT****

CARTESIAN COORDINATES (ANGSTROEM)
---------------------------------
  N      0.027385    1.278286    0.156605
  C     -0.053297   -0.065673    0.053729
  N     -1.132184   -0.796650    0.008383
  N     -0.579587   -2.064308   -0.004972
  N     -0.996154   -3.339779   -0.054601
  N      0.112386   -4.033862   -0.062013
  N      1.246839   -3.252448   -0.022434
  C      0.751025   -2.046384    0.012402
  O      1.147478   -0.747674    0.054532
  H      0.878937    1.708193   -0.169307
  H     -0.825626    1.782071   -0.030745

 Total Charge           Charge          ....    0
 Multiplicity           Mult            ....    1
 Number of Electrons    NEL             ....   64
 Basis Dimension        Dim             ....  291

ORBITAL ENERGIES
----------------

  NO   OCC          E(Eh)            E(eV)
   0   2.0000     -20.701964      -563.3291
   1   2.0000     -15.709059      -427.4652
   2   2.0000     -15.667750      -426.3412
   3   2.0000     -15.654339      -425.9762
   4   2.0000     -15.643229      -425.6739
   5   2.0000     -15.641925      -425.6384
   6   2.0000     -15.611471      -424.8097
   7   2.0000     -11.444307      -311.4154
   8   2.0000     -11.395538      -310.0884
   9   2.0000      -1.579487       -42.9800
  10   2.0000      -1.482638       -40.3446
  11   2.0000      -1.354023       -36.8448
  12   2.0000      -1.298109       -35.3233
  13   2.0000      -1.214144       -33.0385
  14   2.0000      -1.142495       -31.0889
  15   2.0000      -0.930362       -25.3164
  16   2.0000      -0.915256       -24.9054
  17   2.0000      -0.895665       -24.3723
  18   2.0000      -0.777260       -21.1503
  19   2.0000      -0.766040       -20.8450
  20   2.0000      -0.750942       -20.4342
  21   2.0000      -0.715654       -19.4739
  22   2.0000      -0.709311       -19.3013
  23   2.0000      -0.652491       -17.7552
  24   2.0000      -0.586663       -15.9639
  25   2.0000      -0.579035       -15.7563
  26   2.0000      -0.529584       -14.4107
  27   2.0000      -0.513246       -13.9661
  28   2.0000      -0.489364       -13.3163
  29   2.0000      -0.474729       -12.9180
  30   2.0000      -0.413200       -11.2437
  31   2.0000      -0.379489       -10.3264
  32   0.0000       0.097352         2.6491
  33   0.0000       0.126615         3.4454
  34   0.0000       0.153818         4.1856
  35   0.0000       0.159218         4.3326
  36   0.0000       0.167860         4.5677

MULLIKEN ATOMIC CHARGES
-----------------------
   0 N :   -0.496540
   1 C :    0.372193
   2 N :   -0.264427
   3 N :    0.201809
   4 N :   -0.150045
   5 N :   -0.066656
   6 N :   -0.165141
   7 C :    0.216286
   8 O :   -0.228303
   9 H :    0.288857
  10 H :    0.291966
Sum of atomic charges:    0.0000000

LOEWDIN ATOMIC CHARGES
----------------------
   0 N :   -0.006567
   1 C :   -0.432716
   2 N :    0.063887
   3 N :    0.149943
   4 N :   -0.031466
   5 N :   -0.044121
   6 N :    0.022347
   7 C :   -0.447127
   8 O :    0.340492
   9 H :    0.190852
  10 H :    0.194475

  Mayer bond orders larger than 0.1
B(  0-N ,  1-C ) :   1.1700 B(  0-N ,  9-H ) :   0.8546 B(  0-N , 10-H ) :   0.8542
B(  1-C ,  2-N ) :   1.6453 B(  1-C ,  8-O ) :   1.0419 B(  2-N ,  3-N ) :   0.8822
B(  3-N ,  4-N ) :   0.9934 B(  3-N ,  7-C ) :   1.1945 B(  4-N ,  5-N ) :   1.2818
B(  5-N ,  6-N ) :   1.0516 B(  6-N ,  7-C ) :   1.5830 B(  7-C ,  8-O ) :   1.0167

MP2 TOTAL ENERGY:     -480.230877073 Eh
FINAL SINGLE POINT ENERGY      -480.230877072863

DIPOLE MOMENT
-------------
                                X             Y             Z
Electronic contribution:      0.25202      -3.29945      -0.01397
Nuclear contribution   :     -0.06673       6.32210      -0.21360
                        -----------------------------------------
Total Dipole Moment    :      0.18528       3.02265      -0.22757
                        -----------------------------------------
Magnitude (a.u.)       :      3.03686
Magnitude (Debye)      :      7.71909

                             ****ORCA TERMINATED NORMALLY****
TOTAL RUN TIME: 0 days 0 hours 13 minutes 27 seconds 987 msec
