                         Program Version 3.0.3 - RELEASE   -
|  1> ! RI-MP2 RIJK def2-TZVP def2-TZVP/C def2-TZVP/JK TIGHTSCF
|  2> % maxcore 2000
|  3> % mp2 density relaxed end
|  4> *xyz 0 1
|  5>  N        0.0467957206     1.3670606265    -0.1288624271
|  6>  C       -0.0825332416     0.0028319927    -0.0563611851
|  7>  C       -1.1595788608    -0.8401168323    -0.0253130741
|  8>  C       -0.5628247398    -2.1292991000    -0.0365907362
|  9>  N        0.7504017481    -2.0724693068    -0.0586970023
| 10>  O        1.0590432113    -0.6958285755    -0.0767449900
| 11>  C       -1.2430337432    -3.4432035645    -0.0306504734
| 12>  C       -0.8928421579    -4.4529606185    -1.0752348932
| 13>  N       -0.4823023671    -4.6536412291     0.3156511015
| 14>  H        0.9434945414     1.7162518234     0.1784529708
| 15>  H       -0.7294501164     1.8891264620     0.2478191059
| 16>  H       -2.2056260563    -0.5861937738    -0.0100380220
| 17>  H       -2.2595427405    -3.4239617805     0.3530535216
| 18>  H       -1.6570387962    -5.1363313943    -1.4358816955
| 19>  H       -0.1433263846    -4.1606015582    -1.8048510294
| 20>  H        0.4960006030    -4.3907286312     0.4223319587
| 21> *
| 22>
| 23>                          ****END OF INPUT****

CARTESIAN COORDINATES (ANGSTROEM)
---------------------------------
  N      0.046796    1.367061   -0.128862
  C     -0.082533    0.002832   -0.056361
  C     -1.159579   -0.840117   -0.025313
  C     -0.562825   -2.129299   -0.036591
  N      0.750402   -2.072469   -0.058697
  O      1.059043   -0.695829   -0.076745
  C     -1.243034   -3.443204   -0.030650
  C     -0.892842   -4.452961   -1.075235
  N     -0.482302   -4.653641    0.315651
  H      0.943495    1.716252    0.178453
  H     -0.729450    1.889126    0.247819
  H     -2.205626   -0.586194   -0.010038
  H     -2.259543   -3.423962    0.353054
  H     -1.657039   -5.136331   -1.435882
  H     -0.143326   -4.160602   -1.804851
  H      0.496001   -4.390729    0.422332

 Total Charge           Charge          ....    0
 Multiplicity           Mult            ....    1
 Number of Electrons    NEL             ....   66
 Basis Dimension        Dim             ....  321

ORBITAL ENERGIES
----------------

  NO   OCC          E(Eh)            E(eV)
   0   2.0000     -20.636805      -561.5560
   1   2.0000     -15.601256      -424.5318
   2   2.0000     -15.601036      -424.5258
   3   2.0000     -15.560353      -423.4187
   4   2.0000     -11.360894      -309.1457
   5   2.0000     -11.287496      -307.1484
   6   2.0000     -11.272102      -306.7295
   7   2.0000     -11.261359      -306.4372
   8   2.0000     -11.223871      -305.4171
   9   2.0000      -1.489680       -40.5362
  10   2.0000      -1.272920       -34.6379
  11   2.0000      -1.249158       -33.9913
  12   2.0000      -1.155621       -31.4461
  13   2.0000      -1.046369       -28.4731
  14   2.0000      -0.922570       -25.1044
  15   2.0000      -0.872605       -23.7448
  16   2.0000      -0.826651       -22.4943
  17   2.0000      -0.781025       -21.2528
  18   2.0000      -0.739552       -20.1242
  19   2.0000      -0.705775       -19.2051
  20   2.0000      -0.666842       -18.1457
  21   2.0000      -0.657026       -17.8786
  22   2.0000      -0.644218       -17.5301
  23   2.0000      -0.619380       -16.8542
  24   2.0000      -0.573885       -15.6162
  25   2.0000      -0.533544       -14.5185
  26   2.0000      -0.513581       -13.9752
  27   2.0000      -0.493281       -13.4229
  28   2.0000      -0.488918       -13.3041
  29   2.0000      -0.470859       -12.8127
  30   2.0000      -0.441325       -12.0091
  31   2.0000      -0.376006       -10.2316
  32   2.0000      -0.333049        -9.0627
  33   0.0000       0.118555         3.2260
  34   0.0000       0.137780         3.7492
  35   0.0000       0.160103         4.3566
  36   0.0000       0.175166         4.7665
  37   0.0000       0.180487         4.9113

MULLIKEN ATOMIC CHARGES
-----------------------
   0 N :   -0.510868
   1 C :    0.292163
   2 C :   -0.333556
   3 C :    0.158157
   4 N :   -0.184846
   5 O :   -0.140262
   6 C :   -0.099601
   7 C :   -0.145281
   8 N :   -0.360974
   9 H :    0.269907
  10 H :    0.265274
  11 H :    0.149689
  12 H :    0.136865
  13 H :    0.123400
  14 H :    0.139544
  15 H :    0.240389
Sum of atomic charges:   -0.0000000

LOEWDIN ATOMIC CHARGES
----------------------
   0 N :   -0.049864
   1 C :   -0.381515
   2 C :   -0.176251
   3 C :   -0.283793
   4 N :    0.037486
   5 O :    0.274199
   6 C :   -0.243056
   7 C :   -0.252375
   8 N :   -0.000579
   9 H :    0.179970
  10 H :    0.179244
  11 H :    0.146259
  12 H :    0.148831
  13 H :    0.123431
  14 H :    0.126860
  15 H :    0.171151

  Mayer bond orders larger than 0.1
B(  0-N ,  1-C ) :   1.0951 B(  0-N ,  9-H ) :   0.8633 B(  0-N , 10-H ) :   0.8704
B(  1-C ,  2-C ) :   1.4978 B(  1-C ,  5-O ) :   1.1479 B(  2-C ,  3-C ) :   1.2084
B(  2-C , 11-H ) :   0.8976 B(  3-C ,  4-N ) :   1.5414 B(  3-C ,  6-C ) :   0.9329
B(  4-N ,  5-O ) :   0.8439 B(  6-C ,  7-C ) :   0.9302 B(  6-C ,  8-N ) :   0.9597
B(  6-C , 12-H ) :   0.9118 B(  7-C ,  8-N ) :   0.9088 B(  7-C , 13-H ) :   0.9274
B(  7-C , 14-H ) :   0.9112 B(  8-N , 15-H ) :   0.8733

MP2 TOTAL ENERGY:     -433.307923682 Eh
FINAL SINGLE POINT ENERGY      -433.307923682452

DIPOLE MOMENT
-------------
                                X             Y             Z
Electronic contribution:      2.85946       2.60240       1.05767
Nuclear contribution   :     -3.52939      -1.08627      -1.06845
                        -----------------------------------------
Total Dipole Moment    :     -0.66993       1.51612      -0.01078
                        -----------------------------------------
Magnitude (a.u.)       :      1.65758
Magnitude (Debye)      :      4.21322

                             ****ORCA TERMINATED NORMALLY****
TOTAL RUN TIME: 0 days 0 hours 17 minutes 46 seconds 50 msec
