                         Program Version 3.0.3 - RELEASE   -
|  1> ! RI-MP2 RIJK def2-TZVP def2-TZVP/C def2-TZVP/JK TIGHTSCF
|  2> % maxcore 2000
|  3> % mp2 density relaxed end
|  4> *xyz 0 1
|  5>  C       -0.0432630489     1.5489044311    -0.0624649177
|  6>  C       -0.0145360442     0.0355734249     0.0136907386
|  7>  N        1.3060425769    -0.5877282270    -0.1988974106
|  8>  C        0.7069457854    -0.6706542896     1.1432549401
|  9>  C        1.3538823546     0.0711585584     2.1980049031
| 10>  N        1.8429508894     0.6652829249     3.0607663560
| 11>  C       -1.1729601121    -0.6477043632    -0.5065281523
| 12>  C       -2.1331757451    -1.2070469388    -0.9658326757
| 13>  H        0.8736594618     1.9660095471     0.3574625566
| 14>  H       -0.1268561502     1.8651919662    -1.1057412001
| 15>  H       -0.9009126870     1.9437289086     0.4887723404
| 16>  H        1.2051219655    -1.4859014640    -0.6662817593
| 17>  H        0.2837047774    -1.6173694146     1.4652208687
| 18>  H       -2.9846161336    -1.7000190840    -1.3667483180
| 19> *
| 20>
| 21>                          ****END OF INPUT****

CARTESIAN COORDINATES (ANGSTROEM)
---------------------------------
  C     -0.043263    1.548904   -0.062465
  C     -0.014536    0.035573    0.013691
  N      1.306043   -0.587728   -0.198897
  C      0.706946   -0.670654    1.143255
  C      1.353882    0.071159    2.198005
  N      1.842951    0.665283    3.060766
  C     -1.172960   -0.647704   -0.506528
  C     -2.133176   -1.207047   -0.965833
  H      0.873659    1.966010    0.357463
  H     -0.126856    1.865192   -1.105741
  H     -0.900913    1.943729    0.488772
  H      1.205122   -1.485901   -0.666282
  H      0.283705   -1.617369    1.465221
  H     -2.984616   -1.700019   -1.366748

 Total Charge           Charge          ....    0
 Multiplicity           Mult            ....    1
 Number of Electrons    NEL             ....   56
 Basis Dimension        Dim             ....  284

ORBITAL ENERGIES
----------------

  NO   OCC          E(Eh)            E(eV)
   0   2.0000     -15.605251      -424.6405
   1   2.0000     -15.579623      -423.9431
   2   2.0000     -11.331057      -308.3337
   3   2.0000     -11.327219      -308.2293
   4   2.0000     -11.281474      -306.9845
   5   2.0000     -11.261688      -306.4461
   6   2.0000     -11.255285      -306.2719
   7   2.0000     -11.242367      -305.9204
   8   2.0000      -1.319296       -35.8999
   9   2.0000      -1.222302       -33.2605
  10   2.0000      -1.073393       -29.2085
  11   2.0000      -1.014485       -27.6055
  12   2.0000      -0.973118       -26.4799
  13   2.0000      -0.881950       -23.9991
  14   2.0000      -0.779523       -21.2119
  15   2.0000      -0.732612       -19.9354
  16   2.0000      -0.713495       -19.4152
  17   2.0000      -0.614875       -16.7316
  18   2.0000      -0.603248       -16.4152
  19   2.0000      -0.591018       -16.0824
  20   2.0000      -0.563744       -15.3403
  21   2.0000      -0.547285       -14.8924
  22   2.0000      -0.520155       -14.1541
  23   2.0000      -0.481387       -13.0992
  24   2.0000      -0.469948       -12.7879
  25   2.0000      -0.458000       -12.4628
  26   2.0000      -0.419360       -11.4114
  27   2.0000      -0.389705       -10.6044
  28   0.0000       0.118285         3.2187
  29   0.0000       0.130538         3.5521
  30   0.0000       0.142905         3.8886
  31   0.0000       0.151300         4.1171
  32   0.0000       0.163607         4.4520

MULLIKEN ATOMIC CHARGES
-----------------------
   0 C :   -0.394791
   1 C :   -0.060963
   2 N :   -0.333690
   3 C :    0.026399
   4 C :   -0.164136
   5 N :   -0.053586
   6 C :    0.008309
   7 C :   -0.090605
   8 H :    0.163291
   9 H :    0.144926
  10 H :    0.143659
  11 H :    0.237239
  12 H :    0.171499
  13 H :    0.202450
Sum of atomic charges:    0.0000000

LOEWDIN ATOMIC CHARGES
----------------------
   0 C :   -0.235399
   1 C :   -0.282387
   2 N :    0.073757
   3 C :   -0.212651
   4 C :   -0.168196
   5 N :    0.076895
   6 C :   -0.075556
   7 C :   -0.068582
   8 H :    0.141061
   9 H :    0.136865
  10 H :    0.137010
  11 H :    0.179577
  12 H :    0.166110
  13 H :    0.131498

  Mayer bond orders larger than 0.1
B(  0-C ,  1-C ) :   0.9752 B(  0-C ,  8-H ) :   0.9240 B(  0-C ,  9-H ) :   0.9299
B(  0-C , 10-H ) :   0.9318 B(  1-C ,  2-N ) :   0.8894 B(  1-C ,  3-C ) :   0.8752
B(  1-C ,  6-C ) :   1.1736 B(  1-C ,  7-C ) :  -0.1382 B(  2-N ,  3-C ) :   0.9881
B(  2-N , 11-H ) :   0.8651 B(  3-C ,  4-C ) :   0.9302 B(  3-C , 12-H ) :   0.9011
B(  4-C ,  5-N ) :   2.8312 B(  6-C ,  7-C ) :   2.5551 B(  7-C , 13-H ) :   0.8857

MP2 TOTAL ENERGY:     -340.925024406 Eh
FINAL SINGLE POINT ENERGY      -340.925024406048

DIPOLE MOMENT
-------------
                                X             Y             Z
Electronic contribution:      1.83378      -2.21576       2.93868
Nuclear contribution   :     -2.95446       1.35740      -4.00824
                        -----------------------------------------
Total Dipole Moment    :     -1.12068      -0.85836      -1.06956
                        -----------------------------------------
Magnitude (a.u.)       :      1.77106
Magnitude (Debye)      :      4.50168

                             ****ORCA TERMINATED NORMALLY****
TOTAL RUN TIME: 0 days 0 hours 10 minutes 2 seconds 905 msec
