                         Program Version 3.0.3 - RELEASE   -
|  1> ! RI-MP2 RIJK def2-TZVP def2-TZVP/C def2-TZVP/JK TIGHTSCF
|  2> % maxcore 2000
|  3> % mp2 density relaxed end
|  4> *xyz 0 1
|  5>  C        0.0803512150     1.4901973717    -0.1023772422
|  6>  C       -0.0467441796    -0.0009254618     0.2272504042
|  7>  C       -1.4610802336    -0.5365706567     0.0425026362
|  8>  C       -2.4977452588    -0.0369566997     1.0739989923
|  9>  C       -2.8759175242    -1.2959037142     1.8803347292
| 10>  C       -2.8401368502    -2.4348434297     0.8412008047
| 11>  C       -1.6457007255    -2.0794313519    -0.0638707927
| 12>  C       -1.9296576561    -1.7980498385    -1.5507449670
| 13>  O       -1.9034183077    -0.3719350895    -1.3420158333
| 14>  H        1.1196062625     1.8219940842    -0.0201025643
| 15>  H       -0.2618107176     1.6793724026    -1.1234203655
| 16>  H       -0.5198346583     2.1079390974     0.5735809773
| 17>  H        0.6309189320    -0.5737633489    -0.4178615320
| 18>  H        0.2673801579    -0.1945677672     1.2619894097
| 19>  H       -2.1207375026     0.7696845611     1.7087394627
| 20>  H       -3.3647073614     0.3471202917     0.5275987076
| 21>  H       -2.1223894458    -1.4790754219     2.6568493469
| 22>  H       -3.8413625179    -1.2068828337     2.3868251759
| 23>  H       -2.7510387995    -3.4244645062     1.2977177610
| 24>  H       -3.7693536264    -2.4312347482     0.2589109955
| 25>  H       -0.7608917768    -2.6849164989     0.1442212482
| 26>  H       -1.1421373253    -2.1205428699    -2.2443478699
| 27>  H       -2.8991996399    -2.1435543120    -1.9316971249
| 28> *
| 29>
| 30>                          ****END OF INPUT****

CARTESIAN COORDINATES (ANGSTROEM)
---------------------------------
  C      0.080351    1.490197   -0.102377
  C     -0.046744   -0.000925    0.227250
  C     -1.461080   -0.536571    0.042503
  C     -2.497745   -0.036957    1.073999
  C     -2.875918   -1.295904    1.880335
  C     -2.840137   -2.434843    0.841201
  C     -1.645701   -2.079431   -0.063871
  C     -1.929658   -1.798050   -1.550745
  O     -1.903418   -0.371935   -1.342016
  H      1.119606    1.821994   -0.020103
  H     -0.261811    1.679372   -1.123420
  H     -0.519835    2.107939    0.573581
  H      0.630919   -0.573763   -0.417862
  H      0.267380   -0.194568    1.261989
  H     -2.120738    0.769685    1.708739
  H     -3.364707    0.347120    0.527599
  H     -2.122389   -1.479075    2.656849
  H     -3.841363   -1.206883    2.386825
  H     -2.751039   -3.424465    1.297718
  H     -3.769354   -2.431235    0.258911
  H     -0.760892   -2.684916    0.144221
  H     -1.142137   -2.120543   -2.244348
  H     -2.899200   -2.143554   -1.931697

 Total Charge           Charge          ....    0
 Multiplicity           Mult            ....    1
 Number of Electrons    NEL             ....   70
 Basis Dimension        Dim             ....  363

ORBITAL ENERGIES
----------------

  NO   OCC          E(Eh)            E(eV)
   0   2.0000     -20.536443      -558.8250
   1   2.0000     -11.276926      -306.8608
   2   2.0000     -11.270656      -306.6901
   3   2.0000     -11.224782      -305.4419
   4   2.0000     -11.222081      -305.3684
   5   2.0000     -11.221493      -305.3523
   6   2.0000     -11.219125      -305.2879
   7   2.0000     -11.214456      -305.1609
   8   2.0000     -11.207008      -304.9582
   9   2.0000      -1.367697       -37.2169
  10   2.0000      -1.109038       -30.1784
  11   2.0000      -1.040738       -28.3199
  12   2.0000      -0.990899       -26.9637
  13   2.0000      -0.934282       -25.4231
  14   2.0000      -0.887727       -24.1563
  15   2.0000      -0.836679       -22.7672
  16   2.0000      -0.784657       -21.3516
  17   2.0000      -0.706980       -19.2379
  18   2.0000      -0.673455       -18.3256
  19   2.0000      -0.657727       -17.8977
  20   2.0000      -0.616506       -16.7760
  21   2.0000      -0.614964       -16.7340
  22   2.0000      -0.589232       -16.0338
  23   2.0000      -0.577151       -15.7051
  24   2.0000      -0.554287       -15.0829
  25   2.0000      -0.541375       -14.7316
  26   2.0000      -0.510395       -13.8886
  27   2.0000      -0.499399       -13.5893
  28   2.0000      -0.481117       -13.0919
  29   2.0000      -0.475841       -12.9483
  30   2.0000      -0.468132       -12.7385
  31   2.0000      -0.465544       -12.6681
  32   2.0000      -0.439157       -11.9501
  33   2.0000      -0.418525       -11.3886
  34   2.0000      -0.401829       -10.9343
  35   0.0000       0.132327         3.6008
  36   0.0000       0.155896         4.2421
  37   0.0000       0.160748         4.3742
  38   0.0000       0.163005         4.4356
  39   0.0000       0.185999         5.0613

MULLIKEN ATOMIC CHARGES
-----------------------
   0 C :   -0.410220
   1 C :   -0.244594
   2 C :    0.271686
   3 C :   -0.299587
   4 C :   -0.206646
   5 C :   -0.256898
   6 C :   -0.089188
   7 C :   -0.049096
   8 O :   -0.351247
   9 H :    0.131925
  10 H :    0.149327
  11 H :    0.119930
  12 H :    0.108067
  13 H :    0.110281
  14 H :    0.120853
  15 H :    0.130786
  16 H :    0.109579
  17 H :    0.122813
  18 H :    0.123276
  19 H :    0.109585
  20 H :    0.116145
  21 H :    0.091686
  22 H :    0.091538
Sum of atomic charges:   -0.0000000

LOEWDIN ATOMIC CHARGES
----------------------
   0 C :   -0.312996
   1 C :   -0.255655
   2 C :   -0.279026
   3 C :   -0.212978
   4 C :   -0.252890
   5 C :   -0.235921
   6 C :   -0.187356
   7 C :   -0.259614
   8 O :    0.146678
   9 H :    0.120231
  10 H :    0.128249
  11 H :    0.118986
  12 H :    0.141620
  13 H :    0.141503
  14 H :    0.135887
  15 H :    0.146430
  16 H :    0.135969
  17 H :    0.132284
  18 H :    0.132953
  19 H :    0.139961
  20 H :    0.143568
  21 H :    0.116227
  22 H :    0.115888

  Mayer bond orders larger than 0.1
B(  0-C ,  1-C ) :   0.9274 B(  0-C ,  9-H ) :   0.9394 B(  0-C , 10-H ) :   0.9371
B(  0-C , 11-H ) :   0.9351 B(  1-C ,  2-C ) :   0.9342 B(  1-C , 12-H ) :   0.9280
B(  1-C , 13-H ) :   0.9269 B(  2-C ,  3-C ) :   0.8652 B(  2-C ,  6-C ) :   0.8811
B(  2-C ,  8-O ) :   0.9171 B(  3-C ,  4-C ) :   0.9367 B(  3-C , 14-H ) :   0.9287
B(  3-C , 15-H ) :   0.9316 B(  4-C ,  5-C ) :   0.9333 B(  4-C , 16-H ) :   0.9267
B(  4-C , 17-H ) :   0.9329 B(  5-C ,  6-C ) :   0.9161 B(  5-C , 18-H ) :   0.9316
B(  5-C , 19-H ) :   0.9197 B(  6-C ,  7-C ) :   0.9854 B(  6-C , 20-H ) :   0.9197
B(  7-C ,  8-O ) :   0.9689 B(  7-C , 21-H ) :   0.9181 B(  7-C , 22-H ) :   0.8982

MP2 TOTAL ENERGY:     -387.621906945 Eh
FINAL SINGLE POINT ENERGY      -387.621906945136

DIPOLE MOMENT
-------------
                                X             Y             Z
Electronic contribution:     -1.61080      -1.55502      -3.02927
Nuclear contribution   :      1.74293       1.04773       3.51002
                        -----------------------------------------
Total Dipole Moment    :      0.13213      -0.50729       0.48075
                        -----------------------------------------
Magnitude (a.u.)       :      0.71128
Magnitude (Debye)      :      1.80794

                             ****ORCA TERMINATED NORMALLY****
TOTAL RUN TIME: 0 days 0 hours 21 minutes 18 seconds 375 msec
