                         Program Version 3.0.3 - RELEASE   -
|  1> ! RI-MP2 RIJK def2-TZVP def2-TZVP/C def2-TZVP/JK TIGHTSCF
|  2> % maxcore 2000
|  3> % mp2 density relaxed end
|  4> *xyz 0 1
|  5>  C       -0.1959383629     1.6160732104    -0.0340118496
|  6>  C        0.0207201900     0.1090829966    -0.0064991397
|  7>  O       -1.2412562482    -0.5534382982    -0.0975393153
|  8>  C        1.0926228306    -0.5938351730    -0.9053582614
|  9>  C        2.3900662895     0.1379147663    -0.5231824561
| 10>  C        2.3539321575    -0.3087682867     0.9606283191
| 11>  C        2.5377443475    -1.8412586434     0.7963370240
| 12>  C        1.1344215149    -1.7675415427     0.1780676445
| 13>  C        0.7940725969    -0.5751177546     1.1293917317
| 14>  H        0.7044753102     2.1842226705     0.2087309338
| 15>  H       -0.5425078850     1.9453858038    -1.0223896200
| 16>  H       -0.9686950897     1.8779274158     0.6951518452
| 17>  H       -1.6240238627    -0.3291379823    -0.9526537954
| 18>  H        0.8873128601    -0.7855898048    -1.9599811942
| 19>  H        3.2771253924    -0.2431612843    -1.0381811418
| 20>  H        2.3456849194     1.2163867048    -0.6854098631
| 21>  H        2.9269444046     0.2652244202     1.6883145021
| 22>  H        3.3890419262    -2.1945617549     0.2043297092
| 23>  H        2.5070607447    -2.3739472498     1.7517047725
| 24>  H        0.4799476550    -2.6211186870     0.0304075833
| 25>  H        0.3906493891    -0.6987614666     2.1338209311
| 26> *
| 27>
| 28>                          ****END OF INPUT****

CARTESIAN COORDINATES (ANGSTROEM)
---------------------------------
  C     -0.195938    1.616073   -0.034012
  C      0.020720    0.109083   -0.006499
  O     -1.241256   -0.553438   -0.097539
  C      1.092623   -0.593835   -0.905358
  C      2.390066    0.137915   -0.523182
  C      2.353932   -0.308768    0.960628
  C      2.537744   -1.841259    0.796337
  C      1.134422   -1.767542    0.178068
  C      0.794073   -0.575118    1.129392
  H      0.704475    2.184223    0.208731
  H     -0.542508    1.945386   -1.022390
  H     -0.968695    1.877927    0.695152
  H     -1.624024   -0.329138   -0.952654
  H      0.887313   -0.785590   -1.959981
  H      3.277125   -0.243161   -1.038181
  H      2.345685    1.216387   -0.685410
  H      2.926944    0.265224    1.688315
  H      3.389042   -2.194562    0.204330
  H      2.507061   -2.373947    1.751705
  H      0.479948   -2.621119    0.030408
  H      0.390649   -0.698761    2.133821

 Total Charge           Charge          ....    0
 Multiplicity           Mult            ....    1
 Number of Electrons    NEL             ....   68
 Basis Dimension        Dim             ....  351

ORBITAL ENERGIES
----------------

  NO   OCC          E(Eh)            E(eV)
   0   2.0000     -20.548660      -559.1575
   1   2.0000     -11.279775      -306.9383
   2   2.0000     -11.231645      -305.6286
   3   2.0000     -11.228652      -305.5471
   4   2.0000     -11.224035      -305.4215
   5   2.0000     -11.222870      -305.3898
   6   2.0000     -11.218681      -305.2758
   7   2.0000     -11.216233      -305.2092
   8   2.0000     -11.213479      -305.1343
   9   2.0000      -1.359011       -36.9806
  10   2.0000      -1.203550       -32.7503
  11   2.0000      -1.020437       -27.7675
  12   2.0000      -0.966674       -26.3045
  13   2.0000      -0.951343       -25.8874
  14   2.0000      -0.889386       -24.2014
  15   2.0000      -0.788346       -21.4520
  16   2.0000      -0.757674       -20.6173
  17   2.0000      -0.709733       -19.3128
  18   2.0000      -0.686784       -18.6883
  19   2.0000      -0.658241       -17.9116
  20   2.0000      -0.634268       -17.2593
  21   2.0000      -0.607449       -16.5295
  22   2.0000      -0.592174       -16.1139
  23   2.0000      -0.552343       -15.0300
  24   2.0000      -0.546780       -14.8786
  25   2.0000      -0.526154       -14.3174
  26   2.0000      -0.500442       -13.6177
  27   2.0000      -0.488047       -13.2804
  28   2.0000      -0.466654       -12.6983
  29   2.0000      -0.456081       -12.4106
  30   2.0000      -0.435406       -11.8480
  31   2.0000      -0.417095       -11.3497
  32   2.0000      -0.405826       -11.0431
  33   2.0000      -0.390085       -10.6147
  34   0.0000       0.131305         3.5730
  35   0.0000       0.153442         4.1754
  36   0.0000       0.163589         4.4515
  37   0.0000       0.176948         4.8150
  38   0.0000       0.193179         5.2567

MULLIKEN ATOMIC CHARGES
-----------------------
   0 C :   -0.430694
   1 C :    0.160219
   2 O :   -0.464121
   3 C :   -0.060408
   4 C :   -0.301338
   5 C :   -0.080242
   6 C :   -0.233633
   7 C :   -0.135274
   8 C :   -0.124911
   9 H :    0.128088
  10 H :    0.120152
  11 H :    0.146467
  12 H :    0.313499
  13 H :    0.129429
  14 H :    0.115299
  15 H :    0.123740
  16 H :    0.124621
  17 H :    0.108130
  18 H :    0.114338
  19 H :    0.124526
  20 H :    0.122113
Sum of atomic charges:    0.0000000

LOEWDIN ATOMIC CHARGES
----------------------
   0 C :   -0.283631
   1 C :   -0.344649
   2 O :    0.013755
   3 C :   -0.152143
   4 C :   -0.206401
   5 C :   -0.171975
   6 C :   -0.211276
   7 C :   -0.147504
   8 C :   -0.114432
   9 H :    0.125735
  10 H :    0.123866
  11 H :    0.131594
  12 H :    0.174835
  13 H :    0.130830
  14 H :    0.135575
  15 H :    0.131639
  16 H :    0.129950
  17 H :    0.122355
  18 H :    0.139687
  19 H :    0.134287
  20 H :    0.137904

  Mayer bond orders larger than 0.1
B(  0-C ,  1-C ) :   0.9215 B(  0-C ,  9-H ) :   0.9365 B(  0-C , 10-H ) :   0.9226
B(  0-C , 11-H ) :   0.9432 B(  1-C ,  2-O ) :   0.9911 B(  1-C ,  3-C ) :   0.8947
B(  1-C ,  8-C ) :   0.9251 B(  2-O , 12-H ) :   0.8430 B(  3-C ,  4-C ) :   0.9030
B(  3-C ,  7-C ) :   0.8971 B(  3-C , 13-H ) :   0.8893 B(  4-C ,  5-C ) :   0.9207
B(  4-C , 14-H ) :   0.9175 B(  4-C , 15-H ) :   0.9402 B(  5-C ,  6-C ) :   0.9135
B(  5-C ,  8-C ) :   0.8800 B(  5-C , 16-H ) :   0.9146 B(  6-C ,  7-C ) :   0.9493
B(  6-C , 17-H ) :   0.9178 B(  6-C , 18-H ) :   0.9222 B(  7-C ,  8-C ) :   0.9250
B(  7-C , 19-H ) :   0.9038 B(  8-C , 20-H ) :   0.9048

MP2 TOTAL ENERGY:     -386.392500564 Eh
FINAL SINGLE POINT ENERGY      -386.392500564206

DIPOLE MOMENT
-------------
                                X             Y             Z
Electronic contribution:     -2.18168      -2.49020       0.31856
Nuclear contribution   :      2.40327       2.82246      -0.70698
                        -----------------------------------------
Total Dipole Moment    :      0.22158       0.33226      -0.38842
                        -----------------------------------------
Magnitude (a.u.)       :      0.55710
Magnitude (Debye)      :      1.41605

                             ****ORCA TERMINATED NORMALLY****
TOTAL RUN TIME: 0 days 0 hours 22 minutes 39 seconds 277 msec
