                         Program Version 3.0.3 - RELEASE   -
|  1> ! RI-MP2 RIJK def2-TZVP def2-TZVP/C def2-TZVP/JK TIGHTSCF
|  2> % maxcore 2000
|  3> % mp2 density relaxed end
|  4> *xyz 0 1
|  5>  C        0.0248401663     1.4907590804    -0.2619066005
|  6>  O        1.4254630347     1.5890935021     0.1556080807
|  7>  C        1.2707006947     0.3559784001     0.8657847960
|  8>  C        1.9538173707    -0.9973358383     1.0703687053
|  9>  N        0.7752173795    -1.2584180921     2.0036330212
| 10>  C       -0.5910239443    -0.7970204555     1.3074934223
| 11>  C       -0.7353612740     0.2294652525     2.4432638100
| 12>  C        0.7870507239     0.2256516381     2.3600374454
| 13>  C       -0.0031383254    -0.0183352128     0.1318909684
| 14>  H       -0.6116038322     2.1665453577     0.3185819375
| 15>  H       -0.0847608380     1.7020016816    -1.3285564730
| 16>  H        2.0756434326    -1.6589619009     0.2089773383
| 17>  H        2.8495174436    -1.0068252585     1.6971650754
| 18>  H       -1.3188888986    -1.5873232091     1.1343171170
| 19>  H       -1.2970580896     1.1438256508     2.2472798758
| 20>  H       -1.0706590373    -0.2331438356     3.3738267899
| 21>  H        1.4587328236     0.5545229743     3.1537596728
| 22>  H        0.1730671498    -0.6420863048    -0.7467285825
| 23> *
| 24>
| 25>                          ****END OF INPUT****

CARTESIAN COORDINATES (ANGSTROEM)
---------------------------------
  C      0.024840    1.490759   -0.261907
  O      1.425463    1.589094    0.155608
  C      1.270701    0.355978    0.865785
  C      1.953817   -0.997336    1.070369
  N      0.775217   -1.258418    2.003633
  C     -0.591024   -0.797020    1.307493
  C     -0.735361    0.229465    2.443264
  C      0.787051    0.225652    2.360037
  C     -0.003138   -0.018335    0.131891
  H     -0.611604    2.166545    0.318582
  H     -0.084761    1.702002   -1.328556
  H      2.075643   -1.658962    0.208977
  H      2.849517   -1.006825    1.697165
  H     -1.318889   -1.587323    1.134317
  H     -1.297058    1.143826    2.247280
  H     -1.070659   -0.233144    3.373827
  H      1.458733    0.554523    3.153760
  H      0.173067   -0.642086   -0.746729

 Total Charge           Charge          ....    0
 Multiplicity           Mult            ....    1
 Number of Electrons    NEL             ....   66
 Basis Dimension        Dim             ....  333

ORBITAL ENERGIES
----------------

  NO   OCC          E(Eh)            E(eV)
   0   2.0000     -20.559855      -559.4621
   1   2.0000     -15.565549      -423.5601
   2   2.0000     -11.293081      -307.3004
   3   2.0000     -11.292580      -307.2867
   4   2.0000     -11.277344      -306.8721
   5   2.0000     -11.264885      -306.5331
   6   2.0000     -11.261447      -306.4396
   7   2.0000     -11.233141      -305.6693
   8   2.0000     -11.232643      -305.6557
   9   2.0000      -1.389469       -37.8094
  10   2.0000      -1.285330       -34.9756
  11   2.0000      -1.051285       -28.6069
  12   2.0000      -1.016071       -27.6487
  13   2.0000      -0.934485       -25.4286
  14   2.0000      -0.906019       -24.6540
  15   2.0000      -0.860291       -23.4097
  16   2.0000      -0.753473       -20.5030
  17   2.0000      -0.731423       -19.9030
  18   2.0000      -0.678360       -18.4591
  19   2.0000      -0.670376       -18.2419
  20   2.0000      -0.658877       -17.9289
  21   2.0000      -0.616408       -16.7733
  22   2.0000      -0.610312       -16.6074
  23   2.0000      -0.578403       -15.7391
  24   2.0000      -0.529998       -14.4220
  25   2.0000      -0.514615       -14.0034
  26   2.0000      -0.503630       -13.7045
  27   2.0000      -0.474211       -12.9039
  28   2.0000      -0.462614       -12.5884
  29   2.0000      -0.446194       -12.1416
  30   2.0000      -0.416402       -11.3309
  31   2.0000      -0.407039       -11.0761
  32   2.0000      -0.382213       -10.4005
  33   0.0000       0.143880         3.9152
  34   0.0000       0.149048         4.0558
  35   0.0000       0.165616         4.5066
  36   0.0000       0.170321         4.6347
  37   0.0000       0.188037         5.1167

MULLIKEN ATOMIC CHARGES
-----------------------
   0 C :    0.005607
   1 O :   -0.314590
   2 C :    0.172855
   3 C :   -0.160890
   4 N :   -0.209548
   5 C :    0.022270
   6 C :   -0.272193
   7 C :   -0.097718
   8 C :   -0.217363
   9 H :    0.092926
  10 H :    0.113722
  11 H :    0.121051
  12 H :    0.129572
  13 H :    0.132556
  14 H :    0.124776
  15 H :    0.125927
  16 H :    0.130166
  17 H :    0.100872
Sum of atomic charges:    0.0000000

LOEWDIN ATOMIC CHARGES
----------------------
   0 C :   -0.224057
   1 O :    0.147814
   2 C :   -0.297548
   3 C :   -0.214183
   4 N :    0.137235
   5 C :   -0.174661
   6 C :   -0.211870
   7 C :   -0.179093
   8 C :   -0.176658
   9 H :    0.118514
  10 H :    0.120614
  11 H :    0.124080
  12 H :    0.137392
  13 H :    0.130526
  14 H :    0.128869
  15 H :    0.145154
  16 H :    0.135409
  17 H :    0.152462

  Mayer bond orders larger than 0.1
B(  0-C ,  1-O ) :   0.9274 B(  0-C ,  8-C ) :   0.9602 B(  0-C ,  9-H ) :   0.8975
B(  0-C , 10-H ) :   0.9109 B(  1-O ,  2-C ) :   0.9999 B(  2-C ,  3-C ) :   0.9490
B(  2-C ,  7-C ) :   0.8890 B(  2-C ,  8-C ) :   0.9026 B(  3-C ,  4-N ) :   0.9244
B(  3-C , 11-H ) :   0.9132 B(  3-C , 12-H ) :   0.9234 B(  4-N ,  5-C ) :   0.8661
B(  4-N ,  7-C ) :   0.9299 B(  5-C ,  6-C ) :   0.9277 B(  5-C ,  8-C ) :   0.9435
B(  5-C , 13-H ) :   0.9074 B(  6-C ,  7-C ) :   0.9456 B(  6-C , 14-H ) :   0.9284
B(  6-C , 15-H ) :   0.9070 B(  7-C , 16-H ) :   0.9043 B(  8-C , 17-H ) :   0.9138

MP2 TOTAL ENERGY:     -401.158377925 Eh
FINAL SINGLE POINT ENERGY      -401.158377925038

DIPOLE MOMENT
-------------
                                X             Y             Z
Electronic contribution:      2.05127       0.54180      -0.35810
Nuclear contribution   :     -2.63370      -0.54202       0.11829
                        -----------------------------------------
Total Dipole Moment    :     -0.58244      -0.00022      -0.23981
                        -----------------------------------------
Magnitude (a.u.)       :      0.62987
Magnitude (Debye)      :      1.60101

                             ****ORCA TERMINATED NORMALLY****
TOTAL RUN TIME: 0 days 0 hours 19 minutes 39 seconds 901 msec
