                         Program Version 3.0.3 - RELEASE   -
|  1> ! RI-MP2 RIJK def2-TZVP def2-TZVP/C def2-TZVP/JK TIGHTSCF
|  2> % maxcore 2000
|  3> % mp2 density relaxed end
|  4> *xyz 0 1
|  5>  N       -0.2192234621     1.2057009508    -0.0738174242
|  6>  C       -0.1544464531    -0.0444489930    -0.0618358219
|  7>  O        0.9628614224    -0.8904396151    -0.1260834355
|  8>  C        0.1133044086    -2.0460352013     0.0759448196
|  9>  C       -1.1321171185    -1.1611264145     0.0444110919
| 10>  C       -0.8115489126    -2.1616756401    -1.0733284111
| 11>  C       -0.6198508946    -2.0056062828    -2.5752981947
| 12>  C       -1.5434810010    -3.2433832184    -2.6439739317
| 13>  O       -1.6540904008    -3.2914233178    -1.1937150395
| 14>  H        0.7087314138     1.6250056126    -0.1503763940
| 15>  H        0.4413574610    -2.8187825929     0.7577859574
| 16>  H       -2.0623003656    -1.1944637869     0.5916553272
| 17>  H       -1.0271528103    -1.0891095759    -3.0029867173
| 18>  H        0.4013538863    -2.1549445080    -2.9268567349
| 19>  H       -2.5207289638    -3.0874653874    -3.1107205414
| 20>  H       -1.0892535897    -4.1583645493    -3.0363489801
| 21> *
| 22>
| 23>                          ****END OF INPUT****

CARTESIAN COORDINATES (ANGSTROEM)
---------------------------------
  N     -0.219223    1.205701   -0.073817
  C     -0.154446   -0.044449   -0.061836
  O      0.962861   -0.890440   -0.126083
  C      0.113304   -2.046035    0.075945
  C     -1.132117   -1.161126    0.044411
  C     -0.811549   -2.161676   -1.073328
  C     -0.619851   -2.005606   -2.575298
  C     -1.543481   -3.243383   -2.643974
  O     -1.654090   -3.291423   -1.193715
  H      0.708731    1.625006   -0.150376
  H      0.441357   -2.818783    0.757786
  H     -2.062300   -1.194464    0.591655
  H     -1.027153   -1.089110   -3.002987
  H      0.401354   -2.154945   -2.926857
  H     -2.520729   -3.087465   -3.110721
  H     -1.089254   -4.158365   -3.036349

 Total Charge           Charge          ....    0
 Multiplicity           Mult            ....    1
 Number of Electrons    NEL             ....   66
 Basis Dimension        Dim             ....  321

ORBITAL ENERGIES
----------------

  NO   OCC          E(Eh)            E(eV)
   0   2.0000     -20.599518      -560.5414
   1   2.0000     -20.576398      -559.9122
   2   2.0000     -15.543676      -422.9649
   3   2.0000     -11.350165      -308.8537
   4   2.0000     -11.324552      -308.1567
   5   2.0000     -11.313915      -307.8673
   6   2.0000     -11.299690      -307.4802
   7   2.0000     -11.259202      -306.3785
   8   2.0000     -11.250155      -306.1323
   9   2.0000      -1.448825       -39.4245
  10   2.0000      -1.408949       -38.3395
  11   2.0000      -1.204574       -32.7781
  12   2.0000      -1.135558       -30.9001
  13   2.0000      -1.031024       -28.0556
  14   2.0000      -0.920621       -25.0514
  15   2.0000      -0.880403       -23.9570
  16   2.0000      -0.774250       -21.0684
  17   2.0000      -0.749993       -20.4084
  18   2.0000      -0.720916       -19.6171
  19   2.0000      -0.697146       -18.9703
  20   2.0000      -0.690880       -18.7998
  21   2.0000      -0.680601       -18.5201
  22   2.0000      -0.615734       -16.7550
  23   2.0000      -0.582615       -15.8538
  24   2.0000      -0.562242       -15.2994
  25   2.0000      -0.547576       -14.9003
  26   2.0000      -0.535673       -14.5764
  27   2.0000      -0.532560       -14.4917
  28   2.0000      -0.491924       -13.3859
  29   2.0000      -0.449344       -12.2273
  30   2.0000      -0.441659       -12.0182
  31   2.0000      -0.410862       -11.1801
  32   2.0000      -0.379501       -10.3267
  33   0.0000       0.140270         3.8169
  34   0.0000       0.153913         4.1882
  35   0.0000       0.162856         4.4315
  36   0.0000       0.171314         4.6617
  37   0.0000       0.176461         4.8017

MULLIKEN ATOMIC CHARGES
-----------------------
   0 N :   -0.366618
   1 C :    0.139448
   2 O :   -0.281073
   3 C :    0.041077
   4 C :   -0.172498
   5 C :    0.177849
   6 C :   -0.272691
   7 C :   -0.004057
   8 O :   -0.324384
   9 H :    0.233549
  10 H :    0.156734
  11 H :    0.164630
  12 H :    0.144730
  13 H :    0.143065
  14 H :    0.110709
  15 H :    0.109530
Sum of atomic charges:   -0.0000000

LOEWDIN ATOMIC CHARGES
----------------------
   0 N :   -0.042964
   1 C :   -0.368743
   2 O :    0.226125
   3 C :   -0.177283
   4 C :   -0.104603
   5 C :   -0.275190
   6 C :   -0.194223
   7 C :   -0.239475
   8 O :    0.181900
   9 H :    0.175890
  10 H :    0.140538
  11 H :    0.153438
  12 H :    0.142132
  13 H :    0.141579
  14 H :    0.120583
  15 H :    0.120295

  Mayer bond orders larger than 0.1
B(  0-N ,  1-C ) :   2.0619 B(  0-N ,  9-H ) :   0.8431 B(  1-C ,  2-O ) :   1.0193
B(  1-C ,  4-C ) :   0.9488 B(  2-O ,  3-C ) :   0.9074 B(  3-C ,  4-C ) :   0.8635
B(  3-C ,  5-C ) :   0.8516 B(  3-C , 10-H ) :   0.9111 B(  4-C ,  5-C ) :   0.8252
B(  4-C , 11-H ) :   0.9073 B(  5-C ,  6-C ) :   0.8961 B(  5-C ,  8-O ) :   0.9806
B(  6-C ,  7-C ) :   0.9818 B(  6-C , 12-H ) :   0.9166 B(  6-C , 13-H ) :   0.9195
B(  7-C ,  8-O ) :   0.9097 B(  7-C , 14-H ) :   0.9159 B(  7-C , 15-H ) :   0.9161

MP2 TOTAL ENERGY:     -437.093977379 Eh
FINAL SINGLE POINT ENERGY      -437.093977379397

DIPOLE MOMENT
-------------
                                X             Y             Z
Electronic contribution:      1.34793       1.34916       3.90262
Nuclear contribution   :     -1.19287      -2.05572      -4.52708
                        -----------------------------------------
Total Dipole Moment    :      0.15505      -0.70657      -0.62446
                        -----------------------------------------
Magnitude (a.u.)       :      0.95563
Magnitude (Debye)      :      2.42902

                             ****ORCA TERMINATED NORMALLY****
TOTAL RUN TIME: 0 days 0 hours 14 minutes 29 seconds 942 msec
