                         Program Version 3.0.3 - RELEASE   -
|  1> ! RI-MP2 RIJK def2-TZVP def2-TZVP/C def2-TZVP/JK TIGHTSCF
|  2> % maxcore 2000
|  3> % mp2 density relaxed end
|  4> *xyz 0 1
|  5>  N       -0.0781282516    -1.1731663958    -0.1526445737
|  6>  C       -0.0479012921    -0.0204838131    -0.0701916591
|  7>  C       -0.0017565763     1.4434268982     0.0381008770
|  8>  C       -0.7175089243     1.9205060204     1.2973466684
|  9>  C       -0.0486453244     2.6798532792     2.1629682160
| 10>  C        1.3922994257     3.0302322502     1.8633982868
| 11>  C        1.4764555450     3.4764577764     0.3695291287
| 12>  C        1.4621094498     1.9595516937     0.0268670199
| 13>  C        2.1258578184     1.7274308912     1.4137571054
| 14>  H       -0.5219655318     1.8386582568    -0.8467034486
| 15>  H       -1.7495103576     1.6206776262     1.4414059358
| 16>  H       -0.5188950494     3.0535821571     3.0670437705
| 17>  H        1.8493918071     3.6575406474     2.6287358882
| 18>  H        0.6724475285     4.1080027710    -0.0165674940
| 19>  H        2.4457016128     3.9196568500     0.1274180559
| 20>  H        1.9840473652     1.6172348837    -0.8682807870
| 21>  H        3.2075900570     1.8693277800     1.3549475518
| 22>  H        1.8995925781     0.8035597175     1.9500351880
| 23> *
| 24>
| 25>                          ****END OF INPUT****

CARTESIAN COORDINATES (ANGSTROEM)
---------------------------------
  N     -0.078128   -1.173166   -0.152645
  C     -0.047901   -0.020484   -0.070192
  C     -0.001757    1.443427    0.038101
  C     -0.717509    1.920506    1.297347
  C     -0.048645    2.679853    2.162968
  C      1.392299    3.030232    1.863398
  C      1.476456    3.476458    0.369529
  C      1.462109    1.959552    0.026867
  C      2.125858    1.727431    1.413757
  H     -0.521966    1.838658   -0.846703
  H     -1.749510    1.620678    1.441406
  H     -0.518895    3.053582    3.067044
  H      1.849392    3.657541    2.628736
  H      0.672448    4.108003   -0.016567
  H      2.445702    3.919657    0.127418
  H      1.984047    1.617235   -0.868281
  H      3.207590    1.869328    1.354948
  H      1.899593    0.803560    1.950035

 Total Charge           Charge          ....    0
 Multiplicity           Mult            ....    1
 Number of Electrons    NEL             ....   64
 Basis Dimension        Dim             ....  333

ORBITAL ENERGIES
----------------

  NO   OCC          E(Eh)            E(eV)
   0   2.0000     -15.564563      -423.5333
   1   2.0000     -11.288435      -307.1739
   2   2.0000     -11.267892      -306.6149
   3   2.0000     -11.257805      -306.3404
   4   2.0000     -11.249801      -306.1226
   5   2.0000     -11.247251      -306.0533
   6   2.0000     -11.245281      -305.9997
   7   2.0000     -11.241387      -305.8937
   8   2.0000     -11.237807      -305.7963
   9   2.0000      -1.218875       -33.1673
  10   2.0000      -1.189759       -32.3750
  11   2.0000      -1.065748       -29.0005
  12   2.0000      -1.028497       -27.9868
  13   2.0000      -0.914664       -24.8893
  14   2.0000      -0.869608       -23.6632
  15   2.0000      -0.815871       -22.2010
  16   2.0000      -0.738362       -20.0919
  17   2.0000      -0.700289       -19.0558
  18   2.0000      -0.681920       -18.5560
  19   2.0000      -0.640725       -17.4350
  20   2.0000      -0.604761       -16.4564
  21   2.0000      -0.582195       -15.8423
  22   2.0000      -0.570151       -15.5146
  23   2.0000      -0.560044       -15.2396
  24   2.0000      -0.549245       -14.9457
  25   2.0000      -0.507384       -13.8066
  26   2.0000      -0.484282       -13.1780
  27   2.0000      -0.467239       -12.7142
  28   2.0000      -0.456717       -12.4279
  29   2.0000      -0.443017       -12.0551
  30   2.0000      -0.437564       -11.9067
  31   2.0000      -0.365305        -9.9405
  32   0.0000       0.120017         3.2658
  33   0.0000       0.128866         3.5066
  34   0.0000       0.147546         4.0149
  35   0.0000       0.162010         4.4085
  36   0.0000       0.167880         4.5683

MULLIKEN ATOMIC CHARGES
-----------------------
   0 N :   -0.050534
   1 C :   -0.218792
   2 C :    0.008203
   3 C :   -0.136813
   4 C :   -0.300352
   5 C :    0.115061
   6 C :   -0.305923
   7 C :    0.027132
   8 C :   -0.335782
   9 H :    0.141767
  10 H :    0.141744
  11 H :    0.129345
  12 H :    0.129977
  13 H :    0.122225
  14 H :    0.130197
  15 H :    0.133113
  16 H :    0.129249
  17 H :    0.140184
Sum of atomic charges:    0.0000000

LOEWDIN ATOMIC CHARGES
----------------------
   0 N :    0.060496
   1 C :   -0.163965
   2 C :   -0.203259
   3 C :   -0.125210
   4 C :   -0.127904
   5 C :   -0.200939
   6 C :   -0.184737
   7 C :   -0.176170
   8 C :   -0.181784
   9 H :    0.182573
  10 H :    0.147208
  11 H :    0.144840
  12 H :    0.139109
  13 H :    0.130714
  14 H :    0.139696
  15 H :    0.144145
  16 H :    0.139834
  17 H :    0.135352

  Mayer bond orders larger than 0.1
B(  0-N ,  1-C ) :   2.8855 B(  1-C ,  2-C ) :   0.9070 B(  2-C ,  3-C ) :   0.9092
B(  2-C ,  7-C ) :   0.8853 B(  2-C ,  9-H ) :   0.8957 B(  3-C ,  4-C ) :   1.7929
B(  3-C , 10-H ) :   0.9274 B(  4-C ,  5-C ) :   0.8848 B(  4-C , 11-H ) :   0.9308
B(  5-C ,  6-C ) :   0.8834 B(  5-C ,  8-C ) :   0.8736 B(  5-C , 12-H ) :   0.9257
B(  6-C ,  7-C ) :   0.8916 B(  6-C , 13-H ) :   0.9225 B(  6-C , 14-H ) :   0.9237
B(  7-C ,  8-C ) :   0.8915 B(  7-C , 15-H ) :   0.9271 B(  8-C , 16-H ) :   0.9237
B(  8-C , 17-H ) :   0.9232

MP2 TOTAL ENERGY:     -364.159369916 Eh
FINAL SINGLE POINT ENERGY      -364.159369915681

DIPOLE MOMENT
-------------
                                X             Y             Z
Electronic contribution:     -3.02917      -5.21855      -1.54448
Nuclear contribution   :      3.30638       6.83906       1.76291
                        -----------------------------------------
Total Dipole Moment    :      0.27722       1.62051       0.21843
                        -----------------------------------------
Magnitude (a.u.)       :      1.65850
Magnitude (Debye)      :      4.21558

                             ****ORCA TERMINATED NORMALLY****
TOTAL RUN TIME: 0 days 0 hours 20 minutes 8 seconds 502 msec
