                         Program Version 3.0.3 - RELEASE   -
|  1> ! RI-MP2 RIJK def2-TZVP def2-TZVP/C def2-TZVP/JK TIGHTSCF
|  2> % maxcore 2000
|  3> % mp2 density relaxed end
|  4> *xyz 0 1
|  5>  O        0.1272670603     1.3206058395     0.1575223103
|  6>  C        0.0812660541    -0.0070918999     0.0673439374
|  7>  N        0.0802290321    -0.6480258547    -1.0735842300
|  8>  O        0.0246239207    -2.0064046058    -0.7286080296
|  9>  C       -0.0048915223    -2.1243806072     0.5935508382
| 10>  C        0.0270762686    -0.8969346070     1.1911595829
| 11>  C        0.0115555565    -0.5769175471     2.5668459126
| 12>  N       -0.0009090031    -0.3104946707     3.6929883311
| 13>  H        0.1579375930     1.6875254174    -0.7370856366
| 14>  H       -0.0484919700    -3.1259728644     0.9927750436
| 15> *
| 16>
| 17>                          ****END OF INPUT****

CARTESIAN COORDINATES (ANGSTROEM)
---------------------------------
  O      0.127267    1.320606    0.157522
  C      0.081266   -0.007092    0.067344
  N      0.080229   -0.648026   -1.073584
  O      0.024624   -2.006405   -0.728608
  C     -0.004892   -2.124381    0.593551
  C      0.027076   -0.896935    1.191160
  C      0.011556   -0.576918    2.566846
  N     -0.000909   -0.310495    3.692988
  H      0.157938    1.687525   -0.737086
  H     -0.048492   -3.125973    0.992775

 Total Charge           Charge          ....    0
 Multiplicity           Mult            ....    1
 Number of Electrons    NEL             ....   56
 Basis Dimension        Dim             ....  260

ORBITAL ENERGIES
----------------

  NO   OCC          E(Eh)            E(eV)
   0   2.0000     -20.685449      -562.8797
   1   2.0000     -20.643713      -561.7440
   2   2.0000     -15.642741      -425.6606
   3   2.0000     -15.590297      -424.2336
   4   2.0000     -11.385904      -309.8262
   5   2.0000     -11.373545      -309.4899
   6   2.0000     -11.304123      -307.6008
   7   2.0000     -11.296817      -307.4020
   8   2.0000      -1.537468       -41.8366
   9   2.0000      -1.468656       -39.9642
  10   2.0000      -1.237725       -33.6802
  11   2.0000      -1.191651       -32.4265
  12   2.0000      -1.131429       -30.7878
  13   2.0000      -0.917681       -24.9714
  14   2.0000      -0.885916       -24.1070
  15   2.0000      -0.815223       -22.1833
  16   2.0000      -0.758598       -20.6425
  17   2.0000      -0.709568       -19.3083
  18   2.0000      -0.673460       -18.3258
  19   2.0000      -0.666583       -18.1387
  20   2.0000      -0.627933       -17.0869
  21   2.0000      -0.593269       -16.1437
  22   2.0000      -0.575528       -15.6609
  23   2.0000      -0.531942       -14.4749
  24   2.0000      -0.527091       -14.3429
  25   2.0000      -0.479386       -13.0447
  26   2.0000      -0.428324       -11.6553
  27   2.0000      -0.398839       -10.8530
  28   0.0000       0.076112         2.0711
  29   0.0000       0.121291         3.3005
  30   0.0000       0.139528         3.7967
  31   0.0000       0.155254         4.2247
  32   0.0000       0.169709         4.6180

MULLIKEN ATOMIC CHARGES
-----------------------
   0 O :   -0.393993
   1 C :    0.225669
   2 N :   -0.143597
   3 O :   -0.092052
   4 C :    0.040770
   5 C :    0.035657
   6 C :   -0.172211
   7 N :   -0.040464
   8 H :    0.353959
   9 H :    0.186263
Sum of atomic charges:    0.0000000

LOEWDIN ATOMIC CHARGES
----------------------
   0 O :    0.122179
   1 C :   -0.393511
   2 N :    0.035333
   3 O :    0.297817
   4 C :   -0.195327
   5 C :   -0.175423
   6 C :   -0.146919
   7 N :    0.092423
   8 H :    0.212962
   9 H :    0.150467

  Mayer bond orders larger than 0.1
B(  0-O ,  1-C ) :   1.1863 B(  0-O ,  8-H ) :   0.8082 B(  1-C ,  2-N ) :   1.5855
B(  1-C ,  5-C ) :   1.1571 B(  2-N ,  3-O ) :   0.8648 B(  2-N ,  4-C ) :   0.1040
B(  3-O ,  4-C ) :   1.1631 B(  4-C ,  5-C ) :   1.4906 B(  4-C ,  9-H ) :   0.9078
B(  5-C ,  6-C ) :   0.8900 B(  6-C ,  7-N ) :   2.8395

MP2 TOTAL ENERGY:     -412.790764913 Eh
FINAL SINGLE POINT ENERGY      -412.790764912738

DIPOLE MOMENT
-------------
                                X             Y             Z
Electronic contribution:     -0.00959      -0.14687       0.20354
Nuclear contribution   :      0.01771      -0.16064      -1.16281
                        -----------------------------------------
Total Dipole Moment    :      0.00812      -0.30751      -0.95926
                        -----------------------------------------
Magnitude (a.u.)       :      1.00738
Magnitude (Debye)      :      2.56056

                             ****ORCA TERMINATED NORMALLY****
TOTAL RUN TIME: 0 days 0 hours 8 minutes 40 seconds 323 msec
