                         Program Version 3.0.3 - RELEASE   -
|  1> ! RI-MP2 RIJK def2-TZVP def2-TZVP/C def2-TZVP/JK TIGHTSCF
|  2> % maxcore 2000
|  3> % mp2 density relaxed end
|  4> *xyz 0 1
|  5>  O       -0.0580122990     1.4757939577    -0.2302182181
|  6>  C       -0.0353953911     0.0753077983    -0.1023919452
|  7>  C       -1.3833371331    -0.6167754257    -0.0948599760
|  8>  C       -1.7811978557    -0.8718963591    -1.5505917185
|  9>  C       -0.8151542860    -1.7974467421    -0.8572630485
| 10>  C        0.3090572742    -0.8049271890    -1.3436954095
| 11>  C       -0.6766318605    -0.2650873463    -2.4310658904
| 12>  C       -0.5354026291    -0.9358341252    -3.7147012488
| 13>  N       -0.4177209727    -1.4616858335    -4.7378219536
| 14>  H        0.8349689828     1.8133154454    -0.1061509353
| 15>  H        0.5629961936    -0.2470573904     0.7599043292
| 16>  H       -2.1246967157    -0.6226209726     0.6929710500
| 17>  H       -2.8081003519    -1.0600715973    -1.8314651168
| 18>  H       -0.8319618532    -2.8568455532    -0.6567120699
| 19>  H        1.3340810676    -1.0522897713    -1.6073036938
| 20>  H       -0.6776880402     0.8203115141    -2.5692459049
| 21> *
| 22>
| 23>                          ****END OF INPUT****

CARTESIAN COORDINATES (ANGSTROEM)
---------------------------------
  O     -0.058012    1.475794   -0.230218
  C     -0.035395    0.075308   -0.102392
  C     -1.383337   -0.616775   -0.094860
  C     -1.781198   -0.871896   -1.550592
  C     -0.815154   -1.797447   -0.857263
  C      0.309057   -0.804927   -1.343695
  C     -0.676632   -0.265087   -2.431066
  C     -0.535403   -0.935834   -3.714701
  N     -0.417721   -1.461686   -4.737822
  H      0.834969    1.813315   -0.106151
  H      0.562996   -0.247057    0.759904
  H     -2.124697   -0.622621    0.692971
  H     -2.808100   -1.060072   -1.831465
  H     -0.831962   -2.856846   -0.656712
  H      1.334081   -1.052290   -1.607304
  H     -0.677688    0.820312   -2.569246

 Total Charge           Charge          ....    0
 Multiplicity           Mult            ....    1
 Number of Electrons    NEL             ....   64
 Basis Dimension        Dim             ....  321

ORBITAL ENERGIES
----------------

  NO   OCC          E(Eh)            E(eV)
   0   2.0000     -20.575440      -559.8862
   1   2.0000     -15.562759      -423.4842
   2   2.0000     -11.307417      -307.6905
   3   2.0000     -11.282561      -307.0141
   4   2.0000     -11.268199      -306.6233
   5   2.0000     -11.266822      -306.5858
   6   2.0000     -11.264566      -306.5244
   7   2.0000     -11.258667      -306.3639
   8   2.0000     -11.255673      -306.2824
   9   2.0000      -1.386282       -37.7227
  10   2.0000      -1.259968       -34.2855
  11   2.0000      -1.208724       -32.8911
  12   2.0000      -1.030464       -28.0404
  13   2.0000      -0.981957       -26.7204
  14   2.0000      -0.889935       -24.2164
  15   2.0000      -0.798834       -21.7374
  16   2.0000      -0.765200       -20.8222
  17   2.0000      -0.736575       -20.0432
  18   2.0000      -0.713393       -19.4124
  19   2.0000      -0.676933       -18.4203
  20   2.0000      -0.630085       -17.1455
  21   2.0000      -0.624576       -16.9956
  22   2.0000      -0.586185       -15.9509
  23   2.0000      -0.549000       -14.9391
  24   2.0000      -0.530997       -14.4492
  25   2.0000      -0.519258       -14.1297
  26   2.0000      -0.497594       -13.5402
  27   2.0000      -0.463102       -12.6016
  28   2.0000      -0.456091       -12.4109
  29   2.0000      -0.443569       -12.0701
  30   2.0000      -0.416948       -11.3457
  31   2.0000      -0.398397       -10.8409
  32   0.0000       0.120702         3.2845
  33   0.0000       0.148444         4.0394
  34   0.0000       0.152424         4.1477
  35   0.0000       0.160626         4.3709
  36   0.0000       0.176357         4.7989

MULLIKEN ATOMIC CHARGES
-----------------------
   0 O :   -0.464932
   1 C :    0.034718
   2 C :   -0.107419
   3 C :   -0.176462
   4 C :   -0.255614
   5 C :   -0.043384
   6 C :    0.084248
   7 C :   -0.224261
   8 N :   -0.050633
   9 H :    0.320920
  10 H :    0.105706
  11 H :    0.146863
  12 H :    0.153251
  13 H :    0.162883
  14 H :    0.162429
  15 H :    0.151689
Sum of atomic charges:   -0.0000000

LOEWDIN ATOMIC CHARGES
----------------------
   0 O :   -0.005510
   1 C :   -0.300513
   2 C :   -0.135273
   3 C :   -0.122132
   4 C :   -0.107861
   5 C :   -0.110508
   6 C :   -0.172071
   7 C :   -0.164415
   8 N :    0.058509
   9 H :    0.178726
  10 H :    0.143453
  11 H :    0.143861
  12 H :    0.147156
  13 H :    0.138664
  14 H :    0.139227
  15 H :    0.168686

  Mayer bond orders larger than 0.1
B(  0-O ,  1-C ) :   1.1587 B(  0-O ,  5-C ) :  -0.1243 B(  0-O ,  9-H ) :   0.8397
B(  1-C ,  2-C ) :   0.9289 B(  1-C ,  5-C ) :   0.8866 B(  1-C , 10-H ) :   0.9735
B(  2-C ,  3-C ) :   0.8433 B(  2-C ,  4-C ) :   0.8227 B(  2-C , 11-H ) :   0.9226
B(  3-C ,  4-C ) :   0.8997 B(  3-C ,  6-C ) :   0.9020 B(  3-C , 12-H ) :   0.9233
B(  4-C ,  5-C ) :   0.9014 B(  4-C , 13-H ) :   0.9044 B(  5-C ,  6-C ) :   0.8895
B(  5-C , 14-H ) :   0.9131 B(  6-C ,  7-C ) :   0.9214 B(  6-C , 15-H ) :   0.8848
B(  7-C ,  8-N ) :   2.8926

MP2 TOTAL ENERGY:     -400.021765154 Eh
FINAL SINGLE POINT ENERGY      -400.021765154133

DIPOLE MOMENT
-------------
                                X             Y             Z
Electronic contribution:      0.05786      -0.14110      -3.96694
Nuclear contribution   :      0.30014       0.41906       5.67522
                        -----------------------------------------
Total Dipole Moment    :      0.35800       0.27797       1.70829
                        -----------------------------------------
Magnitude (a.u.)       :      1.76739
Magnitude (Debye)      :      4.49235

                             ****ORCA TERMINATED NORMALLY****
TOTAL RUN TIME: 0 days 0 hours 16 minutes 58 seconds 639 msec
