                         Program Version 3.0.3 - RELEASE   -
|  1> ! RI-MP2 RIJK def2-TZVP def2-TZVP/C def2-TZVP/JK TIGHTSCF
|  2> % maxcore 2000
|  3> % mp2 density relaxed end
|  4> *xyz 0 1
|  5>  C       -0.0205487552     1.4819922127     0.0069632839
|  6>  N       -0.0417823506     0.0324535658    -0.1180839190
|  7>  C       -1.1492063015    -0.7028426501    -0.0014046662
|  8>  N       -1.2091566864    -2.0010006153    -0.1085507203
|  9>  H       -0.3864566702    -2.5635373959    -0.2955548520
| 10>  C       -2.3990868396    -2.7534553238     0.0212135228
| 11>  N       -2.3733548411    -4.0826949357    -0.1033452368
| 12>  C       -3.6914754001    -4.3223016937     0.0940513198
| 13>  N       -4.4352804276    -3.2299291879     0.3165016254
| 14>  N       -3.5669209289    -2.1777697318     0.2673996924
| 15>  H        0.6274698580     1.7920313610     0.8324149999
| 16>  H        0.3323989642     1.9478138556    -0.9182011855
| 17>  H       -1.0328633281     1.8352606475     0.2090767700
| 18>  H        0.8355732264    -0.4311556526    -0.3051897162
| 19>  H       -2.0956716569    -0.2093743467     0.1998053454
| 20>  H       -4.1167617123    -5.3164011391     0.0747935763
| 21> *
| 22>
| 23>                          ****END OF INPUT****

CARTESIAN COORDINATES (ANGSTROEM)
---------------------------------
  C     -0.020549    1.481992    0.006963
  N     -0.041782    0.032454   -0.118084
  C     -1.149206   -0.702843   -0.001405
  N     -1.209157   -2.001001   -0.108551
  H     -0.386457   -2.563537   -0.295555
  C     -2.399087   -2.753455    0.021214
  N     -2.373355   -4.082695   -0.103345
  C     -3.691475   -4.322302    0.094051
  N     -4.435280   -3.229929    0.316502
  N     -3.566921   -2.177770    0.267400
  H      0.627470    1.792031    0.832415
  H      0.332399    1.947814   -0.918201
  H     -1.032863    1.835261    0.209077
  H      0.835573   -0.431156   -0.305190
  H     -2.095672   -0.209374    0.199805
  H     -4.116762   -5.316401    0.074794

 Total Charge           Charge          ....    0
 Multiplicity           Mult            ....    1
 Number of Electrons    NEL             ....   66
 Basis Dimension        Dim             ....  321

ORBITAL ENERGIES
----------------

  NO   OCC          E(Eh)            E(eV)
   0   2.0000     -15.676120      -426.5689
   1   2.0000     -15.667689      -426.3395
   2   2.0000     -15.522268      -422.3824
   3   2.0000     -15.513009      -422.1304
   4   2.0000     -15.503824      -421.8805
   5   2.0000     -11.416523      -310.6594
   6   2.0000     -11.330286      -308.3127
   7   2.0000     -11.278614      -306.9067
   8   2.0000     -11.217834      -305.2528
   9   2.0000      -1.386681       -37.7335
  10   2.0000      -1.328519       -36.1508
  11   2.0000      -1.277733       -34.7689
  12   2.0000      -1.123227       -30.5646
  13   2.0000      -1.043764       -28.4023
  14   2.0000      -0.996549       -27.1175
  15   2.0000      -0.944580       -25.7033
  16   2.0000      -0.837195       -22.7812
  17   2.0000      -0.816742       -22.2247
  18   2.0000      -0.743436       -20.2299
  19   2.0000      -0.713106       -19.4046
  20   2.0000      -0.693114       -18.8606
  21   2.0000      -0.671911       -18.2836
  22   2.0000      -0.647728       -17.6256
  23   2.0000      -0.623856       -16.9760
  24   2.0000      -0.621940       -16.9238
  25   2.0000      -0.555200       -15.1078
  26   2.0000      -0.546161       -14.8618
  27   2.0000      -0.468259       -12.7420
  28   2.0000      -0.467483       -12.7209
  29   2.0000      -0.399207       -10.8630
  30   2.0000      -0.372289       -10.1305
  31   2.0000      -0.335704        -9.1350
  32   2.0000      -0.278480        -7.5778
  33   0.0000       0.077876         2.1191
  34   0.0000       0.078434         2.1343
  35   0.0000       0.108022         2.9394
  36   0.0000       0.151235         4.1153
  37   0.0000       0.154165         4.1950

MULLIKEN ATOMIC CHARGES
-----------------------
   0 C :   -0.260784
   1 N :   -0.275034
   2 C :    0.186352
   3 N :   -0.212135
   4 H :    0.260643
   5 C :    0.160315
   6 N :   -0.371868
   7 C :   -0.029912
   8 N :   -0.247737
   9 N :   -0.250748
  10 H :    0.161662
  11 H :    0.161659
  12 H :    0.161788
  13 H :    0.254183
  14 H :    0.198092
  15 H :    0.103524
Sum of atomic charges:   -0.0000000

LOEWDIN ATOMIC CHARGES
----------------------
   0 C :   -0.285496
   1 N :    0.108379
   2 C :   -0.202160
   3 N :    0.233945
   4 H :    0.215626
   5 C :   -0.515773
   6 N :    0.038964
   7 C :   -0.396168
   8 N :   -0.026797
   9 N :   -0.038415
  10 H :    0.125383
  11 H :    0.125343
  12 H :    0.134688
  13 H :    0.196130
  14 H :    0.168823
  15 H :    0.117528

  Mayer bond orders larger than 0.1
B(  0-C ,  1-N ) :   0.8477 B(  0-C , 10-H ) :   0.9297 B(  0-C , 11-H ) :   0.9296
B(  0-C , 12-H ) :   0.9296 B(  1-N ,  2-C ) :   1.2592 B(  1-N , 13-H ) :   0.8674
B(  2-C ,  3-N ) :   1.4507 B(  2-C , 14-H ) :   0.8901 B(  3-N ,  4-H ) :   0.8518
B(  3-N ,  5-C ) :   0.8629 B(  5-C ,  6-N ) :   1.4709 B(  5-C ,  9-N ) :   1.4976
B(  6-N ,  7-C ) :   1.3481 B(  7-C ,  8-N ) :   1.5073 B(  7-C , 15-H ) :   0.9424
B(  8-N ,  9-N ) :   1.1220

MP2 TOTAL ENERGY:     -429.509894629 Eh
FINAL SINGLE POINT ENERGY      -429.509894628603

DIPOLE MOMENT
-------------
                                X             Y             Z
Electronic contribution:     -3.92547      -6.68640       0.05192
Nuclear contribution   :      7.94879       9.77464      -0.44206
                        -----------------------------------------
Total Dipole Moment    :      4.02332       3.08824      -0.39014
                        -----------------------------------------
Magnitude (a.u.)       :      5.08690
Magnitude (Debye)      :     12.92986

                             ****ORCA TERMINATED NORMALLY****
TOTAL RUN TIME: 0 days 0 hours 13 minutes 44 seconds 243 msec
