                         Program Version 3.0.3 - RELEASE   -
|  1> ! RI-MP2 RIJK def2-TZVP def2-TZVP/C def2-TZVP/JK TIGHTSCF
|  2> % maxcore 2000
|  3> % mp2 density relaxed end
|  4> *xyz 0 1
|  5>  C        0.0351112919     1.4773538674     0.0636821327
|  6>  C       -0.0251804993    -0.0568465551    -0.0012247936
|  7>  C        0.7861212977    -0.6545278942    -1.2029269661
|  8>  O        1.8020651064    -1.4623898306    -0.5715327843
|  9>  C        1.5820085509    -1.3564050373     0.7553690314
| 10>  N        0.6298236578    -0.6436307294     1.1951425645
| 11>  C       -1.4302387359    -0.4971868935    -0.0491184329
| 12>  N       -2.5327331091    -0.8345768052    -0.1220033917
| 13>  H        1.0808683912     1.7945148512     0.0970847212
| 14>  H       -0.4463987633     1.9219657793    -0.8119277452
| 15>  H       -0.4676458219     1.8347171121     0.9642800609
| 16>  H        0.1888343075    -1.2936445901    -1.8550016752
| 17>  H        1.2779351761     0.1210060418    -1.7949721743
| 18>  H        2.2769112901    -1.9153519765     1.3719252129
| 19> *
| 20>
| 21>                          ****END OF INPUT****

CARTESIAN COORDINATES (ANGSTROEM)
---------------------------------
  C      0.035111    1.477354    0.063682
  C     -0.025180   -0.056847   -0.001225
  C      0.786121   -0.654528   -1.202927
  O      1.802065   -1.462390   -0.571533
  C      1.582009   -1.356405    0.755369
  N      0.629824   -0.643631    1.195143
  C     -1.430239   -0.497187   -0.049118
  N     -2.532733   -0.834577   -0.122003
  H      1.080868    1.794515    0.097085
  H     -0.446399    1.921966   -0.811928
  H     -0.467646    1.834717    0.964280
  H      0.188834   -1.293645   -1.855002
  H      1.277935    0.121006   -1.794972
  H      2.276911   -1.915352    1.371925

 Total Charge           Charge          ....    0
 Multiplicity           Mult            ....    1
 Number of Electrons    NEL             ....   58
 Basis Dimension        Dim             ....  284

ORBITAL ENERGIES
----------------

  NO   OCC          E(Eh)            E(eV)
   0   2.0000     -20.624598      -561.2238
   1   2.0000     -15.576841      -423.8674
   2   2.0000     -15.576353      -423.8541
   3   2.0000     -11.360553      -309.1364
   4   2.0000     -11.334640      -308.4312
   5   2.0000     -11.323820      -308.1368
   6   2.0000     -11.275807      -306.8303
   7   2.0000     -11.250849      -306.1512
   8   2.0000      -1.468986       -39.9731
   9   2.0000      -1.254933       -34.1485
  10   2.0000      -1.217767       -33.1371
  11   2.0000      -1.096021       -29.8242
  12   2.0000      -0.978541       -26.6274
  13   2.0000      -0.891125       -24.2487
  14   2.0000      -0.839452       -22.8427
  15   2.0000      -0.757767       -20.6199
  16   2.0000      -0.713946       -19.4275
  17   2.0000      -0.674294       -18.3485
  18   2.0000      -0.624563       -16.9952
  19   2.0000      -0.612576       -16.6690
  20   2.0000      -0.593302       -16.1446
  21   2.0000      -0.573682       -15.6107
  22   2.0000      -0.566292       -15.4096
  23   2.0000      -0.549124       -14.9424
  24   2.0000      -0.532444       -14.4885
  25   2.0000      -0.482635       -13.1332
  26   2.0000      -0.465111       -12.6563
  27   2.0000      -0.454228       -12.3602
  28   2.0000      -0.417080       -11.3493
  29   0.0000       0.123128         3.3505
  30   0.0000       0.135342         3.6828
  31   0.0000       0.158896         4.3238
  32   0.0000       0.166826         4.5396
  33   0.0000       0.173151         4.7117

MULLIKEN ATOMIC CHARGES
-----------------------
   0 C :   -0.419977
   1 C :    0.339961
   2 C :   -0.096700
   3 O :   -0.254862
   4 C :    0.106308
   5 N :   -0.297151
   6 C :   -0.223650
   7 N :   -0.048578
   8 H :    0.146580
   9 H :    0.145444
  10 H :    0.160246
  11 H :    0.149547
  12 H :    0.132791
  13 H :    0.160042
Sum of atomic charges:    0.0000000

LOEWDIN ATOMIC CHARGES
----------------------
   0 C :   -0.243371
   1 C :   -0.318464
   2 C :   -0.195833
   3 O :    0.226559
   4 C :   -0.332183
   5 N :    0.116545
   6 C :   -0.147038
   7 N :    0.075258
   8 H :    0.132693
   9 H :    0.133831
  10 H :    0.139054
  11 H :    0.138330
  12 H :    0.134436
  13 H :    0.140183

  Mayer bond orders larger than 0.1
B(  0-C ,  1-C ) :   0.8911 B(  0-C ,  8-H ) :   0.9279 B(  0-C ,  9-H ) :   0.9248
B(  0-C , 10-H ) :   0.9305 B(  1-C ,  2-C ) :   0.8733 B(  1-C ,  5-N ) :   0.8529
B(  1-C ,  6-C ) :   0.8997 B(  2-C ,  3-O ) :   0.8790 B(  2-C , 11-H ) :   0.9228
B(  2-C , 12-H ) :   0.9184 B(  3-O ,  4-C ) :   1.0783 B(  4-C ,  5-N ) :   1.8020
B(  4-C , 13-H ) :   0.9166 B(  6-C ,  7-N ) :   2.8684

MP2 TOTAL ENERGY:     -378.110910652 Eh
FINAL SINGLE POINT ENERGY      -378.110910651885

DIPOLE MOMENT
-------------
                                X             Y             Z
Electronic contribution:     -1.41256      -4.53667       1.26707
Nuclear contribution   :      2.78606       5.08930      -1.83524
                        -----------------------------------------
Total Dipole Moment    :      1.37350       0.55263      -0.56817
                        -----------------------------------------
Magnitude (a.u.)       :      1.58579
Magnitude (Debye)      :      4.03075

                             ****ORCA TERMINATED NORMALLY****
TOTAL RUN TIME: 0 days 0 hours 10 minutes 56 seconds 615 msec
