                         Program Version 3.0.3 - RELEASE   -
|  1> ! RI-MP2 RIJK def2-TZVP def2-TZVP/C def2-TZVP/JK TIGHTSCF
|  2> % maxcore 2000
|  3> % mp2 density relaxed end
|  4> *xyz 0 1
|  5>  O        0.0891676379     0.2666557612    -0.6539419614
|  6>  C        0.0663733429     1.3763732494    -0.1777470252
|  7>  N        1.0935390043     1.9554890175     0.5408181714
|  8>  C        2.4945192521     1.7926342682     0.2237212889
|  9>  C        1.8586161783     3.1517059552     0.1888599246
| 10>  C        1.6066667450     3.8867614924    -1.1291510164
| 11>  C        0.9971495839     5.2252378369    -0.6825994575
| 12>  C        1.8194985164     5.5752104719     0.5729401067
| 13>  C        2.0490043435     4.2179250754     1.2816034505
| 14>  H       -0.8290590566     2.0275463377    -0.2094703860
| 15>  H        3.1415028283     1.5219181545     1.0545770179
| 16>  H        2.7288517087     1.3059149853    -0.7207976004
| 17>  H        2.5689887912     4.0702959244    -1.6237119906
| 18>  H        0.9861527889     3.3165539461    -1.8253363830
| 19>  H        1.0433357399     5.9972207265    -1.4549975952
| 20>  H       -0.0584913177     5.0865821555    -0.4181342484
| 21>  H        2.7794156521     6.0082152896     0.2689211053
| 22>  H        1.3271382121     6.3074099194     1.2177312517
| 23>  H        1.3127134179     4.0482883434     2.0719241857
| 24>  H        3.0382395307     4.1555763395     1.7437178914
| 25> *
| 26>
| 27>                          ****END OF INPUT****

CARTESIAN COORDINATES (ANGSTROEM)
---------------------------------
  O      0.089168    0.266656   -0.653942
  C      0.066373    1.376373   -0.177747
  N      1.093539    1.955489    0.540818
  C      2.494519    1.792634    0.223721
  C      1.858616    3.151706    0.188860
  C      1.606667    3.886761   -1.129151
  C      0.997150    5.225238   -0.682599
  C      1.819499    5.575210    0.572940
  C      2.049004    4.217925    1.281603
  H     -0.829059    2.027546   -0.209470
  H      3.141503    1.521918    1.054577
  H      2.728852    1.305915   -0.720798
  H      2.568989    4.070296   -1.623712
  H      0.986153    3.316554   -1.825336
  H      1.043336    5.997221   -1.454998
  H     -0.058491    5.086582   -0.418134
  H      2.779416    6.008215    0.268921
  H      1.327138    6.307410    1.217731
  H      1.312713    4.048288    2.071924
  H      3.038240    4.155576    1.743718

 Total Charge           Charge          ....    0
 Multiplicity           Mult            ....    1
 Number of Electrons    NEL             ....   68
 Basis Dimension        Dim             ....  345

ORBITAL ENERGIES
----------------

  NO   OCC          E(Eh)            E(eV)
   0   2.0000     -20.536703      -558.8321
   1   2.0000     -15.579243      -423.9327
   2   2.0000     -11.349168      -308.8266
   3   2.0000     -11.289565      -307.2047
   4   2.0000     -11.268678      -306.6363
   5   2.0000     -11.239428      -305.8404
   6   2.0000     -11.233983      -305.6922
   7   2.0000     -11.233139      -305.6692
   8   2.0000     -11.232220      -305.6443
   9   2.0000      -1.392453       -37.8906
  10   2.0000      -1.292741       -35.1773
  11   2.0000      -1.121820       -30.5263
  12   2.0000      -0.994285       -27.0559
  13   2.0000      -0.981820       -26.7167
  14   2.0000      -0.920972       -25.0609
  15   2.0000      -0.813052       -22.1243
  16   2.0000      -0.793230       -21.5849
  17   2.0000      -0.754010       -20.5176
  18   2.0000      -0.696832       -18.9618
  19   2.0000      -0.672792       -18.3076
  20   2.0000      -0.653693       -17.7879
  21   2.0000      -0.638830       -17.3834
  22   2.0000      -0.597904       -16.2698
  23   2.0000      -0.591086       -16.0843
  24   2.0000      -0.561524       -15.2798
  25   2.0000      -0.537413       -14.6237
  26   2.0000      -0.503373       -13.6975
  27   2.0000      -0.491695       -13.3797
  28   2.0000      -0.489031       -13.3072
  29   2.0000      -0.479609       -13.0508
  30   2.0000      -0.477205       -12.9854
  31   2.0000      -0.469782       -12.7834
  32   2.0000      -0.423181       -11.5153
  33   2.0000      -0.388716       -10.5775
  34   0.0000       0.121804         3.3145
  35   0.0000       0.146427         3.9845
  36   0.0000       0.150530         4.0961
  37   0.0000       0.161201         4.3865
  38   0.0000       0.163998         4.4626

MULLIKEN ATOMIC CHARGES
-----------------------
   0 O :   -0.307910
   1 C :    0.136679
   2 N :   -0.190473
   3 C :   -0.171862
   4 C :    0.093646
   5 C :   -0.247383
   6 C :   -0.204056
   7 C :   -0.226239
   8 C :   -0.251916
   9 H :    0.087116
  10 H :    0.134147
  11 H :    0.137514
  12 H :    0.123535
  13 H :    0.148008
  14 H :    0.128905
  15 H :    0.109479
  16 H :    0.113324
  17 H :    0.127660
  18 H :    0.133980
  19 H :    0.125847
Sum of atomic charges:   -0.0000000

LOEWDIN ATOMIC CHARGES
----------------------
   0 O :    0.097060
   1 C :   -0.405228
   2 N :    0.179225
   3 C :   -0.197254
   4 C :   -0.240124
   5 C :   -0.215920
   6 C :   -0.253507
   7 C :   -0.251870
   8 C :   -0.205458
   9 H :    0.111480
  10 H :    0.130992
  11 H :    0.134262
  12 H :    0.147298
  13 H :    0.142209
  14 H :    0.133733
  15 H :    0.137544
  16 H :    0.136809
  17 H :    0.133747
  18 H :    0.145678
  19 H :    0.139326

  Mayer bond orders larger than 0.1
B(  0-O ,  1-C ) :   1.9565 B(  1-C ,  2-N ) :   1.0454 B(  1-C ,  9-H ) :   0.9324
B(  2-N ,  3-C ) :   0.8917 B(  2-N ,  4-C ) :   0.7973 B(  3-C ,  4-C ) :   0.9218
B(  3-C , 10-H ) :   0.9109 B(  3-C , 11-H ) :   0.9208 B(  4-C ,  5-C ) :   0.9284
B(  4-C ,  8-C ) :   0.8716 B(  5-C ,  6-C ) :   0.9314 B(  5-C , 12-H ) :   0.9306
B(  5-C , 13-H ) :   0.9196 B(  6-C ,  7-C ) :   0.9336 B(  6-C , 14-H ) :   0.9334
B(  6-C , 15-H ) :   0.9274 B(  7-C ,  8-C ) :   0.9379 B(  7-C , 16-H ) :   0.9275
B(  7-C , 17-H ) :   0.9320 B(  8-C , 18-H ) :   0.9375 B(  8-C , 19-H ) :   0.9288

MP2 TOTAL ENERGY:     -402.465658206 Eh
FINAL SINGLE POINT ENERGY      -402.465658206152

DIPOLE MOMENT
-------------
                                X             Y             Z
Electronic contribution:     -2.64615      -8.43111       0.03993
Nuclear contribution   :      3.23860       9.85394       0.04562
                        -----------------------------------------
Total Dipole Moment    :      0.59244       1.42283       0.08555
                        -----------------------------------------
Magnitude (a.u.)       :      1.54361
Magnitude (Debye)      :      3.92356

                             ****ORCA TERMINATED NORMALLY****
TOTAL RUN TIME: 0 days 0 hours 19 minutes 52 seconds 763 msec
