                         Program Version 3.0.3 - RELEASE   -
|  1> ! RI-MP2 RIJK def2-TZVP def2-TZVP/C def2-TZVP/JK TIGHTSCF
|  2> % maxcore 2000
|  3> % mp2 density relaxed end
|  4> *xyz 0 1
|  5>  C        0.6143740882     2.2240396315    -0.8074836770
|  6>  C       -0.0181782235     0.8479221218    -0.5338875072
|  7>  C        0.1875342899     0.4858351843     0.9506648729
|  8>  C       -1.5308731499     0.9475882405    -0.8270017776
|  9>  C        0.5261562376    -0.3018399385    -1.3906033490
| 10>  C        0.9368694040    -0.2184062189    -2.8513793286
| 11>  C        1.9341327060    -0.6455426335    -1.7942260139
| 12>  C        3.1692576738     0.1827740572    -1.5173429280
| 13>  O        2.1788683645    -2.0313977196    -1.6801623003
| 14>  H        1.6535067747     2.2761515150    -0.4745273686
| 15>  H        0.5770864958     2.4900933632    -1.8687041275
| 16>  H        0.0621967678     2.9958325385    -0.2605058103
| 17>  H       -0.2456351138     1.2512027918     1.6044351243
| 18>  H       -0.2885966903    -0.4701942710     1.1931065247
| 19>  H        1.2517728843     0.3982345369     1.1918729893
| 20>  H       -1.7118289060     1.2059906322    -1.8756553425
| 21>  H       -2.0362158855    -0.0030270187    -0.6254758114
| 22>  H       -1.9999387665     1.7158778006    -0.2026612794
| 23>  H       -0.0167090456    -1.2209164347    -1.1779647684
| 24>  H        0.5553448563    -0.9740528206    -3.5297691942
| 25>  H        1.0729224711     0.7626257212    -3.2960840173
| 26>  H        3.0097737166     1.2460602186    -1.6989662709
| 27>  H        3.5136222609     0.0477923824    -0.4868117957
| 28>  H        3.9814703929    -0.1408142556    -2.1815174805
| 29>  H        2.8178316170    -2.2707493047    -2.3614607331
| 30> *
| 31>
| 32>                          ****END OF INPUT****

CARTESIAN COORDINATES (ANGSTROEM)
---------------------------------
  C      0.614374    2.224040   -0.807484
  C     -0.018178    0.847922   -0.533888
  C      0.187534    0.485835    0.950665
  C     -1.530873    0.947588   -0.827002
  C      0.526156   -0.301840   -1.390603
  C      0.936869   -0.218406   -2.851379
  C      1.934133   -0.645543   -1.794226
  C      3.169258    0.182774   -1.517343
  O      2.178868   -2.031398   -1.680162
  H      1.653507    2.276152   -0.474527
  H      0.577086    2.490093   -1.868704
  H      0.062197    2.995833   -0.260506
  H     -0.245635    1.251203    1.604435
  H     -0.288597   -0.470194    1.193107
  H      1.251773    0.398235    1.191873
  H     -1.711829    1.205991   -1.875655
  H     -2.036216   -0.003027   -0.625476
  H     -1.999939    1.715878   -0.202661
  H     -0.016709   -1.220916   -1.177965
  H      0.555345   -0.974053   -3.529769
  H      1.072922    0.762626   -3.296084
  H      3.009774    1.246060   -1.698966
  H      3.513622    0.047792   -0.486812
  H      3.981470   -0.140814   -2.181517
  H      2.817832   -2.270749   -2.361461

 Total Charge           Charge          ....    0
 Multiplicity           Mult            ....    1
 Number of Electrons    NEL             ....   72
 Basis Dimension        Dim             ....  375

ORBITAL ENERGIES
----------------

  NO   OCC          E(Eh)            E(eV)
   0   2.0000     -20.553989      -559.3025
   1   2.0000     -11.283552      -307.0411
   2   2.0000     -11.237360      -305.7841
   3   2.0000     -11.222293      -305.3741
   4   2.0000     -11.219517      -305.2986
   5   2.0000     -11.216438      -305.2148
   6   2.0000     -11.210790      -305.0611
   7   2.0000     -11.207853      -304.9812
   8   2.0000     -11.207377      -304.9682
   9   2.0000      -1.364563       -37.1316
  10   2.0000      -1.139839       -31.0166
  11   2.0000      -1.070096       -29.1188
  12   2.0000      -0.971142       -26.4261
  13   2.0000      -0.929073       -25.2814
  14   2.0000      -0.925187       -25.1756
  15   2.0000      -0.838455       -22.8155
  16   2.0000      -0.790128       -21.5005
  17   2.0000      -0.715256       -19.4631
  18   2.0000      -0.680825       -18.5262
  19   2.0000      -0.640216       -17.4212
  20   2.0000      -0.629627       -17.1330
  21   2.0000      -0.599387       -16.3101
  22   2.0000      -0.589704       -16.0467
  23   2.0000      -0.585501       -15.9323
  24   2.0000      -0.554208       -15.0808
  25   2.0000      -0.542647       -14.7662
  26   2.0000      -0.540013       -14.6945
  27   2.0000      -0.529812       -14.4169
  28   2.0000      -0.517376       -14.0785
  29   2.0000      -0.509976       -13.8771
  30   2.0000      -0.487573       -13.2675
  31   2.0000      -0.467910       -12.7325
  32   2.0000      -0.465309       -12.6617
  33   2.0000      -0.455451       -12.3934
  34   2.0000      -0.395311       -10.7570
  35   2.0000      -0.380211       -10.3461
  36   0.0000       0.129879         3.5342
  37   0.0000       0.147745         4.0203
  38   0.0000       0.170825         4.6484
  39   0.0000       0.173560         4.7228
  40   0.0000       0.183761         5.0004

MULLIKEN ATOMIC CHARGES
-----------------------
   0 C :   -0.462221
   1 C :    0.159338
   2 C :   -0.406541
   3 C :   -0.406596
   4 C :   -0.141605
   5 C :   -0.324122
   6 C :    0.206009
   7 C :   -0.413376
   8 O :   -0.464290
   9 H :    0.136657
  10 H :    0.132214
  11 H :    0.136056
  12 H :    0.127557
  13 H :    0.130009
  14 H :    0.129868
  15 H :    0.131645
  16 H :    0.127653
  17 H :    0.128599
  18 H :    0.115492
  19 H :    0.134008
  20 H :    0.119433
  21 H :    0.134245
  22 H :    0.140106
  23 H :    0.116477
  24 H :    0.313386
Sum of atomic charges:   -0.0000000

LOEWDIN ATOMIC CHARGES
----------------------
   0 C :   -0.271874
   1 C :   -0.329032
   2 C :   -0.265002
   3 C :   -0.267058
   4 C :   -0.154687
   5 C :   -0.198587
   6 C :   -0.362467
   7 C :   -0.278337
   8 O :    0.013231
   9 H :    0.123120
  10 H :    0.123525
  11 H :    0.128020
  12 H :    0.123913
  13 H :    0.126486
  14 H :    0.125170
  15 H :    0.126287
  16 H :    0.124852
  17 H :    0.123194
  18 H :    0.166422
  19 H :    0.132828
  20 H :    0.132829
  21 H :    0.127884
  22 H :    0.127957
  23 H :    0.124890
  24 H :    0.176439

  Mayer bond orders larger than 0.1
B(  0-C ,  1-C ) :   0.8717 B(  0-C ,  9-H ) :   0.9388 B(  0-C , 10-H ) :   0.9402
B(  0-C , 11-H ) :   0.9358 B(  1-C ,  2-C ) :   0.9185 B(  1-C ,  3-C ) :   0.9118
B(  1-C ,  4-C ) :   0.8792 B(  2-C , 12-H ) :   0.9356 B(  2-C , 13-H ) :   0.9324
B(  2-C , 14-H ) :   0.9352 B(  3-C , 15-H ) :   0.9342 B(  3-C , 16-H ) :   0.9347
B(  3-C , 17-H ) :   0.9372 B(  4-C ,  5-C ) :   0.8870 B(  4-C ,  6-C ) :   0.8396
B(  4-C ,  8-O ) :  -0.1010 B(  4-C , 18-H ) :   0.9225 B(  5-C ,  6-C ) :   0.9072
B(  5-C , 19-H ) :   0.9197 B(  5-C , 20-H ) :   0.9148 B(  6-C ,  7-C ) :   0.9373
B(  6-C ,  8-O ) :   1.0250 B(  7-C , 21-H ) :   0.9304 B(  7-C , 22-H ) :   0.9403
B(  7-C , 23-H ) :   0.9219 B(  8-O , 24-H ) :   0.8426

MP2 TOTAL ENERGY:     -388.813157725 Eh
FINAL SINGLE POINT ENERGY      -388.813157725195

DIPOLE MOMENT
-------------
                                X             Y             Z
Electronic contribution:      2.50025      -6.10101      -2.66716
Nuclear contribution   :     -2.24229       6.45542       2.30924
                        -----------------------------------------
Total Dipole Moment    :      0.25796       0.35441      -0.35792
                        -----------------------------------------
Magnitude (a.u.)       :      0.56591
Magnitude (Debye)      :      1.43843

                             ****ORCA TERMINATED NORMALLY****
TOTAL RUN TIME: 0 days 0 hours 24 minutes 21 seconds 691 msec
