                         Program Version 3.0.3 - RELEASE   -
|  1> ! RI-MP2 RIJK def2-TZVP def2-TZVP/C def2-TZVP/JK TIGHTSCF
|  2> % maxcore 2000
|  3> % mp2 density relaxed end
|  4> *xyz 0 1
|  5>  C        0.4329142343     0.8667551776    -0.3763593440
|  6>  O       -0.4547738278     0.1866882964     0.4901342000
|  7>  C        0.1767714823    -0.5147576858     1.5410893803
|  8>  C        0.5556038158    -1.9436431889     1.1576205010
|  9>  N        1.7776631467    -2.0928163385     0.2976382892
| 10>  C        2.3904779569    -3.0723337446     1.2458680764
| 11>  C        1.2646514264    -2.7718748330     2.2091805111
| 12>  N        0.9764500779    -3.0061649351     3.4170406448
| 13>  O        1.9629835340    -3.8026009933     4.0248815480
| 14>  H        1.1240448067     0.1864034235    -0.8884924063
| 15>  H       -0.1825251344     1.3846046344    -1.1167563837
| 16>  H        1.0312829074     1.6125483267     0.1695018572
| 17>  H        1.0712195791     0.0184190618     1.8947406848
| 18>  H       -0.5413956156    -0.5655932715     2.3679311114
| 19>  H       -0.3337607612    -2.4420648569     0.7471675617
| 20>  H        1.5758522644    -2.4922004781    -0.6117190322
| 21>  H        2.4038462505    -4.1164937031     0.9062509264
| 22>  H        3.3987085112    -2.8049437092     1.5801598482
| 23>  H        1.6263845153    -3.8947171824     4.9227888356
| 24> *
| 25>
| 26>                          ****END OF INPUT****

CARTESIAN COORDINATES (ANGSTROEM)
---------------------------------
  C      0.432914    0.866755   -0.376359
  O     -0.454774    0.186688    0.490134
  C      0.176771   -0.514758    1.541089
  C      0.555604   -1.943643    1.157621
  N      1.777663   -2.092816    0.297638
  C      2.390478   -3.072334    1.245868
  C      1.264651   -2.771875    2.209181
  N      0.976450   -3.006165    3.417041
  O      1.962984   -3.802601    4.024882
  H      1.124045    0.186403   -0.888492
  H     -0.182525    1.384605   -1.116756
  H      1.031283    1.612548    0.169502
  H      1.071220    0.018419    1.894741
  H     -0.541396   -0.565593    2.367931
  H     -0.333761   -2.442065    0.747168
  H      1.575852   -2.492200   -0.611719
  H      2.403846   -4.116494    0.906251
  H      3.398709   -2.804944    1.580160
  H      1.626385   -3.894717    4.922789

 Total Charge           Charge          ....    0
 Multiplicity           Mult            ....    1
 Number of Electrons    NEL             ....   70
 Basis Dimension        Dim             ....  339

ORBITAL ENERGIES
----------------

  NO   OCC          E(Eh)            E(eV)
   0   2.0000     -20.597656      -560.4907
   1   2.0000     -20.553167      -559.2801
   2   2.0000     -15.622351      -425.1058
   3   2.0000     -15.559018      -423.3824
   4   2.0000     -11.282897      -307.0232
   5   2.0000     -11.275577      -306.8241
   6   2.0000     -11.272751      -306.7472
   7   2.0000     -11.272313      -306.7352
   8   2.0000     -11.264683      -306.5276
   9   2.0000      -1.423582       -38.7376
  10   2.0000      -1.371473       -37.3197
  11   2.0000      -1.255355       -34.1600
  12   2.0000      -1.145620       -31.1739
  13   2.0000      -1.009583       -27.4721
  14   2.0000      -0.933302       -25.3964
  15   2.0000      -0.919402       -25.0182
  16   2.0000      -0.842447       -22.9241
  17   2.0000      -0.734844       -19.9961
  18   2.0000      -0.711365       -19.3572
  19   2.0000      -0.695424       -18.9234
  20   2.0000      -0.668753       -18.1977
  21   2.0000      -0.652930       -17.7671
  22   2.0000      -0.642054       -17.4712
  23   2.0000      -0.612320       -16.6621
  24   2.0000      -0.589610       -16.0441
  25   2.0000      -0.569326       -15.4921
  26   2.0000      -0.560265       -15.2456
  27   2.0000      -0.530629       -14.4391
  28   2.0000      -0.523211       -14.2373
  29   2.0000      -0.511483       -13.9182
  30   2.0000      -0.473336       -12.8801
  31   2.0000      -0.447176       -12.1683
  32   2.0000      -0.419611       -11.4182
  33   2.0000      -0.411383       -11.1943
  34   2.0000      -0.374234       -10.1834
  35   0.0000       0.122480         3.3328
  36   0.0000       0.144968         3.9448
  37   0.0000       0.156860         4.2684
  38   0.0000       0.165492         4.5033
  39   0.0000       0.174340         4.7440

MULLIKEN ATOMIC CHARGES
-----------------------
   0 C :   -0.208733
   1 O :   -0.326803
   2 C :   -0.010355
   3 C :   -0.009559
   4 N :   -0.349965
   5 C :   -0.125408
   6 C :   -0.025789
   7 N :   -0.092474
   8 O :   -0.362233
   9 H :    0.121063
  10 H :    0.132316
  11 H :    0.110676
  12 H :    0.092827
  13 H :    0.126906
  14 H :    0.112797
  15 H :    0.214955
  16 H :    0.130283
  17 H :    0.129684
  18 H :    0.339815
Sum of atomic charges:    0.0000000

LOEWDIN ATOMIC CHARGES
----------------------
   0 C :   -0.356881
   1 O :    0.128405
   2 C :   -0.303627
   3 C :   -0.236800
   4 N :   -0.007487
   5 C :   -0.236247
   6 C :   -0.266777
   7 N :    0.026777
   8 O :   -0.071963
   9 H :    0.101781
  10 H :    0.110973
  11 H :    0.101977
  12 H :    0.126946
  13 H :    0.137103
  14 H :    0.149270
  15 H :    0.157993
  16 H :    0.133197
  17 H :    0.134149
  18 H :    0.171211

  Mayer bond orders larger than 0.1
B(  0-C ,  1-O ) :   0.9075 B(  0-C ,  9-H ) :   0.9319 B(  0-C , 10-H ) :   0.9377
B(  0-C , 11-H ) :   0.9405 B(  1-O ,  2-C ) :   0.9146 B(  2-C ,  3-C ) :   0.8949
B(  2-C , 12-H ) :   0.9344 B(  2-C , 13-H ) :   0.9270 B(  3-C ,  4-N ) :   0.9895
B(  3-C ,  6-C ) :   0.8777 B(  3-C , 14-H ) :   0.9178 B(  4-N ,  5-C ) :   0.9625
B(  4-N , 15-H ) :   0.8753 B(  5-C ,  6-C ) :   0.9446 B(  5-C , 16-H ) :   0.9086
B(  5-C , 17-H ) :   0.9047 B(  6-C ,  7-N ) :   1.8692 B(  7-N ,  8-O ) :   0.8088
B(  8-O , 18-H ) :   0.8425

MP2 TOTAL ENERGY:     -455.513141007 Eh
FINAL SINGLE POINT ENERGY      -455.513141006846

DIPOLE MOMENT
-------------
                                X             Y             Z
Electronic contribution:     -0.65449      -4.82547       5.15396
Nuclear contribution   :      0.97339       4.39722      -5.30590
                        -----------------------------------------
Total Dipole Moment    :      0.31890      -0.42825      -0.15193
                        -----------------------------------------
Magnitude (a.u.)       :      0.55514
Magnitude (Debye)      :      1.41106

                             ****ORCA TERMINATED NORMALLY****
TOTAL RUN TIME: 0 days 0 hours 14 minutes 53 seconds 682 msec
