                         Program Version 3.0.3 - RELEASE   -
|  1> ! RI-MP2 RIJK def2-TZVP def2-TZVP/C def2-TZVP/JK TIGHTSCF
|  2> % maxcore 2000
|  3> % mp2 density relaxed end
|  4> *xyz 0 1
|  5>  C       -0.0412038805     1.6650830777     0.0068915995
|  6>  C       -0.0436579401     0.1366478929     0.0257571405
|  7>  C        0.8546061026    -0.4490882471     1.1271598497
|  8>  O       -1.3862307686    -0.4078880410     0.0947575718
|  9>  C       -2.1582333538    -0.1694552338     1.1861357370
| 10>  N       -3.3503176334    -0.8202747659     1.0434163328
| 11>  O       -1.8434590167     0.4886226338     2.1506380488
| 12>  C        0.4625209513    -0.4128970123    -1.3129518784
| 13>  O        1.4146357912     0.0277164105    -1.8984305890
| 14>  H        0.9506897291     2.0082154862    -0.2958865462
| 15>  H       -0.7671590849     2.0368555718    -0.7222836677
| 16>  H       -0.2906227132     2.0607548963     0.9907859896
| 17>  H        0.5199769048    -0.1015259287     2.1043687031
| 18>  H        0.8251213785    -1.5431745329     1.1095236116
| 19>  H        1.8851532027    -0.1279053627     0.9547602002
| 20>  H       -3.6153160889    -1.1702657311     0.1389572524
| 21>  H       -4.0766420742    -0.5678391163     1.6908565355
| 22>  H       -0.1153405158    -1.2863640776    -1.6868438012
| 23> *
| 24>
| 25>                          ****END OF INPUT****

CARTESIAN COORDINATES (ANGSTROEM)
---------------------------------
  C     -0.041204    1.665083    0.006892
  C     -0.043658    0.136648    0.025757
  C      0.854606   -0.449088    1.127160
  O     -1.386231   -0.407888    0.094758
  C     -2.158233   -0.169455    1.186136
  N     -3.350318   -0.820275    1.043416
  O     -1.843459    0.488623    2.150638
  C      0.462521   -0.412897   -1.312952
  O      1.414636    0.027716   -1.898431
  H      0.950690    2.008215   -0.295887
  H     -0.767159    2.036856   -0.722284
  H     -0.290623    2.060755    0.990786
  H      0.519977   -0.101526    2.104369
  H      0.825121   -1.543175    1.109524
  H      1.885153   -0.127905    0.954760
  H     -3.615316   -1.170266    0.138957
  H     -4.076642   -0.567839    1.690857
  H     -0.115341   -1.286364   -1.686844

 Total Charge           Charge          ....    0
 Multiplicity           Mult            ....    1
 Number of Electrons    NEL             ....   70
 Basis Dimension        Dim             ....  333

ORBITAL ENERGIES
----------------

  NO   OCC          E(Eh)            E(eV)
   0   2.0000     -20.611686      -560.8725
   1   2.0000     -20.567785      -559.6779
   2   2.0000     -20.535094      -558.7883
   3   2.0000     -15.594470      -424.3471
   4   2.0000     -11.415398      -310.6288
   5   2.0000     -11.338796      -308.5443
   6   2.0000     -11.320580      -308.0487
   7   2.0000     -11.230363      -305.5937
   8   2.0000     -11.223788      -305.4148
   9   2.0000      -1.473065       -40.0841
  10   2.0000      -1.408777       -38.3348
  11   2.0000      -1.369188       -37.2575
  12   2.0000      -1.227569       -33.4039
  13   2.0000      -1.085499       -29.5379
  14   2.0000      -0.955271       -25.9942
  15   2.0000      -0.921099       -25.0644
  16   2.0000      -0.835905       -22.7461
  17   2.0000      -0.768736       -20.9184
  18   2.0000      -0.737099       -20.0575
  19   2.0000      -0.718400       -19.5487
  20   2.0000      -0.682575       -18.5738
  21   2.0000      -0.671147       -18.2628
  22   2.0000      -0.650664       -17.7055
  23   2.0000      -0.637390       -17.3443
  24   2.0000      -0.599577       -16.3153
  25   2.0000      -0.595752       -16.2112
  26   2.0000      -0.559676       -15.2296
  27   2.0000      -0.549378       -14.9493
  28   2.0000      -0.529194       -14.4001
  29   2.0000      -0.526135       -14.3169
  30   2.0000      -0.518911       -14.1203
  31   2.0000      -0.467593       -12.7238
  32   2.0000      -0.465771       -12.6743
  33   2.0000      -0.439205       -11.9514
  34   2.0000      -0.421640       -11.4734
  35   0.0000       0.118012         3.2113
  36   0.0000       0.125862         3.4249
  37   0.0000       0.152663         4.1542
  38   0.0000       0.171825         4.6756
  39   0.0000       0.190179         5.1750

MULLIKEN ATOMIC CHARGES
-----------------------
   0 C :   -0.443582
   1 C :    0.253535
   2 C :   -0.446506
   3 O :   -0.307931
   4 C :    0.440735
   5 N :   -0.507787
   6 O :   -0.384781
   7 C :    0.086276
   8 O :   -0.255779
   9 H :    0.155794
  10 H :    0.132594
  11 H :    0.172926
  12 H :    0.179244
  13 H :    0.136865
  14 H :    0.150986
  15 H :    0.268163
  16 H :    0.271135
  17 H :    0.098112
Sum of atomic charges:    0.0000000

LOEWDIN ATOMIC CHARGES
----------------------
   0 C :   -0.263167
   1 C :   -0.362722
   2 C :   -0.259671
   3 O :    0.261010
   4 C :   -0.606679
   5 N :   -0.030970
   6 O :    0.077623
   7 C :   -0.248934
   8 O :    0.151811
   9 H :    0.138211
  10 H :    0.131043
  11 H :    0.135727
  12 H :    0.138241
  13 H :    0.130879
  14 H :    0.137575
  15 H :    0.174514
  16 H :    0.178549
  17 H :    0.116958

  Mayer bond orders larger than 0.1
B(  0-C ,  1-C ) :   0.9271 B(  0-C ,  9-H ) :   0.9159 B(  0-C , 10-H ) :   0.9291
B(  0-C , 11-H ) :   0.9300 B(  1-C ,  2-C ) :   0.9122 B(  1-C ,  3-O ) :   0.8152
B(  1-C ,  7-C ) :   0.8173 B(  2-C , 12-H ) :   0.9254 B(  2-C , 13-H ) :   0.9259
B(  2-C , 14-H ) :   0.9217 B(  3-O ,  4-C ) :   1.0719 B(  4-C ,  5-N ) :   1.1717
B(  4-C ,  6-O ) :   1.9024 B(  5-N , 15-H ) :   0.8637 B(  5-N , 16-H ) :   0.8657
B(  7-C ,  8-O ) :   2.0147 B(  7-C , 17-H ) :   0.9322

MP2 TOTAL ENERGY:     -475.533126892 Eh
FINAL SINGLE POINT ENERGY      -475.533126891972

DIPOLE MOMENT
-------------
                                X             Y             Z
Electronic contribution:     -2.54514      -1.65670      -1.75279
Nuclear contribution   :      1.50679       1.17203       1.64072
                        -----------------------------------------
Total Dipole Moment    :     -1.03835      -0.48467      -0.11207
                        -----------------------------------------
Magnitude (a.u.)       :      1.15136
Magnitude (Debye)      :      2.92653

                             ****ORCA TERMINATED NORMALLY****
TOTAL RUN TIME: 0 days 0 hours 16 minutes 20 seconds 241 msec
