                         Program Version 3.0.3 - RELEASE   -
|  1> ! RI-MP2 RIJK def2-TZVP def2-TZVP/C def2-TZVP/JK TIGHTSCF
|  2> % maxcore 2000
|  3> % mp2 density relaxed end
|  4> *xyz 0 1
|  5>  N        0.0953197690     1.3874575953     0.1744463751
|  6>  C       -0.0016179123     0.0329526409     0.0616267826
|  7>  C       -1.1147136766    -0.7776598155     0.0195805333
|  8>  O       -0.6583619918    -2.0894811318    -0.0331085775
|  9>  C        0.6710690917    -1.9720791606    -0.0239247655
| 10>  N        1.1299405832    -0.7596921250     0.0296081014
| 11>  C       -2.4863948489    -0.5068595663     0.0151245784
| 12>  N       -3.6126131142    -0.2235026332     0.0089885912
| 13>  H        0.9838128649     1.7775350165    -0.0984218495
| 14>  H       -0.7110270591     1.9339424703    -0.0839223366
| 15>  H        1.2415514043    -2.8874245206    -0.0626588628
| 16> *
| 17>
| 18>                          ****END OF INPUT****

CARTESIAN COORDINATES (ANGSTROEM)
---------------------------------
  N      0.095320    1.387458    0.174446
  C     -0.001618    0.032953    0.061627
  C     -1.114714   -0.777660    0.019581
  O     -0.658362   -2.089481   -0.033109
  C      0.671069   -1.972079   -0.023925
  N      1.129941   -0.759692    0.029608
  C     -2.486395   -0.506860    0.015125
  N     -3.612613   -0.223503    0.008989
  H      0.983813    1.777535   -0.098422
  H     -0.711027    1.933942   -0.083922
  H      1.241551   -2.887425   -0.062659

 Total Charge           Charge          ....    0
 Multiplicity           Mult            ....    1
 Number of Electrons    NEL             ....   56
 Basis Dimension        Dim             ....  266

ORBITAL ENERGIES
----------------

  NO   OCC          E(Eh)            E(eV)
   0   2.0000     -20.665387      -562.3338
   1   2.0000     -15.603662      -424.5972
   2   2.0000     -15.595655      -424.3793
   3   2.0000     -15.577944      -423.8974
   4   2.0000     -11.378082      -309.6134
   5   2.0000     -11.354431      -308.9698
   6   2.0000     -11.318505      -307.9922
   7   2.0000     -11.284867      -307.0768
   8   2.0000      -1.516880       -41.2764
   9   2.0000      -1.301315       -35.4106
  10   2.0000      -1.228451       -33.4278
  11   2.0000      -1.216581       -33.1048
  12   2.0000      -1.065173       -28.9848
  13   2.0000      -0.900137       -24.4940
  14   2.0000      -0.870489       -23.6872
  15   2.0000      -0.805941       -21.9308
  16   2.0000      -0.730389       -19.8749
  17   2.0000      -0.702144       -19.1063
  18   2.0000      -0.697315       -18.9749
  19   2.0000      -0.662895       -18.0383
  20   2.0000      -0.606562       -16.5054
  21   2.0000      -0.564941       -15.3728
  22   2.0000      -0.553035       -15.0489
  23   2.0000      -0.509713       -13.8700
  24   2.0000      -0.507442       -13.8082
  25   2.0000      -0.469485       -12.7753
  26   2.0000      -0.448209       -12.1964
  27   2.0000      -0.335727        -9.1356
  28   0.0000       0.087451         2.3797
  29   0.0000       0.120716         3.2848
  30   0.0000       0.154541         4.2053
  31   0.0000       0.157564         4.2875
  32   0.0000       0.166585         4.5330

MULLIKEN ATOMIC CHARGES
-----------------------
   0 N :   -0.512689
   1 C :    0.187177
   2 C :    0.214831
   3 O :   -0.193096
   4 C :    0.124774
   5 N :   -0.284230
   6 C :   -0.201049
   7 N :   -0.048216
   8 H :    0.273610
   9 H :    0.268478
  10 H :    0.170410
Sum of atomic charges:    0.0000000

LOEWDIN ATOMIC CHARGES
----------------------
   0 N :   -0.027523
   1 C :   -0.315814
   2 C :   -0.246831
   3 O :    0.368076
   4 C :   -0.311940
   5 N :    0.125142
   6 C :   -0.176258
   7 N :    0.083790
   8 H :    0.182316
   9 H :    0.179940
  10 H :    0.139101

  Mayer bond orders larger than 0.1
B(  0-N ,  1-C ) :   1.1208 B(  0-N ,  8-H ) :   0.8612 B(  0-N ,  9-H ) :   0.8684
B(  1-C ,  2-C ) :   1.4694 B(  1-C ,  5-N ) :   1.2153 B(  2-C ,  3-O ) :   0.9713
B(  2-C ,  6-C ) :   0.9313 B(  3-O ,  4-C ) :   1.1388 B(  4-C ,  5-N ) :   1.6067
B(  4-C , 10-H ) :   0.9225 B(  6-C ,  7-N ) :   2.8361

MP2 TOTAL ENERGY:     -392.967636584 Eh
FINAL SINGLE POINT ENERGY      -392.967636584469

DIPOLE MOMENT
-------------
                                X             Y             Z
Electronic contribution:     -2.19674      -2.25939       0.00047
Nuclear contribution   :      3.42375       2.45723      -0.30945
                        -----------------------------------------
Total Dipole Moment    :      1.22701       0.19784      -0.30898
                        -----------------------------------------
Magnitude (a.u.)       :      1.28069
Magnitude (Debye)      :      3.25526

                             ****ORCA TERMINATED NORMALLY****
TOTAL RUN TIME: 0 days 0 hours 9 minutes 33 seconds 147 msec
