                         Program Version 3.0.3 - RELEASE   -
|  1> ! RI-MP2 RIJK def2-TZVP def2-TZVP/C def2-TZVP/JK TIGHTSCF
|  2> % maxcore 2000
|  3> % mp2 density relaxed end
|  4> *xyz 0 1
|  5>  C        0.1482193309    -1.1469757418    -0.3688772816
|  6>  C        0.0423178363     0.0392541755    -0.1841371887
|  7>  C       -0.0469436853     1.4470198716     0.0341275234
|  8>  C       -1.2769082829     2.0525097725    -0.0322112645
|  9>  C       -1.5718938783     3.4239450974     0.2861637749
| 10>  C       -0.7315719424     4.4676172708     0.1394159990
| 11>  C        0.5993350715     4.3263271644    -0.5528795723
| 12>  C        1.4620835583     3.4160204883     0.2835194317
| 13>  C        1.1740257493     2.1164952145     0.4655540259
| 14>  H        0.2324098283    -2.1921603870    -0.5352408844
| 15>  H       -2.1257711224     1.4032035921    -0.2283598871
| 16>  H       -2.5667730960     3.6123964897     0.6842803965
| 17>  H       -1.0219023061     5.4459723358     0.5119403782
| 18>  H        0.4516000843     3.8831249198    -1.5473415653
| 19>  H        1.0759104763     5.2991520073    -0.6908181857
| 20>  H        2.3524656527     3.8310622283     0.7477067019
| 21>  H        1.8862833053     1.4883087806     0.9936824882
| 22> *
| 23>
| 24>                          ****END OF INPUT****

CARTESIAN COORDINATES (ANGSTROEM)
---------------------------------
  C      0.148219   -1.146976   -0.368877
  C      0.042318    0.039254   -0.184137
  C     -0.046944    1.447020    0.034128
  C     -1.276908    2.052510   -0.032211
  C     -1.571894    3.423945    0.286164
  C     -0.731572    4.467617    0.139416
  C      0.599335    4.326327   -0.552880
  C      1.462084    3.416020    0.283519
  C      1.174026    2.116495    0.465554
  H      0.232410   -2.192160   -0.535241
  H     -2.125771    1.403204   -0.228360
  H     -2.566773    3.612396    0.684280
  H     -1.021902    5.445972    0.511940
  H      0.451600    3.883125   -1.547342
  H      1.075910    5.299152   -0.690818
  H      2.352466    3.831062    0.747707
  H      1.886283    1.488309    0.993682

 Total Charge           Charge          ....    0
 Multiplicity           Mult            ....    1
 Number of Electrons    NEL             ....   62
 Basis Dimension        Dim             ....  327

ORBITAL ENERGIES
----------------

  NO   OCC          E(Eh)            E(eV)
   0   2.0000     -11.264572      -306.5246
   1   2.0000     -11.249573      -306.1164
   2   2.0000     -11.247292      -306.0544
   3   2.0000     -11.242829      -305.9329
   4   2.0000     -11.238032      -305.8024
   5   2.0000     -11.235277      -305.7274
   6   2.0000     -11.233975      -305.6920
   7   2.0000     -11.233730      -305.6853
   8   2.0000     -11.224793      -305.4421
   9   2.0000      -1.149959       -31.2920
  10   2.0000      -1.076029       -29.2803
  11   2.0000      -1.048174       -28.5223
  12   2.0000      -1.004742       -27.3404
  13   2.0000      -0.914266       -24.8784
  14   2.0000      -0.877859       -23.8878
  15   2.0000      -0.756799       -20.5936
  16   2.0000      -0.741402       -20.1746
  17   2.0000      -0.700080       -19.0501
  18   2.0000      -0.693360       -18.8673
  19   2.0000      -0.633866       -17.2484
  20   2.0000      -0.625367       -17.0171
  21   2.0000      -0.604868       -16.4593
  22   2.0000      -0.553100       -15.0506
  23   2.0000      -0.540311       -14.7026
  24   2.0000      -0.514345       -13.9960
  25   2.0000      -0.498424       -13.5628
  26   2.0000      -0.475080       -12.9276
  27   2.0000      -0.399068       -10.8592
  28   2.0000      -0.395053       -10.7499
  29   2.0000      -0.355829        -9.6826
  30   2.0000      -0.299346        -8.1456
  31   0.0000       0.073362         1.9963
  32   0.0000       0.137865         3.7515
  33   0.0000       0.146738         3.9929
  34   0.0000       0.167048         4.5456
  35   0.0000       0.168479         4.5845

MULLIKEN ATOMIC CHARGES
-----------------------
   0 C :   -0.109968
   1 C :    0.026511
   2 C :   -0.037352
   3 C :   -0.163855
   4 C :   -0.154256
   5 C :   -0.139279
   6 C :   -0.169721
   7 C :   -0.110691
   8 C :   -0.247210
   9 H :    0.192064
  10 H :    0.132895
  11 H :    0.126379
  12 H :    0.128382
  13 H :    0.129870
  14 H :    0.132794
  15 H :    0.130063
  16 H :    0.133372
Sum of atomic charges:   -0.0000000

LOEWDIN ATOMIC CHARGES
----------------------
   0 C :   -0.082125
   1 C :   -0.066605
   2 C :   -0.141255
   3 C :   -0.096771
   4 C :   -0.164778
   5 C :   -0.134542
   6 C :   -0.243396
   7 C :   -0.131343
   8 C :   -0.121055
   9 H :    0.127436
  10 H :    0.157146
  11 H :    0.153162
  12 H :    0.141988
  13 H :    0.155651
  14 H :    0.143888
  15 H :    0.143790
  16 H :    0.158809

  Mayer bond orders larger than 0.1
B(  0-C ,  1-C ) :   2.5475 B(  0-C ,  2-C ) :  -0.1571 B(  0-C ,  9-H ) :   0.8889
B(  1-C ,  2-C ) :   1.1031 B(  2-C ,  3-C ) :   1.5233 B(  2-C ,  8-C ) :   1.0572
B(  3-C ,  4-C ) :   1.0786 B(  3-C , 10-H ) :   0.9279 B(  4-C ,  5-C ) :   1.6758
B(  4-C , 11-H ) :   0.9218 B(  5-C ,  6-C ) :   0.9217 B(  5-C , 12-H ) :   0.9226
B(  6-C ,  7-C ) :   0.9218 B(  6-C , 13-H ) :   0.9103 B(  6-C , 14-H ) :   0.9366
B(  7-C ,  8-C ) :   1.6901 B(  7-C , 15-H ) :   0.9215 B(  8-C , 16-H ) :   0.9229

MP2 TOTAL ENERGY:     -346.869576167 Eh
FINAL SINGLE POINT ENERGY      -346.869576167054

DIPOLE MOMENT
-------------
                                X             Y             Z
Electronic contribution:     -0.37187      -3.90029       0.15908
Nuclear contribution   :      0.40439       4.24901      -0.11085
                        -----------------------------------------
Total Dipole Moment    :      0.03252       0.34872       0.04823
                        -----------------------------------------
Magnitude (a.u.)       :      0.35354
Magnitude (Debye)      :      0.89863

                             ****ORCA TERMINATED NORMALLY****
TOTAL RUN TIME: 0 days 0 hours 18 minutes 9 seconds 149 msec
