                         Program Version 3.0.3 - RELEASE   -
|  1> ! RI-MP2 RIJK def2-TZVP def2-TZVP/C def2-TZVP/JK TIGHTSCF
|  2> % maxcore 2000
|  3> % mp2 density relaxed end
|  4> *xyz 0 1
|  5>  O        0.2478151990    -0.2101690947    -0.4590542662
|  6>  C        0.0962292172     0.9625289434    -0.2425294136
|  7>  C        1.2382425455     1.9491511001    -0.0164638617
|  8>  C        1.2713444643     2.9725715615    -1.1006674639
|  9>  C        1.0106510154     4.2983795456    -1.0808148155
| 10>  N        1.1522726220     4.7760915763    -2.3793712377
| 11>  C        1.5087619881     3.7573437504    -3.2583851425
| 12>  O        1.7181231604     3.8263969219    -4.4511194031
| 13>  N        1.5659295786     2.6425707400    -2.4270481535
| 14>  H       -0.9141426573     1.4290947664    -0.2227917867
| 15>  H        1.0719279163     2.4587670251     0.9397087303
| 16>  H        2.1729907165     1.3812452041     0.0462467996
| 17>  H        0.7441601910     4.9366213114    -0.2559026975
| 18>  H        1.0488892064     5.7266674375    -2.6864618042
| 19>  H        1.8069925467     1.7307271511    -2.7755325438
| 20> *
| 21>
| 22>                          ****END OF INPUT****

CARTESIAN COORDINATES (ANGSTROEM)
---------------------------------
  O      0.247815   -0.210169   -0.459054
  C      0.096229    0.962529   -0.242529
  C      1.238243    1.949151   -0.016464
  C      1.271344    2.972572   -1.100667
  C      1.010651    4.298380   -1.080815
  N      1.152273    4.776092   -2.379371
  C      1.508762    3.757344   -3.258385
  O      1.718123    3.826397   -4.451119
  N      1.565930    2.642571   -2.427048
  H     -0.914143    1.429095   -0.222792
  H      1.071928    2.458767    0.939709
  H      2.172991    1.381245    0.046247
  H      0.744160    4.936621   -0.255903
  H      1.048889    5.726667   -2.686462
  H      1.806993    1.730727   -2.775533

 Total Charge           Charge          ....    0
 Multiplicity           Mult            ....    1
 Number of Electrons    NEL             ....   66
 Basis Dimension        Dim             ....  315

ORBITAL ENERGIES
----------------

  NO   OCC          E(Eh)            E(eV)
   0   2.0000     -20.576237      -559.9079
   1   2.0000     -20.513440      -558.1991
   2   2.0000     -15.611646      -424.8145
   3   2.0000     -15.611569      -424.8124
   4   2.0000     -11.382946      -309.7457
   5   2.0000     -11.350799      -308.8709
   6   2.0000     -11.296602      -307.3962
   7   2.0000     -11.286418      -307.1191
   8   2.0000     -11.274500      -306.7948
   9   2.0000      -1.415569       -38.5196
  10   2.0000      -1.405042       -38.2331
  11   2.0000      -1.316555       -35.8253
  12   2.0000      -1.210040       -32.9269
  13   2.0000      -1.086570       -29.5671
  14   2.0000      -0.990183       -26.9442
  15   2.0000      -0.869611       -23.6633
  16   2.0000      -0.842429       -22.9236
  17   2.0000      -0.808011       -21.9871
  18   2.0000      -0.734954       -19.9991
  19   2.0000      -0.684566       -18.6280
  20   2.0000      -0.678023       -18.4500
  21   2.0000      -0.661832       -18.0094
  22   2.0000      -0.640220       -17.4213
  23   2.0000      -0.633296       -17.2328
  24   2.0000      -0.626597       -17.0506
  25   2.0000      -0.611122       -16.6295
  26   2.0000      -0.572966       -15.5912
  27   2.0000      -0.531472       -14.4621
  28   2.0000      -0.492877       -13.4119
  29   2.0000      -0.468204       -12.7405
  30   2.0000      -0.443286       -12.0624
  31   2.0000      -0.439459       -11.9583
  32   2.0000      -0.314313        -8.5529
  33   0.0000       0.109846         2.9891
  34   0.0000       0.125635         3.4187
  35   0.0000       0.140074         3.8116
  36   0.0000       0.153290         4.1712
  37   0.0000       0.165514         4.5039

MULLIKEN ATOMIC CHARGES
-----------------------
   0 O :   -0.254770
   1 C :    0.114269
   2 C :   -0.188598
   3 C :    0.062147
   4 C :   -0.101756
   5 N :   -0.281962
   6 C :    0.282509
   7 O :   -0.371679
   8 N :   -0.304476
   9 H :    0.084862
  10 H :    0.144043
  11 H :    0.137685
  12 H :    0.160410
  13 H :    0.256614
  14 H :    0.260702
Sum of atomic charges:   -0.0000000

LOEWDIN ATOMIC CHARGES
----------------------
   0 O :    0.139550
   1 C :   -0.286849
   2 C :   -0.227517
   3 C :   -0.248788
   4 C :   -0.214794
   5 N :    0.158950
   6 C :   -0.514848
   7 O :    0.044477
   8 N :    0.183554
   9 H :    0.113898
  10 H :    0.163764
  11 H :    0.154214
  12 H :    0.140948
  13 H :    0.194333
  14 H :    0.199110

  Mayer bond orders larger than 0.1
B(  0-O ,  1-C ) :   1.9908 B(  1-C ,  2-C ) :   0.8643 B(  1-C ,  9-H ) :   0.9245
B(  2-C ,  3-C ) :   0.9085 B(  2-C , 10-H ) :   0.9253 B(  2-C , 11-H ) :   0.9031
B(  3-C ,  4-C ) :   1.6312 B(  3-C ,  8-N ) :   1.0522 B(  4-C ,  5-N ) :   1.0664
B(  4-C , 12-H ) :   0.9103 B(  5-N ,  6-C ) :   1.0881 B(  5-N , 13-H ) :   0.8686
B(  6-C ,  7-O ) :   1.9936 B(  6-C ,  8-N ) :   1.0963 B(  8-N , 14-H ) :   0.8625

MP2 TOTAL ENERGY:     -453.270849326 Eh
FINAL SINGLE POINT ENERGY      -453.270849325647

DIPOLE MOMENT
-------------
                                X             Y             Z
Electronic contribution:      0.33853      -0.16103      -3.46692
Nuclear contribution   :     -0.55369       1.06536       5.11251
                        -----------------------------------------
Total Dipole Moment    :     -0.21517       0.90433       1.64559
                        -----------------------------------------
Magnitude (a.u.)       :      1.88999
Magnitude (Debye)      :      4.80398

                             ****ORCA TERMINATED NORMALLY****
TOTAL RUN TIME: 0 days 0 hours 13 minutes 53 seconds 404 msec
