                         Program Version 3.0.3 - RELEASE   -
|  1> ! RI-MP2 RIJK def2-TZVP def2-TZVP/C def2-TZVP/JK TIGHTSCF
|  2> % maxcore 2000
|  3> % mp2 density relaxed end
|  4> *xyz 0 1
|  5>  C       -0.0053943357     1.5318962539    -0.0706757152
|  6>  C       -0.0374630233     0.0256614641     0.0050622495
|  7>  C        1.1916628389    -0.7661064575    -0.1976857247
|  8>  N        0.6267799570    -0.6060813128     1.1774702927
|  9>  C       -0.1384229291    -1.7700025846     1.5326342760
| 10>  O        0.0981474636    -2.4523043871     2.4871758558
| 11>  C       -1.2746393196    -1.9907615886     0.5200492579
| 12>  C       -1.3632989091    -0.6894173784    -0.2911845306
| 13>  O       -2.4009604246     0.1616803529     0.1762321403
| 14>  H        0.9771731182     1.9036931089     0.2292568737
| 15>  H       -0.2057373920     1.8661426748    -1.0944134315
| 16>  H       -0.7637815927     1.9672089108     0.5817204577
| 17>  H        1.1332335384    -1.7487964879    -0.6595937414
| 18>  H        2.1400890313    -0.2583329413    -0.3415151607
| 19>  H       -1.0282551125    -2.8632930452    -0.0940862155
| 20>  H       -2.2055794799    -2.2171051856     1.0440224230
| 21>  H       -1.4774214169    -0.8725284267    -1.3692616791
| 22>  H       -3.2432790121    -0.2595595194    -0.0195174180
| 23> *
| 24>
| 25>                          ****END OF INPUT****

CARTESIAN COORDINATES (ANGSTROEM)
---------------------------------
  C     -0.005394    1.531896   -0.070676
  C     -0.037463    0.025661    0.005062
  C      1.191663   -0.766106   -0.197686
  N      0.626780   -0.606081    1.177470
  C     -0.138423   -1.770003    1.532634
  O      0.098147   -2.452304    2.487176
  C     -1.274639   -1.990762    0.520049
  C     -1.363299   -0.689417   -0.291185
  O     -2.400960    0.161680    0.176232
  H      0.977173    1.903693    0.229257
  H     -0.205737    1.866143   -1.094413
  H     -0.763782    1.967209    0.581720
  H      1.133234   -1.748796   -0.659594
  H      2.140089   -0.258333   -0.341515
  H     -1.028255   -2.863293   -0.094086
  H     -2.205579   -2.217105    1.044022
  H     -1.477421   -0.872528   -1.369262
  H     -3.243279   -0.259560   -0.019517

 Total Charge           Charge          ....    0
 Multiplicity           Mult            ....    1
 Number of Electrons    NEL             ....   68
 Basis Dimension        Dim             ....  333

ORBITAL ENERGIES
----------------

  NO   OCC          E(Eh)            E(eV)
   0   2.0000     -20.577567      -559.9441
   1   2.0000     -20.543604      -559.0199
   2   2.0000     -15.578802      -423.9207
   3   2.0000     -11.355392      -308.9959
   4   2.0000     -11.310784      -307.7821
   5   2.0000     -11.285943      -307.1061
   6   2.0000     -11.282098      -307.0015
   7   2.0000     -11.251883      -306.1793
   8   2.0000     -11.224652      -305.4383
   9   2.0000      -1.404152       -38.2089
  10   2.0000      -1.386655       -37.7328
  11   2.0000      -1.296558       -35.2811
  12   2.0000      -1.057405       -28.7735
  13   2.0000      -1.024833       -27.8871
  14   2.0000      -0.935133       -25.4463
  15   2.0000      -0.894323       -24.3358
  16   2.0000      -0.790393       -21.5077
  17   2.0000      -0.756961       -20.5980
  18   2.0000      -0.719345       -19.5744
  19   2.0000      -0.681158       -18.5353
  20   2.0000      -0.656427       -17.8623
  21   2.0000      -0.637599       -17.3499
  22   2.0000      -0.613112       -16.6836
  23   2.0000      -0.594880       -16.1875
  24   2.0000      -0.585374       -15.9288
  25   2.0000      -0.571842       -15.5606
  26   2.0000      -0.560198       -15.2438
  27   2.0000      -0.523929       -14.2568
  28   2.0000      -0.518113       -14.0986
  29   2.0000      -0.492557       -13.4032
  30   2.0000      -0.476030       -12.9534
  31   2.0000      -0.457265       -12.4428
  32   2.0000      -0.414112       -11.2686
  33   2.0000      -0.401682       -10.9303
  34   0.0000       0.116606         3.1730
  35   0.0000       0.139904         3.8070
  36   0.0000       0.147086         4.0024
  37   0.0000       0.156306         4.2533
  38   0.0000       0.170331         4.6349

MULLIKEN ATOMIC CHARGES
-----------------------
   0 C :   -0.421410
   1 C :    0.192460
   2 C :   -0.211110
   3 N :   -0.202416
   4 C :    0.164472
   5 O :   -0.244174
   6 C :   -0.249633
   7 C :    0.023603
   8 O :   -0.458279
   9 H :    0.141961
  10 H :    0.127489
  11 H :    0.157788
  12 H :    0.132206
  13 H :    0.141910
  14 H :    0.148064
  15 H :    0.135299
  16 H :    0.102624
  17 H :    0.319145
Sum of atomic charges:    0.0000000

LOEWDIN ATOMIC CHARGES
----------------------
   0 C :   -0.258292
   1 C :   -0.273067
   2 C :   -0.187633
   3 N :    0.170329
   4 C :   -0.384338
   5 O :    0.164025
   6 C :   -0.216417
   7 C :   -0.300077
   8 O :   -0.006217
   9 H :    0.133214
  10 H :    0.131616
  11 H :    0.136366
  12 H :    0.133506
  13 H :    0.135714
  14 H :    0.153964
  15 H :    0.153463
  16 H :    0.137102
  17 H :    0.176743

  Mayer bond orders larger than 0.1
B(  0-C ,  1-C ) :   0.9058 B(  0-C ,  9-H ) :   0.9331 B(  0-C , 10-H ) :   0.9316
B(  0-C , 11-H ) :   0.9348 B(  1-C ,  2-C ) :   0.9442 B(  1-C ,  3-N ) :   0.7300
B(  1-C ,  7-C ) :   0.8884 B(  2-C ,  3-N ) :   0.8821 B(  2-C , 12-H ) :   0.9037
B(  2-C , 13-H ) :   0.9105 B(  3-N ,  4-C ) :   1.0053 B(  4-C ,  5-O ) :   2.0918
B(  4-C ,  6-C ) :   0.9065 B(  6-C ,  7-C ) :   0.9138 B(  6-C , 14-H ) :   0.9033
B(  6-C , 15-H ) :   0.8974 B(  7-C ,  8-O ) :   1.0359 B(  7-C , 16-H ) :   0.9529
B(  8-O , 17-H ) :   0.8425

MP2 TOTAL ENERGY:     -438.377021021 Eh
FINAL SINGLE POINT ENERGY      -438.377021020641

DIPOLE MOMENT
-------------
                                X             Y             Z
Electronic contribution:      0.26756      -3.75997       4.84401
Nuclear contribution   :     -0.92602       3.74111      -6.59659
                        -----------------------------------------
Total Dipole Moment    :     -0.65845      -0.01886      -1.75258
                        -----------------------------------------
Magnitude (a.u.)       :      1.87229
Magnitude (Debye)      :      4.75897

                             ****ORCA TERMINATED NORMALLY****
TOTAL RUN TIME: 0 days 0 hours 18 minutes 42 seconds 848 msec
