                         Program Version 3.0.3 - RELEASE   -
|  1> ! RI-MP2 RIJK def2-TZVP def2-TZVP/C def2-TZVP/JK TIGHTSCF
|  2> % maxcore 2000
|  3> % mp2 density relaxed end
|  4> *xyz 0 1
|  5>  C        0.0037193173     1.5442578023     0.2388170502
|  6>  C       -0.0447783563     0.0317498112     0.0012571342
|  7>  C       -1.4669292939    -0.5567977688    -0.0840114339
|  8>  C       -2.1844966976    -0.1145774683    -1.3690337554
|  9>  C       -1.4067097444    -2.1008080266     0.0403243725
| 10>  O       -0.6914889791    -2.5061563382     1.1965671495
| 11>  C       -2.7861940221    -2.7481237048     0.0606729691
| 12>  C       -3.0095469683    -4.0488971198     0.6976710896
| 13>  O       -3.3760561705    -2.8302820116     1.3680023793
| 14>  H        1.0386633000     1.8889986969     0.3292735982
| 15>  H       -0.4572299588     2.1120460352    -0.5758275001
| 16>  H       -0.5161842710     1.8140893615     1.1651443216
| 17>  H        0.4955697005    -0.2139521569    -0.9242061240
| 18>  H        0.4848069589    -0.4774117426     0.8108240700
| 19>  H       -2.0407891694    -0.1909815564     0.7811122227
| 20>  H       -1.7120820123    -0.5602655943    -2.2533410167
| 21>  H       -3.2423739035    -0.3909229382    -1.3781444252
| 22>  H       -2.1400452303     0.9711795067    -1.4878238926
| 23>  H       -0.8488755904    -2.4977875746    -0.8197620778
| 24>  H       -1.3205283743    -2.4244039132     1.9277585726
| 25>  H       -3.4798225641    -2.4420103262    -0.7195745413
| 26>  H       -3.8477611130    -4.6662328778     0.3803697080
| 27>  H       -2.1649254674    -4.5748649253     1.1344459394
| 28> *
| 29>
| 30>                          ****END OF INPUT****

CARTESIAN COORDINATES (ANGSTROEM)
---------------------------------
  C      0.003719    1.544258    0.238817
  C     -0.044778    0.031750    0.001257
  C     -1.466929   -0.556798   -0.084011
  C     -2.184497   -0.114577   -1.369034
  C     -1.406710   -2.100808    0.040324
  O     -0.691489   -2.506156    1.196567
  C     -2.786194   -2.748124    0.060673
  C     -3.009547   -4.048897    0.697671
  O     -3.376056   -2.830282    1.368002
  H      1.038663    1.888999    0.329274
  H     -0.457230    2.112046   -0.575828
  H     -0.516184    1.814089    1.165144
  H      0.495570   -0.213952   -0.924206
  H      0.484807   -0.477412    0.810824
  H     -2.040789   -0.190982    0.781112
  H     -1.712082   -0.560266   -2.253341
  H     -3.242374   -0.390923   -1.378144
  H     -2.140045    0.971180   -1.487824
  H     -0.848876   -2.497788   -0.819762
  H     -1.320528   -2.424404    1.927759
  H     -3.479823   -2.442010   -0.719575
  H     -3.847761   -4.666233    0.380370
  H     -2.164925   -4.574865    1.134446

 Total Charge           Charge          ....    0
 Multiplicity           Mult            ....    1
 Number of Electrons    NEL             ....   72
 Basis Dimension        Dim             ....  363

ORBITAL ENERGIES
----------------

  NO   OCC          E(Eh)            E(eV)
   0   2.0000     -20.576398      -559.9123
   1   2.0000     -20.552101      -559.2511
   2   2.0000     -11.291229      -307.2500
   3   2.0000     -11.286163      -307.1121
   4   2.0000     -11.285933      -307.1058
   5   2.0000     -11.229206      -305.5622
   6   2.0000     -11.218608      -305.2738
   7   2.0000     -11.212724      -305.1137
   8   2.0000     -11.210210      -305.0453
   9   2.0000      -1.420221       -38.6462
  10   2.0000      -1.358084       -36.9553
  11   2.0000      -1.089749       -29.6536
  12   2.0000      -1.002464       -27.2784
  13   2.0000      -0.959913       -26.1206
  14   2.0000      -0.914650       -24.8889
  15   2.0000      -0.874464       -23.7954
  16   2.0000      -0.810857       -22.0645
  17   2.0000      -0.775887       -21.1130
  18   2.0000      -0.723870       -19.6975
  19   2.0000      -0.683475       -18.5983
  20   2.0000      -0.640922       -17.4404
  21   2.0000      -0.629060       -17.1176
  22   2.0000      -0.606559       -16.5053
  23   2.0000      -0.585042       -15.9198
  24   2.0000      -0.578407       -15.7392
  25   2.0000      -0.553801       -15.0697
  26   2.0000      -0.540994       -14.7212
  27   2.0000      -0.532251       -14.4833
  28   2.0000      -0.510035       -13.8788
  29   2.0000      -0.500395       -13.6165
  30   2.0000      -0.494515       -13.4564
  31   2.0000      -0.477301       -12.9880
  32   2.0000      -0.462610       -12.5882
  33   2.0000      -0.458684       -12.4814
  34   2.0000      -0.442848       -12.0505
  35   2.0000      -0.415974       -11.3192
  36   0.0000       0.140090         3.8120
  37   0.0000       0.151304         4.1172
  38   0.0000       0.166618         4.5339
  39   0.0000       0.170637         4.6433
  40   0.0000       0.176849         4.8123

MULLIKEN ATOMIC CHARGES
-----------------------
   0 C :   -0.405038
   1 C :   -0.187709
   2 C :   -0.057850
   3 C :   -0.451066
   4 C :    0.116216
   5 O :   -0.482768
   6 C :   -0.023469
   7 C :   -0.073705
   8 O :   -0.356162
   9 H :    0.135875
  10 H :    0.118251
  11 H :    0.124443
  12 H :    0.094840
  13 H :    0.142857
  14 H :    0.085666
  15 H :    0.128337
  16 H :    0.134138
  17 H :    0.139667
  18 H :    0.099124
  19 H :    0.329539
  20 H :    0.126985
  21 H :    0.121309
  22 H :    0.140520
Sum of atomic charges:    0.0000000

LOEWDIN ATOMIC CHARGES
----------------------
   0 C :   -0.320696
   1 C :   -0.272469
   2 C :   -0.266713
   3 C :   -0.292124
   4 C :   -0.316094
   5 O :   -0.005241
   6 C :   -0.275439
   7 C :   -0.260770
   8 O :    0.126364
   9 H :    0.121931
  10 H :    0.115923
  11 H :    0.120993
  12 H :    0.136094
  13 H :    0.143769
  14 H :    0.154343
  15 H :    0.125117
  16 H :    0.119988
  17 H :    0.125603
  18 H :    0.152093
  19 H :    0.180883
  20 H :    0.140493
  21 H :    0.120339
  22 H :    0.125614

  Mayer bond orders larger than 0.1
B(  0-C ,  1-C ) :   0.9152 B(  0-C ,  9-H ) :   0.9439 B(  0-C , 10-H ) :   0.9403
B(  0-C , 11-H ) :   0.9398 B(  1-C ,  2-C ) :   0.9206 B(  1-C , 12-H ) :   0.9189
B(  1-C , 13-H ) :   0.9350 B(  2-C ,  3-C ) :   0.8984 B(  2-C ,  4-C ) :   0.9397
B(  2-C , 14-H ) :   0.9115 B(  3-C , 15-H ) :   0.9314 B(  3-C , 16-H ) :   0.9415
B(  3-C , 17-H ) :   0.9361 B(  4-C ,  5-O ) :   0.9105 B(  4-C ,  6-C ) :   0.9185
B(  4-C , 18-H ) :   0.9209 B(  5-O , 19-H ) :   0.8170 B(  6-C ,  7-C ) :   0.9836
B(  6-C ,  8-O ) :   0.9010 B(  6-C , 20-H ) :   0.9145 B(  7-C ,  8-O ) :   0.8680
B(  7-C , 21-H ) :   0.9242 B(  7-C , 22-H ) :   0.9064

MP2 TOTAL ENERGY:     -424.706311449 Eh
FINAL SINGLE POINT ENERGY      -424.706311448952

DIPOLE MOMENT
-------------
                                X             Y             Z
Electronic contribution:     -3.50261      -8.63420       4.41701
Nuclear contribution   :      3.23489       8.51755      -4.97064
                        -----------------------------------------
Total Dipole Moment    :     -0.26771      -0.11665      -0.55364
                        -----------------------------------------
Magnitude (a.u.)       :      0.62593
Magnitude (Debye)      :      1.59099

                             ****ORCA TERMINATED NORMALLY****
TOTAL RUN TIME: 0 days 0 hours 18 minutes 43 seconds 775 msec
