                         Program Version 3.0.3 - RELEASE   -
|  1> ! RI-MP2 RIJK def2-TZVP def2-TZVP/C def2-TZVP/JK TIGHTSCF
|  2> % maxcore 2000
|  3> % mp2 density relaxed end
|  4> *xyz 0 1
|  5>  N        0.2761389461     1.3243200709    -0.1140988164
|  6>  C       -0.0489523620     0.1088268913    -0.0218621637
|  7>  C       -1.4738482408    -0.3526836917    -0.1340309281
|  8>  C       -1.7217757648    -1.4974512542    -1.0733703243
|  9>  C       -0.8736836102    -2.2791867466    -1.7559651182
| 10>  C        0.6052665134    -2.2869273528    -1.8265424372
| 11>  O        1.1686416428    -2.9647533604    -2.6635442594
| 12>  C        1.4835937258    -1.4748421669    -0.8713580286
| 13>  O        0.8277129217    -0.9180515094     0.2596120434
| 14>  H        1.2833928146     1.4348455334     0.0273110076
| 15>  H       -1.8141572810    -0.6633904267     0.8661446554
| 16>  H       -2.0989509691     0.5006210180    -0.4146494601
| 17>  H       -2.7820063768    -1.7013336896    -1.2160649038
| 18>  H       -1.2934562248    -3.0367045542    -2.4128528358
| 19>  H        2.2527241332    -2.1473134267    -0.4856771111
| 20>  H        1.9876947618    -0.6937202645    -1.4581870997
| 21> *
| 22>
| 23>                          ****END OF INPUT****

CARTESIAN COORDINATES (ANGSTROEM)
---------------------------------
  N      0.276139    1.324320   -0.114099
  C     -0.048952    0.108827   -0.021862
  C     -1.473848   -0.352684   -0.134031
  C     -1.721776   -1.497451   -1.073370
  C     -0.873684   -2.279187   -1.755965
  C      0.605267   -2.286927   -1.826542
  O      1.168642   -2.964753   -2.663544
  C      1.483594   -1.474842   -0.871358
  O      0.827713   -0.918052    0.259612
  H      1.283393    1.434846    0.027311
  H     -1.814157   -0.663390    0.866145
  H     -2.098951    0.500621   -0.414649
  H     -2.782006   -1.701334   -1.216065
  H     -1.293456   -3.036705   -2.412853
  H      2.252724   -2.147313   -0.485677
  H      1.987695   -0.693720   -1.458187

 Total Charge           Charge          ....    0
 Multiplicity           Mult            ....    1
 Number of Electrons    NEL             ....   66
 Basis Dimension        Dim             ....  321

ORBITAL ENERGIES
----------------

  NO   OCC          E(Eh)            E(eV)
   0   2.0000     -20.601507      -560.5955
   1   2.0000     -20.555987      -559.3568
   2   2.0000     -15.562534      -423.4781
   3   2.0000     -11.353891      -308.9551
   4   2.0000     -11.347123      -308.7709
   5   2.0000     -11.314353      -307.8792
   6   2.0000     -11.285139      -307.0842
   7   2.0000     -11.266393      -306.5741
   8   2.0000     -11.253787      -306.2311
   9   2.0000      -1.439069       -39.1591
  10   2.0000      -1.398288       -38.0494
  11   2.0000      -1.220687       -33.2166
  12   2.0000      -1.115931       -30.3660
  13   2.0000      -1.034574       -28.1522
  14   2.0000      -0.977286       -26.5933
  15   2.0000      -0.883945       -24.0534
  16   2.0000      -0.786609       -21.4047
  17   2.0000      -0.758410       -20.6374
  18   2.0000      -0.708778       -19.2868
  19   2.0000      -0.697441       -18.9783
  20   2.0000      -0.689616       -18.7654
  21   2.0000      -0.634756       -17.2726
  22   2.0000      -0.627104       -17.0644
  23   2.0000      -0.616166       -16.7667
  24   2.0000      -0.601188       -16.3592
  25   2.0000      -0.582324       -15.8458
  26   2.0000      -0.539929       -14.6922
  27   2.0000      -0.517607       -14.0848
  28   2.0000      -0.496443       -13.5089
  29   2.0000      -0.459632       -12.5072
  30   2.0000      -0.442974       -12.0539
  31   2.0000      -0.423572       -11.5260
  32   2.0000      -0.391497       -10.6532
  33   0.0000       0.072611         1.9758
  34   0.0000       0.121858         3.3159
  35   0.0000       0.143880         3.9152
  36   0.0000       0.156788         4.2664
  37   0.0000       0.171324         4.6620

MULLIKEN ATOMIC CHARGES
-----------------------
   0 N :   -0.332647
   1 C :    0.111013
   2 C :   -0.077090
   3 C :   -0.131182
   4 C :   -0.226987
   5 C :    0.210027
   6 O :   -0.288227
   7 C :   -0.072257
   8 O :   -0.293254
   9 H :    0.226113
  10 H :    0.148204
  11 H :    0.149900
  12 H :    0.141209
  13 H :    0.143152
  14 H :    0.158650
  15 H :    0.133376
Sum of atomic charges:    0.0000000

LOEWDIN ATOMIC CHARGES
----------------------
   0 N :   -0.019341
   1 C :   -0.398495
   2 C :   -0.212510
   3 C :   -0.120121
   4 C :   -0.144554
   5 C :   -0.324390
   6 O :    0.156603
   7 C :   -0.267944
   8 O :    0.216654
   9 H :    0.171656
  10 H :    0.169986
  11 H :    0.165232
  12 H :    0.155864
  13 H :    0.162139
  14 H :    0.149826
  15 H :    0.139395

  Mayer bond orders larger than 0.1
B(  0-N ,  1-C ) :   2.0668 B(  0-N ,  9-H ) :   0.8550 B(  1-C ,  2-C ) :   0.9259
B(  1-C ,  8-O ) :   0.9880 B(  2-C ,  3-C ) :   0.9364 B(  2-C , 10-H ) :   0.8900
B(  2-C , 11-H ) :   0.9096 B(  3-C ,  4-C ) :   1.6877 B(  3-C , 12-H ) :   0.9176
B(  4-C ,  5-C ) :   1.0204 B(  4-C , 13-H ) :   0.9195 B(  5-C ,  6-O ) :   1.9082
B(  5-C ,  7-C ) :   0.8583 B(  7-C ,  8-O ) :   0.8927 B(  7-C , 14-H ) :   0.9215
B(  7-C , 15-H ) :   0.9369

MP2 TOTAL ENERGY:     -437.170753157 Eh
FINAL SINGLE POINT ENERGY      -437.170753157428

DIPOLE MOMENT
-------------
                                X             Y             Z
Electronic contribution:      2.25422      -1.53504      -0.68975
Nuclear contribution   :     -2.75347       1.59937       1.17114
                        -----------------------------------------
Total Dipole Moment    :     -0.49925       0.06433       0.48139
                        -----------------------------------------
Magnitude (a.u.)       :      0.69651
Magnitude (Debye)      :      1.77040

                             ****ORCA TERMINATED NORMALLY****
TOTAL RUN TIME: 0 days 0 hours 16 minutes 4 seconds 494 msec
