                         Program Version 3.0.3 - RELEASE   -
|  1> ! RI-MP2 RIJK def2-TZVP def2-TZVP/C def2-TZVP/JK TIGHTSCF
|  2> % maxcore 2000
|  3> % mp2 density relaxed end
|  4> *xyz 0 1
|  5>  O       -0.3125334226     1.4268477805    -0.2453803506
|  6>  C       -0.1297597936     0.0450816269    -0.1363994558
|  7>  C       -0.2727861122    -0.6251105110     1.2041888003
|  8>  C       -1.3629049229    -0.7795613065     0.1569659168
|  9>  C       -2.7422479852    -0.1219147634     0.3182375117
| 10>  C       -3.6950737325    -0.9486927339    -0.5922173660
| 11>  C       -2.8767797548    -2.1638160440    -0.9624979413
| 12>  C       -1.6115061731    -2.0598251075    -0.5569131718
| 13>  H        0.4263562131     1.8611898947     0.1934190112
| 14>  H        0.5930903571    -0.3731584658    -0.8380889737
| 15>  H        0.3598876376    -1.4768436343     1.4347426918
| 16>  H       -0.5008500792     0.0175254913     2.0495513255
| 17>  H       -3.0677639953    -0.1875765757     1.3613467095
| 18>  H       -2.7126060677     0.9360461039     0.0521869674
| 19>  H       -4.6290890208    -1.2121469717    -0.0822120395
| 20>  H       -3.9884515563    -0.3904109718    -1.4916697674
| 21>  H       -3.2861976204    -2.9971068774    -1.5227400017
| 22>  H       -0.8288564911    -2.7913273044    -0.7284961065
| 23> *
| 24>
| 25>                          ****END OF INPUT****

CARTESIAN COORDINATES (ANGSTROEM)
---------------------------------
  O     -0.312533    1.426848   -0.245380
  C     -0.129760    0.045082   -0.136399
  C     -0.272786   -0.625111    1.204189
  C     -1.362905   -0.779561    0.156966
  C     -2.742248   -0.121915    0.318238
  C     -3.695074   -0.948693   -0.592217
  C     -2.876780   -2.163816   -0.962498
  C     -1.611506   -2.059825   -0.556913
  H      0.426356    1.861190    0.193419
  H      0.593090   -0.373158   -0.838089
  H      0.359888   -1.476844    1.434743
  H     -0.500850    0.017525    2.049551
  H     -3.067764   -0.187577    1.361347
  H     -2.712606    0.936046    0.052187
  H     -4.629089   -1.212147   -0.082212
  H     -3.988452   -0.390411   -1.491670
  H     -3.286198   -2.997107   -1.522740
  H     -0.828856   -2.791327   -0.728496

 Total Charge           Charge          ....    0
 Multiplicity           Mult            ....    1
 Number of Electrons    NEL             ....   60
 Basis Dimension        Dim             ....  308

ORBITAL ENERGIES
----------------

  NO   OCC          E(Eh)            E(eV)
   0   2.0000     -20.561995      -559.5203
   1   2.0000     -11.278887      -306.9141
   2   2.0000     -11.234549      -305.7076
   3   2.0000     -11.222794      -305.3877
   4   2.0000     -11.221177      -305.3438
   5   2.0000     -11.219741      -305.3047
   6   2.0000     -11.219068      -305.2864
   7   2.0000     -11.214734      -305.1684
   8   2.0000      -1.370910       -37.3044
   9   2.0000      -1.157623       -31.5005
  10   2.0000      -1.075936       -29.2777
  11   2.0000      -0.962660       -26.1953
  12   2.0000      -0.892286       -24.2803
  13   2.0000      -0.825849       -22.4725
  14   2.0000      -0.763699       -20.7813
  15   2.0000      -0.724780       -19.7223
  16   2.0000      -0.684054       -18.6141
  17   2.0000      -0.676890       -18.4191
  18   2.0000      -0.627761       -17.0823
  19   2.0000      -0.615043       -16.7362
  20   2.0000      -0.580904       -15.8072
  21   2.0000      -0.548013       -14.9122
  22   2.0000      -0.517461       -14.0808
  23   2.0000      -0.508011       -13.8237
  24   2.0000      -0.493809       -13.4372
  25   2.0000      -0.478278       -13.0146
  26   2.0000      -0.469834       -12.7848
  27   2.0000      -0.434573       -11.8253
  28   2.0000      -0.401005       -10.9119
  29   2.0000      -0.322393        -8.7728
  30   0.0000       0.141181         3.8417
  31   0.0000       0.152854         4.1594
  32   0.0000       0.160915         4.3787
  33   0.0000       0.166663         4.5351
  34   0.0000       0.176778         4.8104

MULLIKEN ATOMIC CHARGES
-----------------------
   0 O :   -0.470656
   1 C :   -0.021739
   2 C :   -0.374352
   3 C :    0.258212
   4 C :   -0.280589
   5 C :   -0.165247
   6 C :   -0.168489
   7 C :   -0.219450
   8 H :    0.324485
   9 H :    0.102807
  10 H :    0.125596
  11 H :    0.141632
  12 H :    0.113170
  13 H :    0.153099
  14 H :    0.116344
  15 H :    0.114436
  16 H :    0.125807
  17 H :    0.124934
Sum of atomic charges:   -0.0000000

LOEWDIN ATOMIC CHARGES
----------------------
   0 O :   -0.003207
   1 C :   -0.299738
   2 C :   -0.200751
   3 C :   -0.207216
   4 C :   -0.186284
   5 C :   -0.235151
   6 C :   -0.156489
   7 C :   -0.126697
   8 H :    0.180544
   9 H :    0.131269
  10 H :    0.133190
  11 H :    0.138267
  12 H :    0.138997
  13 H :    0.142543
  14 H :    0.135403
  15 H :    0.139551
  16 H :    0.135126
  17 H :    0.140640

  Mayer bond orders larger than 0.1
B(  0-O ,  1-C ) :   1.0418 B(  0-O ,  3-C ) :  -0.1284 B(  0-O ,  8-H ) :   0.8396
B(  1-C ,  2-C ) :   0.9110 B(  1-C ,  3-C ) :   0.7976 B(  1-C ,  9-H ) :   0.9573
B(  2-C ,  3-C ) :   0.8331 B(  2-C , 10-H ) :   0.9155 B(  2-C , 11-H ) :   0.9276
B(  3-C ,  4-C ) :   0.8900 B(  3-C ,  7-C ) :   0.9291 B(  4-C ,  5-C ) :   0.9634
B(  4-C , 12-H ) :   0.9301 B(  4-C , 13-H ) :   0.9273 B(  5-C ,  6-C ) :   0.9359
B(  5-C , 14-H ) :   0.9290 B(  5-C , 15-H ) :   0.9130 B(  6-C ,  7-C ) :   1.8115
B(  6-C , 16-H ) :   0.9280 B(  7-C , 17-H ) :   0.9116

MP2 TOTAL ENERGY:     -347.186323739 Eh
FINAL SINGLE POINT ENERGY      -347.186323738908

DIPOLE MOMENT
-------------
                                X             Y             Z
Electronic contribution:      2.00957       0.66534      -0.98309
Nuclear contribution   :     -1.60323      -0.74513       1.27863
                        -----------------------------------------
Total Dipole Moment    :      0.40634      -0.07979       0.29554
                        -----------------------------------------
Magnitude (a.u.)       :      0.50875
Magnitude (Debye)      :      1.29313

                             ****ORCA TERMINATED NORMALLY****
TOTAL RUN TIME: 0 days 0 hours 12 minutes 15 seconds 664 msec
