                         Program Version 3.0.3 - RELEASE   -
|  1> ! RI-MP2 RIJK def2-TZVP def2-TZVP/C def2-TZVP/JK TIGHTSCF
|  2> % maxcore 2000
|  3> % mp2 density relaxed end
|  4> *xyz 0 1
|  5>  C        0.1077555185     1.3261123987     0.3779090624
|  6>  O        0.0007482541    -0.0756587154     0.2815538719
|  7>  C       -1.2541933581    -0.4979524690    -0.1960247717
|  8>  C       -1.2334764038    -2.0035193640    -0.2611344854
|  9>  O       -1.7028619305    -2.7364926732     0.8768852599
| 10>  C       -2.4323059686    -2.8503303136    -0.3382227920
| 11>  C       -3.8499151191    -2.2936913615    -0.3557706931
| 12>  C       -4.8237320638    -3.2569695988     0.1590106146
| 13>  N       -5.5888970635    -4.0266085396     0.5543970558
| 14>  H        1.1114152719     1.5500535980     0.7455344294
| 15>  H       -0.0318565712     1.8134361530    -0.6001358422
| 16>  H       -0.6305022018     1.7442325798     1.0796619289
| 17>  H       -2.0625059432    -0.1511921119     0.4661694707
| 18>  H       -1.4442284462    -0.0847178380    -1.2036088701
| 19>  H       -0.3134225123    -2.3973479265    -0.6945185918
| 20>  H       -2.3374874361    -3.8175936629    -0.8330985851
| 21>  H       -3.9086886718    -1.3806036102     0.2420660016
| 22>  H       -4.1312110246    -2.0352846747    -1.3839798538
| 23> *
| 24>
| 25>                          ****END OF INPUT****

CARTESIAN COORDINATES (ANGSTROEM)
---------------------------------
  C      0.107756    1.326112    0.377909
  O      0.000748   -0.075659    0.281554
  C     -1.254193   -0.497952   -0.196025
  C     -1.233476   -2.003519   -0.261134
  O     -1.702862   -2.736493    0.876885
  C     -2.432306   -2.850330   -0.338223
  C     -3.849915   -2.293691   -0.355771
  C     -4.823732   -3.256970    0.159011
  N     -5.588897   -4.026609    0.554397
  H      1.111415    1.550054    0.745534
  H     -0.031857    1.813436   -0.600136
  H     -0.630502    1.744233    1.079662
  H     -2.062506   -0.151192    0.466169
  H     -1.444228   -0.084718   -1.203609
  H     -0.313423   -2.397348   -0.694519
  H     -2.337487   -3.817594   -0.833099
  H     -3.908689   -1.380604    0.242066
  H     -4.131211   -2.035285   -1.383980

 Total Charge           Charge          ....    0
 Multiplicity           Mult            ....    1
 Number of Electrons    NEL             ....   68
 Basis Dimension        Dim             ....  333

ORBITAL ENERGIES
----------------

  NO   OCC          E(Eh)            E(eV)
   0   2.0000     -20.587503      -560.2144
   1   2.0000     -20.575315      -559.8828
   2   2.0000     -15.574995      -423.8172
   3   2.0000     -11.319594      -308.0218
   4   2.0000     -11.307885      -307.7032
   5   2.0000     -11.303429      -307.5819
   6   2.0000     -11.298888      -307.4584
   7   2.0000     -11.285693      -307.0993
   8   2.0000     -11.279147      -306.9212
   9   2.0000      -1.437141       -39.1066
  10   2.0000      -1.396069       -37.9890
  11   2.0000      -1.224122       -33.3100
  12   2.0000      -1.079420       -29.3725
  13   2.0000      -1.031639       -28.0723
  14   2.0000      -0.930410       -25.3177
  15   2.0000      -0.890206       -24.2237
  16   2.0000      -0.825485       -22.4626
  17   2.0000      -0.745677       -20.2909
  18   2.0000      -0.694657       -18.9026
  19   2.0000      -0.686842       -18.6899
  20   2.0000      -0.682254       -18.5651
  21   2.0000      -0.662424       -18.0255
  22   2.0000      -0.636788       -17.3279
  23   2.0000      -0.613364       -16.6905
  24   2.0000      -0.586440       -15.9578
  25   2.0000      -0.561678       -15.2840
  26   2.0000      -0.543640       -14.7932
  27   2.0000      -0.537474       -14.6254
  28   2.0000      -0.505920       -13.7668
  29   2.0000      -0.480324       -13.0703
  30   2.0000      -0.468920       -12.7600
  31   2.0000      -0.458488       -12.4761
  32   2.0000      -0.455539       -12.3958
  33   2.0000      -0.441504       -12.0139
  34   0.0000       0.117697         3.2027
  35   0.0000       0.138481         3.7683
  36   0.0000       0.154573         4.2061
  37   0.0000       0.162062         4.4099
  38   0.0000       0.173240         4.7141

MULLIKEN ATOMIC CHARGES
-----------------------
   0 C :   -0.220217
   1 O :   -0.293884
   2 C :   -0.066932
   3 C :    0.080452
   4 O :   -0.316550
   5 C :    0.003129
   6 C :   -0.127332
   7 C :   -0.171060
   8 N :   -0.053102
   9 H :    0.146567
  10 H :    0.111958
  11 H :    0.116836
  12 H :    0.104310
  13 H :    0.097043
  14 H :    0.133040
  15 H :    0.136480
  16 H :    0.159045
  17 H :    0.160216
Sum of atomic charges:    0.0000000

LOEWDIN ATOMIC CHARGES
----------------------
   0 C :   -0.355045
   1 O :    0.142040
   2 C :   -0.316805
   3 C :   -0.255771
   4 O :    0.183360
   5 C :   -0.259031
   6 C :   -0.226730
   7 C :   -0.185872
   8 N :    0.065014
   9 H :    0.116440
  10 H :    0.101966
  11 H :    0.103432
  12 H :    0.126443
  13 H :    0.126759
  14 H :    0.147373
  15 H :    0.146904
  16 H :    0.168277
  17 H :    0.171246

  Mayer bond orders larger than 0.1
B(  0-C ,  1-O ) :   0.9122 B(  0-C ,  9-H ) :   0.9386 B(  0-C , 10-H ) :   0.9352
B(  0-C , 11-H ) :   0.9363 B(  1-O ,  2-C ) :   0.9590 B(  2-C ,  3-C ) :   0.9115
B(  2-C , 12-H ) :   0.9300 B(  2-C , 13-H ) :   0.9081 B(  3-C ,  4-O ) :   0.8888
B(  3-C ,  5-C ) :   0.9561 B(  3-C , 14-H ) :   0.9187 B(  4-O ,  5-C ) :   0.9176
B(  5-C ,  6-C ) :   0.8824 B(  5-C , 15-H ) :   0.9128 B(  6-C ,  7-C ) :   0.9443
B(  6-C , 16-H ) :   0.9148 B(  6-C , 17-H ) :   0.9023 B(  7-C ,  8-N ) :   2.8603

MP2 TOTAL ENERGY:     -438.334871386 Eh
FINAL SINGLE POINT ENERGY      -438.334871385875

DIPOLE MOMENT
-------------
                                X             Y             Z
Electronic contribution:     -5.09940      -8.62250       1.88741
Nuclear contribution   :      5.80788      10.22314      -3.14198
                        -----------------------------------------
Total Dipole Moment    :      0.70849       1.60064      -1.25457
                        -----------------------------------------
Magnitude (a.u.)       :      2.15359
Magnitude (Debye)      :      5.47399

                             ****ORCA TERMINATED NORMALLY****
TOTAL RUN TIME: 0 days 0 hours 14 minutes 0 seconds 942 msec
