                         Program Version 3.0.3 - RELEASE   -
|  1> ! RI-MP2 RIJK def2-TZVP def2-TZVP/C def2-TZVP/JK TIGHTSCF
|  2> % maxcore 2000
|  3> % mp2 density relaxed end
|  4> *xyz 0 1
|  5>  O        0.3332501184     0.0663493917    -0.9041345363
|  6>  C        0.1614302124     1.0794224043    -0.2606394017
|  7>  N        1.1002457062     1.6859880899     0.5154097089
|  8>  C        2.4472873448     1.1692254368     0.6530462354
|  9>  C        3.5019159678     2.1414855977     0.1658280462
| 10>  C        4.7923881103     1.6522810620    -0.3681443707
| 11>  O        3.8030206201     2.1675198147    -1.2397630228
| 12>  C        3.4997470982     3.5152878969     0.7612238041
| 13>  O        2.7655453532     3.8580533493     1.6557749786
| 14>  H       -0.8018956308     1.6249636952    -0.2355340397
| 15>  H        0.8607580749     2.5132755919     1.0387921958
| 16>  H        2.6560710550     0.9264219956     1.7023990879
| 17>  H        2.4935265992     0.2505414459     0.0651969593
| 18>  H        5.6937473847     2.2550029903    -0.2625837958
| 19>  H        4.9478307556     0.5752002523    -0.4073935373
| 20>  H        4.2257242200     4.2117869256     0.2901591081
| 21> *
| 22>
| 23>                          ****END OF INPUT****

CARTESIAN COORDINATES (ANGSTROEM)
---------------------------------
  O      0.333250    0.066349   -0.904135
  C      0.161430    1.079422   -0.260639
  N      1.100246    1.685988    0.515410
  C      2.447287    1.169225    0.653046
  C      3.501916    2.141486    0.165828
  C      4.792388    1.652281   -0.368144
  O      3.803021    2.167520   -1.239763
  C      3.499747    3.515288    0.761224
  O      2.765545    3.858053    1.655775
  H     -0.801896    1.624964   -0.235534
  H      0.860758    2.513276    1.038792
  H      2.656071    0.926422    1.702399
  H      2.493527    0.250541    0.065197
  H      5.693747    2.255003   -0.262584
  H      4.947831    0.575200   -0.407394
  H      4.225724    4.211787    0.290159

 Total Charge           Charge          ....    0
 Multiplicity           Mult            ....    1
 Number of Electrons    NEL             ....   68
 Basis Dimension        Dim             ....  321

ORBITAL ENERGIES
----------------

  NO   OCC          E(Eh)            E(eV)
   0   2.0000     -20.606035      -560.7187
   1   2.0000     -20.586980      -560.2002
   2   2.0000     -20.523401      -558.4701
   3   2.0000     -15.591987      -424.2795
   4   2.0000     -11.360092      -309.1238
   5   2.0000     -11.350762      -308.8699
   6   2.0000     -11.324398      -308.1525
   7   2.0000     -11.320062      -308.0345
   8   2.0000     -11.287130      -307.1384
   9   2.0000      -1.454064       -39.5671
  10   2.0000      -1.423118       -38.7250
  11   2.0000      -1.384684       -37.6792
  12   2.0000      -1.241877       -33.7932
  13   2.0000      -1.043422       -28.3930
  14   2.0000      -0.952535       -25.9198
  15   2.0000      -0.924876       -25.1672
  16   2.0000      -0.827852       -22.5270
  17   2.0000      -0.797376       -21.6977
  18   2.0000      -0.743014       -20.2184
  19   2.0000      -0.719536       -19.5796
  20   2.0000      -0.707231       -19.2447
  21   2.0000      -0.664895       -18.0927
  22   2.0000      -0.651999       -17.7418
  23   2.0000      -0.627527       -17.0759
  24   2.0000      -0.598065       -16.2742
  25   2.0000      -0.591070       -16.0838
  26   2.0000      -0.573567       -15.6076
  27   2.0000      -0.559778       -15.2323
  28   2.0000      -0.542406       -14.7596
  29   2.0000      -0.498452       -13.5636
  30   2.0000      -0.470782       -12.8106
  31   2.0000      -0.448276       -12.1982
  32   2.0000      -0.432802       -11.7771
  33   2.0000      -0.400519       -10.8987
  34   0.0000       0.096992         2.6393
  35   0.0000       0.142930         3.8893
  36   0.0000       0.147314         4.0086
  37   0.0000       0.158836         4.3221
  38   0.0000       0.174201         4.7403

MULLIKEN ATOMIC CHARGES
-----------------------
   0 O :   -0.367638
   1 C :    0.201428
   2 N :   -0.353690
   3 C :   -0.098026
   4 C :    0.187142
   5 C :   -0.082233
   6 O :   -0.304206
   7 C :    0.060522
   8 O :   -0.285821
   9 H :    0.084053
  10 H :    0.262639
  11 H :    0.144140
  12 H :    0.171508
  13 H :    0.130925
  14 H :    0.136557
  15 H :    0.112700
Sum of atomic charges:   -0.0000000

LOEWDIN ATOMIC CHARGES
----------------------
   0 O :    0.056236
   1 C :   -0.432315
   2 N :    0.089332
   3 C :   -0.229679
   4 C :   -0.323854
   5 C :   -0.233028
   6 O :    0.196727
   7 C :   -0.253247
   8 O :    0.136378
   9 H :    0.111560
  10 H :    0.188606
  11 H :    0.148172
  12 H :    0.161155
  13 H :    0.125713
  14 H :    0.131062
  15 H :    0.127184

  Mayer bond orders larger than 0.1
B(  0-O ,  1-C ) :   1.8878 B(  1-C ,  2-N ) :   1.1542 B(  1-C ,  9-H ) :   0.9291
B(  2-N ,  3-C ) :   0.8189 B(  2-N , 10-H ) :   0.8605 B(  3-C ,  4-C ) :   0.9119
B(  3-C , 11-H ) :   0.9248 B(  3-C , 12-H ) :   0.9152 B(  4-C ,  5-C ) :   0.9313
B(  4-C ,  6-O ) :   0.8515 B(  4-C ,  7-C ) :   0.8559 B(  5-C ,  6-O ) :   0.9041
B(  5-C , 13-H ) :   0.9149 B(  5-C , 14-H ) :   0.8971 B(  7-C ,  8-O ) :   1.9441
B(  7-C , 15-H ) :   0.9497

MP2 TOTAL ENERGY:     -474.274867630 Eh
FINAL SINGLE POINT ENERGY      -474.274867630354

DIPOLE MOMENT
-------------
                                X             Y             Z
Electronic contribution:     -1.48478       1.52305      -0.59993
Nuclear contribution   :      2.59093      -1.03444       1.38266
                        -----------------------------------------
Total Dipole Moment    :      1.10615       0.48861       0.78273
                        -----------------------------------------
Magnitude (a.u.)       :      1.44048
Magnitude (Debye)      :      3.66141

                             ****ORCA TERMINATED NORMALLY****
TOTAL RUN TIME: 0 days 0 hours 14 minutes 1 seconds 39 msec
