                         Program Version 3.0.3 - RELEASE   -
|  1> ! RI-MP2 RIJK def2-TZVP def2-TZVP/C def2-TZVP/JK TIGHTSCF
|  2> % maxcore 2000
|  3> % mp2 density relaxed end
|  4> *xyz 0 1
|  5>  C       -0.3154710364     1.4257994571     0.0134266933
|  6>  C       -0.0005654304    -0.0652257469    -0.1478129196
|  7>  C        0.9521782812    -0.4375936401    -1.3176720292
|  8>  C        2.3594905751     0.1328383089    -1.0731222505
|  9>  C        0.9880265570    -1.9885989058    -1.4966074645
| 10>  C        0.0008948273    -2.3158059547    -2.6413085842
| 11>  C       -0.1447335075    -0.9945405465    -3.3691896063
| 12>  C       -0.8280951148    -0.9017177219    -4.6969981457
| 13>  C        0.3775558003     0.0025868996    -2.6528744998
| 14>  H        0.5838332520     2.0164533125     0.2140771110
| 15>  H       -0.7902567428     1.8336346928    -0.8846329168
| 16>  H       -1.0031295403     1.5852584415     0.8501158776
| 17>  H        0.4381650061    -0.4447969197     0.7850690472
| 18>  H       -0.9425582936    -0.6103254192    -0.2883889285
| 19>  H        2.7819547486    -0.2507721866    -0.1368006633
| 20>  H        3.0366348721    -0.1458220033    -1.8869451579
| 21>  H        2.3535143028     1.2258177454    -1.0108173085
| 22>  H        1.9976490758    -2.2935662750    -1.7910371360
| 23>  H        0.7530561282    -2.5160883688    -0.5671523941
| 24>  H        0.3684228873    -3.1159828025    -3.2957234862
| 25>  H       -0.9750348809    -2.6587259275    -2.2682131472
| 26>  H       -1.8594380568    -1.2736647749    -4.6381896626
| 27>  H       -0.8598560396     0.1269015798    -5.0668682833
| 28>  H       -0.3203314111    -1.5196158762    -5.4489644550
| 29>  H        0.3755253804     1.0433156019    -2.9629127801
| 30> *
| 31>
| 32>                          ****END OF INPUT****

CARTESIAN COORDINATES (ANGSTROEM)
---------------------------------
  C     -0.315471    1.425799    0.013427
  C     -0.000565   -0.065226   -0.147813
  C      0.952178   -0.437594   -1.317672
  C      2.359491    0.132838   -1.073122
  C      0.988027   -1.988599   -1.496607
  C      0.000895   -2.315806   -2.641309
  C     -0.144734   -0.994541   -3.369190
  C     -0.828095   -0.901718   -4.696998
  C      0.377556    0.002587   -2.652874
  H      0.583833    2.016453    0.214077
  H     -0.790257    1.833635   -0.884633
  H     -1.003130    1.585258    0.850116
  H      0.438165   -0.444797    0.785069
  H     -0.942558   -0.610325   -0.288389
  H      2.781955   -0.250772   -0.136801
  H      3.036635   -0.145822   -1.886945
  H      2.353514    1.225818   -1.010817
  H      1.997649   -2.293566   -1.791037
  H      0.753056   -2.516088   -0.567152
  H      0.368423   -3.115983   -3.295723
  H     -0.975035   -2.658726   -2.268213
  H     -1.859438   -1.273665   -4.638190
  H     -0.859856    0.126902   -5.066868
  H     -0.320331   -1.519616   -5.448964
  H      0.375525    1.043316   -2.962913

 Total Charge           Charge          ....    0
 Multiplicity           Mult            ....    1
 Number of Electrons    NEL             ....   70
 Basis Dimension        Dim             ....  375

ORBITAL ENERGIES
----------------

  NO   OCC          E(Eh)            E(eV)
   0   2.0000     -11.228532      -305.5439
   1   2.0000     -11.223582      -305.4092
   2   2.0000     -11.218659      -305.2752
   3   2.0000     -11.217757      -305.2507
   4   2.0000     -11.213474      -305.1342
   5   2.0000     -11.212027      -305.0948
   6   2.0000     -11.207329      -304.9669
   7   2.0000     -11.206114      -304.9339
   8   2.0000     -11.205264      -304.9107
   9   2.0000      -1.141644       -31.0657
  10   2.0000      -1.051699       -28.6182
  11   2.0000      -0.993242       -27.0275
  12   2.0000      -0.965967       -26.2853
  13   2.0000      -0.925240       -25.1771
  14   2.0000      -0.876998       -23.8643
  15   2.0000      -0.828887       -22.5552
  16   2.0000      -0.742106       -20.1937
  17   2.0000      -0.699251       -19.0276
  18   2.0000      -0.634708       -17.2713
  19   2.0000      -0.624068       -16.9817
  20   2.0000      -0.600027       -16.3276
  21   2.0000      -0.584914       -15.9163
  22   2.0000      -0.571001       -15.5377
  23   2.0000      -0.560534       -15.2529
  24   2.0000      -0.551109       -14.9964
  25   2.0000      -0.530347       -14.4315
  26   2.0000      -0.518590       -14.1116
  27   2.0000      -0.506054       -13.7704
  28   2.0000      -0.497238       -13.5305
  29   2.0000      -0.483825       -13.1656
  30   2.0000      -0.464618       -12.6429
  31   2.0000      -0.450631       -12.2623
  32   2.0000      -0.443646       -12.0722
  33   2.0000      -0.435058       -11.8385
  34   2.0000      -0.328891        -8.9496
  35   0.0000       0.131737         3.5848
  36   0.0000       0.150715         4.1012
  37   0.0000       0.156672         4.2633
  38   0.0000       0.160833         4.3765
  39   0.0000       0.184829         5.0295

MULLIKEN ATOMIC CHARGES
-----------------------
   0 C :   -0.433548
   1 C :   -0.220589
   2 C :    0.273495
   3 C :   -0.445802
   4 C :   -0.278932
   5 C :   -0.207994
   6 C :    0.052738
   7 C :   -0.436496
   8 C :   -0.311308
   9 H :    0.126748
  10 H :    0.131684
  11 H :    0.134753
  12 H :    0.110221
  13 H :    0.113123
  14 H :    0.130467
  15 H :    0.131670
  16 H :    0.129504
  17 H :    0.114524
  18 H :    0.122134
  19 H :    0.119405
  20 H :    0.111933
  21 H :    0.135673
  22 H :    0.135710
  23 H :    0.137878
  24 H :    0.123007
Sum of atomic charges:    0.0000000

LOEWDIN ATOMIC CHARGES
----------------------
   0 C :   -0.318101
   1 C :   -0.248292
   2 C :   -0.278061
   3 C :   -0.271789
   4 C :   -0.193380
   5 C :   -0.215285
   6 C :   -0.186037
   7 C :   -0.276220
   8 C :   -0.106629
   9 H :    0.118946
  10 H :    0.121500
  11 H :    0.121387
  12 H :    0.137188
  13 H :    0.141649
  14 H :    0.125424
  15 H :    0.125052
  16 H :    0.122385
  17 H :    0.139798
  18 H :    0.134712
  19 H :    0.136597
  20 H :    0.139035
  21 H :    0.130545
  22 H :    0.129313
  23 H :    0.130162
  24 H :    0.140104

  Mayer bond orders larger than 0.1
B(  0-C ,  1-C ) :   0.9143 B(  0-C ,  9-H ) :   0.9405 B(  0-C , 10-H ) :   0.9388
B(  0-C , 11-H ) :   0.9407 B(  1-C ,  2-C ) :   0.8812 B(  1-C , 12-H ) :   0.9306
B(  1-C , 13-H ) :   0.9280 B(  2-C ,  3-C ) :   0.8926 B(  2-C ,  4-C ) :   0.8645
B(  2-C ,  8-C ) :   0.8887 B(  3-C , 14-H ) :   0.9376 B(  3-C , 15-H ) :   0.9378
B(  3-C , 16-H ) :   0.9376 B(  4-C ,  5-C ) :   0.9685 B(  4-C , 17-H ) :   0.9302
B(  4-C , 18-H ) :   0.9343 B(  5-C ,  6-C ) :   0.9494 B(  5-C , 19-H ) :   0.9267
B(  5-C , 20-H ) :   0.9002 B(  6-C ,  7-C ) :   0.8884 B(  6-C ,  8-C ) :   1.7574
B(  7-C , 21-H ) :   0.9268 B(  7-C , 22-H ) :   0.9493 B(  7-C , 23-H ) :   0.9375
B(  8-C , 24-H ) :   0.9194

MP2 TOTAL ENERGY:     -351.735391609 Eh
FINAL SINGLE POINT ENERGY      -351.735391608979

DIPOLE MOMENT
-------------
                                X             Y             Z
Electronic contribution:     -0.01487      -1.83136      -2.09977
Nuclear contribution   :     -0.07122       1.75016       2.04439
                        -----------------------------------------
Total Dipole Moment    :     -0.08609      -0.08120      -0.05538
                        -----------------------------------------
Magnitude (a.u.)       :      0.13066
Magnitude (Debye)      :      0.33211

                             ****ORCA TERMINATED NORMALLY****
TOTAL RUN TIME: 0 days 0 hours 24 minutes 30 seconds 993 msec
