                         Program Version 3.0.3 - RELEASE   -
|  1> ! RI-MP2 RIJK def2-TZVP def2-TZVP/C def2-TZVP/JK TIGHTSCF
|  2> % maxcore 2000
|  3> % mp2 density relaxed end
|  4> *xyz 0 1
|  5>  O        0.1634107781     1.4049902770     0.0351201353
|  6>  C        0.1124712398    -0.0018153389     0.1357086669
|  7>  C       -1.3307174959    -0.4978222100     0.0002136453
|  8>  O       -1.8970032569    -0.0002185904    -1.2124999541
|  9>  C       -1.4465563112    -2.0196942255     0.0893458405
| 10>  C       -2.8461897114    -2.6670980421    -0.0100312901
| 11>  O       -2.4198680419    -3.4120249250    -1.1992445533
| 12>  C       -1.2015383378    -2.7815251846    -1.2018790907
| 13>  N       -0.2707367815    -2.7903823295    -2.0459178397
| 14>  H       -0.4164827555     1.6343202428    -0.7023087078
| 15>  H        0.7340983210    -0.4942998685    -0.6306168088
| 16>  H        0.5160722095    -0.2740846210     1.1175641434
| 17>  H       -1.9297709004    -0.0408092947     0.7967487602
| 18>  H       -1.4147991033    -0.4182163469    -1.9402242754
| 19>  H       -0.8534971981    -2.4041951787     0.9238038796
| 20>  H       -3.1413655222    -3.3448629047     0.7927275797
| 21>  H       -3.6539815626    -1.9778030785    -0.2645750835
| 22>  H       -0.4838227894    -3.4018231011    -2.8362177277
| 23> *
| 24>
| 25>                          ****END OF INPUT****

CARTESIAN COORDINATES (ANGSTROEM)
---------------------------------
  O      0.163411    1.404990    0.035120
  C      0.112471   -0.001815    0.135709
  C     -1.330717   -0.497822    0.000214
  O     -1.897003   -0.000219   -1.212500
  C     -1.446556   -2.019694    0.089346
  C     -2.846190   -2.667098   -0.010031
  O     -2.419868   -3.412025   -1.199245
  C     -1.201538   -2.781525   -1.201879
  N     -0.270737   -2.790382   -2.045918
  H     -0.416483    1.634320   -0.702309
  H      0.734098   -0.494300   -0.630617
  H      0.516072   -0.274085    1.117564
  H     -1.929771   -0.040809    0.796749
  H     -1.414799   -0.418216   -1.940224
  H     -0.853497   -2.404195    0.923804
  H     -3.141366   -3.344863    0.792728
  H     -3.653982   -1.977803   -0.264575
  H     -0.483823   -3.401823   -2.836218

 Total Charge           Charge          ....    0
 Multiplicity           Mult            ....    1
 Number of Electrons    NEL             ....   70
 Basis Dimension        Dim             ....  333

ORBITAL ENERGIES
----------------

  NO   OCC          E(Eh)            E(eV)
   0   2.0000     -20.605212      -560.6963
   1   2.0000     -20.577472      -559.9415
   2   2.0000     -20.554453      -559.3151
   3   2.0000     -15.553323      -423.2274
   4   2.0000     -11.356037      -309.0135
   5   2.0000     -11.312473      -307.8280
   6   2.0000     -11.304205      -307.6031
   7   2.0000     -11.280532      -306.9589
   8   2.0000     -11.270184      -306.6773
   9   2.0000      -1.449463       -39.4419
  10   2.0000      -1.391077       -37.8531
  11   2.0000      -1.354917       -36.8692
  12   2.0000      -1.212549       -32.9951
  13   2.0000      -1.085485       -29.5376
  14   2.0000      -0.984531       -26.7905
  15   2.0000      -0.911150       -24.7936
  16   2.0000      -0.857974       -23.3467
  17   2.0000      -0.756711       -20.5912
  18   2.0000      -0.727621       -19.7996
  19   2.0000      -0.716147       -19.4874
  20   2.0000      -0.705076       -19.1861
  21   2.0000      -0.680973       -18.5302
  22   2.0000      -0.653545       -17.7839
  23   2.0000      -0.635639       -17.2966
  24   2.0000      -0.613033       -16.6815
  25   2.0000      -0.584124       -15.8948
  26   2.0000      -0.548661       -14.9298
  27   2.0000      -0.540912       -14.7190
  28   2.0000      -0.532162       -14.4809
  29   2.0000      -0.518431       -14.1072
  30   2.0000      -0.503742       -13.7075
  31   2.0000      -0.476001       -12.9527
  32   2.0000      -0.450485       -12.2583
  33   2.0000      -0.435975       -11.8635
  34   2.0000      -0.418253       -11.3812
  35   0.0000       0.127448         3.4680
  36   0.0000       0.145143         3.9495
  37   0.0000       0.158816         4.3216
  38   0.0000       0.165611         4.5065
  39   0.0000       0.171447         4.6653

MULLIKEN ATOMIC CHARGES
-----------------------
   0 O :   -0.473819
   1 C :   -0.039804
   2 C :    0.027534
   3 O :   -0.493948
   4 C :   -0.076014
   5 C :   -0.014321
   6 O :   -0.252369
   7 C :    0.072652
   8 N :   -0.386771
   9 H :    0.327031
  10 H :    0.134595
  11 H :    0.104292
  12 H :    0.114438
  13 H :    0.334001
  14 H :    0.134653
  15 H :    0.123607
  16 H :    0.129707
  17 H :    0.234536
Sum of atomic charges:    0.0000000

LOEWDIN ATOMIC CHARGES
----------------------
   0 O :   -0.043639
   1 C :   -0.338047
   2 C :   -0.336552
   3 O :   -0.016341
   4 C :   -0.186830
   5 C :   -0.201279
   6 O :    0.220739
   7 C :   -0.400289
   8 N :   -0.063738
   9 H :    0.176811
  10 H :    0.127195
  11 H :    0.130676
  12 H :    0.151749
  13 H :    0.182634
  14 H :    0.167947
  15 H :    0.122764
  16 H :    0.131037
  17 H :    0.175167

  Mayer bond orders larger than 0.1
B(  0-O ,  1-C ) :   0.9377 B(  0-O ,  9-H ) :   0.8266 B(  1-C ,  2-C ) :   0.9570
B(  1-C , 10-H ) :   0.9104 B(  1-C , 11-H ) :   0.9233 B(  2-C ,  3-O ) :   0.8815
B(  2-C ,  4-C ) :   0.9024 B(  2-C , 12-H ) :   0.9220 B(  3-O , 13-H ) :   0.8240
B(  4-C ,  5-C ) :   0.9418 B(  4-C ,  7-C ) :   0.9035 B(  4-C , 14-H ) :   0.8961
B(  5-C ,  6-O ) :   0.8839 B(  5-C , 15-H ) :   0.9201 B(  5-C , 16-H ) :   0.9080
B(  6-O ,  7-C ) :   1.0944 B(  7-C ,  8-N ) :   1.9765 B(  8-N , 17-H ) :   0.8419

MP2 TOTAL ENERGY:     -475.468766160 Eh
FINAL SINGLE POINT ENERGY      -475.468766159745

DIPOLE MOMENT
-------------
                                X             Y             Z
Electronic contribution:     -1.03021      -2.10392      -2.28464
Nuclear contribution   :      0.41828       1.40643       2.64571
                        -----------------------------------------
Total Dipole Moment    :     -0.61193      -0.69749       0.36107
                        -----------------------------------------
Magnitude (a.u.)       :      0.99565
Magnitude (Debye)      :      2.53074

                             ****ORCA TERMINATED NORMALLY****
TOTAL RUN TIME: 0 days 0 hours 15 minutes 14 seconds 555 msec
