                         Program Version 3.0.3 - RELEASE   -
|  1> ! RI-MP2 RIJK def2-TZVP def2-TZVP/C def2-TZVP/JK TIGHTSCF
|  2> % maxcore 2000
|  3> % mp2 density relaxed end
|  4> *xyz 0 1
|  5>  O       -0.0459955676     1.4351993472     0.0565258151
|  6>  C        0.0188916291     0.0254263570     0.0279470251
|  7>  C        0.2803200332    -0.6222520384    -1.3849830433
|  8>  C       -1.0279213643    -1.4497910129    -1.2515722662
|  9>  C       -0.9380134775    -2.7676061029    -0.4352623034
| 10>  C       -1.1178421324    -1.9639944090     0.9094308018
| 11>  C        0.1662415691    -1.6811909909     1.6455607441
| 12>  C        0.7918192690    -0.6079712802     1.1609969093
| 13>  C       -1.3688315129    -0.6758485694     0.0630615194
| 14>  H        0.8424874727     1.7802972076    -0.0847358923
| 15>  H        0.1887968822     0.1391009306    -2.1652411387
| 16>  H        1.2174749996    -1.1702706964    -1.5196494695
| 17>  H       -1.6789668680    -1.4645592006    -2.1258286332
| 18>  H       -1.7899587681    -3.4233142819    -0.6352326031
| 19>  H       -0.0187874076    -3.3528215621    -0.5293588669
| 20>  H       -1.9264920775    -2.3314149491     1.5452044748
| 21>  H        0.5505928271    -2.3313384687     2.4247548495
| 22>  H        1.7624795799    -0.2394873052     1.4788243179
| 23>  H       -2.2509858460    -0.0586801147     0.2254360297
| 24> *
| 25>
| 26>                          ****END OF INPUT****

CARTESIAN COORDINATES (ANGSTROEM)
---------------------------------
  O     -0.045996    1.435199    0.056526
  C      0.018892    0.025426    0.027947
  C      0.280320   -0.622252   -1.384983
  C     -1.027921   -1.449791   -1.251572
  C     -0.938013   -2.767606   -0.435262
  C     -1.117842   -1.963994    0.909431
  C      0.166242   -1.681191    1.645561
  C      0.791819   -0.607971    1.160997
  C     -1.368832   -0.675849    0.063062
  H      0.842487    1.780297   -0.084736
  H      0.188797    0.139101   -2.165241
  H      1.217475   -1.170271   -1.519649
  H     -1.678967   -1.464559   -2.125829
  H     -1.789959   -3.423314   -0.635233
  H     -0.018787   -3.352822   -0.529359
  H     -1.926492   -2.331415    1.545204
  H      0.550593   -2.331338    2.424755
  H      1.762480   -0.239487    1.478824
  H     -2.250986   -0.058680    0.225436

 Total Charge           Charge          ....    0
 Multiplicity           Mult            ....    1
 Number of Electrons    NEL             ....   66
 Basis Dimension        Dim             ....  339

ORBITAL ENERGIES
----------------

  NO   OCC          E(Eh)            E(eV)
   0   2.0000     -20.554879      -559.3267
   1   2.0000     -11.282889      -307.0230
   2   2.0000     -11.229464      -305.5692
   3   2.0000     -11.226442      -305.4870
   4   2.0000     -11.224558      -305.4358
   5   2.0000     -11.221559      -305.3542
   6   2.0000     -11.221416      -305.3503
   7   2.0000     -11.219931      -305.3098
   8   2.0000     -11.219479      -305.2975
   9   2.0000      -1.363257       -37.0961
  10   2.0000      -1.181046       -32.1379
  11   2.0000      -1.048009       -28.5178
  12   2.0000      -1.008070       -27.4310
  13   2.0000      -0.905466       -24.6390
  14   2.0000      -0.853971       -23.2377
  15   2.0000      -0.826059       -22.4782
  16   2.0000      -0.742944       -20.2165
  17   2.0000      -0.701740       -19.0953
  18   2.0000      -0.698147       -18.9976
  19   2.0000      -0.648481       -17.6461
  20   2.0000      -0.629940       -17.1415
  21   2.0000      -0.602869       -16.4049
  22   2.0000      -0.593151       -16.1405
  23   2.0000      -0.567923       -15.4540
  24   2.0000      -0.540267       -14.7014
  25   2.0000      -0.519283       -14.1304
  26   2.0000      -0.495355       -13.4793
  27   2.0000      -0.471809       -12.8386
  28   2.0000      -0.445040       -12.1102
  29   2.0000      -0.429077       -11.6758
  30   2.0000      -0.409186       -11.1345
  31   2.0000      -0.403592       -10.9823
  32   2.0000      -0.342392        -9.3170
  33   0.0000       0.141569         3.8523
  34   0.0000       0.143778         3.9124
  35   0.0000       0.153307         4.1717
  36   0.0000       0.166652         4.5348
  37   0.0000       0.179019         4.8713

MULLIKEN ATOMIC CHARGES
-----------------------
   0 O :   -0.460065
   1 C :    0.256870
   2 C :   -0.257259
   3 C :   -0.120182
   4 C :   -0.242808
   5 C :   -0.070579
   6 C :   -0.199077
   7 C :   -0.260663
   8 C :   -0.019001
   9 H :    0.314618
  10 H :    0.115281
  11 H :    0.104893
  12 H :    0.114084
  13 H :    0.117861
  14 H :    0.106182
  15 H :    0.116071
  16 H :    0.126269
  17 H :    0.121635
  18 H :    0.135867
Sum of atomic charges:   -0.0000000

LOEWDIN ATOMIC CHARGES
----------------------
   0 O :    0.009470
   1 C :   -0.316547
   2 C :   -0.181575
   3 C :   -0.181022
   4 C :   -0.190292
   5 C :   -0.176783
   6 C :   -0.130959
   7 C :   -0.125283
   8 C :   -0.093849
   9 H :    0.176271
  10 H :    0.137912
  11 H :    0.126223
  12 H :    0.131405
  13 H :    0.133592
  14 H :    0.126903
  15 H :    0.140889
  16 H :    0.137541
  17 H :    0.136803
  18 H :    0.139302

  Mayer bond orders larger than 0.1
B(  0-O ,  1-C ) :   0.9990 B(  0-O ,  9-H ) :   0.8403 B(  1-C ,  2-C ) :   0.9304
B(  1-C ,  7-C ) :   0.9703 B(  1-C ,  8-C ) :   0.9069 B(  2-C ,  3-C ) :   0.9207
B(  2-C , 10-H ) :   0.9103 B(  2-C , 11-H ) :   0.8975 B(  3-C ,  4-C ) :   0.9237
B(  3-C ,  8-C ) :   0.9327 B(  3-C , 12-H ) :   0.9185 B(  4-C ,  5-C ) :   0.8963
B(  4-C , 13-H ) :   0.9193 B(  4-C , 14-H ) :   0.9105 B(  5-C ,  6-C ) :   0.9394
B(  5-C ,  8-C ) :   0.9050 B(  5-C , 15-H ) :   0.9156 B(  6-C ,  7-C ) :   1.7732
B(  6-C , 16-H ) :   0.9201 B(  7-C , 17-H ) :   0.9137 B(  8-C , 18-H ) :   0.8910

MP2 TOTAL ENERGY:     -385.191795606 Eh
FINAL SINGLE POINT ENERGY      -385.191795605760

DIPOLE MOMENT
-------------
                                X             Y             Z
Electronic contribution:      0.07816       3.11067       1.78824
Nuclear contribution   :      0.33699      -3.46095      -1.94061
                        -----------------------------------------
Total Dipole Moment    :      0.41515      -0.35028      -0.15237
                        -----------------------------------------
Magnitude (a.u.)       :      0.56415
Magnitude (Debye)      :      1.43395

                             ****ORCA TERMINATED NORMALLY****
TOTAL RUN TIME: 0 days 0 hours 18 minutes 40 seconds 366 msec
