                         Program Version 3.0.3 - RELEASE   -
|  1> ! RI-MP2 RIJK def2-TZVP def2-TZVP/C def2-TZVP/JK TIGHTSCF
|  2> % maxcore 2000
|  3> % mp2 density relaxed end
|  4> *xyz 0 1
|  5>  O       -0.1389928181     0.6141135688    -1.0471252868
|  6>  C       -0.0230365873     1.3472714449    -0.0887478426
|  7>  N        1.1083395391     1.4956347243     0.6538331955
|  8>  C        2.3476050342     0.7969091114     0.3601880289
|  9>  C        3.4113379602     1.7589248887    -0.1268147794
| 10>  N        4.0867724291     2.5610382768     0.8867081177
| 11>  C        4.8839145941     1.5807975590     0.1181709877
| 12>  C        5.4428246611     0.4393394962     0.8993459122
| 13>  O        6.3819003501    -0.2191670431     0.5308882233
| 14>  H       -0.8475467692     1.9818038255     0.2918610630
| 15>  H        1.1079881396     2.1616044234     1.4104330462
| 16>  H        2.6908987698     0.2677290657     1.2537748575
| 17>  H        2.1165892448     0.0606259046    -0.4129314186
| 18>  H        3.1635270199     2.2432988124    -1.0703064923
| 19>  H        4.2784516239     3.5016394572     0.5538771076
| 20>  H        5.5454976911     1.9319355003    -0.6699651933
| 21>  H        4.9324447775     0.2494657439     1.8682915335
| 22> *
| 23>
| 24>                          ****END OF INPUT****

CARTESIAN COORDINATES (ANGSTROEM)
---------------------------------
  O     -0.138993    0.614114   -1.047125
  C     -0.023037    1.347271   -0.088748
  N      1.108340    1.495635    0.653833
  C      2.347605    0.796909    0.360188
  C      3.411338    1.758925   -0.126815
  N      4.086772    2.561038    0.886708
  C      4.883915    1.580798    0.118171
  C      5.442825    0.439339    0.899346
  O      6.381900   -0.219167    0.530888
  H     -0.847547    1.981804    0.291861
  H      1.107988    2.161604    1.410433
  H      2.690899    0.267729    1.253775
  H      2.116589    0.060626   -0.412931
  H      3.163527    2.243299   -1.070306
  H      4.278452    3.501639    0.553877
  H      5.545498    1.931936   -0.669965
  H      4.932445    0.249466    1.868292

 Total Charge           Charge          ....    0
 Multiplicity           Mult            ....    1
 Number of Electrons    NEL             ....   68
 Basis Dimension        Dim             ....  327

ORBITAL ENERGIES
----------------

  NO   OCC          E(Eh)            E(eV)
   0   2.0000     -20.565994      -559.6292
   1   2.0000     -20.531467      -558.6896
   2   2.0000     -15.600788      -424.5190
   3   2.0000     -15.594891      -424.3586
   4   2.0000     -11.358770      -309.0879
   5   2.0000     -11.341757      -308.6249
   6   2.0000     -11.297585      -307.4229
   7   2.0000     -11.290891      -307.2408
   8   2.0000     -11.285646      -307.0980
   9   2.0000      -1.405214       -38.2378
  10   2.0000      -1.392748       -37.8986
  11   2.0000      -1.302008       -35.4295
  12   2.0000      -1.245060       -33.8798
  13   2.0000      -1.014517       -27.6064
  14   2.0000      -0.966106       -26.2891
  15   2.0000      -0.872706       -23.7475
  16   2.0000      -0.817478       -22.2447
  17   2.0000      -0.794907       -21.6305
  18   2.0000      -0.752776       -20.4841
  19   2.0000      -0.736389       -20.0382
  20   2.0000      -0.676649       -18.4126
  21   2.0000      -0.659753       -17.9528
  22   2.0000      -0.650711       -17.7067
  23   2.0000      -0.613794       -16.7022
  24   2.0000      -0.597152       -16.2493
  25   2.0000      -0.581123       -15.8132
  26   2.0000      -0.561081       -15.2678
  27   2.0000      -0.545265       -14.8374
  28   2.0000      -0.508093       -13.8259
  29   2.0000      -0.488276       -13.2867
  30   2.0000      -0.453472       -12.3396
  31   2.0000      -0.440983       -11.9998
  32   2.0000      -0.423536       -11.5250
  33   2.0000      -0.401982       -10.9385
  34   0.0000       0.112877         3.0715
  35   0.0000       0.117832         3.2064
  36   0.0000       0.131133         3.5683
  37   0.0000       0.161413         4.3923
  38   0.0000       0.167678         4.5627

MULLIKEN ATOMIC CHARGES
-----------------------
   0 O :   -0.364766
   1 C :    0.197931
   2 N :   -0.330426
   3 C :   -0.120109
   4 C :   -0.047678
   5 N :   -0.407073
   6 C :    0.018112
   7 C :    0.033784
   8 O :   -0.258077
   9 H :    0.084280
  10 H :    0.248537
  11 H :    0.143323
  12 H :    0.168750
  13 H :    0.152431
  14 H :    0.234700
  15 H :    0.147066
  16 H :    0.099216
Sum of atomic charges:   -0.0000000

LOEWDIN ATOMIC CHARGES
----------------------
   0 O :    0.056062
   1 C :   -0.436797
   2 N :    0.087801
   3 C :   -0.256283
   4 C :   -0.254516
   5 N :    0.013319
   6 C :   -0.242710
   7 C :   -0.286922
   8 O :    0.139992
   9 H :    0.110897
  10 H :    0.187512
  11 H :    0.139455
  12 H :    0.155908
  13 H :    0.147591
  14 H :    0.173349
  15 H :    0.149135
  16 H :    0.116207

  Mayer bond orders larger than 0.1
B(  0-O ,  1-C ) :   1.8827 B(  1-C ,  2-N ) :   1.1554 B(  1-C ,  9-H ) :   0.9300
B(  2-N ,  3-C ) :   0.8082 B(  2-N , 10-H ) :   0.8701 B(  3-C ,  4-C ) :   0.9307
B(  3-C , 11-H ) :   0.9296 B(  3-C , 12-H ) :   0.9196 B(  4-C ,  5-N ) :   0.8675
B(  4-C ,  6-C ) :   0.8444 B(  4-C , 13-H ) :   0.9123 B(  5-N ,  6-C ) :   0.8692
B(  5-N , 14-H ) :   0.8634 B(  6-C ,  7-C ) :   0.8476 B(  6-C , 15-H ) :   0.9154
B(  6-C , 16-H ) :  -0.1003 B(  7-C ,  8-O ) :   1.9950 B(  7-C , 16-H ) :   0.9603

MP2 TOTAL ENERGY:     -454.408113716 Eh
FINAL SINGLE POINT ENERGY      -454.408113715935

DIPOLE MOMENT
-------------
                                X             Y             Z
Electronic contribution:      1.09041      -1.52890      -0.58196
Nuclear contribution   :     -1.20692       3.01538       1.22859
                        -----------------------------------------
Total Dipole Moment    :     -0.11651       1.48647       0.64664
                        -----------------------------------------
Magnitude (a.u.)       :      1.62521
Magnitude (Debye)      :      4.13096

                             ****ORCA TERMINATED NORMALLY****
TOTAL RUN TIME: 0 days 0 hours 13 minutes 55 seconds 448 msec
