                         Program Version 3.0.3 - RELEASE   -
|  1> ! RI-MP2 RIJK def2-TZVP def2-TZVP/C def2-TZVP/JK TIGHTSCF
|  2> % maxcore 2000
|  3> % mp2 density relaxed end
|  4> *xyz 0 1
|  5>  C       -0.3637403649     1.1810316654     0.3545001854
|  6>  C       -0.0544976010    -0.2424660809    -0.1419979591
|  7>  C        0.8186767045    -0.2853467552    -1.3736072024
|  8>  C        2.0407559738    -0.8241710193    -1.3460513974
|  9>  C        2.9870964730    -0.8910635064    -2.5142225719
| 10>  C        2.3092727243    -0.7102443423    -3.8608971404
| 11>  C        1.1184282005    -1.5658565000    -4.2213405091
| 12>  C        0.9306415585    -0.0996371609    -3.9157509415
| 13>  C        0.2471991160     0.3338444463    -2.6304890234
| 14>  H        0.5594464668     1.7198605387     0.5915661376
| 15>  H       -0.9070399630     1.7626828620    -0.3966531966
| 16>  H       -0.9805348488     1.1509957015     1.2581892561
| 17>  H        0.4290959032    -0.8074485200     0.6626323257
| 18>  H       -1.0057455801    -0.7519891665    -0.3543555391
| 19>  H        2.4082117699    -1.2400941748    -0.4095253546
| 20>  H        3.7608935656    -0.1171404491    -2.3942711109
| 21>  H        3.5309199931    -1.8460719343    -2.4920853452
| 22>  H        2.9848863771    -0.4636835924    -4.6747767726
| 23>  H        1.0117497264    -1.8955713740    -5.2490583303
| 24>  H        0.7739440442    -2.2818261234    -3.4816844083
| 25>  H        0.7151427056     0.5385162576    -4.7679966008
| 26>  H       -0.8294325469     0.1137911102    -2.6867191559
| 27>  H        0.3121227622     1.4287466977    -2.5487489352
| 28> *
| 29>
| 30>                          ****END OF INPUT****

CARTESIAN COORDINATES (ANGSTROEM)
---------------------------------
  C     -0.363740    1.181032    0.354500
  C     -0.054498   -0.242466   -0.141998
  C      0.818677   -0.285347   -1.373607
  C      2.040756   -0.824171   -1.346051
  C      2.987096   -0.891064   -2.514223
  C      2.309273   -0.710244   -3.860897
  C      1.118428   -1.565856   -4.221341
  C      0.930642   -0.099637   -3.915751
  C      0.247199    0.333844   -2.630489
  H      0.559446    1.719861    0.591566
  H     -0.907040    1.762683   -0.396653
  H     -0.980535    1.150996    1.258189
  H      0.429096   -0.807449    0.662632
  H     -1.005746   -0.751989   -0.354356
  H      2.408212   -1.240094   -0.409525
  H      3.760894   -0.117140   -2.394271
  H      3.530920   -1.846072   -2.492085
  H      2.984886   -0.463684   -4.674777
  H      1.011750   -1.895571   -5.249058
  H      0.773944   -2.281826   -3.481684
  H      0.715143    0.538516   -4.767997
  H     -0.829433    0.113791   -2.686719
  H      0.312123    1.428747   -2.548749

 Total Charge           Charge          ....    0
 Multiplicity           Mult            ....    1
 Number of Electrons    NEL             ....   68
 Basis Dimension        Dim             ....  363

ORBITAL ENERGIES
----------------

  NO   OCC          E(Eh)            E(eV)
   0   2.0000     -11.224123      -305.4239
   1   2.0000     -11.223562      -305.4087
   2   2.0000     -11.223165      -305.3978
   3   2.0000     -11.222365      -305.3761
   4   2.0000     -11.221191      -305.3441
   5   2.0000     -11.220885      -305.3358
   6   2.0000     -11.212567      -305.1095
   7   2.0000     -11.212076      -305.0961
   8   2.0000     -11.211887      -305.0910
   9   2.0000      -1.159164       -31.5425
  10   2.0000      -1.083228       -29.4761
  11   2.0000      -1.014296       -27.6004
  12   2.0000      -0.984769       -26.7969
  13   2.0000      -0.902698       -24.5637
  14   2.0000      -0.840121       -22.8609
  15   2.0000      -0.792294       -21.5594
  16   2.0000      -0.776423       -21.1275
  17   2.0000      -0.680219       -18.5097
  18   2.0000      -0.655607       -17.8400
  19   2.0000      -0.629979       -17.1426
  20   2.0000      -0.606829       -16.5127
  21   2.0000      -0.593406       -16.1474
  22   2.0000      -0.573511       -15.6060
  23   2.0000      -0.563024       -15.3207
  24   2.0000      -0.542366       -14.7585
  25   2.0000      -0.528568       -14.3831
  26   2.0000      -0.509452       -13.8629
  27   2.0000      -0.508048       -13.8247
  28   2.0000      -0.488188       -13.2843
  29   2.0000      -0.474681       -12.9167
  30   2.0000      -0.438722       -11.9382
  31   2.0000      -0.396795       -10.7973
  32   2.0000      -0.392851       -10.6900
  33   2.0000      -0.330006        -8.9799
  34   0.0000       0.134843         3.6693
  35   0.0000       0.155622         4.2347
  36   0.0000       0.157548         4.2871
  37   0.0000       0.171719         4.6727
  38   0.0000       0.172345         4.6897

MULLIKEN ATOMIC CHARGES
-----------------------
   0 C :   -0.399375
   1 C :   -0.232596
   2 C :    0.046602
   3 C :   -0.239543
   4 C :   -0.138997
   5 C :   -0.106181
   6 C :   -0.312246
   7 C :   -0.062807
   8 C :   -0.246444
   9 H :    0.127954
  10 H :    0.127506
  11 H :    0.130931
  12 H :    0.112558
  13 H :    0.113174
  14 H :    0.109308
  15 H :    0.117719
  16 H :    0.115677
  17 H :    0.114608
  18 H :    0.128490
  19 H :    0.136237
  20 H :    0.114187
  21 H :    0.119833
  22 H :    0.123406
Sum of atomic charges:   -0.0000000

LOEWDIN ATOMIC CHARGES
----------------------
   0 C :   -0.312421
   1 C :   -0.254243
   2 C :   -0.173818
   3 C :   -0.147965
   4 C :   -0.234251
   5 C :   -0.202495
   6 C :   -0.206959
   7 C :   -0.200898
   8 C :   -0.204367
   9 H :    0.121945
  10 H :    0.119584
  11 H :    0.120112
  12 H :    0.140397
  13 H :    0.140618
  14 H :    0.142891
  15 H :    0.148944
  16 H :    0.144784
  17 H :    0.145188
  18 H :    0.129620
  19 H :    0.138711
  20 H :    0.145679
  21 H :    0.147702
  22 H :    0.151245

  Mayer bond orders larger than 0.1
B(  0-C ,  1-C ) :   0.9109 B(  0-C ,  9-H ) :   0.9372 B(  0-C , 10-H ) :   0.9383
B(  0-C , 11-H ) :   0.9367 B(  1-C ,  2-C ) :   0.8991 B(  1-C , 12-H ) :   0.9406
B(  1-C , 13-H ) :   0.9311 B(  2-C ,  3-C ) :   1.7480 B(  2-C ,  8-C ) :   0.9606
B(  3-C ,  4-C ) :   0.9560 B(  3-C , 14-H ) :   0.9276 B(  4-C ,  5-C ) :   0.9515
B(  4-C , 15-H ) :   0.9069 B(  4-C , 16-H ) :   0.9251 B(  5-C ,  6-C ) :   0.8810
B(  5-C ,  7-C ) :   0.8600 B(  5-C , 17-H ) :   0.9314 B(  6-C ,  7-C ) :   0.8782
B(  6-C , 18-H ) :   0.9293 B(  6-C , 19-H ) :   0.9284 B(  7-C ,  8-C ) :   0.9478
B(  7-C , 20-H ) :   0.9336 B(  8-C , 21-H ) :   0.9215 B(  8-C , 22-H ) :   0.9025

MP2 TOTAL ENERGY:     -350.512742220 Eh
FINAL SINGLE POINT ENERGY      -350.512742219954

DIPOLE MOMENT
-------------
                                X             Y             Z
Electronic contribution:      2.35160      -1.67842      -3.02458
Nuclear contribution   :     -2.36051       1.77509       3.00648
                        -----------------------------------------
Total Dipole Moment    :     -0.00890       0.09667      -0.01810
                        -----------------------------------------
Magnitude (a.u.)       :      0.09875
Magnitude (Debye)      :      0.25101

                             ****ORCA TERMINATED NORMALLY****
TOTAL RUN TIME: 0 days 0 hours 22 minutes 18 seconds 983 msec
