                         Program Version 3.0.3 - RELEASE   -
|  1> ! RI-MP2 RIJK def2-TZVP def2-TZVP/C def2-TZVP/JK TIGHTSCF
|  2> % maxcore 2000
|  3> % mp2 density relaxed end
|  4> *xyz 0 1
|  5>  C       -0.0365767599     1.5538943711     0.0036283632
|  6>  C       -0.0250632304     0.0147345277     0.0045078098
|  7>  C       -1.4592555609    -0.5441947652     0.0014800986
|  8>  C        0.7653250675    -0.5202939859    -1.1897299648
|  9>  O        0.5121671912    -0.3475713617    -2.3520630379
| 10>  C        1.9630529512    -1.3342423815    -0.6726468293
| 11>  N        1.8206157467    -1.2388008344     0.7626276833
| 12>  C        0.7513480654    -0.5133075870     1.2192421937
| 13>  O        0.4750058824    -0.3243198726     2.3835362864
| 14>  H        0.9771705867     1.9665941458    -0.0050276196
| 15>  H       -0.5634429647     1.9209280529    -0.8810418390
| 16>  H       -0.5408066230     1.9127888959     0.9043907414
| 17>  H       -1.9941219792    -0.1896844034    -0.8835001536
| 18>  H       -1.4675038709    -1.6386910285    -0.0081961064
| 19>  H       -1.9803571970    -0.2094076957     0.9019248770
| 20>  H        1.9023792744    -2.3639475561    -1.0481648980
| 21>  H        2.8980755861    -0.8976455993    -1.0469501050
| 22>  H        2.4545062045    -1.6682129223     1.4183208901
| 23> *
| 24>
| 25>                          ****END OF INPUT****

CARTESIAN COORDINATES (ANGSTROEM)
---------------------------------
  C     -0.036577    1.553894    0.003628
  C     -0.025063    0.014735    0.004508
  C     -1.459256   -0.544195    0.001480
  C      0.765325   -0.520294   -1.189730
  O      0.512167   -0.347571   -2.352063
  C      1.963053   -1.334242   -0.672647
  N      1.820616   -1.238801    0.762628
  C      0.751348   -0.513308    1.219242
  O      0.475006   -0.324320    2.383536
  H      0.977171    1.966594   -0.005028
  H     -0.563443    1.920928   -0.881042
  H     -0.540807    1.912789    0.904391
  H     -1.994122   -0.189684   -0.883500
  H     -1.467504   -1.638691   -0.008196
  H     -1.980357   -0.209408    0.901925
  H      1.902379   -2.363948   -1.048165
  H      2.898076   -0.897646   -1.046950
  H      2.454506   -1.668213    1.418321

 Total Charge           Charge          ....    0
 Multiplicity           Mult            ....    1
 Number of Electrons    NEL             ....   68
 Basis Dimension        Dim             ....  333

ORBITAL ENERGIES
----------------

  NO   OCC          E(Eh)            E(eV)
   0   2.0000     -20.568068      -559.6856
   1   2.0000     -20.529287      -558.6303
   2   2.0000     -15.601491      -424.5381
   3   2.0000     -11.358798      -309.0886
   4   2.0000     -11.350801      -308.8710
   5   2.0000     -11.297307      -307.4154
   6   2.0000     -11.268161      -306.6223
   7   2.0000     -11.237265      -305.7815
   8   2.0000     -11.237225      -305.7804
   9   2.0000      -1.414564       -38.4922
  10   2.0000      -1.393956       -37.9315
  11   2.0000      -1.266288       -34.4574
  12   2.0000      -1.108848       -30.1733
  13   2.0000      -0.997464       -27.1424
  14   2.0000      -0.953577       -25.9482
  15   2.0000      -0.916697       -24.9446
  16   2.0000      -0.793739       -21.5987
  17   2.0000      -0.758695       -20.6451
  18   2.0000      -0.708850       -19.2888
  19   2.0000      -0.672224       -18.2921
  20   2.0000      -0.665158       -18.0999
  21   2.0000      -0.637721       -17.3533
  22   2.0000      -0.629500       -17.1296
  23   2.0000      -0.609670       -16.5900
  24   2.0000      -0.591838       -16.1047
  25   2.0000      -0.577890       -15.7252
  26   2.0000      -0.552909       -15.0454
  27   2.0000      -0.540144       -14.6981
  28   2.0000      -0.535670       -14.5763
  29   2.0000      -0.527771       -14.3614
  30   2.0000      -0.487972       -13.2784
  31   2.0000      -0.438134       -11.9222
  32   2.0000      -0.409793       -11.1510
  33   2.0000      -0.409703       -11.1486
  34   0.0000       0.115725         3.1490
  35   0.0000       0.119590         3.2542
  36   0.0000       0.145311         3.9541
  37   0.0000       0.163684         4.4541
  38   0.0000       0.167358         4.5540

MULLIKEN ATOMIC CHARGES
-----------------------
   0 C :   -0.417973
   1 C :    0.166098
   2 C :   -0.418065
   3 C :    0.081904
   4 O :   -0.261846
   5 C :   -0.080985
   6 N :   -0.301687
   7 C :    0.150374
   8 O :   -0.333004
   9 H :    0.133318
  10 H :    0.151789
  11 H :    0.158322
  12 H :    0.151800
  13 H :    0.133334
  14 H :    0.158310
  15 H :    0.142719
  16 H :    0.142738
  17 H :    0.242855
Sum of atomic charges:    0.0000000

LOEWDIN ATOMIC CHARGES
----------------------
   0 C :   -0.244458
   1 C :   -0.262341
   2 C :   -0.244458
   3 C :   -0.269361
   4 O :    0.175586
   5 C :   -0.238239
   6 N :    0.124646
   7 C :   -0.414351
   8 O :    0.096637
   9 H :    0.130321
  10 H :    0.134050
  11 H :    0.137555
  12 H :    0.134050
  13 H :    0.130317
  14 H :    0.137545
  15 H :    0.143385
  16 H :    0.143400
  17 H :    0.185718

  Mayer bond orders larger than 0.1
B(  0-C ,  1-C ) :   0.8926 B(  0-C ,  9-H ) :   0.9243 B(  0-C , 10-H ) :   0.9337
B(  0-C , 11-H ) :   0.9319 B(  1-C ,  2-C ) :   0.8924 B(  1-C ,  3-C ) :   0.8177
B(  1-C ,  5-C ) :  -0.1002 B(  1-C ,  7-C ) :   0.8373 B(  2-C , 12-H ) :   0.9337
B(  2-C , 13-H ) :   0.9243 B(  2-C , 14-H ) :   0.9320 B(  3-C ,  4-O ) :   2.0488
B(  3-C ,  5-C ) :   0.9333 B(  5-C ,  6-N ) :   0.8874 B(  5-C , 15-H ) :   0.9103
B(  5-C , 16-H ) :   0.9103 B(  6-N ,  7-C ) :   1.1717 B(  6-N , 17-H ) :   0.8586
B(  7-C ,  8-O ) :   2.0275

MP2 TOTAL ENERGY:     -438.434559724 Eh
FINAL SINGLE POINT ENERGY      -438.434559724447

DIPOLE MOMENT
-------------
                                X             Y             Z
Electronic contribution:      3.48810      -2.36412       0.50492
Nuclear contribution   :     -2.82980       1.91660      -0.79843
                        -----------------------------------------
Total Dipole Moment    :      0.65830      -0.44752      -0.29351
                        -----------------------------------------
Magnitude (a.u.)       :      0.84840
Magnitude (Debye)      :      2.15645

                             ****ORCA TERMINATED NORMALLY****
TOTAL RUN TIME: 0 days 0 hours 18 minutes 56 seconds 250 msec
