                         Program Version 3.0.3 - RELEASE   -
|  1> ! RI-MP2 RIJK def2-TZVP def2-TZVP/C def2-TZVP/JK TIGHTSCF
|  2> % maxcore 2000
|  3> % mp2 density relaxed end
|  4> *xyz 0 1
|  5>  C       -0.0553693528     1.5329959611     0.0383272554
|  6>  C        0.0030456056     0.0187150951     0.0148297032
|  7>  C        1.0226565192    -0.7031719283    -0.9280905053
|  8>  C        1.0581278143    -1.8253107895     0.1391238502
|  9>  C        0.6932876031    -0.7487552921     1.1914189332
| 10>  C       -0.1398615554    -2.7375248123    -0.0666657942
| 11>  O       -1.3617662043    -1.9979790108    -0.2403851842
| 12>  C       -1.3459990794    -0.6292728658    -0.2087617418
| 13>  N       -2.4092859288     0.0407322452    -0.3597586639
| 14>  H        0.9464584372     1.9439427607     0.2026446918
| 15>  H       -0.4458448416     1.9246140542    -0.9044195234
| 16>  H       -0.7156222406     1.8872223277     0.8340698681
| 17>  H        0.6985757615    -0.9589024693    -1.9408968343
| 18>  H        1.9635695280    -0.1491806539    -0.9723029110
| 19>  H        1.9690755224    -2.4146808018     0.2680014338
| 20>  H        1.5728294882    -0.2032636087     1.5421644635
| 21>  H        0.0789355678    -1.0446542982     2.0465305723
| 22>  H       -0.0117388860    -3.3618266849    -0.9595746635
| 23>  H       -0.2843788699    -3.3998288426     0.7958372861
| 24>  H       -3.2031643287    -0.5888054757    -0.4966568460
| 25> *
| 26>
| 27>                          ****END OF INPUT****

CARTESIAN COORDINATES (ANGSTROEM)
---------------------------------
  C     -0.055369    1.532996    0.038327
  C      0.003046    0.018715    0.014830
  C      1.022657   -0.703172   -0.928091
  C      1.058128   -1.825311    0.139124
  C      0.693288   -0.748755    1.191419
  C     -0.139862   -2.737525   -0.066666
  O     -1.361766   -1.997979   -0.240385
  C     -1.345999   -0.629273   -0.208762
  N     -2.409286    0.040732   -0.359759
  H      0.946458    1.943943    0.202645
  H     -0.445845    1.924614   -0.904420
  H     -0.715622    1.887222    0.834070
  H      0.698576   -0.958902   -1.940897
  H      1.963570   -0.149181   -0.972303
  H      1.969076   -2.414681    0.268001
  H      1.572829   -0.203264    1.542164
  H      0.078936   -1.044654    2.046531
  H     -0.011739   -3.361827   -0.959575
  H     -0.284379   -3.399829    0.795837
  H     -3.203164   -0.588805   -0.496657

 Total Charge           Charge          ....    0
 Multiplicity           Mult            ....    1
 Number of Electrons    NEL             ....   68
 Basis Dimension        Dim             ....  345

ORBITAL ENERGIES
----------------

  NO   OCC          E(Eh)            E(eV)
   0   2.0000     -20.585241      -560.1529
   1   2.0000     -15.521048      -422.3492
   2   2.0000     -11.328857      -308.2739
   3   2.0000     -11.293942      -307.3238
   4   2.0000     -11.253020      -306.2103
   5   2.0000     -11.247819      -306.0687
   6   2.0000     -11.237037      -305.7753
   7   2.0000     -11.237014      -305.7747
   8   2.0000     -11.210401      -305.0505
   9   2.0000      -1.417384       -38.5690
  10   2.0000      -1.189428       -32.3660
  11   2.0000      -1.164812       -31.6961
  12   2.0000      -1.016644       -27.6643
  13   2.0000      -0.951918       -25.9030
  14   2.0000      -0.916858       -24.9490
  15   2.0000      -0.853452       -23.2236
  16   2.0000      -0.817346       -22.2411
  17   2.0000      -0.708150       -19.2697
  18   2.0000      -0.682833       -18.5808
  19   2.0000      -0.669689       -18.2232
  20   2.0000      -0.665388       -18.1061
  21   2.0000      -0.626160       -17.0387
  22   2.0000      -0.590171       -16.0594
  23   2.0000      -0.582324       -15.8458
  24   2.0000      -0.567503       -15.4425
  25   2.0000      -0.547879       -14.9086
  26   2.0000      -0.532707       -14.4957
  27   2.0000      -0.527466       -14.3531
  28   2.0000      -0.461603       -12.5609
  29   2.0000      -0.457017       -12.4361
  30   2.0000      -0.448748       -12.2110
  31   2.0000      -0.440043       -11.9742
  32   2.0000      -0.425412       -11.5761
  33   2.0000      -0.386091       -10.5061
  34   0.0000       0.130585         3.5534
  35   0.0000       0.148359         4.0370
  36   0.0000       0.163303         4.4437
  37   0.0000       0.164756         4.4832
  38   0.0000       0.193950         5.2777

MULLIKEN ATOMIC CHARGES
-----------------------
   0 C :   -0.374061
   1 C :    0.206988
   2 C :   -0.302892
   3 C :   -0.051870
   4 C :   -0.302898
   5 C :   -0.082934
   6 O :   -0.266642
   7 C :    0.051768
   8 N :   -0.379782
   9 H :    0.119734
  10 H :    0.142667
  11 H :    0.142634
  12 H :    0.130724
  13 H :    0.127624
  14 H :    0.124970
  15 H :    0.127626
  16 H :    0.130730
  17 H :    0.119631
  18 H :    0.119646
  19 H :    0.216337
Sum of atomic charges:   -0.0000000

LOEWDIN ATOMIC CHARGES
----------------------
   0 C :   -0.263574
   1 C :   -0.240205
   2 C :   -0.164426
   3 C :   -0.233885
   4 C :   -0.164423
   5 C :   -0.259791
   6 O :    0.234407
   7 C :   -0.368748
   8 N :   -0.052421
   9 H :    0.122976
  10 H :    0.134168
  11 H :    0.134164
  12 H :    0.133498
  13 H :    0.142144
  14 H :    0.142923
  15 H :    0.142145
  16 H :    0.133500
  17 H :    0.130970
  18 H :    0.130973
  19 H :    0.165606

  Mayer bond orders larger than 0.1
B(  0-C ,  1-C ) :   0.8986 B(  0-C ,  9-H ) :   0.9347 B(  0-C , 10-H ) :   0.9329
B(  0-C , 11-H ) :   0.9329 B(  1-C ,  2-C ) :   0.8807 B(  1-C ,  4-C ) :   0.8807
B(  1-C ,  7-C ) :   0.8991 B(  2-C ,  3-C ) :   0.9157 B(  2-C , 12-H ) :   0.9175
B(  2-C , 13-H ) :   0.9230 B(  3-C ,  4-C ) :   0.9157 B(  3-C ,  5-C ) :   0.9282
B(  3-C , 14-H ) :   0.9099 B(  4-C , 15-H ) :   0.9230 B(  4-C , 16-H ) :   0.9175
B(  5-C ,  6-O ) :   0.8930 B(  5-C , 17-H ) :   0.9305 B(  5-C , 18-H ) :   0.9305
B(  6-O ,  7-C ) :   1.1182 B(  7-C ,  8-N ) :   2.0462 B(  8-N , 19-H ) :   0.8538

MP2 TOTAL ENERGY:     -402.472693777 Eh
FINAL SINGLE POINT ENERGY      -402.472693776971

DIPOLE MOMENT
-------------
                                X             Y             Z
Electronic contribution:     -4.46543      -2.86330      -0.75514
Nuclear contribution   :      5.52390       2.17508       0.90480
                        -----------------------------------------
Total Dipole Moment    :      1.05847      -0.68822       0.14966
                        -----------------------------------------
Magnitude (a.u.)       :      1.27138
Magnitude (Debye)      :      3.23158

                             ****ORCA TERMINATED NORMALLY****
TOTAL RUN TIME: 0 days 0 hours 21 minutes 23 seconds 964 msec
