                         Program Version 3.0.3 - RELEASE   -
|  1> ! RI-MP2 RIJK def2-TZVP def2-TZVP/C def2-TZVP/JK TIGHTSCF
|  2> % maxcore 2000
|  3> % mp2 density relaxed end
|  4> *xyz 0 1
|  5>  C       -0.0367664639     1.5348459725     0.0284725125
|  6>  C        0.0840882321    -0.0091099238     0.0079219672
|  7>  C        0.6829158149    -0.4674645818    -1.2458930257
|  8>  C        1.1791487518    -0.8125851438    -2.2849391686
|  9>  C        0.8459084694    -0.5131828852     1.2117640959
| 10>  N        0.1882493385    -0.7882492199     2.3367791650
| 11>  N        1.1494586605    -1.1504585841     3.2080570854
| 12>  C        2.3923995613    -1.1203992499     2.6706815343
| 13>  C        2.2386011708    -0.7063915438     1.3658481768
| 14>  H        0.9527260147     1.9972861087    -0.0214061877
| 15>  H       -0.6251678221     1.8848356262    -0.8239551524
| 16>  H       -0.5247219667     1.8517884159     0.9536319687
| 17>  H       -0.9288078291    -0.4234290208     0.0813854182
| 18>  H        1.6088066115    -1.1334667260    -3.2013117423
| 19>  H        0.8843386879    -1.4241535100     4.1386419460
| 20>  H        3.2648381415    -1.3949743915     3.2423436461
| 21>  H        3.0074932369    -0.5759136527     0.6227968506
| 22> *
| 23>
| 24>                          ****END OF INPUT****

CARTESIAN COORDINATES (ANGSTROEM)
---------------------------------
  C     -0.036766    1.534846    0.028473
  C      0.084088   -0.009110    0.007922
  C      0.682916   -0.467465   -1.245893
  C      1.179149   -0.812585   -2.284939
  C      0.845908   -0.513183    1.211764
  N      0.188249   -0.788249    2.336779
  N      1.149459   -1.150459    3.208057
  C      2.392400   -1.120399    2.670682
  C      2.238601   -0.706392    1.365848
  H      0.952726    1.997286   -0.021406
  H     -0.625168    1.884836   -0.823955
  H     -0.524722    1.851788    0.953632
  H     -0.928808   -0.423429    0.081385
  H      1.608807   -1.133467   -3.201312
  H      0.884339   -1.424154    4.138642
  H      3.264838   -1.394974    3.242344
  H      3.007493   -0.575914    0.622797

 Total Charge           Charge          ....    0
 Multiplicity           Mult            ....    1
 Number of Electrons    NEL             ....   64
 Basis Dimension        Dim             ....  327

ORBITAL ENERGIES
----------------

  NO   OCC          E(Eh)            E(eV)
   0   2.0000     -15.636539      -425.4919
   1   2.0000     -15.582974      -424.0343
   2   2.0000     -11.277806      -306.8847
   3   2.0000     -11.261896      -306.4518
   4   2.0000     -11.260435      -306.4120
   5   2.0000     -11.230903      -305.6084
   6   2.0000     -11.221940      -305.3645
   7   2.0000     -11.218294      -305.2653
   8   2.0000     -11.218004      -305.2574
   9   2.0000      -1.373903       -37.3858
  10   2.0000      -1.128605       -30.7109
  11   2.0000      -1.069035       -29.0899
  12   2.0000      -1.043414       -28.3928
  13   2.0000      -0.992149       -26.9977
  14   2.0000      -0.886584       -24.1252
  15   2.0000      -0.822341       -22.3770
  16   2.0000      -0.775354       -21.0985
  17   2.0000      -0.745410       -20.2836
  18   2.0000      -0.707191       -19.2436
  19   2.0000      -0.646235       -17.5850
  20   2.0000      -0.625090       -17.0096
  21   2.0000      -0.606335       -16.4992
  22   2.0000      -0.591625       -16.0989
  23   2.0000      -0.573395       -15.6029
  24   2.0000      -0.549074       -14.9411
  25   2.0000      -0.523278       -14.2391
  26   2.0000      -0.509950       -13.8764
  27   2.0000      -0.459182       -12.4950
  28   2.0000      -0.389895       -10.6096
  29   2.0000      -0.384419       -10.4606
  30   2.0000      -0.353740        -9.6258
  31   2.0000      -0.347007        -9.4425
  32   0.0000       0.135151         3.6776
  33   0.0000       0.143514         3.9052
  34   0.0000       0.154312         4.1990
  35   0.0000       0.169022         4.5993
  36   0.0000       0.176787         4.8106

MULLIKEN ATOMIC CHARGES
-----------------------
   0 C :   -0.384924
   1 C :   -0.125579
   2 C :   -0.044069
   3 C :   -0.170416
   4 C :    0.064660
   5 N :   -0.222142
   6 N :   -0.098897
   7 C :   -0.087077
   8 C :   -0.210350
   9 H :    0.129074
  10 H :    0.136261
  11 H :    0.142036
  12 H :    0.122752
  13 H :    0.187993
  14 H :    0.256665
  15 H :    0.151879
  16 H :    0.152134
Sum of atomic charges:   -0.0000000

LOEWDIN ATOMIC CHARGES
----------------------
   0 C :   -0.260952
   1 C :   -0.232132
   2 C :   -0.078575
   3 C :   -0.103581
   4 C :   -0.248896
   5 N :    0.047719
   6 N :    0.130121
   7 C :   -0.242448
   8 C :   -0.170497
   9 H :    0.127001
  10 H :    0.126018
  11 H :    0.127513
  12 H :    0.180115
  13 H :    0.125880
  14 H :    0.187874
  15 H :    0.136752
  16 H :    0.148088

  Mayer bond orders larger than 0.1
B(  0-C ,  1-C ) :   0.8992 B(  0-C ,  9-H ) :   0.9307 B(  0-C , 10-H ) :   0.9342
B(  0-C , 11-H ) :   0.9362 B(  1-C ,  2-C ) :   1.1277 B(  1-C ,  4-C ) :   0.9047
B(  1-C , 12-H ) :   0.9150 B(  2-C ,  3-C ) :   2.5942 B(  3-C , 13-H ) :   0.8997
B(  4-C ,  5-N ) :   1.5825 B(  4-C ,  8-C ) :   1.2889 B(  5-N ,  6-N ) :   1.0748
B(  5-N ,  7-C ) :   0.1120 B(  6-N ,  7-C ) :   1.2052 B(  6-N , 14-H ) :   0.8731
B(  7-C ,  8-C ) :   1.4511 B(  7-C , 15-H ) :   0.9119 B(  8-C , 16-H ) :   0.9101

MP2 TOTAL ENERGY:     -380.176873668 Eh
FINAL SINGLE POINT ENERGY      -380.176873667575

DIPOLE MOMENT
-------------
                                X             Y             Z
Electronic contribution:      0.62296      -4.06730       2.45199
Nuclear contribution   :     -0.02906       3.94595      -1.77705
                        -----------------------------------------
Total Dipole Moment    :      0.59391      -0.12135       0.67494
                        -----------------------------------------
Magnitude (a.u.)       :      0.90719
Magnitude (Debye)      :      2.30589

                             ****ORCA TERMINATED NORMALLY****
TOTAL RUN TIME: 0 days 0 hours 16 minutes 1 seconds 198 msec
