                         Program Version 3.0.3 - RELEASE   -
|  1> ! RI-MP2 RIJK def2-TZVP def2-TZVP/C def2-TZVP/JK TIGHTSCF
|  2> % maxcore 2000
|  3> % mp2 density relaxed end
|  4> *xyz 0 1
|  5>  O        0.0436603017     1.3984601200     0.1283404099
|  6>  C        0.0211950628     0.0112531870     0.0002069615
|  7>  C       -1.4264440885    -0.5161748169    -0.0572366206
|  8>  N       -1.4413855130    -1.9517759753    -0.2897448958
|  9>  C       -0.5738446934    -2.6633940333    -1.0714735678
| 10>  O       -0.7520098149    -3.8294790137    -1.3537398542
| 11>  C        0.6866351883    -1.9213570692    -1.5445356199
| 12>  C        0.7081887396    -0.4371934143    -1.2808923554
| 13>  O        1.1855387110     0.3849960747    -2.0319105425
| 14>  H        0.5075538178     1.7203011838    -0.6629419463
| 15>  H        0.5268741030    -0.4740126641     0.8512601967
| 16>  H       -1.9197978159    -0.3035903534     0.8944560753
| 17>  H       -1.9630009727     0.0387959004    -0.8394315406
| 18>  H       -2.2614920769    -2.4742623413    -0.0165916068
| 19>  H        1.5266509537    -2.3815280623    -1.0074243863
| 20>  H        0.8455096873    -2.1234144820    -2.6057092473
| 21> *
| 22>
| 23>                          ****END OF INPUT****

CARTESIAN COORDINATES (ANGSTROEM)
---------------------------------
  O      0.043660    1.398460    0.128340
  C      0.021195    0.011253    0.000207
  C     -1.426444   -0.516175   -0.057237
  N     -1.441386   -1.951776   -0.289745
  C     -0.573845   -2.663394   -1.071474
  O     -0.752010   -3.829479   -1.353740
  C      0.686635   -1.921357   -1.544536
  C      0.708189   -0.437193   -1.280892
  O      1.185539    0.384996   -2.031911
  H      0.507554    1.720301   -0.662942
  H      0.526874   -0.474013    0.851260
  H     -1.919798   -0.303590    0.894456
  H     -1.963001    0.038796   -0.839432
  H     -2.261492   -2.474262   -0.016592
  H      1.526651   -2.381528   -1.007424
  H      0.845510   -2.123414   -2.605709

 Total Charge           Charge          ....    0
 Multiplicity           Mult            ....    1
 Number of Electrons    NEL             ....   68
 Basis Dimension        Dim             ....  321

ORBITAL ENERGIES
----------------

  NO   OCC          E(Eh)            E(eV)
   0   2.0000     -20.584151      -560.1232
   1   2.0000     -20.576635      -559.9187
   2   2.0000     -20.534451      -558.7708
   3   2.0000     -15.606284      -424.6686
   4   2.0000     -11.375664      -309.5475
   5   2.0000     -11.363244      -309.2096
   6   2.0000     -11.318503      -307.9921
   7   2.0000     -11.299839      -307.4842
   8   2.0000     -11.273440      -306.7659
   9   2.0000      -1.436289       -39.0834
  10   2.0000      -1.402683       -38.1689
  11   2.0000      -1.383877       -37.6572
  12   2.0000      -1.259274       -34.2666
  13   2.0000      -1.080340       -29.3975
  14   2.0000      -1.036314       -28.1995
  15   2.0000      -0.910618       -24.7792
  16   2.0000      -0.831327       -22.6216
  17   2.0000      -0.787069       -21.4172
  18   2.0000      -0.737638       -20.0722
  19   2.0000      -0.713830       -19.4243
  20   2.0000      -0.680443       -18.5158
  21   2.0000      -0.676133       -18.3985
  22   2.0000      -0.648675       -17.6514
  23   2.0000      -0.630784       -17.1645
  24   2.0000      -0.626447       -17.0465
  25   2.0000      -0.606433       -16.5019
  26   2.0000      -0.583386       -15.8748
  27   2.0000      -0.556460       -15.1421
  28   2.0000      -0.547957       -14.9107
  29   2.0000      -0.525132       -14.2896
  30   2.0000      -0.473262       -12.8781
  31   2.0000      -0.454566       -12.3694
  32   2.0000      -0.435838       -11.8597
  33   2.0000      -0.413077       -11.2404
  34   0.0000       0.098278         2.6743
  35   0.0000       0.132756         3.6125
  36   0.0000       0.138253         3.7621
  37   0.0000       0.153530         4.1778
  38   0.0000       0.167464         4.5569

MULLIKEN ATOMIC CHARGES
-----------------------
   0 O :   -0.470217
   1 C :    0.058302
   2 C :   -0.090012
   3 N :   -0.306997
   4 C :    0.195525
   5 O :   -0.334539
   6 C :   -0.205064
   7 C :    0.153638
   8 O :   -0.303222
   9 H :    0.340795
  10 H :    0.112807
  11 H :    0.148878
  12 H :    0.121793
  13 H :    0.247606
  14 H :    0.163941
  15 H :    0.166768
Sum of atomic charges:   -0.0000000

LOEWDIN ATOMIC CHARGES
----------------------
   0 O :    0.008364
   1 C :   -0.338244
   2 C :   -0.248114
   3 N :    0.115270
   4 C :   -0.452462
   5 O :    0.093424
   6 C :   -0.182477
   7 C :   -0.310602
   8 O :    0.152208
   9 H :    0.188309
  10 H :    0.155684
  11 H :    0.142752
  12 H :    0.136643
  13 H :    0.194193
  14 H :    0.177653
  15 H :    0.167401

  Mayer bond orders larger than 0.1
B(  0-O ,  1-C ) :   1.1025 B(  0-O ,  9-H ) :   0.7975 B(  1-C ,  2-C ) :   0.8603
B(  1-C ,  7-C ) :   0.9224 B(  1-C , 10-H ) :   0.9153 B(  2-C ,  3-N ) :   0.8606
B(  2-C , 11-H ) :   0.9230 B(  2-C , 12-H ) :   0.9176 B(  3-N ,  4-C ) :   1.1738
B(  3-N , 13-H ) :   0.8555 B(  4-C ,  5-O ) :   1.9750 B(  4-C ,  6-C ) :   0.9003
B(  6-C ,  7-C ) :   0.8967 B(  6-C , 14-H ) :   0.8898 B(  6-C , 15-H ) :   0.9017
B(  7-C ,  8-O ) :   1.9180

MP2 TOTAL ENERGY:     -474.334513129 Eh
FINAL SINGLE POINT ENERGY      -474.334513128607

DIPOLE MOMENT
-------------
                                X             Y             Z
Electronic contribution:      1.09173      -0.84046      -1.69229
Nuclear contribution   :     -1.42481       1.12276       2.26084
                        -----------------------------------------
Total Dipole Moment    :     -0.33308       0.28230       0.56855
                        -----------------------------------------
Magnitude (a.u.)       :      0.71686
Magnitude (Debye)      :      1.82210

                             ****ORCA TERMINATED NORMALLY****
TOTAL RUN TIME: 0 days 0 hours 15 minutes 26 seconds 472 msec
