                         Program Version 3.0.3 - RELEASE   -
|  1> ! RI-MP2 RIJK def2-TZVP def2-TZVP/C def2-TZVP/JK TIGHTSCF
|  2> % maxcore 2000
|  3> % mp2 density relaxed end
|  4> *xyz 0 1
|  5>  C       -0.0240377831     1.5919298508     0.0235795062
|  6>  C       -0.0113390791     0.0534915635    -0.0077061299
|  7>  C        0.6987220637    -0.5001200979    -1.2201327954
|  8>  C       -0.0016856259    -0.8167280130    -2.3886089134
|  9>  N        0.5666341921    -1.2761354620    -3.5027432049
| 10>  C        1.8906488948    -1.4439601839    -3.4912073853
| 11>  C        2.7082513424    -1.1746329844    -2.3918530862
| 12>  C        4.1972369918    -1.4010484501    -2.4458855075
| 13>  C        2.0783518842    -0.6932429117    -1.2433624611
| 14>  H        0.9945934019     1.9929035309     0.0360501146
| 15>  H       -0.5282518163     1.9965743121    -0.8595418492
| 16>  H       -0.5451849678     1.9604511985     0.9126598783
| 17>  H        0.4702348082    -0.3232225118     0.9021791142
| 18>  H       -1.0428232729    -0.3165057539     0.0089699245
| 19>  H       -1.0835160315    -0.6936984797    -2.4173794136
| 20>  H        2.3334918456    -1.8207738297    -4.4117734964
| 21>  H        4.7504389757    -0.4800258286    -2.2310225968
| 22>  H        4.5152972166    -2.1464174028    -1.7082108560
| 23>  H        4.5073409822    -1.7550570083    -3.4326739442
| 24>  H        2.6687001771    -0.4705363980    -0.3567814678
| 25> *
| 26>
| 27>                          ****END OF INPUT****

CARTESIAN COORDINATES (ANGSTROEM)
---------------------------------
  C     -0.024038    1.591930    0.023580
  C     -0.011339    0.053492   -0.007706
  C      0.698722   -0.500120   -1.220133
  C     -0.001686   -0.816728   -2.388609
  N      0.566634   -1.276135   -3.502743
  C      1.890649   -1.443960   -3.491207
  C      2.708251   -1.174633   -2.391853
  C      4.197237   -1.401048   -2.445886
  C      2.078352   -0.693243   -1.243362
  H      0.994593    1.992904    0.036050
  H     -0.528252    1.996574   -0.859542
  H     -0.545185    1.960451    0.912660
  H      0.470235   -0.323223    0.902179
  H     -1.042823   -0.316506    0.008970
  H     -1.083516   -0.693698   -2.417379
  H      2.333492   -1.820774   -4.411773
  H      4.750439   -0.480026   -2.231023
  H      4.515297   -2.146417   -1.708211
  H      4.507341   -1.755057   -3.432674
  H      2.668700   -0.470536   -0.356781

 Total Charge           Charge          ....    0
 Multiplicity           Mult            ....    1
 Number of Electrons    NEL             ....   66
 Basis Dimension        Dim             ....  345

ORBITAL ENERGIES
----------------

  NO   OCC          E(Eh)            E(eV)
   0   2.0000     -15.558279      -423.3623
   1   2.0000     -11.260381      -306.4105
   2   2.0000     -11.259683      -306.3915
   3   2.0000     -11.244796      -305.9864
   4   2.0000     -11.242769      -305.9313
   5   2.0000     -11.240288      -305.8638
   6   2.0000     -11.235205      -305.7255
   7   2.0000     -11.230553      -305.5989
   8   2.0000     -11.221601      -305.3553
   9   2.0000      -1.251165       -34.0459
  10   2.0000      -1.105762       -30.0893
  11   2.0000      -1.074595       -29.2412
  12   2.0000      -0.998866       -27.1805
  13   2.0000      -0.945974       -25.7413
  14   2.0000      -0.877096       -23.8670
  15   2.0000      -0.840836       -22.8803
  16   2.0000      -0.793416       -21.5900
  17   2.0000      -0.698700       -19.0126
  18   2.0000      -0.679067       -18.4784
  19   2.0000      -0.620420       -16.8825
  20   2.0000      -0.598513       -16.2864
  21   2.0000      -0.584759       -15.9121
  22   2.0000      -0.575834       -15.6692
  23   2.0000      -0.564172       -15.3519
  24   2.0000      -0.551659       -15.0114
  25   2.0000      -0.545746       -14.8505
  26   2.0000      -0.528720       -14.3872
  27   2.0000      -0.506590       -13.7850
  28   2.0000      -0.499498       -13.5920
  29   2.0000      -0.484744       -13.1905
  30   2.0000      -0.407571       -11.0906
  31   2.0000      -0.367529       -10.0010
  32   2.0000      -0.326525        -8.8852
  33   0.0000       0.103885         2.8269
  34   0.0000       0.124567         3.3896
  35   0.0000       0.134965         3.6726
  36   0.0000       0.150976         4.1083
  37   0.0000       0.174648         4.7524

MULLIKEN ATOMIC CHARGES
-----------------------
   0 C :   -0.385811
   1 C :   -0.257335
   2 C :    0.197509
   3 C :   -0.098448
   4 N :   -0.239520
   5 C :   -0.079425
   6 C :    0.148107
   7 C :   -0.429074
   8 C :   -0.299596
   9 H :    0.127169
  10 H :    0.133144
  11 H :    0.131403
  12 H :    0.123798
  13 H :    0.127818
  14 H :    0.123229
  15 H :    0.120618
  16 H :    0.145376
  17 H :    0.146251
  18 H :    0.140758
  19 H :    0.124029
Sum of atomic charges:   -0.0000000

LOEWDIN ATOMIC CHARGES
----------------------
   0 C :   -0.306995
   1 C :   -0.247420
   2 C :   -0.151376
   3 C :   -0.191619
   4 N :    0.129466
   5 C :   -0.196075
   6 C :   -0.174614
   7 C :   -0.264618
   8 C :   -0.079594
   9 H :    0.121848
  10 H :    0.123749
  11 H :    0.120888
  12 H :    0.143252
  13 H :    0.144611
  14 H :    0.140362
  15 H :    0.139172
  16 H :    0.132420
  17 H :    0.132807
  18 H :    0.131333
  19 H :    0.152405

  Mayer bond orders larger than 0.1
B(  0-C ,  1-C ) :   0.9144 B(  0-C ,  9-H ) :   0.9370 B(  0-C , 10-H ) :   0.9365
B(  0-C , 11-H ) :   0.9347 B(  1-C ,  2-C ) :   0.8574 B(  1-C , 12-H ) :   0.9407
B(  1-C , 13-H ) :   0.9424 B(  2-C ,  3-C ) :   1.2730 B(  2-C ,  8-C ) :   1.3395
B(  3-C ,  4-N ) :   1.4146 B(  3-C , 14-H ) :   0.9518 B(  4-N ,  5-C ) :   1.4011
B(  5-C ,  6-C ) :   1.2931 B(  5-C , 15-H ) :   0.9517 B(  6-C ,  7-C ) :   0.8677
B(  6-C ,  8-C ) :   1.3250 B(  7-C , 16-H ) :   0.9338 B(  7-C , 17-H ) :   0.9310
B(  7-C , 18-H ) :   0.9474 B(  8-C , 19-H ) :   0.9402

MP2 TOTAL ENERGY:     -365.409966929 Eh
FINAL SINGLE POINT ENERGY      -365.409966929475

DIPOLE MOMENT
-------------
                                X             Y             Z
Electronic contribution:     -1.48823      -3.99515      -5.22646
Nuclear contribution   :      2.04402       4.25035       6.07947
                        -----------------------------------------
Total Dipole Moment    :      0.55579       0.25520       0.85301
                        -----------------------------------------
Magnitude (a.u.)       :      1.04960
Magnitude (Debye)      :      2.66787

                             ****ORCA TERMINATED NORMALLY****
TOTAL RUN TIME: 0 days 0 hours 19 minutes 4 seconds 464 msec
