                         Program Version 3.0.3 - RELEASE   -
|  1> ! RI-MP2 RIJK def2-TZVP def2-TZVP/C def2-TZVP/JK TIGHTSCF
|  2> % maxcore 2000
|  3> % mp2 density relaxed end
|  4> *xyz 0 1
|  5>  O        0.0794589072    -0.0238114832    -0.0396750422
|  6>  C        0.0181797435     1.1741149091     0.0206822050
|  7>  C       -1.2809407201     1.9868176914     0.1219933434
|  8>  C       -0.8565584215     3.4294259422     0.4847669243
|  9>  C       -0.8116329230     3.6512260473     1.9240954550
| 10>  C       -0.7382327585     3.8064247034     3.1139899688
| 11>  C        0.5968300612     3.5275104308    -0.0768943960
| 12>  O        1.0994716941     4.5251321496    -0.5097301407
| 13>  C        1.2079788782     2.1356908203    -0.0180970382
| 14>  H       -1.7555787341     1.9656916603    -0.8668334828
| 15>  H       -1.9735625974     1.5325837959     0.8317889607
| 16>  H       -1.4704756771     4.1945168061     0.0020282578
| 17>  H       -0.6889743373     3.9596148692     4.1639620991
| 18>  H        1.7752665472     2.0328168853     0.9161125641
| 19>  H        1.8962379276     1.9331001322    -0.8411858583
| 20> *
| 21>
| 22>                          ****END OF INPUT****

CARTESIAN COORDINATES (ANGSTROEM)
---------------------------------
  O      0.079459   -0.023811   -0.039675
  C      0.018180    1.174115    0.020682
  C     -1.280941    1.986818    0.121993
  C     -0.856558    3.429426    0.484767
  C     -0.811633    3.651226    1.924095
  C     -0.738233    3.806425    3.113990
  C      0.596830    3.527510   -0.076894
  O      1.099472    4.525132   -0.509730
  C      1.207979    2.135691   -0.018097
  H     -1.755579    1.965692   -0.866833
  H     -1.973563    1.532584    0.831789
  H     -1.470476    4.194517    0.002028
  H     -0.688974    3.959615    4.163962
  H      1.775267    2.032817    0.916113
  H      1.896238    1.933100   -0.841186

 Total Charge           Charge          ....    0
 Multiplicity           Mult            ....    1
 Number of Electrons    NEL             ....   64
 Basis Dimension        Dim             ....  315

ORBITAL ENERGIES
----------------

  NO   OCC          E(Eh)            E(eV)
   0   2.0000     -20.575254      -559.8811
   1   2.0000     -20.567509      -559.6704
   2   2.0000     -11.361016      -309.1490
   3   2.0000     -11.356397      -309.0233
   4   2.0000     -11.293382      -307.3085
   5   2.0000     -11.268910      -306.6426
   6   2.0000     -11.265594      -306.5524
   7   2.0000     -11.258790      -306.3673
   8   2.0000     -11.248403      -306.0846
   9   2.0000      -1.421418       -38.6787
  10   2.0000      -1.412655       -38.4403
  11   2.0000      -1.161009       -31.5927
  12   2.0000      -1.061250       -28.8781
  13   2.0000      -1.013990       -27.5921
  14   2.0000      -0.949545       -25.8384
  15   2.0000      -0.795653       -21.6508
  16   2.0000      -0.773364       -21.0443
  17   2.0000      -0.743276       -20.2256
  18   2.0000      -0.699027       -19.0215
  19   2.0000      -0.690907       -18.8005
  20   2.0000      -0.654231       -17.8025
  21   2.0000      -0.640712       -17.4347
  22   2.0000      -0.622912       -16.9503
  23   2.0000      -0.607650       -16.5350
  24   2.0000      -0.597381       -16.2556
  25   2.0000      -0.568358       -15.4658
  26   2.0000      -0.527608       -14.3569
  27   2.0000      -0.510481       -13.8909
  28   2.0000      -0.462912       -12.5965
  29   2.0000      -0.427206       -11.6249
  30   2.0000      -0.409543       -11.1442
  31   2.0000      -0.395661       -10.7665
  32   0.0000       0.088420         2.4060
  33   0.0000       0.115814         3.1514
  34   0.0000       0.140256         3.8165
  35   0.0000       0.153303         4.1716
  36   0.0000       0.156242         4.2516

MULLIKEN ATOMIC CHARGES
-----------------------
   0 O :   -0.254525
   1 C :    0.105264
   2 C :   -0.230800
   3 C :    0.008926
   4 C :   -0.155908
   5 C :   -0.143741
   6 C :    0.132684
   7 O :   -0.238821
   8 C :   -0.215046
   9 H :    0.153862
  10 H :    0.160637
  11 H :    0.140428
  12 H :    0.198425
  13 H :    0.170763
  14 H :    0.167853
Sum of atomic charges:    0.0000000

LOEWDIN ATOMIC CHARGES
----------------------
   0 O :    0.167728
   1 C :   -0.308167
   2 C :   -0.180197
   3 C :   -0.197461
   4 C :   -0.087160
   5 C :   -0.079062
   6 C :   -0.277297
   7 O :    0.183216
   8 C :   -0.187145
   9 H :    0.161136
  10 H :    0.157175
  11 H :    0.175339
  12 H :    0.130468
  13 H :    0.178493
  14 H :    0.162932

  Mayer bond orders larger than 0.1
B(  0-O ,  1-C ) :   2.0261 B(  1-C ,  2-C ) :   0.9050 B(  1-C ,  8-C ) :   0.8860
B(  2-C ,  3-C ) :   0.8388 B(  2-C ,  9-H ) :   0.9008 B(  2-C , 10-H ) :   0.9022
B(  3-C ,  4-C ) :   1.1299 B(  3-C ,  6-C ) :   0.7809 B(  3-C , 11-H ) :   0.8950
B(  4-C ,  5-C ) :   2.5776 B(  5-C , 12-H ) :   0.8959 B(  6-C ,  7-O ) :   2.0620
B(  6-C ,  8-C ) :   0.9214 B(  8-C , 13-H ) :   0.8786 B(  8-C , 14-H ) :   0.8891

MP2 TOTAL ENERGY:     -419.915130625 Eh
FINAL SINGLE POINT ENERGY      -419.915130624877

DIPOLE MOMENT
-------------
                                X             Y             Z
Electronic contribution:      1.35137       0.44448      -0.74180
Nuclear contribution   :     -1.79541      -0.31709       1.04836
                        -----------------------------------------
Total Dipole Moment    :     -0.44404       0.12739       0.30657
                        -----------------------------------------
Magnitude (a.u.)       :      0.55442
Magnitude (Debye)      :      1.40923

                             ****ORCA TERMINATED NORMALLY****
TOTAL RUN TIME: 0 days 0 hours 15 minutes 7 seconds 731 msec
