                         Program Version 3.0.3 - RELEASE   -
|  1> ! RI-MP2 RIJK def2-TZVP def2-TZVP/C def2-TZVP/JK TIGHTSCF
|  2> % maxcore 2000
|  3> % mp2 density relaxed end
|  4> *xyz 0 1
|  5>  O       -0.0286904447     1.3822761129    -0.0186974958
|  6>  C       -0.0181087253    -0.0010644793    -0.0049656612
|  7>  C       -0.4393386864    -0.7382207466    -1.2722124368
|  8>  C       -1.3279113643    -0.7622429199    -0.0574133508
|  9>  C       -1.4461671896    -2.0445583996     0.7679715272
| 10>  O       -0.4317948028    -2.1989496777     1.7493325688
| 11>  C        0.8771458330    -2.0455874629     1.2292875195
| 12>  C        1.0712920597    -0.5930646599     0.8128409116
| 13>  O        2.0003593774     0.0968159071     1.1837246466
| 14>  H        0.8250300963     1.6371561061     0.3665626477
| 15>  H       -0.7160431041    -0.0834894642    -2.0903499408
| 16>  H        0.0766116365    -1.6487985974    -1.5609725407
| 17>  H       -2.2090990024    -0.1305209903    -0.0958398233
| 18>  H       -2.3864012775    -2.0478042715     1.3244394800
| 19>  H       -1.4459528408    -2.9190902854     0.0962630662
| 20>  H        1.5824178694    -2.2773560777     2.0293596172
| 21>  H        1.0620787056    -2.7330815838     0.3856157046
| 22> *
| 23>
| 24>                          ****END OF INPUT****

CARTESIAN COORDINATES (ANGSTROEM)
---------------------------------
  O     -0.028690    1.382276   -0.018697
  C     -0.018109   -0.001064   -0.004966
  C     -0.439339   -0.738221   -1.272212
  C     -1.327911   -0.762243   -0.057413
  C     -1.446167   -2.044558    0.767972
  O     -0.431795   -2.198950    1.749333
  C      0.877146   -2.045587    1.229288
  C      1.071292   -0.593065    0.812841
  O      2.000359    0.096816    1.183725
  H      0.825030    1.637156    0.366563
  H     -0.716043   -0.083489   -2.090350
  H      0.076612   -1.648799   -1.560973
  H     -2.209099   -0.130521   -0.095840
  H     -2.386401   -2.047804    1.324439
  H     -1.445953   -2.919090    0.096263
  H      1.582418   -2.277356    2.029360
  H      1.062079   -2.733082    0.385616

 Total Charge           Charge          ....    0
 Multiplicity           Mult            ....    1
 Number of Electrons    NEL             ....   68
 Basis Dimension        Dim             ....  327

ORBITAL ENERGIES
----------------

  NO   OCC          E(Eh)            E(eV)
   0   2.0000     -20.581284      -560.0452
   1   2.0000     -20.569182      -559.7159
   2   2.0000     -20.565584      -559.6180
   3   2.0000     -11.346411      -308.7515
   4   2.0000     -11.310503      -307.7744
   5   2.0000     -11.304734      -307.6174
   6   2.0000     -11.299515      -307.4754
   7   2.0000     -11.257762      -306.3393
   8   2.0000     -11.251988      -306.1822
   9   2.0000      -1.422852       -38.7178
  10   2.0000      -1.397876       -38.0382
  11   2.0000      -1.375951       -37.4415
  12   2.0000      -1.163987       -31.6737
  13   2.0000      -1.032275       -28.0896
  14   2.0000      -0.934963       -25.4416
  15   2.0000      -0.892217       -24.2784
  16   2.0000      -0.829674       -22.5766
  17   2.0000      -0.757294       -20.6070
  18   2.0000      -0.729761       -19.8578
  19   2.0000      -0.701536       -19.0898
  20   2.0000      -0.665923       -18.1207
  21   2.0000      -0.663245       -18.0478
  22   2.0000      -0.651064       -17.7164
  23   2.0000      -0.612536       -16.6680
  24   2.0000      -0.596801       -16.2398
  25   2.0000      -0.589315       -16.0361
  26   2.0000      -0.567307       -15.4372
  27   2.0000      -0.537379       -14.6228
  28   2.0000      -0.521568       -14.1926
  29   2.0000      -0.504244       -13.7212
  30   2.0000      -0.496879       -13.5208
  31   2.0000      -0.446075       -12.1383
  32   2.0000      -0.412468       -11.2238
  33   2.0000      -0.394388       -10.7318
  34   0.0000       0.124622         3.3911
  35   0.0000       0.135947         3.6993
  36   0.0000       0.151506         4.1227
  37   0.0000       0.173571         4.7231
  38   0.0000       0.180488         4.9113

MULLIKEN ATOMIC CHARGES
-----------------------
   0 O :   -0.455241
   1 C :    0.197004
   2 C :   -0.309703
   3 C :   -0.129170
   4 C :   -0.069779
   5 O :   -0.299084
   6 C :   -0.059373
   7 C :    0.159373
   8 O :   -0.317299
   9 H :    0.341387
  10 H :    0.146969
  11 H :    0.137734
  12 H :    0.146665
  13 H :    0.134475
  14 H :    0.108103
  15 H :    0.150505
  16 H :    0.117434
Sum of atomic charges:    0.0000000

LOEWDIN ATOMIC CHARGES
----------------------
   0 O :    0.042021
   1 C :   -0.322141
   2 C :   -0.170388
   3 C :   -0.177042
   4 C :   -0.287597
   5 O :    0.166195
   6 C :   -0.270829
   7 C :   -0.297136
   8 O :    0.141680
   9 H :    0.194711
  10 H :    0.145756
  11 H :    0.135543
  12 H :    0.160222
  13 H :    0.137823
  14 H :    0.125695
  15 H :    0.144296
  16 H :    0.131192

  Mayer bond orders larger than 0.1
B(  0-O ,  1-C ) :   1.1139 B(  0-O ,  9-H ) :   0.7983 B(  1-C ,  2-C ) :   0.8152
B(  1-C ,  3-C ) :   0.8117 B(  1-C ,  7-C ) :   0.9649 B(  2-C ,  3-C ) :   0.8797
B(  2-C , 10-H ) :   0.9181 B(  2-C , 11-H ) :   0.9001 B(  3-C ,  4-C ) :   0.8922
B(  3-C , 12-H ) :   0.9049 B(  4-C ,  5-O ) :   0.9447 B(  4-C , 13-H ) :   0.9293
B(  4-C , 14-H ) :   0.9387 B(  5-O ,  6-C ) :   0.9046 B(  6-C ,  7-C ) :   0.9097
B(  6-C , 15-H ) :   0.9152 B(  6-C , 16-H ) :   0.9183 B(  7-C ,  8-O ) :   1.8883

MP2 TOTAL ENERGY:     -458.225776117 Eh
FINAL SINGLE POINT ENERGY      -458.225776116798

DIPOLE MOMENT
-------------
                                X             Y             Z
Electronic contribution:      2.90452       3.13598       2.69306
Nuclear contribution   :     -3.34290      -3.92103      -3.34871
                        -----------------------------------------
Total Dipole Moment    :     -0.43838      -0.78505      -0.65565
                        -----------------------------------------
Magnitude (a.u.)       :      1.11281
Magnitude (Debye)      :      2.82855

                             ****ORCA TERMINATED NORMALLY****
TOTAL RUN TIME: 0 days 0 hours 18 minutes 37 seconds 586 msec
