                         Program Version 3.0.3 - RELEASE   -
|  1> ! RI-MP2 RIJK def2-TZVP def2-TZVP/C def2-TZVP/JK TIGHTSCF
|  2> % maxcore 2000
|  3> % mp2 density relaxed end
|  4> *xyz 0 1
|  5>  C        0.3730212663     1.4201666737     0.0350845376
|  6>  O        1.1927670169     0.2804079658    -0.2391734799
|  7>  C       -0.1925703810     0.0649576144     0.0477474107
|  8>  C       -0.5331946442    -0.7020933517     1.3053952397
|  9>  C       -0.2145590862    -2.2247354166     1.1978862501
| 10>  C        0.5778625446    -2.5225894872     2.4909737790
| 11>  O        0.3039494999    -1.4477480711     3.3781214703
| 12>  C        0.2446841869    -0.2848660629     2.5715798078
| 13>  H        0.5852900493     1.9303047868     0.9732378829
| 14>  H        0.1867823709     2.0761920172    -0.8140071393
| 15>  H       -0.7717739849    -0.2331713335    -0.8286674790
| 16>  H       -1.6057888491    -0.5721150016     1.4872337310
| 17>  H       -1.1327942880    -2.8140422865     1.1455988789
| 18>  H        0.3787540948    -2.4490885293     0.3078877279
| 19>  H        0.2811085669    -3.4498717504     2.9875199478
| 20>  H        1.6566007273    -2.5749399364     2.2755532054
| 21>  H        1.2566329373     0.0505458274     2.2947481306
| 22>  H       -0.2465587576     0.5000566518     3.1517793785
| 23> *
| 24>
| 25>                          ****END OF INPUT****

CARTESIAN COORDINATES (ANGSTROEM)
---------------------------------
  C      0.373021    1.420167    0.035085
  O      1.192767    0.280408   -0.239173
  C     -0.192570    0.064958    0.047747
  C     -0.533195   -0.702093    1.305395
  C     -0.214559   -2.224735    1.197886
  C      0.577863   -2.522589    2.490974
  O      0.303949   -1.447748    3.378121
  C      0.244684   -0.284866    2.571580
  H      0.585290    1.930305    0.973238
  H      0.186782    2.076192   -0.814007
  H     -0.771774   -0.233171   -0.828667
  H     -1.605789   -0.572115    1.487234
  H     -1.132794   -2.814042    1.145599
  H      0.378754   -2.449089    0.307888
  H      0.281109   -3.449872    2.987520
  H      1.656601   -2.574940    2.275553
  H      1.256633    0.050546    2.294748
  H     -0.246559    0.500057    3.151779

 Total Charge           Charge          ....    0
 Multiplicity           Mult            ....    1
 Number of Electrons    NEL             ....   62
 Basis Dimension        Dim             ....  308

ORBITAL ENERGIES
----------------

  NO   OCC          E(Eh)            E(eV)
   0   2.0000     -20.570846      -559.7612
   1   2.0000     -20.550508      -559.2077
   2   2.0000     -11.292496      -307.2844
   3   2.0000     -11.286799      -307.1294
   4   2.0000     -11.271503      -306.7132
   5   2.0000     -11.270816      -306.6945
   6   2.0000     -11.239930      -305.8540
   7   2.0000     -11.226995      -305.5021
   8   2.0000      -1.414516       -38.4909
   9   2.0000      -1.377609       -37.4866
  10   2.0000      -1.072730       -29.1905
  11   2.0000      -0.997384       -27.1402
  12   2.0000      -0.928962       -25.2783
  13   2.0000      -0.877489       -23.8777
  14   2.0000      -0.818995       -22.2860
  15   2.0000      -0.778619       -21.1873
  16   2.0000      -0.704986       -19.1836
  17   2.0000      -0.683661       -18.6034
  18   2.0000      -0.678556       -18.4644
  19   2.0000      -0.621093       -16.9008
  20   2.0000      -0.609579       -16.5875
  21   2.0000      -0.584294       -15.8995
  22   2.0000      -0.551809       -15.0155
  23   2.0000      -0.542232       -14.7549
  24   2.0000      -0.518525       -14.1098
  25   2.0000      -0.493817       -13.4374
  26   2.0000      -0.482155       -13.1201
  27   2.0000      -0.468734       -12.7549
  28   2.0000      -0.451897       -12.2967
  29   2.0000      -0.431471       -11.7409
  30   2.0000      -0.414818       -11.2878
  31   0.0000       0.140401         3.8205
  32   0.0000       0.156658         4.2629
  33   0.0000       0.159363         4.3365
  34   0.0000       0.172584         4.6962
  35   0.0000       0.196091         5.3359

MULLIKEN ATOMIC CHARGES
-----------------------
   0 C :   -0.060855
   1 O :   -0.337552
   2 C :   -0.055161
   3 C :    0.027747
   4 C :   -0.274320
   5 C :   -0.039852
   6 O :   -0.314801
   7 C :   -0.105304
   8 H :    0.120082
   9 H :    0.121050
  10 H :    0.127005
  11 H :    0.101091
  12 H :    0.118325
  13 H :    0.131538
  14 H :    0.115221
  15 H :    0.091179
  16 H :    0.112974
  17 H :    0.121634
Sum of atomic charges:    0.0000000

LOEWDIN ATOMIC CHARGES
----------------------
   0 C :   -0.264097
   1 O :    0.141960
   2 C :   -0.278600
   3 C :   -0.236065
   4 C :   -0.228747
   5 C :   -0.305460
   6 O :    0.148794
   7 C :   -0.291109
   8 H :    0.120968
   9 H :    0.119687
  10 H :    0.140316
  11 H :    0.158303
  12 H :    0.134095
  13 H :    0.141154
  14 H :    0.124578
  15 H :    0.119818
  16 H :    0.127708
  17 H :    0.126699

  Mayer bond orders larger than 0.1
B(  0-C ,  1-O ) :   0.9026 B(  0-C ,  2-C ) :   0.9820 B(  0-C ,  8-H ) :   0.9068
B(  0-C ,  9-H ) :   0.9226 B(  1-O ,  2-C ) :   0.8746 B(  2-C ,  3-C ) :   0.9093
B(  2-C , 10-H ) :   0.9161 B(  3-C ,  4-C ) :   0.8976 B(  3-C ,  7-C ) :   0.9268
B(  3-C , 11-H ) :   0.9140 B(  4-C ,  5-C ) :   0.9650 B(  4-C , 12-H ) :   0.9281
B(  4-C , 13-H ) :   0.9178 B(  5-C ,  6-O ) :   0.9419 B(  5-C , 14-H ) :   0.9241
B(  5-C , 15-H ) :   0.9300 B(  6-O ,  7-C ) :   0.9370 B(  7-C , 16-H ) :   0.9306
B(  7-C , 17-H ) :   0.9162

MP2 TOTAL ENERGY:     -384.282281017 Eh
FINAL SINGLE POINT ENERGY      -384.282281016815

DIPOLE MOMENT
-------------
                                X             Y             Z
Electronic contribution:      1.07055       0.94499       0.14037
Nuclear contribution   :     -1.70203      -0.71321      -0.56945
                        -----------------------------------------
Total Dipole Moment    :     -0.63147       0.23178      -0.42908
                        -----------------------------------------
Magnitude (a.u.)       :      0.79786
Magnitude (Debye)      :      2.02801

                             ****ORCA TERMINATED NORMALLY****
TOTAL RUN TIME: 0 days 0 hours 11 minutes 36 seconds 364 msec
