                         Program Version 3.0.3 - RELEASE   -
|  1> ! RI-MP2 RIJK def2-TZVP def2-TZVP/C def2-TZVP/JK TIGHTSCF
|  2> % maxcore 2000
|  3> % mp2 density relaxed end
|  4> *xyz 0 1
|  5>  C        0.0582449752     1.3409719686     0.3959791254
|  6>  O       -0.0468780784    -0.0607667601     0.4085145917
|  7>  C       -1.2135885822    -0.5270117210    -0.2416894346
|  8>  C       -1.2025003677    -2.0320099566    -0.2148697107
|  9>  C       -1.7257746760    -2.7875304745     0.9815179434
| 10>  C       -2.4617824414    -2.8618894603    -0.3363432359
| 11>  C       -3.8455870300    -2.2680300425    -0.5031690313
| 12>  C       -4.9407924524    -3.2422664927    -0.0804870575
| 13>  O       -6.1929747220    -2.6048446883    -0.2851372266
| 14>  H        0.9845166830     1.6058542960     0.9120772544
| 15>  H        0.0967160949     1.7418360451    -0.6301823776
| 16>  H       -0.7867440189     1.8216478701     0.9156971964
| 17>  H       -2.1106911918    -0.1269283616     0.2581200620
| 18>  H       -1.2362738402    -0.1582276054    -1.2826672769
| 19>  H       -0.3211155707    -2.4499536810    -0.6934813634
| 20>  H       -1.1774369437    -3.6539500554     1.3340780582
| 21>  H       -2.1819481034    -2.1991270328     1.7724457762
| 22>  H       -2.3253819087    -3.7890906422    -0.8895465035
| 23>  H       -3.9577194143    -1.3552165596     0.0908926308
| 24>  H       -4.0215956176    -1.9857656545    -1.5487853923
| 25>  H       -4.8626278780    -4.1682663913    -0.6741604229
| 26>  H       -4.7991288362    -3.5207784793     0.9758901601
| 27>  H       -6.8871385193    -3.2106299408    -0.0103466651
| 28> *
| 29>
| 30>                          ****END OF INPUT****

CARTESIAN COORDINATES (ANGSTROEM)
---------------------------------
  C      0.058245    1.340972    0.395979
  O     -0.046878   -0.060767    0.408515
  C     -1.213589   -0.527012   -0.241689
  C     -1.202500   -2.032010   -0.214870
  C     -1.725775   -2.787530    0.981518
  C     -2.461782   -2.861889   -0.336343
  C     -3.845587   -2.268030   -0.503169
  C     -4.940792   -3.242266   -0.080487
  O     -6.192975   -2.604845   -0.285137
  H      0.984517    1.605854    0.912077
  H      0.096716    1.741836   -0.630182
  H     -0.786744    1.821648    0.915697
  H     -2.110691   -0.126928    0.258120
  H     -1.236274   -0.158228   -1.282667
  H     -0.321116   -2.449954   -0.693481
  H     -1.177437   -3.653950    1.334078
  H     -2.181948   -2.199127    1.772446
  H     -2.325382   -3.789091   -0.889547
  H     -3.957719   -1.355217    0.090893
  H     -4.021596   -1.985766   -1.548785
  H     -4.862628   -4.168266   -0.674160
  H     -4.799129   -3.520778    0.975890
  H     -6.887139   -3.210630   -0.010347

 Total Charge           Charge          ....    0
 Multiplicity           Mult            ....    1
 Number of Electrons    NEL             ....   72
 Basis Dimension        Dim             ....  363

ORBITAL ENERGIES
----------------

  NO   OCC          E(Eh)            E(eV)
   0   2.0000     -20.554016      -559.3032
   1   2.0000     -20.550394      -559.2046
   2   2.0000     -11.273364      -306.7638
   3   2.0000     -11.273157      -306.7582
   4   2.0000     -11.267066      -306.5924
   5   2.0000     -11.231460      -305.6236
   6   2.0000     -11.226293      -305.4830
   7   2.0000     -11.220687      -305.3304
   8   2.0000     -11.219812      -305.3066
   9   2.0000      -1.371503       -37.3205
  10   2.0000      -1.357900       -36.9503
  11   2.0000      -1.149869       -31.2895
  12   2.0000      -1.019981       -27.7551
  13   2.0000      -0.970855       -26.4183
  14   2.0000      -0.882916       -24.0254
  15   2.0000      -0.856654       -23.3107
  16   2.0000      -0.796576       -21.6759
  17   2.0000      -0.761010       -20.7081
  18   2.0000      -0.692843       -18.8532
  19   2.0000      -0.683383       -18.5958
  20   2.0000      -0.654759       -17.8169
  21   2.0000      -0.643292       -17.5049
  22   2.0000      -0.631950       -17.1962
  23   2.0000      -0.624953       -17.0058
  24   2.0000      -0.575756       -15.6671
  25   2.0000      -0.571202       -15.5432
  26   2.0000      -0.548192       -14.9171
  27   2.0000      -0.528549       -14.3825
  28   2.0000      -0.504477       -13.7275
  29   2.0000      -0.494725       -13.4621
  30   2.0000      -0.489713       -13.3258
  31   2.0000      -0.469090       -12.7646
  32   2.0000      -0.442933       -12.0528
  33   2.0000      -0.425259       -11.5719
  34   2.0000      -0.402496       -10.9525
  35   2.0000      -0.400621       -10.9014
  36   0.0000       0.136548         3.7157
  37   0.0000       0.145653         3.9634
  38   0.0000       0.154442         4.2026
  39   0.0000       0.169345         4.6081
  40   0.0000       0.176137         4.7929

MULLIKEN ATOMIC CHARGES
-----------------------
   0 C :   -0.216839
   1 O :   -0.296572
   2 C :   -0.082508
   3 C :   -0.021709
   4 C :   -0.294189
   5 C :   -0.137080
   6 C :   -0.169750
   7 C :   -0.072800
   8 O :   -0.466457
   9 H :    0.138253
  10 H :    0.109294
  11 H :    0.108340
  12 H :    0.089976
  13 H :    0.095520
  14 H :    0.119356
  15 H :    0.131815
  16 H :    0.124123
  17 H :    0.113748
  18 H :    0.101930
  19 H :    0.119469
  20 H :    0.090300
  21 H :    0.100658
  22 H :    0.315125
Sum of atomic charges:   -0.0000000

LOEWDIN ATOMIC CHARGES
----------------------
   0 C :   -0.365916
   1 O :    0.137025
   2 C :   -0.309319
   3 C :   -0.208885
   4 C :   -0.204698
   5 C :   -0.208018
   6 C :   -0.252842
   7 C :   -0.347585
   8 O :   -0.053354
   9 H :    0.113046
  10 H :    0.100305
  11 H :    0.100223
  12 H :    0.121996
  13 H :    0.122516
  14 H :    0.151480
  15 H :    0.130764
  16 H :    0.137236
  17 H :    0.149712
  18 H :    0.141533
  19 H :    0.143223
  20 H :    0.113982
  21 H :    0.115926
  22 H :    0.171650

  Mayer bond orders larger than 0.1
B(  0-C ,  1-O ) :   0.9257 B(  0-C ,  9-H ) :   0.9395 B(  0-C , 10-H ) :   0.9377
B(  0-C , 11-H ) :   0.9360 B(  1-O ,  2-C ) :   0.9641 B(  2-C ,  3-C ) :   0.9530
B(  2-C , 12-H ) :   0.9178 B(  2-C , 13-H ) :   0.9266 B(  3-C ,  4-C ) :   0.8810
B(  3-C ,  5-C ) :   0.8522 B(  3-C , 14-H ) :   0.9311 B(  4-C ,  5-C ) :   0.9008
B(  4-C , 15-H ) :   0.9259 B(  4-C , 16-H ) :   0.9233 B(  5-C ,  6-C ) :   0.9025
B(  5-C , 17-H ) :   0.9223 B(  6-C ,  7-C ) :   0.9332 B(  6-C , 18-H ) :   0.9246
B(  6-C , 19-H ) :   0.9250 B(  7-C ,  8-O ) :   1.0178 B(  7-C , 20-H ) :   0.9330
B(  7-C , 21-H ) :   0.9309 B(  8-O , 22-H ) :   0.8494

MP2 TOTAL ENERGY:     -424.687846189 Eh
FINAL SINGLE POINT ENERGY      -424.687846188567

DIPOLE MOMENT
-------------
                                X             Y             Z
Electronic contribution:     -0.79690      -1.68903      -0.22034
Nuclear contribution   :      0.53611       1.36941       0.24433
                        -----------------------------------------
Total Dipole Moment    :     -0.26080      -0.31962       0.02399
                        -----------------------------------------
Magnitude (a.u.)       :      0.41321
Magnitude (Debye)      :      1.05030

                             ****ORCA TERMINATED NORMALLY****
TOTAL RUN TIME: 0 days 0 hours 15 minutes 54 seconds 718 msec
