                         Program Version 3.0.3 - RELEASE   -
|  1> ! RI-MP2 RIJK def2-TZVP def2-TZVP/C def2-TZVP/JK TIGHTSCF
|  2> % maxcore 2000
|  3> % mp2 density relaxed end
|  4> *xyz 0 1
|  5>  C       -0.2332312633     1.3988635696     0.2657437858
|  6>  C       -0.0151407670    -0.0611284531    -0.0512150967
|  7>  C        0.7131022206    -0.5684583921    -1.2458110750
|  8>  C        1.5676322764     0.3481603756    -2.1037290500
|  9>  C        2.7108801076     0.7619514937    -1.1753810613
| 10>  O        3.6483331924     1.4737386499    -1.4191152648
| 11>  C        2.4252651844     0.1432020813     0.1939999572
| 12>  N        3.0736798571     0.3821973093     1.2560272191
| 13>  N        1.3120263426    -0.7174711181     0.1138541488
| 14>  H        0.4892930057     2.0623966702    -0.2156183988
| 15>  H       -1.2335932727     1.6982184178    -0.0625568669
| 16>  H       -0.1669835616     1.5669151272     1.3452086625
| 17>  H       -0.8081885349    -0.7055548402     0.3225675163
| 18>  H        0.3828408864    -1.5021436924    -1.6911756777
| 19>  H        1.9745996919    -0.1773651187    -2.9730590971
| 20>  H        1.0504690544     1.2358819895    -2.4813130755
| 21>  H        3.8454542400     1.0143699605     1.0156149140
| 22> *
| 23>
| 24>                          ****END OF INPUT****

CARTESIAN COORDINATES (ANGSTROEM)
---------------------------------
  C     -0.233231    1.398864    0.265744
  C     -0.015141   -0.061128   -0.051215
  C      0.713102   -0.568458   -1.245811
  C      1.567632    0.348160   -2.103729
  C      2.710880    0.761951   -1.175381
  O      3.648333    1.473739   -1.419115
  C      2.425265    0.143202    0.194000
  N      3.073680    0.382197    1.256027
  N      1.312026   -0.717471    0.113854
  H      0.489293    2.062397   -0.215618
  H     -1.233593    1.698218   -0.062557
  H     -0.166984    1.566915    1.345209
  H     -0.808189   -0.705555    0.322568
  H      0.382841   -1.502144   -1.691176
  H      1.974600   -0.177365   -2.973059
  H      1.050469    1.235882   -2.481313
  H      3.845454    1.014370    1.015615

 Total Charge           Charge          ....    0
 Multiplicity           Mult            ....    1
 Number of Electrons    NEL             ....   66
 Basis Dimension        Dim             ....  327

ORBITAL ENERGIES
----------------

  NO   OCC          E(Eh)            E(eV)
   0   2.0000     -20.578185      -559.9609
   1   2.0000     -15.584769      -424.0831
   2   2.0000     -15.562132      -423.4672
   3   2.0000     -11.356297      -309.0205
   4   2.0000     -11.318967      -308.0048
   5   2.0000     -11.294609      -307.3419
   6   2.0000     -11.288587      -307.1781
   7   2.0000     -11.265853      -306.5595
   8   2.0000     -11.244726      -305.9846
   9   2.0000      -1.421237       -38.6738
  10   2.0000      -1.323614       -36.0174
  11   2.0000      -1.210097       -32.9284
  12   2.0000      -1.059060       -28.8185
  13   2.0000      -1.024863       -27.8879
  14   2.0000      -0.959615       -26.1125
  15   2.0000      -0.833041       -22.6682
  16   2.0000      -0.807291       -21.9675
  17   2.0000      -0.738357       -20.0917
  18   2.0000      -0.711815       -19.3695
  19   2.0000      -0.682559       -18.5734
  20   2.0000      -0.652979       -17.7685
  21   2.0000      -0.633322       -17.2336
  22   2.0000      -0.618644       -16.8342
  23   2.0000      -0.600744       -16.3471
  24   2.0000      -0.576236       -15.6802
  25   2.0000      -0.546036       -14.8584
  26   2.0000      -0.535345       -14.5675
  27   2.0000      -0.514991       -14.0136
  28   2.0000      -0.499216       -13.5844
  29   2.0000      -0.485431       -13.2092
  30   2.0000      -0.441858       -12.0236
  31   2.0000      -0.411869       -11.2075
  32   2.0000      -0.382557       -10.4099
  33   0.0000       0.068254         1.8573
  34   0.0000       0.124215         3.3801
  35   0.0000       0.153850         4.1865
  36   0.0000       0.157276         4.2797
  37   0.0000       0.178001         4.8436

MULLIKEN ATOMIC CHARGES
-----------------------
   0 C :   -0.390517
   1 C :   -0.022684
   2 C :   -0.087258
   3 C :   -0.211972
   4 C :    0.129865
   5 O :   -0.257681
   6 C :    0.015760
   7 N :   -0.282712
   8 N :   -0.165573
   9 H :    0.136257
  10 H :    0.146442
  11 H :    0.159069
  12 H :    0.129336
  13 H :    0.143126
  14 H :    0.159217
  15 H :    0.161130
  16 H :    0.238195
Sum of atomic charges:   -0.0000000

LOEWDIN ATOMIC CHARGES
----------------------
   0 C :   -0.284676
   1 C :   -0.230823
   2 C :   -0.205046
   3 C :   -0.207059
   4 C :   -0.293157
   5 O :    0.176290
   6 C :   -0.342090
   7 N :    0.005292
   8 N :    0.184951
   9 H :    0.130666
  10 H :    0.134706
  11 H :    0.138515
  12 H :    0.150440
  13 H :    0.144235
  14 H :    0.161021
  15 H :    0.158383
  16 H :    0.178352

  Mayer bond orders larger than 0.1
B(  0-C ,  1-C ) :   0.9084 B(  0-C ,  9-H ) :   0.9287 B(  0-C , 10-H ) :   0.9253
B(  0-C , 11-H ) :   0.9324 B(  1-C ,  2-C ) :   0.9451 B(  1-C ,  8-N ) :   0.8448
B(  1-C , 12-H ) :   0.9236 B(  2-C ,  3-C ) :   0.9149 B(  2-C ,  8-N ) :   0.8629
B(  2-C , 13-H ) :   0.9034 B(  3-C ,  4-C ) :   0.8960 B(  3-C , 14-H ) :   0.8976
B(  3-C , 15-H ) :   0.9051 B(  4-C ,  5-O ) :   1.9753 B(  4-C ,  6-C ) :   0.9034
B(  6-C ,  7-N ) :   2.0049 B(  6-C ,  8-N ) :   1.0341 B(  7-N , 16-H ) :   0.8423

MP2 TOTAL ENERGY:     -417.297127817 Eh
FINAL SINGLE POINT ENERGY      -417.297127817268

DIPOLE MOMENT
-------------
                                X             Y             Z
Electronic contribution:      6.33363      -1.78697      -0.02072
Nuclear contribution   :     -7.55966       1.95483      -0.95808
                        -----------------------------------------
Total Dipole Moment    :     -1.22603       0.16786      -0.97880
                        -----------------------------------------
Magnitude (a.u.)       :      1.57777
Magnitude (Debye)      :      4.01038

                             ****ORCA TERMINATED NORMALLY****
TOTAL RUN TIME: 0 days 0 hours 19 minutes 31 seconds 447 msec
