                         Program Version 3.0.3 - RELEASE   -
|  1> ! RI-MP2 RIJK def2-TZVP def2-TZVP/C def2-TZVP/JK TIGHTSCF
|  2> % maxcore 2000
|  3> % mp2 density relaxed end
|  4> *xyz 0 1
|  5>  C       -0.1963997366     1.5173358970    -0.0640809104
|  6>  C       -0.0307652303    -0.0094757028    -0.0851945625
|  7>  C       -1.3859388871    -0.6756210217    -0.3718126009
|  8>  C        1.0641104428    -0.4655333547    -1.0817674328
|  9>  C        2.4370858805     0.1707938920    -0.8063022355
| 10>  C        1.2204093084    -1.9753665536    -1.0727294529
| 11>  C        0.6448878659    -2.8569583275    -2.0958079329
| 12>  O        2.0360074647    -2.5353936868    -2.1066754149
| 13>  H        0.7121881061     2.0307789155     0.2599045529
| 14>  H       -0.4602087476     1.8961715331    -1.0590840102
| 15>  H       -0.9996713454     1.8061592568     0.6215763455
| 16>  H        0.2926356888    -0.3242598767     0.9188909234
| 17>  H       -1.7451790497    -0.4151083093    -1.3748423145
| 18>  H       -1.3326860651    -1.7657418017    -0.3102369039
| 19>  H       -2.1411255913    -0.3381717565     0.3454474805
| 20>  H        0.7492282083    -0.1763240101    -2.0948449829
| 21>  H        3.1861360435    -0.2562674840    -1.4783346058
| 22>  H        2.4242746480     1.2524395008    -0.9592763871
| 23>  H        2.7592426269    -0.0198936373     0.2246384927
| 24>  H        1.4121978620    -2.4093555353    -0.0873614927
| 25>  H        0.4042028999    -3.8921243897    -1.8553788008
| 26>  H        0.0594681274    -2.4233349676    -2.9058329243
| 27> *
| 28>
| 29>                          ****END OF INPUT****

CARTESIAN COORDINATES (ANGSTROEM)
---------------------------------
  C     -0.196400    1.517336   -0.064081
  C     -0.030765   -0.009476   -0.085195
  C     -1.385939   -0.675621   -0.371813
  C      1.064110   -0.465533   -1.081767
  C      2.437086    0.170794   -0.806302
  C      1.220409   -1.975367   -1.072729
  C      0.644888   -2.856958   -2.095808
  O      2.036007   -2.535394   -2.106675
  H      0.712188    2.030779    0.259905
  H     -0.460209    1.896172   -1.059084
  H     -0.999671    1.806159    0.621576
  H      0.292636   -0.324260    0.918891
  H     -1.745179   -0.415108   -1.374842
  H     -1.332686   -1.765742   -0.310237
  H     -2.141126   -0.338172    0.345447
  H      0.749228   -0.176324   -2.094845
  H      3.186136   -0.256267   -1.478335
  H      2.424275    1.252440   -0.959276
  H      2.759243   -0.019894    0.224638
  H      1.412198   -2.409356   -0.087361
  H      0.404203   -3.892124   -1.855379
  H      0.059468   -2.423335   -2.905833

 Total Charge           Charge          ....    0
 Multiplicity           Mult            ....    1
 Number of Electrons    NEL             ....   64
 Basis Dimension        Dim             ....  332

ORBITAL ENERGIES
----------------

  NO   OCC          E(Eh)            E(eV)
   0   2.0000     -20.562266      -559.5277
   1   2.0000     -11.281361      -306.9815
   2   2.0000     -11.278513      -306.9039
   3   2.0000     -11.232832      -305.6609
   4   2.0000     -11.231609      -305.6276
   5   2.0000     -11.215450      -305.1879
   6   2.0000     -11.214549      -305.1634
   7   2.0000     -11.210606      -305.0561
   8   2.0000      -1.406140       -38.2630
   9   2.0000      -1.104293       -30.0493
  10   2.0000      -1.008362       -27.4389
  11   2.0000      -0.941921       -25.6310
  12   2.0000      -0.918354       -24.9897
  13   2.0000      -0.873741       -23.7757
  14   2.0000      -0.818916       -22.2838
  15   2.0000      -0.769274       -20.9330
  16   2.0000      -0.680009       -18.5040
  17   2.0000      -0.662438       -18.0259
  18   2.0000      -0.616039       -16.7633
  19   2.0000      -0.604292       -16.4436
  20   2.0000      -0.575817       -15.6688
  21   2.0000      -0.569843       -15.5062
  22   2.0000      -0.548012       -14.9122
  23   2.0000      -0.537879       -14.6364
  24   2.0000      -0.524631       -14.2759
  25   2.0000      -0.513730       -13.9793
  26   2.0000      -0.498092       -13.5538
  27   2.0000      -0.475425       -12.9370
  28   2.0000      -0.469310       -12.7706
  29   2.0000      -0.454335       -12.3631
  30   2.0000      -0.433054       -11.7840
  31   2.0000      -0.423951       -11.5363
  32   0.0000       0.134863         3.6698
  33   0.0000       0.148846         4.0503
  34   0.0000       0.154191         4.1957
  35   0.0000       0.174332         4.7438
  36   0.0000       0.188269         5.1231

MULLIKEN ATOMIC CHARGES
-----------------------
   0 C :   -0.411328
   1 C :   -0.063148
   2 C :   -0.402390
   3 C :   -0.038636
   4 C :   -0.425651
   5 C :    0.017402
   6 C :   -0.062875
   7 O :   -0.335480
   8 H :    0.139319
   9 H :    0.123887
  10 H :    0.132296
  11 H :    0.084717
  12 H :    0.120489
  13 H :    0.134692
  14 H :    0.133209
  15 H :    0.088953
  16 H :    0.157486
  17 H :    0.137829
  18 H :    0.120562
  19 H :    0.123487
  20 H :    0.113775
  21 H :    0.111405
Sum of atomic charges:   -0.0000000

LOEWDIN ATOMIC CHARGES
----------------------
   0 C :   -0.292953
   1 C :   -0.282558
   2 C :   -0.291434
   3 C :   -0.251901
   4 C :   -0.285645
   5 C :   -0.275448
   6 C :   -0.271727
   7 O :    0.145675
   8 H :    0.122016
   9 H :    0.124360
  10 H :    0.123785
  11 H :    0.151493
  12 H :    0.123744
  13 H :    0.123514
  14 H :    0.123210
  15 H :    0.158698
  16 H :    0.131038
  17 H :    0.121937
  18 H :    0.124395
  19 H :    0.140082
  20 H :    0.118022
  21 H :    0.119698

  Mayer bond orders larger than 0.1
B(  0-C ,  1-C ) :   0.9101 B(  0-C ,  8-H ) :   0.9421 B(  0-C ,  9-H ) :   0.9319
B(  0-C , 10-H ) :   0.9401 B(  1-C ,  2-C ) :   0.9140 B(  1-C ,  3-C ) :   0.9198
B(  1-C , 11-H ) :   0.9193 B(  2-C , 12-H ) :   0.9326 B(  2-C , 13-H ) :   0.9370
B(  2-C , 14-H ) :   0.9398 B(  3-C ,  4-C ) :   0.9054 B(  3-C ,  5-C ) :   0.9026
B(  3-C , 15-H ) :   0.9153 B(  4-C , 16-H ) :   0.9380 B(  4-C , 17-H ) :   0.9427
B(  4-C , 18-H ) :   0.9295 B(  5-C ,  6-C ) :   0.9945 B(  5-C ,  7-O ) :   0.8650
B(  5-C , 19-H ) :   0.9083 B(  6-C ,  7-O ) :   0.9226 B(  6-C , 20-H ) :   0.9218
B(  6-C , 21-H ) :   0.9037

MP2 TOTAL ENERGY:     -349.586981511 Eh
FINAL SINGLE POINT ENERGY      -349.586981511395

DIPOLE MOMENT
-------------
                                X             Y             Z
Electronic contribution:      3.90056      -6.26141      -3.21202
Nuclear contribution   :     -4.53818       6.43456       3.54534
                        -----------------------------------------
Total Dipole Moment    :     -0.63762       0.17315       0.33332
                        -----------------------------------------
Magnitude (a.u.)       :      0.74003
Magnitude (Debye)      :      1.88100

                             ****ORCA TERMINATED NORMALLY****
TOTAL RUN TIME: 0 days 0 hours 14 minutes 12 seconds 304 msec
