                         Program Version 3.0.3 - RELEASE   -
|  1> ! RI-MP2 RIJK def2-TZVP def2-TZVP/C def2-TZVP/JK TIGHTSCF
|  2> % maxcore 2000
|  3> % mp2 density relaxed end
|  4> *xyz 0 1
|  5>  C        0.0089025584     1.5490767968     0.1764455531
|  6>  C       -0.1000262712     0.0218843795     0.1222083291
|  7>  C       -1.5069994714    -0.5110974843    -0.2099683136
|  8>  C       -1.9757872198    -0.1207724669    -1.6204514653
|  9>  C       -1.5516714329    -2.0217860870    -0.0453569293
| 10>  C       -1.7473354111    -2.6480200440     1.3227866318
| 11>  C       -2.8346266110    -2.7291642822     0.2785364341
| 12>  O       -3.9798525897    -1.9335073792     0.4075250997
| 13>  H        1.0129058684     1.8588337262     0.4838819131
| 14>  H       -0.1918860996     2.0107180038    -0.7951857573
| 15>  H       -0.7026762256     1.9697344615     0.8962534405
| 16>  H        0.6150620011    -0.3707818686    -0.6144728925
| 17>  H        0.2062079502    -0.3927143962     1.0906542070
| 18>  H       -2.2147567041    -0.0789892864     0.5082283914
| 19>  H       -2.9849143809    -0.4995191219    -1.8036019475
| 20>  H       -1.9949659492     0.9644374250    -1.7570273341
| 21>  H       -1.3104298649    -0.5406467303    -2.3851527157
| 22>  H       -0.8879789325    -2.5582592176    -0.7211854680
| 23>  H       -1.1999108827    -3.5467387662     1.5864268310
| 24>  H       -1.9229016164    -1.9641100487     2.1478157612
| 25>  H       -3.0102830556    -3.6966334650    -0.1924611894
| 26>  H       -4.5093173293    -2.2889775385     1.1285639708
| 27> *
| 28>
| 29>                          ****END OF INPUT****

CARTESIAN COORDINATES (ANGSTROEM)
---------------------------------
  C      0.008903    1.549077    0.176446
  C     -0.100026    0.021884    0.122208
  C     -1.506999   -0.511097   -0.209968
  C     -1.975787   -0.120772   -1.620451
  C     -1.551671   -2.021786   -0.045357
  C     -1.747335   -2.648020    1.322787
  C     -2.834627   -2.729164    0.278536
  O     -3.979853   -1.933507    0.407525
  H      1.012906    1.858834    0.483882
  H     -0.191886    2.010718   -0.795186
  H     -0.702676    1.969734    0.896253
  H      0.615062   -0.370782   -0.614473
  H      0.206208   -0.392714    1.090654
  H     -2.214757   -0.078989    0.508228
  H     -2.984914   -0.499519   -1.803602
  H     -1.994966    0.964437   -1.757027
  H     -1.310430   -0.540647   -2.385153
  H     -0.887979   -2.558259   -0.721185
  H     -1.199911   -3.546739    1.586427
  H     -1.922902   -1.964110    2.147816
  H     -3.010283   -3.696633   -0.192461
  H     -4.509317   -2.288978    1.128564

 Total Charge           Charge          ....    0
 Multiplicity           Mult            ....    1
 Number of Electrons    NEL             ....   64
 Basis Dimension        Dim             ....  332

ORBITAL ENERGIES
----------------

  NO   OCC          E(Eh)            E(eV)
   0   2.0000     -20.560449      -559.4783
   1   2.0000     -11.278258      -306.8970
   2   2.0000     -11.224379      -305.4309
   3   2.0000     -11.221145      -305.3429
   4   2.0000     -11.219086      -305.2869
   5   2.0000     -11.211530      -305.0812
   6   2.0000     -11.206812      -304.9528
   7   2.0000     -11.200366      -304.7775
   8   2.0000      -1.369163       -37.2568
   9   2.0000      -1.136109       -30.9151
  10   2.0000      -1.057970       -28.7888
  11   2.0000      -0.972574       -26.4651
  12   2.0000      -0.878114       -23.8947
  13   2.0000      -0.827395       -22.5146
  14   2.0000      -0.804080       -21.8801
  15   2.0000      -0.754142       -20.5212
  16   2.0000      -0.694561       -18.9000
  17   2.0000      -0.661878       -18.0106
  18   2.0000      -0.619535       -16.8584
  19   2.0000      -0.611650       -16.6438
  20   2.0000      -0.582959       -15.8631
  21   2.0000      -0.552807       -15.0426
  22   2.0000      -0.547750       -14.9050
  23   2.0000      -0.530621       -14.4389
  24   2.0000      -0.520466       -14.1626
  25   2.0000      -0.503072       -13.6893
  26   2.0000      -0.496295       -13.5049
  27   2.0000      -0.464772       -12.6471
  28   2.0000      -0.458432       -12.4746
  29   2.0000      -0.449793       -12.2395
  30   2.0000      -0.396433       -10.7875
  31   2.0000      -0.393592       -10.7102
  32   0.0000       0.139755         3.8029
  33   0.0000       0.149640         4.0719
  34   0.0000       0.155985         4.2446
  35   0.0000       0.166686         4.5357
  36   0.0000       0.186050         5.0627

MULLIKEN ATOMIC CHARGES
-----------------------
   0 C :   -0.405081
   1 C :   -0.179496
   2 C :   -0.041995
   3 C :   -0.431396
   4 C :   -0.079675
   5 C :   -0.291884
   6 C :    0.017613
   7 O :   -0.471666
   8 H :    0.133137
   9 H :    0.126897
  10 H :    0.121691
  11 H :    0.098905
  12 H :    0.113795
  13 H :    0.089855
  14 H :    0.151471
  15 H :    0.129697
  16 H :    0.113322
  17 H :    0.117236
  18 H :    0.128159
  19 H :    0.132995
  20 H :    0.104394
  21 H :    0.322028
Sum of atomic charges:   -0.0000000

LOEWDIN ATOMIC CHARGES
----------------------
   0 C :   -0.320411
   1 C :   -0.270045
   2 C :   -0.267365
   3 C :   -0.286999
   4 C :   -0.193236
   5 C :   -0.223193
   6 C :   -0.321074
   7 O :   -0.006059
   8 H :    0.120389
   9 H :    0.118542
  10 H :    0.120600
  11 H :    0.135638
  12 H :    0.138560
  13 H :    0.157754
  14 H :    0.129175
  15 H :    0.120325
  16 H :    0.121566
  17 H :    0.150841
  18 H :    0.129430
  19 H :    0.137182
  20 H :    0.128537
  21 H :    0.179843

  Mayer bond orders larger than 0.1
B(  0-C ,  1-C ) :   0.9156 B(  0-C ,  8-H ) :   0.9430 B(  0-C ,  9-H ) :   0.9422
B(  0-C , 10-H ) :   0.9388 B(  1-C ,  2-C ) :   0.9200 B(  1-C , 11-H ) :   0.9229
B(  1-C , 12-H ) :   0.9379 B(  2-C ,  3-C ) :   0.9063 B(  2-C ,  4-C ) :   0.9326
B(  2-C , 13-H ) :   0.9180 B(  3-C , 14-H ) :   0.9409 B(  3-C , 15-H ) :   0.9407
B(  3-C , 16-H ) :   0.9298 B(  4-C ,  5-C ) :   0.8792 B(  4-C ,  6-C ) :   0.8766
B(  4-C , 17-H ) :   0.9164 B(  5-C ,  6-C ) :   0.8948 B(  5-C , 18-H ) :   0.9208
B(  5-C , 19-H ) :   0.9230 B(  6-C ,  7-O ) :   1.0309 B(  6-C , 20-H ) :   0.9556
B(  7-O , 21-H ) :   0.8411

MP2 TOTAL ENERGY:     -349.589964239 Eh
FINAL SINGLE POINT ENERGY      -349.589964239050

DIPOLE MOMENT
-------------
                                X             Y             Z
Electronic contribution:     -4.96698      -5.39491       1.53061
Nuclear contribution   :      5.00144       4.95963      -1.12950
                        -----------------------------------------
Total Dipole Moment    :      0.03446      -0.43528       0.40110
                        -----------------------------------------
Magnitude (a.u.)       :      0.59291
Magnitude (Debye)      :      1.50706

                             ****ORCA TERMINATED NORMALLY****
TOTAL RUN TIME: 0 days 0 hours 13 minutes 54 seconds 258 msec
