                         Program Version 3.0.3 - RELEASE   -
|  1> ! RI-MP2 RIJK def2-TZVP def2-TZVP/C def2-TZVP/JK TIGHTSCF
|  2> % maxcore 2000
|  3> % mp2 density relaxed end
|  4> *xyz 0 1
|  5>  C        0.0868125265     1.2644203455     0.2619393652
|  6>  O        0.0064757343    -0.1415755436     0.1018978443
|  7>  C       -1.2483398500    -0.6685958221     0.0281808488
|  8>  C       -1.4755935417    -2.0144989432     0.0138434299
|  9>  C       -0.5326281157    -3.1697385183     0.0945168015
| 10>  O        0.4613111147    -2.9860982567     1.0924270008
| 11>  O       -2.8212216153    -2.2353311976    -0.0682567892
| 12>  C       -3.4333661866    -1.0281759804    -0.1085816672
| 13>  C       -2.5229050107    -0.0179997266    -0.0498338477
| 14>  H        1.1475830765     1.5083055824     0.3381939266
| 15>  H       -0.3413018197     1.7892162941    -0.6016740211
| 16>  H       -0.4283705250     1.5934587384     1.1733511583
| 17>  H       -1.0951981990    -4.0701023008     0.3600485655
| 18>  H       -0.0649155453    -3.3580881965    -0.8864998001
| 19>  H        0.8595682921    -2.1221546074     0.9346176946
| 20>  H       -4.5082458337    -1.0466729377    -0.1775860716
| 21>  H       -2.7356306214     1.0383251905    -0.0568765186
| 22> *
| 23>
| 24>                          ****END OF INPUT****

CARTESIAN COORDINATES (ANGSTROEM)
---------------------------------
  C      0.086813    1.264420    0.261939
  O      0.006476   -0.141576    0.101898
  C     -1.248340   -0.668596    0.028181
  C     -1.475594   -2.014499    0.013843
  C     -0.532628   -3.169739    0.094517
  O      0.461311   -2.986098    1.092427
  O     -2.821222   -2.235331   -0.068257
  C     -3.433366   -1.028176   -0.108582
  C     -2.522905   -0.018000   -0.049834
  H      1.147583    1.508306    0.338194
  H     -0.341302    1.789216   -0.601674
  H     -0.428371    1.593459    1.173351
  H     -1.095198   -4.070102    0.360049
  H     -0.064916   -3.358088   -0.886500
  H      0.859568   -2.122155    0.934618
  H     -4.508246   -1.046673   -0.177586
  H     -2.735631    1.038325   -0.056877

 Total Charge           Charge          ....    0
 Multiplicity           Mult            ....    1
 Number of Electrons    NEL             ....   68
 Basis Dimension        Dim             ....  327

ORBITAL ENERGIES
----------------

  NO   OCC          E(Eh)            E(eV)
   0   2.0000     -20.624608      -561.2241
   1   2.0000     -20.594406      -560.4023
   2   2.0000     -20.548852      -559.1627
   3   2.0000     -11.294907      -307.3501
   4   2.0000     -11.294252      -307.3322
   5   2.0000     -11.290031      -307.2174
   6   2.0000     -11.283905      -307.0507
   7   2.0000     -11.276279      -306.8431
   8   2.0000     -11.237195      -305.7796
   9   2.0000      -1.462801       -39.8048
  10   2.0000      -1.416302       -38.5395
  11   2.0000      -1.353840       -36.8399
  12   2.0000      -1.085767       -29.5452
  13   2.0000      -1.037865       -28.2417
  14   2.0000      -0.961232       -26.1565
  15   2.0000      -0.908218       -24.7139
  16   2.0000      -0.810280       -22.0488
  17   2.0000      -0.779274       -21.2051
  18   2.0000      -0.735578       -20.0161
  19   2.0000      -0.681041       -18.5321
  20   2.0000      -0.668794       -18.1988
  21   2.0000      -0.648783       -17.6543
  22   2.0000      -0.645685       -17.5700
  23   2.0000      -0.632144       -17.2015
  24   2.0000      -0.611660       -16.6441
  25   2.0000      -0.600483       -16.3400
  26   2.0000      -0.577243       -15.7076
  27   2.0000      -0.544239       -14.8095
  28   2.0000      -0.525917       -14.3109
  29   2.0000      -0.514400       -13.9975
  30   2.0000      -0.488384       -13.2896
  31   2.0000      -0.451609       -12.2889
  32   2.0000      -0.384801       -10.4710
  33   2.0000      -0.302927        -8.2431
  34   0.0000       0.135059         3.6751
  35   0.0000       0.137536         3.7426
  36   0.0000       0.157223         4.2782
  37   0.0000       0.176106         4.7921
  38   0.0000       0.184875         5.0307

MULLIKEN ATOMIC CHARGES
-----------------------
   0 C :   -0.237490
   1 O :   -0.341763
   2 C :    0.214896
   3 C :    0.077876
   4 C :   -0.032856
   5 O :   -0.477154
   6 O :   -0.208626
   7 C :   -0.014472
   8 C :   -0.272929
   9 H :    0.151210
  10 H :    0.133552
  11 H :    0.136119
  12 H :    0.130199
  13 H :    0.115519
  14 H :    0.327649
  15 H :    0.151093
  16 H :    0.147176
Sum of atomic charges:   -0.0000000

LOEWDIN ATOMIC CHARGES
----------------------
   0 C :   -0.324868
   1 O :    0.204854
   2 C :   -0.274647
   3 C :   -0.243075
   4 C :   -0.311766
   5 O :   -0.043060
   6 O :    0.363167
   7 C :   -0.247673
   8 C :   -0.182616
   9 H :    0.117440
  10 H :    0.110253
  11 H :    0.110952
  12 H :    0.140821
  13 H :    0.126965
  14 H :    0.174434
  15 H :    0.133048
  16 H :    0.145770

  Mayer bond orders larger than 0.1
B(  0-C ,  1-O ) :   0.8783 B(  0-C ,  9-H ) :   0.9385 B(  0-C , 10-H ) :   0.9374
B(  0-C , 11-H ) :   0.9342 B(  1-O ,  2-C ) :   1.0015 B(  2-C ,  3-C ) :   1.4969
B(  2-C ,  8-C ) :   1.1932 B(  3-C ,  4-C ) :   0.8613 B(  3-C ,  6-O ) :   1.0460
B(  4-C ,  5-O ) :   0.9421 B(  4-C , 12-H ) :   0.9321 B(  4-C , 13-H ) :   0.9503
B(  5-O , 14-H ) :   0.8353 B(  6-O ,  7-C ) :   1.0683 B(  7-C ,  8-C ) :   1.4990
B(  7-C , 15-H ) :   0.9334 B(  8-C , 16-H ) :   0.9144

MP2 TOTAL ENERGY:     -458.223714868 Eh
FINAL SINGLE POINT ENERGY      -458.223714867655

DIPOLE MOMENT
-------------
                                X             Y             Z
Electronic contribution:     -2.58588      -3.64356      -0.12629
Nuclear contribution   :      2.34489       4.86246      -0.26260
                        -----------------------------------------
Total Dipole Moment    :     -0.24099       1.21890      -0.38890
                        -----------------------------------------
Magnitude (a.u.)       :      1.30193
Magnitude (Debye)      :      3.30925

                             ****ORCA TERMINATED NORMALLY****
TOTAL RUN TIME: 0 days 0 hours 15 minutes 14 seconds 104 msec
