                         Program Version 3.0.3 - RELEASE   -
|  1> ! RI-MP2 RIJK def2-TZVP def2-TZVP/C def2-TZVP/JK TIGHTSCF
|  2> % maxcore 2000
|  3> % mp2 density relaxed end
|  4> *xyz 0 1
|  5>  N        0.1217268370     1.3907002653     0.1453680686
|  6>  C       -0.0125062101     0.0044342971     0.0315897491
|  7>  C       -1.1788863399    -0.6819377298    -0.0080772634
|  8>  C       -1.2116451201    -2.1456003143    -0.0150023648
|  9>  O       -2.2579258490    -2.7888733950    -0.0476720551
| 10>  C        0.1094415149    -2.7765130612    -0.0255241559
| 11>  C        1.2484114873    -2.0455783043     0.0145144744
| 12>  N        2.5469923641    -2.5523156660     0.1125255581
| 13>  H        2.5697672543    -3.5608840948     0.0484649617
| 14>  H        3.1926194462    -2.1454265367    -0.5545872518
| 15>  N        1.2003317403    -0.6623242514     0.0183668138
| 16>  H        0.7711382909     1.7914641677    -0.5217786997
| 17>  H       -0.7685790281     1.8666347218     0.0936576246
| 18>  H       -2.1242736544    -0.1546976839    -0.0541458019
| 19>  H        0.1532038565    -3.8574434132    -0.0849883727
| 20>  H        1.9920338500    -0.1786820312     0.4163669951
| 21> *
| 22>
| 23>                          ****END OF INPUT****

CARTESIAN COORDINATES (ANGSTROEM)
---------------------------------
  N      0.121727    1.390700    0.145368
  C     -0.012506    0.004434    0.031590
  C     -1.178886   -0.681938   -0.008077
  C     -1.211645   -2.145600   -0.015002
  O     -2.257926   -2.788873   -0.047672
  C      0.109442   -2.776513   -0.025524
  C      1.248411   -2.045578    0.014514
  N      2.546992   -2.552316    0.112526
  H      2.569767   -3.560884    0.048465
  H      3.192619   -2.145427   -0.554587
  N      1.200332   -0.662324    0.018367
  H      0.771138    1.791464   -0.521779
  H     -0.768579    1.866635    0.093658
  H     -2.124274   -0.154698   -0.054146
  H      0.153204   -3.857443   -0.084988
  H      1.992034   -0.178682    0.416367

 Total Charge           Charge          ....    0
 Multiplicity           Mult            ....    1
 Number of Electrons    NEL             ....   66
 Basis Dimension        Dim             ....  321

ORBITAL ENERGIES
----------------

  NO   OCC          E(Eh)            E(eV)
   0   2.0000     -20.485363      -557.4351
   1   2.0000     -15.621559      -425.0842
   2   2.0000     -15.594521      -424.3485
   3   2.0000     -15.594521      -424.3485
   4   2.0000     -11.340268      -308.5844
   5   2.0000     -11.340247      -308.5838
   6   2.0000     -11.300714      -307.5081
   7   2.0000     -11.209945      -305.0381
   8   2.0000     -11.209928      -305.0376
   9   2.0000      -1.339829       -36.4586
  10   2.0000      -1.325131       -36.0587
  11   2.0000      -1.252044       -34.0699
  12   2.0000      -1.190320       -32.3902
  13   2.0000      -1.055754       -28.7285
  14   2.0000      -1.009703       -27.4754
  15   2.0000      -0.868377       -23.6297
  16   2.0000      -0.835119       -22.7247
  17   2.0000      -0.761601       -20.7242
  18   2.0000      -0.734259       -19.9802
  19   2.0000      -0.708828       -19.2882
  20   2.0000      -0.678963       -18.4755
  21   2.0000      -0.659339       -17.9415
  22   2.0000      -0.636228       -17.3126
  23   2.0000      -0.623308       -16.9611
  24   2.0000      -0.592928       -16.1344
  25   2.0000      -0.562193       -15.2980
  26   2.0000      -0.541856       -14.7447
  27   2.0000      -0.521939       -14.2027
  28   2.0000      -0.504298       -13.7227
  29   2.0000      -0.454403       -12.3649
  30   2.0000      -0.386367       -10.5136
  31   2.0000      -0.334096        -9.0912
  32   2.0000      -0.322477        -8.7750
  33   0.0000       0.106834         2.9071
  34   0.0000       0.125797         3.4231
  35   0.0000       0.132478         3.6049
  36   0.0000       0.155383         4.2282
  37   0.0000       0.156468         4.2577

MULLIKEN ATOMIC CHARGES
-----------------------
   0 N :   -0.543157
   1 C :    0.358896
   2 C :   -0.330289
   3 C :    0.243380
   4 O :   -0.378783
   5 C :   -0.330289
   6 C :    0.358894
   7 N :   -0.543158
   8 H :    0.258933
   9 H :    0.254052
  10 N :   -0.363644
  11 H :    0.254052
  12 H :    0.258933
  13 H :    0.122933
  14 H :    0.122934
  15 H :    0.256313
Sum of atomic charges:   -0.0000000

LOEWDIN ATOMIC CHARGES
----------------------
   0 N :   -0.075357
   1 C :   -0.308497
   2 C :   -0.146115
   3 C :   -0.378042
   4 O :    0.067914
   5 C :   -0.146115
   6 C :   -0.308497
   7 N :   -0.075358
   8 H :    0.176092
   9 H :    0.169394
  10 N :    0.174720
  11 H :    0.169394
  12 H :    0.176093
  13 H :    0.151223
  14 H :    0.151223
  15 H :    0.201928

  Mayer bond orders larger than 0.1
B(  0-N ,  1-C ) :   1.0066 B(  0-N , 11-H ) :   0.8656 B(  0-N , 12-H ) :   0.8821
B(  1-C ,  2-C ) :   1.4767 B(  1-C , 10-N ) :   1.0547 B(  2-C ,  3-C ) :   1.1068
B(  2-C , 13-H ) :   0.9174 B(  3-C ,  4-O ) :   1.8646 B(  3-C ,  5-C ) :   1.1068
B(  5-C ,  6-C ) :   1.4767 B(  5-C , 14-H ) :   0.9174 B(  6-C ,  7-N ) :   1.0066
B(  6-C , 10-N ) :   1.0547 B(  7-N ,  8-H ) :   0.8821 B(  7-N ,  9-H ) :   0.8656
B( 10-N , 15-H ) :   0.8586

MP2 TOTAL ENERGY:     -433.400717530 Eh
FINAL SINGLE POINT ENERGY      -433.400717530193

DIPOLE MOMENT
-------------
                                X             Y             Z
Electronic contribution:     -2.50661      -1.54305       0.15670
Nuclear contribution   :      4.81772       2.96945      -0.74290
                        -----------------------------------------
Total Dipole Moment    :      2.31111       1.42640      -0.58621
                        -----------------------------------------
Magnitude (a.u.)       :      2.77840
Magnitude (Debye)      :      7.06212

                             ****ORCA TERMINATED NORMALLY****
TOTAL RUN TIME: 0 days 0 hours 14 minutes 7 seconds 854 msec
