                         Program Version 3.0.3 - RELEASE   -
|  1> ! RI-MP2 RIJK def2-TZVP def2-TZVP/C def2-TZVP/JK TIGHTSCF
|  2> % maxcore 2000
|  3> % mp2 density relaxed end
|  4> *xyz 0 1
|  5>  C       -0.0305923074     1.5210115681    -0.0000823432
|  6>  C        1.1255432248     2.1948051032     0.0193892913
|  7>  C        2.3600424987     1.4137311545     0.0667308739
|  8>  C        2.4483998842     0.1067400130     0.7952742606
|  9>  C        1.1442122720    -0.6887159093     0.7997166777
| 10>  C        0.0580273714     0.0628963134     0.0079947667
| 11>  C        1.2167710239    -0.6478650279    -0.6944160788
| 12>  N        2.5191759796     0.0978152958    -0.6927616509
| 13>  H       -0.9991943963     2.0051031999    -0.0470861906
| 14>  H        1.1876993294     3.2760489394    -0.0119693403
| 15>  H        3.2950259611     1.9627125460     0.0152391020
| 16>  H        3.3083332747    -0.1517236460     1.4042786316
| 17>  H        0.9029827735    -1.4925593346     1.4812471251
| 18>  H       -0.8678615226    -0.5006551557    -0.0484358779
| 19>  H        1.0557345434    -1.3925800699    -1.4619770074
| 20> *
| 21>
| 22>                          ****END OF INPUT****

CARTESIAN COORDINATES (ANGSTROEM)
---------------------------------
  C     -0.030592    1.521012   -0.000082
  C      1.125543    2.194805    0.019389
  C      2.360042    1.413731    0.066731
  C      2.448400    0.106740    0.795274
  C      1.144212   -0.688716    0.799717
  C      0.058027    0.062896    0.007995
  C      1.216771   -0.647865   -0.694416
  N      2.519176    0.097815   -0.692762
  H     -0.999194    2.005103   -0.047086
  H      1.187699    3.276049   -0.011969
  H      3.295026    1.962713    0.015239
  H      3.308333   -0.151724    1.404279
  H      0.902983   -1.492559    1.481247
  H     -0.867862   -0.500655   -0.048436
  H      1.055735   -1.392580   -1.461977

 Total Charge           Charge          ....    0
 Multiplicity           Mult            ....    1
 Number of Electrons    NEL             ....   56
 Basis Dimension        Dim             ....  290

ORBITAL ENERGIES
----------------

  NO   OCC          E(Eh)            E(eV)
   0   2.0000     -15.562205      -423.4691
   1   2.0000     -11.267579      -306.6064
   2   2.0000     -11.266871      -306.5871
   3   2.0000     -11.266123      -306.5668
   4   2.0000     -11.246827      -306.0417
   5   2.0000     -11.244551      -305.9798
   6   2.0000     -11.231120      -305.6143
   7   2.0000     -11.225295      -305.4558
   8   2.0000      -1.308386       -35.6030
   9   2.0000      -1.112724       -30.2787
  10   2.0000      -1.069299       -29.0971
  11   2.0000      -0.921190       -25.0669
  12   2.0000      -0.867179       -23.5971
  13   2.0000      -0.855397       -23.2765
  14   2.0000      -0.739094       -20.1118
  15   2.0000      -0.721448       -19.6316
  16   2.0000      -0.668631       -18.1944
  17   2.0000      -0.652237       -17.7483
  18   2.0000      -0.630708       -17.1624
  19   2.0000      -0.597499       -16.2588
  20   2.0000      -0.531510       -14.4631
  21   2.0000      -0.528390       -14.3782
  22   2.0000      -0.507656       -13.8140
  23   2.0000      -0.489556       -13.3215
  24   2.0000      -0.463215       -12.6047
  25   2.0000      -0.378764       -10.3067
  26   2.0000      -0.353386        -9.6161
  27   2.0000      -0.331501        -9.0206
  28   0.0000       0.137984         3.7547
  29   0.0000       0.148685         4.0459
  30   0.0000       0.168757         4.5921
  31   0.0000       0.173261         4.7147
  32   0.0000       0.185698         5.0531

MULLIKEN ATOMIC CHARGES
-----------------------
   0 C :   -0.174304
   1 C :   -0.168878
   2 C :   -0.060957
   3 C :    0.019154
   4 C :   -0.191488
   5 C :   -0.095561
   6 C :   -0.028032
   7 N :   -0.242630
   8 H :    0.125600
   9 H :    0.125867
  10 H :    0.124325
  11 H :    0.143816
  12 H :    0.148848
  13 H :    0.128174
  14 H :    0.146066
Sum of atomic charges:   -0.0000000

LOEWDIN ATOMIC CHARGES
----------------------
   0 C :   -0.148693
   1 C :   -0.158679
   2 C :   -0.199405
   3 C :   -0.172982
   4 C :   -0.146163
   5 C :   -0.168570
   6 C :   -0.177161
   7 N :    0.148951
   8 H :    0.144368
   9 H :    0.144748
  10 H :    0.154100
  11 H :    0.139014
  12 H :    0.141302
  13 H :    0.161066
  14 H :    0.138104

  Mayer bond orders larger than 0.1
B(  0-C ,  1-C ) :   1.7128 B(  0-C ,  5-C ) :   1.0170 B(  0-C ,  8-H ) :   0.9337
B(  1-C ,  2-C ) :   1.0075 B(  1-C ,  9-H ) :   0.9306 B(  2-C ,  3-C ) :   0.9194
B(  2-C ,  7-N ) :   0.8829 B(  2-C , 10-H ) :   0.9301 B(  3-C ,  4-C ) :   0.9873
B(  3-C ,  7-N ) :   0.8350 B(  3-C , 11-H ) :   0.8999 B(  4-C ,  5-C ) :   0.8080
B(  4-C ,  6-C ) :   0.8982 B(  4-C , 12-H ) :   0.9143 B(  5-C ,  6-C ) :   0.8271
B(  5-C , 13-H ) :   0.9281 B(  6-C ,  7-N ) :   0.9511 B(  6-C , 14-H ) :   0.9223

MP2 TOTAL ENERGY:     -324.862545086 Eh
FINAL SINGLE POINT ENERGY      -324.862545086374

DIPOLE MOMENT
-------------
                                X             Y             Z
Electronic contribution:      1.11679      -0.27759      -0.56914
Nuclear contribution   :     -1.54229       0.18319       1.02108
                        -----------------------------------------
Total Dipole Moment    :     -0.42551      -0.09440       0.45195
                        -----------------------------------------
Magnitude (a.u.)       :      0.62787
Magnitude (Debye)      :      1.59592

                             ****ORCA TERMINATED NORMALLY****
TOTAL RUN TIME: 0 days 0 hours 13 minutes 2 seconds 493 msec
