                         Program Version 3.0.3 - RELEASE   -
|  1> ! RI-MP2 RIJK def2-TZVP def2-TZVP/C def2-TZVP/JK TIGHTSCF
|  2> % maxcore 2000
|  3> % mp2 density relaxed end
|  4> *xyz 0 1
|  5>  C       -0.0002380712     1.6090915182     0.0051027782
|  6>  C        1.5045748914     1.2916902302     0.0182705736
|  7>  C        1.1520198638     0.0798750049     0.9508751221
|  8>  C       -0.0742974108     0.0444510402    -0.0084445736
|  9>  C       -1.4151896010    -0.6647133232    -0.1468275567
| 10>  C       -1.6172536840    -0.5453929858    -1.6594390608
| 11>  C       -0.4885751700    -0.2497153676    -2.3151394318
| 12>  C        0.6563089646    -0.2484372161    -1.3298553647
| 13>  O        1.7086081076     0.7337615762    -1.2992750940
| 14>  H       -0.3755440325     2.0211032267     0.9445407772
| 15>  H       -0.3823056875     2.1624434081    -0.8538630427
| 16>  H        2.2889306112     2.0134700343     0.2396290268
| 17>  H        1.8279273905    -0.7789297970     0.9543916599
| 18>  H        0.9254095194     0.4022776586     1.9688004870
| 19>  H       -1.3629335116    -1.7205181442     0.1554278015
| 20>  H       -2.2227724149    -0.2053463953     0.4327036504
| 21>  H       -2.5828449343    -0.7127230999    -2.1250124420
| 22>  H       -0.3816419397    -0.1512283898    -3.3885180624
| 23>  H        1.1341632990    -1.2412297587    -1.3387579881
| 24> *
| 25>
| 26>                          ****END OF INPUT****

CARTESIAN COORDINATES (ANGSTROEM)
---------------------------------
  C     -0.000238    1.609092    0.005103
  C      1.504575    1.291690    0.018271
  C      1.152020    0.079875    0.950875
  C     -0.074297    0.044451   -0.008445
  C     -1.415190   -0.664713   -0.146828
  C     -1.617254   -0.545393   -1.659439
  C     -0.488575   -0.249715   -2.315139
  C      0.656309   -0.248437   -1.329855
  O      1.708608    0.733762   -1.299275
  H     -0.375544    2.021103    0.944541
  H     -0.382306    2.162443   -0.853863
  H      2.288931    2.013470    0.239629
  H      1.827927   -0.778930    0.954392
  H      0.925410    0.402278    1.968800
  H     -1.362934   -1.720518    0.155428
  H     -2.222772   -0.205346    0.432704
  H     -2.582845   -0.712723   -2.125012
  H     -0.381642   -0.151228   -3.388518
  H      1.134163   -1.241230   -1.338758

 Total Charge           Charge          ....    0
 Multiplicity           Mult            ....    1
 Number of Electrons    NEL             ....   66
 Basis Dimension        Dim             ....  339

ORBITAL ENERGIES
----------------

  NO   OCC          E(Eh)            E(eV)
   0   2.0000     -20.547451      -559.1246
   1   2.0000     -11.283945      -307.0517
   2   2.0000     -11.273686      -306.7726
   3   2.0000     -11.242026      -305.9111
   4   2.0000     -11.234470      -305.7055
   5   2.0000     -11.233496      -305.6790
   6   2.0000     -11.230781      -305.6051
   7   2.0000     -11.227062      -305.5039
   8   2.0000     -11.220035      -305.3127
   9   2.0000      -1.378083       -37.4995
  10   2.0000      -1.150453       -31.3054
  11   2.0000      -1.092623       -29.7318
  12   2.0000      -0.950715       -25.8703
  13   2.0000      -0.937300       -25.5052
  14   2.0000      -0.904750       -24.6195
  15   2.0000      -0.786004       -21.3882
  16   2.0000      -0.757952       -20.6249
  17   2.0000      -0.729983       -19.8638
  18   2.0000      -0.686607       -18.6835
  19   2.0000      -0.646745       -17.5988
  20   2.0000      -0.635467       -17.2919
  21   2.0000      -0.601408       -16.3651
  22   2.0000      -0.588943       -16.0260
  23   2.0000      -0.555274       -15.1098
  24   2.0000      -0.534304       -14.5392
  25   2.0000      -0.521509       -14.1910
  26   2.0000      -0.515232       -14.0202
  27   2.0000      -0.496838       -13.5197
  28   2.0000      -0.457546       -12.4505
  29   2.0000      -0.435000       -11.8369
  30   2.0000      -0.430861       -11.7243
  31   2.0000      -0.396300       -10.7839
  32   2.0000      -0.354367        -9.6428
  33   0.0000       0.139127         3.7858
  34   0.0000       0.147061         4.0017
  35   0.0000       0.162650         4.4259
  36   0.0000       0.174681         4.7533
  37   0.0000       0.180319         4.9067

MULLIKEN ATOMIC CHARGES
-----------------------
   0 C :   -0.259636
   1 C :    0.047735
   2 C :   -0.227769
   3 C :   -0.006654
   4 C :   -0.147237
   5 C :   -0.184431
   6 C :   -0.215061
   7 C :    0.108534
   8 O :   -0.329927
   9 H :    0.118674
  10 H :    0.123397
  11 H :    0.127545
  12 H :    0.119349
  13 H :    0.124944
  14 H :    0.120023
  15 H :    0.124979
  16 H :    0.128203
  17 H :    0.136785
  18 H :    0.090550
Sum of atomic charges:   -0.0000000

LOEWDIN ATOMIC CHARGES
----------------------
   0 C :   -0.175867
   1 C :   -0.255363
   2 C :   -0.182547
   3 C :   -0.215409
   4 C :   -0.202927
   5 C :   -0.139141
   6 C :   -0.135232
   7 C :   -0.238424
   8 O :    0.166477
   9 H :    0.138882
  10 H :    0.134499
  11 H :    0.128434
  12 H :    0.130215
  13 H :    0.138392
  14 H :    0.147487
  15 H :    0.140079
  16 H :    0.134537
  17 H :    0.138627
  18 H :    0.147283

  Mayer bond orders larger than 0.1
B(  0-C ,  1-C ) :   0.9316 B(  0-C ,  3-C ) :   0.9135 B(  0-C ,  9-H ) :   0.9246
B(  0-C , 10-H ) :   0.9066 B(  1-C ,  2-C ) :   0.9363 B(  1-C ,  8-O ) :   0.9196
B(  1-C , 11-H ) :   0.9208 B(  2-C ,  3-C ) :   0.8806 B(  2-C , 12-H ) :   0.9141
B(  2-C , 13-H ) :   0.9289 B(  3-C ,  4-C ) :   0.9165 B(  3-C ,  7-C ) :   0.9315
B(  4-C ,  5-C ) :   0.9555 B(  4-C , 14-H ) :   0.8909 B(  4-C , 15-H ) :   0.9184
B(  5-C ,  6-C ) :   1.7519 B(  5-C , 16-H ) :   0.9268 B(  6-C ,  7-C ) :   0.9084
B(  6-C , 17-H ) :   0.9301 B(  7-C ,  8-O ) :   0.9635 B(  7-C , 18-H ) :   0.9290

MP2 TOTAL ENERGY:     -385.188849132 Eh
FINAL SINGLE POINT ENERGY      -385.188849132350

DIPOLE MOMENT
-------------
                                X             Y             Z
Electronic contribution:      2.25599       0.39914      -2.62741
Nuclear contribution   :     -2.79009      -0.56868       3.13235
                        -----------------------------------------
Total Dipole Moment    :     -0.53410      -0.16954       0.50494
                        -----------------------------------------
Magnitude (a.u.)       :      0.75430
Magnitude (Debye)      :      1.91728

                             ****ORCA TERMINATED NORMALLY****
TOTAL RUN TIME: 0 days 0 hours 20 minutes 37 seconds 772 msec
