                         Program Version 3.0.3 - RELEASE   -
|  1> ! RI-MP2 RIJK def2-TZVP def2-TZVP/C def2-TZVP/JK TIGHTSCF
|  2> % maxcore 2000
|  3> % mp2 density relaxed end
|  4> *xyz 0 1
|  5>  C        0.1558067535     1.5092604669     0.0591223021
|  6>  C       -0.0081287412    -0.0122148859    -0.0076324653
|  7>  C       -1.4701174952    -0.4925898702     0.0515535724
|  8>  C       -2.3023881527    -0.0412837306    -1.1564756872
|  9>  C       -1.5154919650    -2.0116813769     0.1772371502
| 10>  O       -0.8111290446    -2.4530048971     1.3321979450
| 11>  C       -1.5326196343    -3.5364482528     1.9087467030
| 12>  C       -2.7340391584    -3.7241254590     0.9640300194
| 13>  O       -2.8430125438    -2.4601714898     0.3333832028
| 14>  H        1.2150300870     1.7841226075     0.0783861070
| 15>  H       -0.2966589454     2.0123740684    -0.8009121451
| 16>  H       -0.3085046233     1.9164884703     0.9644546486
| 17>  H        0.4563493360    -0.3906301451    -0.9291633576
| 18>  H        0.5369541836    -0.4705428168     0.8233048543
| 19>  H       -1.9300747337    -0.1029823027     0.9695250027
| 20>  H       -3.3244759379    -0.4205572975    -1.0878677427
| 21>  H       -2.3481026753     1.0488979842    -1.2199507566
| 22>  H       -1.8663764182    -0.4106691384    -2.0927973522
| 23>  H       -1.0664816270    -2.4899450247    -0.7164869957
| 24>  H       -0.9007757706    -4.4305609642     1.9656766252
| 25>  H       -1.8451832210    -3.2622742053     2.9236478976
| 26>  H       -2.5381024816    -4.5156261903     0.2245090141
| 27>  H       -3.6729584606    -3.9419238901     1.4772213982
| 28> *
| 29>
| 30>                          ****END OF INPUT****

CARTESIAN COORDINATES (ANGSTROEM)
---------------------------------
  C      0.155807    1.509260    0.059122
  C     -0.008129   -0.012215   -0.007632
  C     -1.470117   -0.492590    0.051554
  C     -2.302388   -0.041284   -1.156476
  C     -1.515492   -2.011681    0.177237
  O     -0.811129   -2.453005    1.332198
  C     -1.532620   -3.536448    1.908747
  C     -2.734039   -3.724125    0.964030
  O     -2.843013   -2.460171    0.333383
  H      1.215030    1.784123    0.078386
  H     -0.296659    2.012374   -0.800912
  H     -0.308505    1.916488    0.964455
  H      0.456349   -0.390630   -0.929163
  H      0.536954   -0.470543    0.823305
  H     -1.930075   -0.102982    0.969525
  H     -3.324476   -0.420557   -1.087868
  H     -2.348103    1.048898   -1.219951
  H     -1.866376   -0.410669   -2.092797
  H     -1.066482   -2.489945   -0.716487
  H     -0.900776   -4.430561    1.965677
  H     -1.845183   -3.262274    2.923648
  H     -2.538102   -4.515626    0.224509
  H     -3.672958   -3.941924    1.477221

 Total Charge           Charge          ....    0
 Multiplicity           Mult            ....    1
 Number of Electrons    NEL             ....   72
 Basis Dimension        Dim             ....  363

ORBITAL ENERGIES
----------------

  NO   OCC          E(Eh)            E(eV)
   0   2.0000     -20.564412      -559.5861
   1   2.0000     -20.556959      -559.3833
   2   2.0000     -11.325848      -308.1920
   3   2.0000     -11.283817      -307.0483
   4   2.0000     -11.280781      -306.9657
   5   2.0000     -11.222098      -305.3688
   6   2.0000     -11.212599      -305.1103
   7   2.0000     -11.208301      -304.9934
   8   2.0000     -11.206841      -304.9537
   9   2.0000      -1.437525       -39.1171
  10   2.0000      -1.330111       -36.1942
  11   2.0000      -1.092386       -29.7253
  12   2.0000      -1.018373       -27.7113
  13   2.0000      -0.972400       -26.4603
  14   2.0000      -0.892060       -24.2742
  15   2.0000      -0.850883       -23.1537
  16   2.0000      -0.835835       -22.7442
  17   2.0000      -0.774142       -21.0655
  18   2.0000      -0.707226       -19.2446
  19   2.0000      -0.684642       -18.6301
  20   2.0000      -0.644133       -17.5277
  21   2.0000      -0.626377       -17.0446
  22   2.0000      -0.602641       -16.3987
  23   2.0000      -0.592348       -16.1186
  24   2.0000      -0.579126       -15.7588
  25   2.0000      -0.565822       -15.3968
  26   2.0000      -0.531177       -14.4541
  27   2.0000      -0.524665       -14.2769
  28   2.0000      -0.512773       -13.9533
  29   2.0000      -0.502800       -13.6819
  30   2.0000      -0.492641       -13.4054
  31   2.0000      -0.478956       -13.0330
  32   2.0000      -0.458284       -12.4705
  33   2.0000      -0.453350       -12.3363
  34   2.0000      -0.440452       -11.9853
  35   2.0000      -0.412663       -11.2291
  36   0.0000       0.143959         3.9173
  37   0.0000       0.149626         4.0715
  38   0.0000       0.163022         4.4361
  39   0.0000       0.182005         4.9526
  40   0.0000       0.185162         5.0385

MULLIKEN ATOMIC CHARGES
-----------------------
   0 C :   -0.407300
   1 C :   -0.215250
   2 C :    0.012483
   3 C :   -0.433946
   4 C :    0.180608
   5 O :   -0.313419
   6 C :   -0.031314
   7 C :   -0.089205
   8 O :   -0.298645
   9 H :    0.134952
  10 H :    0.126552
  11 H :    0.124914
  12 H :    0.097884
  13 H :    0.136669
  14 H :    0.074937
  15 H :    0.153416
  16 H :    0.136018
  17 H :    0.117309
  18 H :    0.061376
  19 H :    0.101599
  20 H :    0.100765
  21 H :    0.099919
  22 H :    0.129679
Sum of atomic charges:    0.0000000

LOEWDIN ATOMIC CHARGES
----------------------
   0 C :   -0.319026
   1 C :   -0.270013
   2 C :   -0.267133
   3 C :   -0.289542
   4 C :   -0.371274
   5 O :    0.163386
   6 C :   -0.305097
   7 C :   -0.312981
   8 O :    0.183074
   9 H :    0.121420
  10 H :    0.118018
  11 H :    0.121617
  12 H :    0.136176
  13 H :    0.143384
  14 H :    0.157169
  15 H :    0.128401
  16 H :    0.122936
  17 H :    0.123867
  18 H :    0.126374
  19 H :    0.120963
  20 H :    0.120670
  21 H :    0.119010
  22 H :    0.128600

  Mayer bond orders larger than 0.1
B(  0-C ,  1-C ) :   0.9101 B(  0-C ,  9-H ) :   0.9432 B(  0-C , 10-H ) :   0.9422
B(  0-C , 11-H ) :   0.9389 B(  1-C ,  2-C ) :   0.9264 B(  1-C , 12-H ) :   0.9208
B(  1-C , 13-H ) :   0.9339 B(  2-C ,  3-C ) :   0.9075 B(  2-C ,  4-C ) :   0.9279
B(  2-C , 14-H ) :   0.9072 B(  3-C , 15-H ) :   0.9374 B(  3-C , 16-H ) :   0.9390
B(  3-C , 17-H ) :   0.9272 B(  4-C ,  5-O ) :   0.9597 B(  4-C ,  8-O ) :   0.9911
B(  4-C , 18-H ) :   0.9212 B(  5-O ,  6-C ) :   0.9384 B(  6-C ,  7-C ) :   0.9542
B(  6-C , 19-H ) :   0.9171 B(  6-C , 20-H ) :   0.9284 B(  7-C ,  8-O ) :   0.9317
B(  7-C , 21-H ) :   0.9352 B(  7-C , 22-H ) :   0.9225

MP2 TOTAL ENERGY:     -424.732410146 Eh
FINAL SINGLE POINT ENERGY      -424.732410146189

DIPOLE MOMENT
-------------
                                X             Y             Z
Electronic contribution:     -2.41059      -7.00948       3.02283
Nuclear contribution   :      2.32236       6.53240      -2.93760
                        -----------------------------------------
Total Dipole Moment    :     -0.08822      -0.47708       0.08523
                        -----------------------------------------
Magnitude (a.u.)       :      0.49260
Magnitude (Debye)      :      1.25209

                             ****ORCA TERMINATED NORMALLY****
TOTAL RUN TIME: 0 days 0 hours 17 minutes 47 seconds 23 msec
