                         Program Version 3.0.3 - RELEASE   -
|  1> ! RI-MP2 RIJK def2-TZVP def2-TZVP/C def2-TZVP/JK TIGHTSCF
|  2> % maxcore 2000
|  3> % mp2 density relaxed end
|  4> *xyz 0 1
|  5>  C       -0.2432800175     1.6295333119    -0.0723186845
|  6>  N        0.0100314903     0.2052092357    -0.0687499549
|  7>  C       -0.9614767484    -0.5656277771     0.1525769312
|  8>  N       -0.8461962527    -1.9501752974     0.1820678159
|  9>  C        0.2779766024    -2.7016503663    -0.0094485664
| 10>  N        1.4997647758    -2.3131468576    -0.2659848212
| 11>  O        2.1833427866    -3.5034968164    -0.3531547236
| 12>  N        1.3238695218    -4.5490765114    -0.1418528795
| 13>  N        0.1729343341    -4.0835837510     0.0665287531
| 14>  H        0.3859906330     2.1133645104     0.6828787977
| 15>  H        0.0457150136     2.0484949098    -1.0425328731
| 16>  H       -1.2944602701     1.8964226310     0.1250080654
| 17>  H       -1.9942312084    -0.2438854964     0.3445920908
| 18>  H       -1.6768536105    -2.4890172650     0.3673738391
| 19> *
| 20>
| 21>                          ****END OF INPUT****

CARTESIAN COORDINATES (ANGSTROEM)
---------------------------------
  C     -0.243280    1.629533   -0.072319
  N      0.010031    0.205209   -0.068750
  C     -0.961477   -0.565628    0.152577
  N     -0.846196   -1.950175    0.182068
  C      0.277977   -2.701650   -0.009449
  N      1.499765   -2.313147   -0.265985
  O      2.183343   -3.503497   -0.353155
  N      1.323870   -4.549077   -0.141853
  N      0.172934   -4.083584    0.066529
  H      0.385991    2.113365    0.682879
  H      0.045715    2.048495   -1.042533
  H     -1.294460    1.896423    0.125008
  H     -1.994231   -0.243885    0.344592
  H     -1.676854   -2.489017    0.367374

 Total Charge           Charge          ....    0
 Multiplicity           Mult            ....    1
 Number of Electrons    NEL             ....   66
 Basis Dimension        Dim             ....  309

ORBITAL ENERGIES
----------------

  NO   OCC          E(Eh)            E(eV)
   0   2.0000     -20.693670      -563.1034
   1   2.0000     -15.730933      -428.0604
   2   2.0000     -15.652094      -425.9151
   3   2.0000     -15.645481      -425.7352
   4   2.0000     -15.631650      -425.3588
   5   2.0000     -15.559622      -423.3988
   6   2.0000     -11.372106      -309.4507
   7   2.0000     -11.335669      -308.4592
   8   2.0000     -11.256582      -306.3072
   9   2.0000      -1.583097       -43.0783
  10   2.0000      -1.345973       -36.6258
  11   2.0000      -1.321709       -35.9655
  12   2.0000      -1.234576       -33.5945
  13   2.0000      -1.178500       -32.0686
  14   2.0000      -0.981557       -26.7095
  15   2.0000      -0.930500       -25.3202
  16   2.0000      -0.902448       -24.5569
  17   2.0000      -0.821463       -22.3531
  18   2.0000      -0.764418       -20.8009
  19   2.0000      -0.720982       -19.6189
  20   2.0000      -0.715017       -19.4566
  21   2.0000      -0.670683       -18.2502
  22   2.0000      -0.635908       -17.3039
  23   2.0000      -0.614861       -16.7312
  24   2.0000      -0.586015       -15.9463
  25   2.0000      -0.576156       -15.6780
  26   2.0000      -0.558783       -15.2053
  27   2.0000      -0.513170       -13.9641
  28   2.0000      -0.505483       -13.7549
  29   2.0000      -0.503827       -13.7098
  30   2.0000      -0.442527       -12.0418
  31   2.0000      -0.423153       -11.5146
  32   2.0000      -0.366136        -9.9631
  33   0.0000       0.078887         2.1466
  34   0.0000       0.119906         3.2628
  35   0.0000       0.143312         3.8997
  36   0.0000       0.150569         4.0972
  37   0.0000       0.175759         4.7826

MULLIKEN ATOMIC CHARGES
-----------------------
   0 C :   -0.273451
   1 N :   -0.224350
   2 C :    0.070060
   3 N :   -0.306964
   4 C :    0.234099
   5 N :   -0.096766
   6 O :    0.005024
   7 N :   -0.013169
   8 N :   -0.134550
   9 H :    0.144293
  10 H :    0.144306
  11 H :    0.092782
  12 H :    0.091762
  13 H :    0.266924
Sum of atomic charges:   -0.0000000

LOEWDIN ATOMIC CHARGES
----------------------
   0 C :   -0.332016
   1 N :    0.070835
   2 C :   -0.309643
   3 N :    0.136850
   4 C :   -0.444155
   5 N :    0.042465
   6 O :    0.190309
   7 N :   -0.052986
   8 N :    0.025769
   9 H :    0.120636
  10 H :    0.120632
  11 H :    0.102892
  12 H :    0.121455
  13 H :    0.206957

  Mayer bond orders larger than 0.1
B(  0-C ,  1-N ) :   0.8891 B(  0-C ,  9-H ) :   0.9318 B(  0-C , 10-H ) :   0.9319
B(  0-C , 11-H ) :   0.9282 B(  1-N ,  2-C ) :   1.8357 B(  2-C ,  3-N ) :   1.0097
B(  2-C , 12-H ) :   0.9093 B(  3-N ,  4-C ) :   1.0599 B(  3-N , 13-H ) :   0.8601
B(  4-C ,  5-N ) :   1.5481 B(  4-C ,  8-N ) :   1.2137 B(  5-N ,  6-O ) :   0.8943
B(  5-N ,  7-N ) :   0.1307 B(  6-O ,  7-N ) :   0.9646 B(  7-N ,  8-N ) :   1.4323

MP2 TOTAL ENERGY:     -465.362733002 Eh
FINAL SINGLE POINT ENERGY      -465.362733001806

DIPOLE MOMENT
-------------
                                X             Y             Z
Electronic contribution:      4.50720     -11.48005      -0.44801
Nuclear contribution   :     -6.05228      12.31246       0.72106
                        -----------------------------------------
Total Dipole Moment    :     -1.54508       0.83241       0.27305
                        -----------------------------------------
Magnitude (a.u.)       :      1.77616
Magnitude (Debye)      :      4.51463

                             ****ORCA TERMINATED NORMALLY****
TOTAL RUN TIME: 0 days 0 hours 14 minutes 56 seconds 929 msec
