                         Program Version 3.0.3 - RELEASE   -
|  1> ! RI-MP2 RIJK def2-TZVP def2-TZVP/C def2-TZVP/JK TIGHTSCF
|  2> % maxcore 2000
|  3> % mp2 density relaxed end
|  4> *xyz 0 1
|  5>  C        0.2411297699     1.3554197333     0.2964953355
|  6>  N       -0.2314417263     0.1015311876    -0.2800872317
|  7>  C        0.6030708324    -0.4624951486    -1.2901839762
|  8>  C        1.9914515377    -1.0190179002    -0.9966703555
|  9>  C        0.8554243919    -1.9756453998    -1.3004541630
| 10>  C        0.2845953543    -2.7556992139    -0.2392647150
| 11>  N       -0.1856213062    -3.3525923118     0.6333835902
| 12>  C        0.4291716990     0.1381657591    -2.6014390010
| 13>  N        0.3139965648     0.6281240381    -3.6420631412
| 14>  H        1.2367505414     1.2866677807     0.7639000800
| 15>  H        0.2849702452     2.1224602838    -0.4831946744
| 16>  H       -0.4757907054     1.6868042904     1.0509073740
| 17>  H       -0.4818665978    -0.5824138654     0.4228591418
| 18>  H        2.7680176004    -0.9246567249    -1.7460705589
| 19>  H        2.3201412686    -0.9542660642     0.0337172807
| 20>  H        0.8516904101    -2.4580977341    -2.2710610954
| 21> *
| 22>
| 23>                          ****END OF INPUT****

CARTESIAN COORDINATES (ANGSTROEM)
---------------------------------
  C      0.241130    1.355420    0.296495
  N     -0.231442    0.101531   -0.280087
  C      0.603071   -0.462495   -1.290184
  C      1.991452   -1.019018   -0.996670
  C      0.855424   -1.975645   -1.300454
  C      0.284595   -2.755699   -0.239265
  N     -0.185621   -3.352592    0.633384
  C      0.429172    0.138166   -2.601439
  N      0.313997    0.628124   -3.642063
  H      1.236751    1.286668    0.763900
  H      0.284970    2.122460   -0.483195
  H     -0.475791    1.686804    1.050907
  H     -0.481867   -0.582414    0.422859
  H      2.768018   -0.924657   -1.746071
  H      2.320141   -0.954266    0.033717
  H      0.851690   -2.458098   -2.271061

 Total Charge           Charge          ....    0
 Multiplicity           Mult            ....    1
 Number of Electrons    NEL             ....   64
 Basis Dimension        Dim             ....  321

ORBITAL ENERGIES
----------------

  NO   OCC          E(Eh)            E(eV)
   0   2.0000     -15.596345      -424.3981
   1   2.0000     -15.587780      -424.1651
   2   2.0000     -15.587065      -424.1456
   3   2.0000     -11.354600      -308.9744
   4   2.0000     -11.323100      -308.1172
   5   2.0000     -11.300665      -307.5067
   6   2.0000     -11.293571      -307.3137
   7   2.0000     -11.289389      -307.1999
   8   2.0000     -11.272033      -306.7276
   9   2.0000      -1.292488       -35.1704
  10   2.0000      -1.241753       -33.7898
  11   2.0000      -1.226685       -33.3798
  12   2.0000      -1.171971       -31.8910
  13   2.0000      -0.970980       -26.4217
  14   2.0000      -0.945514       -25.7287
  15   2.0000      -0.899620       -24.4799
  16   2.0000      -0.762051       -20.7364
  17   2.0000      -0.756109       -20.5748
  18   2.0000      -0.690394       -18.7866
  19   2.0000      -0.643976       -17.5235
  20   2.0000      -0.623664       -16.9708
  21   2.0000      -0.612218       -16.6593
  22   2.0000      -0.579842       -15.7783
  23   2.0000      -0.576393       -15.6845
  24   2.0000      -0.557899       -15.1812
  25   2.0000      -0.554948       -15.1009
  26   2.0000      -0.543945       -14.8015
  27   2.0000      -0.497139       -13.5278
  28   2.0000      -0.491298       -13.3689
  29   2.0000      -0.465860       -12.6767
  30   2.0000      -0.439659       -11.9637
  31   2.0000      -0.401161       -10.9162
  32   0.0000       0.114809         3.1241
  33   0.0000       0.126584         3.4445
  34   0.0000       0.132499         3.6055
  35   0.0000       0.141067         3.8386
  36   0.0000       0.152063         4.1379

MULLIKEN ATOMIC CHARGES
-----------------------
   0 C :   -0.298590
   1 N :   -0.323410
   2 C :    0.214380
   3 C :   -0.245811
   4 C :   -0.028351
   5 C :   -0.189884
   6 N :   -0.045589
   7 C :   -0.216208
   8 N :   -0.042765
   9 H :    0.117932
  10 H :    0.151790
  11 H :    0.150132
  12 H :    0.231084
  13 H :    0.170681
  14 H :    0.168189
  15 H :    0.186419
Sum of atomic charges:    0.0000000

LOEWDIN ATOMIC CHARGES
----------------------
   0 C :   -0.324908
   1 N :    0.036012
   2 C :   -0.276589
   3 C :   -0.132637
   4 C :   -0.153970
   5 C :   -0.179122
   6 N :    0.076502
   7 C :   -0.140354
   8 N :    0.079460
   9 H :    0.103553
  10 H :    0.124562
  11 H :    0.122783
  12 H :    0.183795
  13 H :    0.148912
  14 H :    0.150962
  15 H :    0.181039

  Mayer bond orders larger than 0.1
B(  0-C ,  1-N ) :   0.9044 B(  0-C ,  9-H ) :   0.9315 B(  0-C , 10-H ) :   0.9325
B(  0-C , 11-H ) :   0.9339 B(  1-N ,  2-C ) :   1.0864 B(  1-N , 12-H ) :   0.8622
B(  2-C ,  3-C ) :   0.8465 B(  2-C ,  4-C ) :   0.8144 B(  2-C ,  7-C ) :   0.9277
B(  3-C ,  4-C ) :   0.8585 B(  3-C , 13-H ) :   0.9144 B(  3-C , 14-H ) :   0.9207
B(  4-C ,  5-C ) :   0.9708 B(  4-C , 15-H ) :   0.8997 B(  5-C ,  6-N ) :   2.8064
B(  7-C ,  8-N ) :   2.8516

MP2 TOTAL ENERGY:     -396.232827054 Eh
FINAL SINGLE POINT ENERGY      -396.232827053607

DIPOLE MOMENT
-------------
                                X             Y             Z
Electronic contribution:     -1.89511      -4.97090      -3.90213
Nuclear contribution   :      2.94810       5.21871       4.51881
                        -----------------------------------------
Total Dipole Moment    :      1.05299       0.24781       0.61667
                        -----------------------------------------
Magnitude (a.u.)       :      1.24518
Magnitude (Debye)      :      3.16500

                             ****ORCA TERMINATED NORMALLY****
TOTAL RUN TIME: 0 days 0 hours 15 minutes 3 seconds 213 msec
