                         Program Version 3.0.3 - RELEASE   -
|  1> ! RI-MP2 RIJK def2-TZVP def2-TZVP/C def2-TZVP/JK TIGHTSCF
|  2> % maxcore 2000
|  3> % mp2 density relaxed end
|  4> *xyz 0 1
|  5>  C       -0.0967558561     1.5532653416     0.0190836106
|  6>  C       -0.0781235257     0.0213107340     0.0087750349
|  7>  C       -1.4544632310    -0.5906041306     0.0293990642
|  8>  C       -1.6513606794    -2.1284041761     0.0224005546
|  9>  C       -3.1695393245    -2.0579317175     0.0503285594
| 10>  C       -3.4562344027    -0.7712777316     0.8182519884
| 11>  O       -2.2198826832    -0.1891408596     1.1738437744
| 12>  C       -3.4834609531    -0.7609550294    -0.6890484294
| 13>  O       -2.2606141705    -0.1736696204    -1.0810269246
| 14>  H        0.9225694585     1.9494265905     0.0035714014
| 15>  H       -0.6312086609     1.9377243778    -0.8528269875
| 16>  H       -0.5998270519     1.9261949184     0.9143631780
| 17>  H        0.4370119798    -0.3513975600    -0.8831346797
| 18>  H        0.4683865862    -0.3628329542     0.8768422439
| 19>  H       -1.2520914708    -2.5857136076    -0.8854097938
| 20>  H       -1.2196563822    -2.5980518841     0.9088147113
| 21>  H       -3.8247284302    -2.9171975234     0.0562810427
| 22>  H       -4.2754347939    -0.5805162145     1.4953886561
| 23>  H       -4.3265242382    -0.5611406132    -1.3334951148
| 24> *
| 25>
| 26>                          ****END OF INPUT****

CARTESIAN COORDINATES (ANGSTROEM)
---------------------------------
  C     -0.096756    1.553265    0.019084
  C     -0.078124    0.021311    0.008775
  C     -1.454463   -0.590604    0.029399
  C     -1.651361   -2.128404    0.022401
  C     -3.169539   -2.057932    0.050329
  C     -3.456234   -0.771278    0.818252
  O     -2.219883   -0.189141    1.173844
  C     -3.483461   -0.760955   -0.689048
  O     -2.260614   -0.173670   -1.081027
  H      0.922569    1.949427    0.003571
  H     -0.631209    1.937724   -0.852827
  H     -0.599827    1.926195    0.914363
  H      0.437012   -0.351398   -0.883135
  H      0.468387   -0.362833    0.876842
  H     -1.252091   -2.585714   -0.885410
  H     -1.219656   -2.598052    0.908815
  H     -3.824728   -2.917198    0.056281
  H     -4.275435   -0.580516    1.495389
  H     -4.326524   -0.561141   -1.333495

 Total Charge           Charge          ....    0
 Multiplicity           Mult            ....    1
 Number of Electrons    NEL             ....   68
 Basis Dimension        Dim             ....  339

ORBITAL ENERGIES
----------------

  NO   OCC          E(Eh)            E(eV)
   0   2.0000     -20.564556      -559.5900
   1   2.0000     -20.564533      -559.5894
   2   2.0000     -11.336912      -308.4931
   3   2.0000     -11.285358      -307.0902
   4   2.0000     -11.284663      -307.0713
   5   2.0000     -11.238914      -305.8264
   6   2.0000     -11.231289      -305.6189
   7   2.0000     -11.226945      -305.5007
   8   2.0000     -11.206941      -304.9564
   9   2.0000      -1.457602       -39.6634
  10   2.0000      -1.334656       -36.3178
  11   2.0000      -1.127603       -30.6837
  12   2.0000      -1.061629       -28.8884
  13   2.0000      -0.993627       -27.0380
  14   2.0000      -0.871533       -23.7156
  15   2.0000      -0.820679       -22.3318
  16   2.0000      -0.802938       -21.8491
  17   2.0000      -0.776720       -21.1356
  18   2.0000      -0.714904       -19.4535
  19   2.0000      -0.661788       -18.0082
  20   2.0000      -0.657457       -17.8903
  21   2.0000      -0.615149       -16.7391
  22   2.0000      -0.598071       -16.2744
  23   2.0000      -0.570033       -15.5114
  24   2.0000      -0.568681       -15.4746
  25   2.0000      -0.547918       -14.9096
  26   2.0000      -0.533785       -14.5250
  27   2.0000      -0.511157       -13.9093
  28   2.0000      -0.490743       -13.3538
  29   2.0000      -0.488913       -13.3040
  30   2.0000      -0.486161       -13.2291
  31   2.0000      -0.452211       -12.3053
  32   2.0000      -0.401508       -10.9256
  33   2.0000      -0.381725       -10.3873
  34   0.0000       0.143715         3.9107
  35   0.0000       0.161507         4.3948
  36   0.0000       0.170322         4.6347
  37   0.0000       0.184167         5.0114
  38   0.0000       0.190203         5.1757

MULLIKEN ATOMIC CHARGES
-----------------------
   0 C :   -0.411933
   1 C :   -0.217414
   2 C :    0.266253
   3 C :   -0.144735
   4 C :   -0.216919
   5 C :   -0.002511
   6 O :   -0.302230
   7 C :   -0.002489
   8 O :   -0.302232
   9 H :    0.131005
  10 H :    0.141949
  11 H :    0.141948
  12 H :    0.121634
  13 H :    0.121642
  14 H :    0.122153
  15 H :    0.122153
  16 H :    0.141866
  17 H :    0.144929
  18 H :    0.144931
Sum of atomic charges:   -0.0000000

LOEWDIN ATOMIC CHARGES
----------------------
   0 C :   -0.309089
   1 C :   -0.244814
   2 C :   -0.398831
   3 C :   -0.187613
   4 C :   -0.192650
   5 C :   -0.251594
   6 O :    0.227719
   7 C :   -0.251588
   8 O :    0.227729
   9 H :    0.120103
  10 H :    0.126690
  11 H :    0.126694
  12 H :    0.149357
  13 H :    0.149367
  14 H :    0.144624
  15 H :    0.144624
  16 H :    0.143530
  17 H :    0.137872
  18 H :    0.137871

  Mayer bond orders larger than 0.1
B(  0-C ,  1-C ) :   0.9431 B(  0-C ,  9-H ) :   0.9393 B(  0-C , 10-H ) :   0.9358
B(  0-C , 11-H ) :   0.9358 B(  1-C ,  2-C ) :   0.8546 B(  1-C , 12-H ) :   0.9358
B(  1-C , 13-H ) :   0.9358 B(  2-C ,  3-C ) :   0.9600 B(  2-C ,  6-O ) :   0.9330
B(  2-C ,  8-O ) :   0.9330 B(  3-C ,  4-C ) :   0.9613 B(  3-C , 14-H ) :   0.9219
B(  3-C , 15-H ) :   0.9219 B(  4-C ,  5-C ) :   0.8541 B(  4-C ,  7-C ) :   0.8541
B(  4-C , 16-H ) :   0.9172 B(  5-C ,  6-O ) :   0.9712 B(  5-C ,  7-C ) :   0.8883
B(  5-C , 17-H ) :   0.9231 B(  7-C ,  8-O ) :   0.9712 B(  7-C , 18-H ) :   0.9231

MP2 TOTAL ENERGY:     -422.322206660 Eh
FINAL SINGLE POINT ENERGY      -422.322206660290

DIPOLE MOMENT
-------------
                                X             Y             Z
Electronic contribution:     -5.12062      -1.68693       0.08164
Nuclear contribution   :      4.93743       1.09429      -0.08242
                        -----------------------------------------
Total Dipole Moment    :     -0.18319      -0.59264      -0.00077
                        -----------------------------------------
Magnitude (a.u.)       :      0.62031
Magnitude (Debye)      :      1.57670

                             ****ORCA TERMINATED NORMALLY****
TOTAL RUN TIME: 0 days 0 hours 17 minutes 0 seconds 233 msec
