                         Program Version 3.0.3 - RELEASE   -
|  1> ! RI-MP2 RIJK def2-TZVP def2-TZVP/C def2-TZVP/JK TIGHTSCF
|  2> % maxcore 2000
|  3> % mp2 density relaxed end
|  4> *xyz 0 1
|  5>  O       -0.1486108078     1.3745779027    -0.0188206416
|  6>  C        0.0261546728    -0.0146659232    -0.0406280137
|  7>  C       -0.3803973810    -0.7586802875     1.2168660550
|  8>  C       -1.2692993834    -0.7693813098    -0.0212581967
|  9>  C       -1.2968049859    -2.2781721121    -0.3069940500
| 10>  O       -2.0579565321    -2.6135731924    -1.4212904287
| 11>  C       -1.5591829699    -2.8344205130     1.1473856372
| 12>  C       -0.1150073950    -2.2697621241     1.3632574932
| 13>  C        0.1711848019    -2.7512668274    -0.0890889535
| 14>  H        0.5817640904     1.7549695076     0.4802428979
| 15>  H        0.8638570366    -0.3462966345    -0.6496624846
| 16>  H       -0.6391268046    -0.1694252586     2.0895904910
| 17>  H       -2.1953816577    -0.2114373186    -0.0860078204
| 18>  H       -2.0509811465    -3.5713499075    -1.5161370006
| 19>  H       -2.3739173189    -2.3878110921     1.7231852110
| 20>  H       -1.6071451195    -3.9277258097     1.1857173618
| 21>  H        0.5073444098    -2.5999132539     2.1934448645
| 22>  H        0.2426857022    -3.8415183778    -0.1325342914
| 23>  H        0.9838775487    -2.3129458582    -0.6683294106
| 24> *
| 25>
| 26>                          ****END OF INPUT****

CARTESIAN COORDINATES (ANGSTROEM)
---------------------------------
  O     -0.148611    1.374578   -0.018821
  C      0.026155   -0.014666   -0.040628
  C     -0.380397   -0.758680    1.216866
  C     -1.269299   -0.769381   -0.021258
  C     -1.296805   -2.278172   -0.306994
  O     -2.057957   -2.613573   -1.421290
  C     -1.559183   -2.834421    1.147386
  C     -0.115007   -2.269762    1.363257
  C      0.171185   -2.751267   -0.089089
  H      0.581764    1.754970    0.480243
  H      0.863857   -0.346297   -0.649662
  H     -0.639127   -0.169425    2.089590
  H     -2.195382   -0.211437   -0.086008
  H     -2.050981   -3.571350   -1.516137
  H     -2.373917   -2.387811    1.723185
  H     -1.607145   -3.927726    1.185717
  H      0.507344   -2.599913    2.193445
  H      0.242686   -3.841518   -0.132534
  H      0.983878   -2.312946   -0.668329

 Total Charge           Charge          ....    0
 Multiplicity           Mult            ....    1
 Number of Electrons    NEL             ....   68
 Basis Dimension        Dim             ....  339

ORBITAL ENERGIES
----------------

  NO   OCC          E(Eh)            E(eV)
   0   2.0000     -20.561996      -559.5204
   1   2.0000     -20.561731      -559.5131
   2   2.0000     -11.297279      -307.4146
   3   2.0000     -11.285113      -307.0835
   4   2.0000     -11.244612      -305.9815
   5   2.0000     -11.228011      -305.5297
   6   2.0000     -11.227835      -305.5249
   7   2.0000     -11.226734      -305.4950
   8   2.0000     -11.223209      -305.3991
   9   2.0000      -1.375292       -37.4236
  10   2.0000      -1.370546       -37.2945
  11   2.0000      -1.203129       -32.7388
  12   2.0000      -1.067655       -29.0524
  13   2.0000      -0.917343       -24.9622
  14   2.0000      -0.910912       -24.7872
  15   2.0000      -0.835780       -22.7427
  16   2.0000      -0.760955       -20.7066
  17   2.0000      -0.751262       -20.4429
  18   2.0000      -0.719886       -19.5891
  19   2.0000      -0.695179       -18.9168
  20   2.0000      -0.654380       -17.8066
  21   2.0000      -0.627821       -17.0839
  22   2.0000      -0.604533       -16.4502
  23   2.0000      -0.580346       -15.7920
  24   2.0000      -0.571230       -15.5439
  25   2.0000      -0.545263       -14.8374
  26   2.0000      -0.519486       -14.1359
  27   2.0000      -0.508674       -13.8417
  28   2.0000      -0.482104       -13.1187
  29   2.0000      -0.472425       -12.8553
  30   2.0000      -0.439740       -11.9659
  31   2.0000      -0.438062       -11.9203
  32   2.0000      -0.385682       -10.4949
  33   2.0000      -0.372540       -10.1373
  34   0.0000       0.134713         3.6657
  35   0.0000       0.142096         3.8666
  36   0.0000       0.154642         4.2080
  37   0.0000       0.166430         4.5288
  38   0.0000       0.184067         5.0087

MULLIKEN ATOMIC CHARGES
-----------------------
   0 O :   -0.453999
   1 C :    0.039017
   2 C :   -0.225781
   3 C :   -0.169323
   4 C :    0.225564
   5 O :   -0.444667
   6 C :   -0.269615
   7 C :   -0.022642
   8 C :   -0.277704
   9 H :    0.322762
  10 H :    0.098332
  11 H :    0.130112
  12 H :    0.132629
  13 H :    0.319898
  14 H :    0.118439
  15 H :    0.111154
  16 H :    0.133115
  17 H :    0.114232
  18 H :    0.118476
Sum of atomic charges:   -0.0000000

LOEWDIN ATOMIC CHARGES
----------------------
   0 O :    0.001999
   1 C :   -0.293857
   2 C :   -0.164905
   3 C :   -0.131709
   4 C :   -0.336583
   5 O :    0.028094
   6 C :   -0.178888
   7 C :   -0.183831
   8 C :   -0.186304
   9 H :    0.180542
  10 H :    0.128893
  11 H :    0.144988
  12 H :    0.153962
  13 H :    0.180184
  14 H :    0.129789
  15 H :    0.130149
  16 H :    0.134633
  17 H :    0.138376
  18 H :    0.124468

  Mayer bond orders larger than 0.1
B(  0-O ,  1-C ) :   1.0287 B(  0-O ,  9-H ) :   0.8425 B(  1-C ,  2-C ) :   0.8958
B(  1-C ,  3-C ) :   0.8951 B(  1-C , 10-H ) :   0.9427 B(  2-C ,  3-C ) :   0.9022
B(  2-C ,  7-C ) :   0.8254 B(  2-C , 11-H ) :   0.9279 B(  3-C ,  4-C ) :   0.8674
B(  3-C , 12-H ) :   0.9393 B(  4-C ,  5-O ) :   1.0359 B(  4-C ,  6-C ) :   0.9023
B(  4-C ,  8-C ) :   0.8866 B(  5-O , 13-H ) :   0.8374 B(  6-C ,  7-C ) :   0.9157
B(  6-C , 14-H ) :   0.9218 B(  6-C , 15-H ) :   0.9148 B(  7-C ,  8-C ) :   0.9154
B(  7-C , 16-H ) :   0.9038 B(  8-C , 17-H ) :   0.9136 B(  8-C , 18-H ) :   0.9245

MP2 TOTAL ENERGY:     -422.283730530 Eh
FINAL SINGLE POINT ENERGY      -422.283730529941

DIPOLE MOMENT
-------------
                                X             Y             Z
Electronic contribution:     -0.99210       2.58497      -2.11709
Nuclear contribution   :      1.65672      -3.27710       2.75445
                        -----------------------------------------
Total Dipole Moment    :      0.66462      -0.69213       0.63736
                        -----------------------------------------
Magnitude (a.u.)       :      1.15195
Magnitude (Debye)      :      2.92804

                             ****ORCA TERMINATED NORMALLY****
TOTAL RUN TIME: 0 days 0 hours 17 minutes 6 seconds 439 msec
