                         Program Version 3.0.3 - RELEASE   -
|  1> ! RI-MP2 RIJK def2-TZVP def2-TZVP/C def2-TZVP/JK TIGHTSCF
|  2> % maxcore 2000
|  3> % mp2 density relaxed end
|  4> *xyz 0 1
|  5>  C        0.2940712635     1.6307360560     0.0107033787
|  6>  C        0.1095709448     0.1309868926    -0.0604822092
|  7>  C        0.5756827196    -0.7349206330    -1.2257085638
|  8>  C        1.6536487952    -0.1964316883    -2.1473798761
|  9>  C        2.8403146794     0.0696694052    -1.2326260836
| 10>  N        3.9253274225     0.6136339978    -1.5757777698
| 11>  O        2.5556645923    -0.3567959533     0.0418669899
| 12>  C        1.2330909114    -0.8535856673     0.1236478538
| 13>  H        1.2639362707     1.9545420810    -0.3732734043
| 14>  H       -0.4814542425     2.1433421710    -0.5679873827
| 15>  H        0.2216119415     1.9765664523     1.0470192318
| 16>  H       -0.8278451013    -0.2165254657     0.3686718584
| 17>  H       -0.0883900223    -1.5049042020    -1.5985438758
| 18>  H        1.9347928149    -0.9382537694    -2.9011095884
| 19>  H        1.3848783407     0.7183582242    -2.6821323972
| 20>  H        4.5583414801     0.6876673170    -0.7776900209
| 21>  H        1.1593271896    -1.7099675780     0.7825619492
| 22> *
| 23>
| 24>                          ****END OF INPUT****

CARTESIAN COORDINATES (ANGSTROEM)
---------------------------------
  C      0.294071    1.630736    0.010703
  C      0.109571    0.130987   -0.060482
  C      0.575683   -0.734921   -1.225709
  C      1.653649   -0.196432   -2.147380
  C      2.840315    0.069669   -1.232626
  N      3.925327    0.613634   -1.575778
  O      2.555665   -0.356796    0.041867
  C      1.233091   -0.853586    0.123648
  H      1.263936    1.954542   -0.373273
  H     -0.481454    2.143342   -0.567987
  H      0.221612    1.976566    1.047019
  H     -0.827845   -0.216525    0.368672
  H     -0.088390   -1.504904   -1.598544
  H      1.934793   -0.938254   -2.901110
  H      1.384878    0.718358   -2.682132
  H      4.558341    0.687667   -0.777690
  H      1.159327   -1.709968    0.782562

 Total Charge           Charge          ....    0
 Multiplicity           Mult            ....    1
 Number of Electrons    NEL             ....   60
 Basis Dimension        Dim             ....  302

ORBITAL ENERGIES
----------------

  NO   OCC          E(Eh)            E(eV)
   0   2.0000     -20.595463      -560.4310
   1   2.0000     -15.528364      -422.5483
   2   2.0000     -11.336093      -308.4708
   3   2.0000     -11.297031      -307.4079
   4   2.0000     -11.248414      -306.0849
   5   2.0000     -11.246864      -306.0427
   6   2.0000     -11.246230      -306.0255
   7   2.0000     -11.227272      -305.5096
   8   2.0000      -1.434436       -39.0330
   9   2.0000      -1.196847       -32.5679
  10   2.0000      -1.156787       -31.4778
  11   2.0000      -1.018182       -27.7061
  12   2.0000      -0.969919       -26.3928
  13   2.0000      -0.840776       -22.8787
  14   2.0000      -0.795191       -21.6382
  15   2.0000      -0.755438       -20.5565
  16   2.0000      -0.718120       -19.5410
  17   2.0000      -0.671974       -18.2853
  18   2.0000      -0.649930       -17.6855
  19   2.0000      -0.601978       -16.3807
  20   2.0000      -0.597047       -16.2465
  21   2.0000      -0.571234       -15.5441
  22   2.0000      -0.555701       -15.1214
  23   2.0000      -0.549200       -14.9445
  24   2.0000      -0.531028       -14.4500
  25   2.0000      -0.501408       -13.6440
  26   2.0000      -0.439144       -11.9497
  27   2.0000      -0.432213       -11.7611
  28   2.0000      -0.413274       -11.2458
  29   2.0000      -0.380003       -10.3404
  30   0.0000       0.131071         3.5666
  31   0.0000       0.150424         4.0932
  32   0.0000       0.163379         4.4458
  33   0.0000       0.180426         4.9096
  34   0.0000       0.184161         5.0113

MULLIKEN ATOMIC CHARGES
-----------------------
   0 C :   -0.403356
   1 C :   -0.114030
   2 C :   -0.156606
   3 C :   -0.146511
   4 C :    0.055255
   5 N :   -0.370662
   6 O :   -0.261227
   7 C :    0.064183
   8 H :    0.150544
   9 H :    0.135486
  10 H :    0.139239
  11 H :    0.121548
  12 H :    0.139194
  13 H :    0.143206
  14 H :    0.141889
  15 H :    0.224561
  16 H :    0.137286
Sum of atomic charges:   -0.0000000

LOEWDIN ATOMIC CHARGES
----------------------
   0 C :   -0.285256
   1 C :   -0.213050
   2 C :   -0.186661
   3 C :   -0.196564
   4 C :   -0.396329
   5 N :   -0.062568
   6 O :    0.263557
   7 C :   -0.237046
   8 H :    0.134166
   9 H :    0.128661
  10 H :    0.130071
  11 H :    0.155374
  12 H :    0.146222
  13 H :    0.157489
  14 H :    0.155291
  15 H :    0.168941
  16 H :    0.137704

  Mayer bond orders larger than 0.1
B(  0-C ,  1-C ) :   0.9102 B(  0-C ,  8-H ) :   0.9309 B(  0-C ,  9-H ) :   0.9363
B(  0-C , 10-H ) :   0.9356 B(  1-C ,  2-C ) :   0.8509 B(  1-C ,  7-C ) :   0.8735
B(  1-C , 11-H ) :   0.9197 B(  2-C ,  3-C ) :   0.9628 B(  2-C ,  7-C ) :   0.8744
B(  2-C , 12-H ) :   0.9262 B(  3-C ,  4-C ) :   0.9299 B(  3-C , 13-H ) :   0.9118
B(  3-C , 14-H ) :   0.9097 B(  4-C ,  5-N ) :   2.0780 B(  4-C ,  6-O ) :   1.0681
B(  5-N , 15-H ) :   0.8550 B(  6-O ,  7-C ) :   0.9070 B(  7-C , 16-H ) :   0.9343

MP2 TOTAL ENERGY:     -363.245308734 Eh
FINAL SINGLE POINT ENERGY      -363.245308733956

DIPOLE MOMENT
-------------
                                X             Y             Z
Electronic contribution:      4.43437      -2.81554       0.34601
Nuclear contribution   :     -5.51485       2.41549      -0.00673
                        -----------------------------------------
Total Dipole Moment    :     -1.08048      -0.40006       0.33928
                        -----------------------------------------
Magnitude (a.u.)       :      1.20108
Magnitude (Debye)      :      3.05291

                             ****ORCA TERMINATED NORMALLY****
TOTAL RUN TIME: 0 days 0 hours 13 minutes 36 seconds 516 msec
