                         Program Version 3.0.3 - RELEASE   -
|  1> ! RI-MP2 RIJK def2-TZVP def2-TZVP/C def2-TZVP/JK TIGHTSCF
|  2> % maxcore 2000
|  3> % mp2 density relaxed end
|  4> *xyz 0 1
|  5>  O        0.7450154254    -0.3609015122     1.2823470067
|  6>  C        0.1064526615    -0.0042121980     0.0748756203
|  7>  C       -1.2910376467    -0.6119808743     0.0089579394
|  8>  O       -2.0088603939    -0.1827476613     1.1607203467
|  9>  C       -2.0940877584    -0.6531715172    -1.3391933817
| 10>  C       -1.1753952390    -1.8585310428    -1.7463023515
| 11>  C       -1.4781394830    -2.1445531585    -0.2347711395
| 12>  C       -2.9183767320    -1.7524655477    -0.6273530642
| 13>  O       -4.0389071018    -2.1334982613    -0.5241114582
| 14>  H        0.0792962954    -0.2516208514     1.9733237695
| 15>  H        0.0045792127     1.0927053751    -0.0196346663
| 16>  H        0.7554447979    -0.3340830111    -0.7379143360
| 17>  H       -2.1987305772     0.7585756620     1.0704684437
| 18>  H       -2.4206245161     0.1821674235    -1.9560594325
| 19>  H       -1.5910282333    -2.5630643300    -2.4665513452
| 20>  H       -0.1427122528    -1.6137410517    -1.9859781205
| 21>  H       -1.1144652387    -2.9607942832     0.3834923792
| 22> *
| 23>
| 24>                          ****END OF INPUT****

CARTESIAN COORDINATES (ANGSTROEM)
---------------------------------
  O      0.745015   -0.360902    1.282347
  C      0.106453   -0.004212    0.074876
  C     -1.291038   -0.611981    0.008958
  O     -2.008860   -0.182748    1.160720
  C     -2.094088   -0.653172   -1.339193
  C     -1.175395   -1.858531   -1.746302
  C     -1.478139   -2.144553   -0.234771
  C     -2.918377   -1.752466   -0.627353
  O     -4.038907   -2.133498   -0.524111
  H      0.079296   -0.251621    1.973324
  H      0.004579    1.092705   -0.019635
  H      0.755445   -0.334083   -0.737914
  H     -2.198731    0.758576    1.070468
  H     -2.420625    0.182167   -1.956059
  H     -1.591028   -2.563064   -2.466551
  H     -0.142712   -1.613741   -1.985978
  H     -1.114465   -2.960794    0.383492

 Total Charge           Charge          ....    0
 Multiplicity           Mult            ....    1
 Number of Electrons    NEL             ....   68
 Basis Dimension        Dim             ....  327

ORBITAL ENERGIES
----------------

  NO   OCC          E(Eh)            E(eV)
   0   2.0000     -20.587517      -560.2148
   1   2.0000     -20.564808      -559.5969
   2   2.0000     -20.553763      -559.2963
   3   2.0000     -11.348623      -308.8117
   4   2.0000     -11.326517      -308.2102
   5   2.0000     -11.295654      -307.3704
   6   2.0000     -11.272912      -306.7515
   7   2.0000     -11.268566      -306.6333
   8   2.0000     -11.267153      -306.5948
   9   2.0000      -1.412354       -38.4321
  10   2.0000      -1.398236       -38.0479
  11   2.0000      -1.365847       -37.1666
  12   2.0000      -1.227758       -33.4090
  13   2.0000      -0.987976       -26.8842
  14   2.0000      -0.914057       -24.8728
  15   2.0000      -0.904542       -24.6138
  16   2.0000      -0.824009       -22.4224
  17   2.0000      -0.738725       -20.1017
  18   2.0000      -0.718728       -19.5576
  19   2.0000      -0.710664       -19.3382
  20   2.0000      -0.672678       -18.3045
  21   2.0000      -0.654403       -17.8072
  22   2.0000      -0.642065       -17.4715
  23   2.0000      -0.613478       -16.6936
  24   2.0000      -0.601508       -16.3679
  25   2.0000      -0.578227       -15.7344
  26   2.0000      -0.543532       -14.7903
  27   2.0000      -0.527664       -14.3585
  28   2.0000      -0.494183       -13.4474
  29   2.0000      -0.492262       -13.3951
  30   2.0000      -0.488950       -13.3050
  31   2.0000      -0.462469       -12.5844
  32   2.0000      -0.448371       -12.2008
  33   2.0000      -0.396178       -10.7805
  34   0.0000       0.115393         3.1400
  35   0.0000       0.140360         3.8194
  36   0.0000       0.161442         4.3930
  37   0.0000       0.168707         4.5907
  38   0.0000       0.185521         5.0483

MULLIKEN ATOMIC CHARGES
-----------------------
   0 O :   -0.464432
   1 C :    0.021677
   2 C :    0.009106
   3 O :   -0.482409
   4 C :   -0.088571
   5 C :   -0.298726
   6 C :   -0.020663
   7 C :    0.111104
   8 O :   -0.239462
   9 H :    0.329270
  10 H :    0.093698
  11 H :    0.101906
  12 H :    0.331494
  13 H :    0.156678
  14 H :    0.142529
  15 H :    0.135655
  16 H :    0.161147
Sum of atomic charges:    0.0000000

LOEWDIN ATOMIC CHARGES
----------------------
   0 O :   -0.036933
   1 C :   -0.318082
   2 C :   -0.322947
   3 O :    0.020762
   4 C :   -0.117989
   5 C :   -0.174141
   6 C :   -0.102128
   7 C :   -0.279768
   8 O :    0.173805
   9 H :    0.178005
  10 H :    0.121263
  11 H :    0.132264
  12 H :    0.184405
  13 H :    0.131829
  14 H :    0.138064
  15 H :    0.134053
  16 H :    0.137538

  Mayer bond orders larger than 0.1
B(  0-O ,  1-C ) :   0.9426 B(  0-O ,  9-H ) :   0.8253 B(  1-C ,  2-C ) :   1.0026
B(  1-C , 10-H ) :   0.8962 B(  1-C , 11-H ) :   0.9192 B(  2-C ,  3-O ) :   0.9901
B(  2-C ,  4-C ) :   0.8766 B(  2-C ,  6-C ) :   0.8460 B(  3-O , 12-H ) :   0.8325
B(  4-C ,  5-C ) :   0.8975 B(  4-C ,  7-C ) :   0.7775 B(  4-C , 13-H ) :   0.8695
B(  5-C ,  6-C ) :   0.8895 B(  5-C , 14-H ) :   0.9180 B(  5-C , 15-H ) :   0.9294
B(  6-C ,  7-C ) :   0.7845 B(  6-C , 16-H ) :   0.8697 B(  7-C ,  8-O ) :   2.0833

MP2 TOTAL ENERGY:     -458.189331762 Eh
FINAL SINGLE POINT ENERGY      -458.189331761849

DIPOLE MOMENT
-------------
                                X             Y             Z
Electronic contribution:     -4.80256      -1.59149       1.73177
Nuclear contribution   :      5.35976       2.45589      -2.33176
                        -----------------------------------------
Total Dipole Moment    :      0.55719       0.86441      -0.59998
                        -----------------------------------------
Magnitude (a.u.)       :      1.19065
Magnitude (Debye)      :      3.02639

                             ****ORCA TERMINATED NORMALLY****
TOTAL RUN TIME: 0 days 0 hours 14 minutes 56 seconds 452 msec
