                         Program Version 3.0.3 - RELEASE   -
|  1> ! RI-MP2 RIJK def2-TZVP def2-TZVP/C def2-TZVP/JK TIGHTSCF
|  2> % maxcore 2000
|  3> % mp2 density relaxed end
|  4> *xyz 0 1
|  5>  C       -0.1851787038     1.7063038850     0.2196554039
|  6>  C       -0.1332116655     0.2003984194     0.1301777758
|  7>  C       -1.3630492376    -0.4863969366    -0.4682475382
|  8>  C       -1.6792190529    -0.0270694654    -1.8163315099
|  9>  C       -1.9332514774     0.3614148781    -2.9245864668
| 10>  O        1.1134625674    -0.3589045023    -0.2823005198
| 11>  C        0.6910305746    -0.5957934701     1.0739822836
| 12>  C        1.4632932444    -0.0038271015     2.1325488228
| 13>  C        2.0992161101     0.4599526166     3.0412777695
| 14>  H        0.7224073321     2.0947183917     0.6832695398
| 15>  H       -0.2873435193     2.1337545410    -0.7816035021
| 16>  H       -1.0479174844     2.0256403607     0.8138758814
| 17>  H       -1.1893600691    -1.5681783079    -0.4797366656
| 18>  H       -2.2221328165    -0.3079632311     0.1920589998
| 19>  H       -2.1575596010     0.6951178604    -3.9074025278
| 20>  H        0.3834429770    -1.6250347631     1.2626426723
| 21>  H        2.6656308920     0.8734762851     3.8390807612
| 22> *
| 23>
| 24>                          ****END OF INPUT****

CARTESIAN COORDINATES (ANGSTROEM)
---------------------------------
  C     -0.185179    1.706304    0.219655
  C     -0.133212    0.200398    0.130178
  C     -1.363049   -0.486397   -0.468248
  C     -1.679219   -0.027069   -1.816332
  C     -1.933251    0.361415   -2.924586
  O      1.113463   -0.358905   -0.282301
  C      0.691031   -0.595793    1.073982
  C      1.463293   -0.003827    2.132549
  C      2.099216    0.459953    3.041278
  H      0.722407    2.094718    0.683270
  H     -0.287344    2.133755   -0.781604
  H     -1.047917    2.025640    0.813876
  H     -1.189360   -1.568178   -0.479737
  H     -2.222133   -0.307963    0.192059
  H     -2.157560    0.695118   -3.907403
  H      0.383443   -1.625035    1.262643
  H      2.665631    0.873476    3.839081

 Total Charge           Charge          ....    0
 Multiplicity           Mult            ....    1
 Number of Electrons    NEL             ....   64
 Basis Dimension        Dim             ....  327

ORBITAL ENERGIES
----------------

  NO   OCC          E(Eh)            E(eV)
   0   2.0000     -20.580668      -560.0284
   1   2.0000     -11.317605      -307.9677
   2   2.0000     -11.315181      -307.9017
   3   2.0000     -11.268127      -306.6213
   4   2.0000     -11.246709      -306.0385
   5   2.0000     -11.240218      -305.8619
   6   2.0000     -11.239647      -305.8464
   7   2.0000     -11.226777      -305.4961
   8   2.0000     -11.226271      -305.4824
   9   2.0000      -1.427697       -38.8496
  10   2.0000      -1.091582       -29.7035
  11   2.0000      -1.058236       -28.7961
  12   2.0000      -1.016425       -27.6583
  13   2.0000      -0.964737       -26.2518
  14   2.0000      -0.938400       -25.5351
  15   2.0000      -0.814521       -22.1643
  16   2.0000      -0.740344       -20.1458
  17   2.0000      -0.725691       -19.7471
  18   2.0000      -0.700021       -19.0485
  19   2.0000      -0.675144       -18.3716
  20   2.0000      -0.643603       -17.5133
  21   2.0000      -0.622701       -16.9446
  22   2.0000      -0.579476       -15.7683
  23   2.0000      -0.572075       -15.5669
  24   2.0000      -0.545276       -14.8377
  25   2.0000      -0.532022       -14.4771
  26   2.0000      -0.475702       -12.9445
  27   2.0000      -0.466291       -12.6884
  28   2.0000      -0.407495       -11.0885
  29   2.0000      -0.397182       -10.8079
  30   2.0000      -0.392154       -10.6710
  31   2.0000      -0.381350       -10.3771
  32   0.0000       0.129457         3.5227
  33   0.0000       0.146313         3.9814
  34   0.0000       0.152538         4.1508
  35   0.0000       0.160940         4.3794
  36   0.0000       0.166217         4.5230

MULLIKEN ATOMIC CHARGES
-----------------------
   0 C :   -0.432716
   1 C :    0.250433
   2 C :   -0.333470
   3 C :   -0.041120
   4 C :   -0.136090
   5 O :   -0.306904
   6 C :   -0.214092
   7 C :    0.027593
   8 C :   -0.083694
   9 H :    0.156160
  10 H :    0.162397
  11 H :    0.131730
  12 H :    0.150967
  13 H :    0.151290
  14 H :    0.191980
  15 H :    0.128129
  16 H :    0.197406
Sum of atomic charges:    0.0000000

LOEWDIN ATOMIC CHARGES
----------------------
   0 C :   -0.252868
   1 C :   -0.305991
   2 C :   -0.205782
   3 C :   -0.104805
   4 C :   -0.097355
   5 O :    0.206477
   6 C :   -0.235087
   7 C :   -0.088903
   8 C :   -0.072515
   9 H :    0.138572
  10 H :    0.139030
  11 H :    0.134889
  12 H :    0.166442
  13 H :    0.165864
  14 H :    0.127429
  15 H :    0.154991
  16 H :    0.129614

  Mayer bond orders larger than 0.1
B(  0-C ,  1-C ) :   0.9135 B(  0-C ,  9-H ) :   0.9308 B(  0-C , 10-H ) :   0.9360
B(  0-C , 11-H ) :   0.9265 B(  1-C ,  2-C ) :   0.8724 B(  1-C ,  5-O ) :   0.8925
B(  1-C ,  6-C ) :   0.9558 B(  2-C ,  3-C ) :   1.1066 B(  2-C , 12-H ) :   0.9146
B(  2-C , 13-H ) :   0.9349 B(  3-C ,  4-C ) :   2.6046 B(  4-C , 14-H ) :   0.9028
B(  5-O ,  6-C ) :   0.9411 B(  6-C ,  7-C ) :   1.1206 B(  6-C ,  8-C ) :  -0.1454
B(  6-C , 15-H ) :   0.9239 B(  7-C ,  8-C ) :   2.5880 B(  8-C , 16-H ) :   0.8894

MP2 TOTAL ENERGY:     -383.909941901 Eh
FINAL SINGLE POINT ENERGY      -383.909941900824

DIPOLE MOMENT
-------------
                                X             Y             Z
Electronic contribution:      2.54621      -2.75508      -0.08973
Nuclear contribution   :     -3.05791       2.92172       0.65426
                        -----------------------------------------
Total Dipole Moment    :     -0.51170       0.16664       0.56453
                        -----------------------------------------
Magnitude (a.u.)       :      0.77993
Magnitude (Debye)      :      1.98243

                             ****ORCA TERMINATED NORMALLY****
TOTAL RUN TIME: 0 days 0 hours 15 minutes 11 seconds 585 msec
