                         Program Version 3.0.3 - RELEASE   -
|  1> ! RI-MP2 RIJK def2-TZVP def2-TZVP/C def2-TZVP/JK TIGHTSCF
|  2> % maxcore 2000
|  3> % mp2 density relaxed end
|  4> *xyz 0 1
|  5>  C       -0.1553946448     1.5621423556     0.1929439298
|  6>  C       -0.0019410849     0.0639522764    -0.0496595250
|  7>  C        0.9557153359    -0.5844081350     0.9548843101
|  8>  O       -1.3128453563    -0.4840539846     0.0156132566
|  9>  C       -1.4933677895    -1.7921880496    -0.4956584766
| 10>  C       -1.6582198035    -2.8834012863     0.5776444978
| 11>  C       -2.3212297434    -4.0343116138    -0.1909027027
| 12>  C       -3.3005862772    -3.3389680034    -1.1772461311
| 13>  C       -2.8122331826    -1.8709676334    -1.2927738828
| 14>  H        0.8099030087     2.0699489135     0.1072780321
| 15>  H       -0.8467972947     1.9963423588    -0.5338219440
| 16>  H       -0.5546882143     1.7451295144     1.1957593567
| 17>  H        0.3976233489    -0.0927080714    -1.0664906234
| 18>  H        0.5638347382    -0.4807026227     1.9719674060
| 19>  H        1.0947069003    -1.6490461493     0.7472163717
| 20>  H        1.9393273281    -0.1049992699     0.9108010252
| 21>  H       -0.6465090609    -2.0525309474    -1.1501119069
| 22>  H       -0.7189982073    -3.1675842204     1.0597159239
| 23>  H       -2.3264596843    -2.4941540752     1.3556498293
| 24>  H       -1.5592901976    -4.5915053287    -0.7489726418
| 25>  H       -2.8202652732    -4.7535755192     0.4639966944
| 26>  H       -3.3154253755    -3.8467855014    -2.1454968475
| 27>  H       -4.3246051412    -3.3725987475    -0.7940644061
| 28>  H       -3.5177978789    -1.1804501281    -0.8203069611
| 29>  H       -2.6853313401    -1.5393331612    -2.3266749147
| 30> *
| 31>
| 32>                          ****END OF INPUT****

CARTESIAN COORDINATES (ANGSTROEM)
---------------------------------
  C     -0.155395    1.562142    0.192944
  C     -0.001941    0.063952   -0.049660
  C      0.955715   -0.584408    0.954884
  O     -1.312845   -0.484054    0.015613
  C     -1.493368   -1.792188   -0.495658
  C     -1.658220   -2.883401    0.577644
  C     -2.321230   -4.034312   -0.190903
  C     -3.300586   -3.338968   -1.177246
  C     -2.812233   -1.870968   -1.292774
  H      0.809903    2.069949    0.107278
  H     -0.846797    1.996342   -0.533822
  H     -0.554688    1.745130    1.195759
  H      0.397623   -0.092708   -1.066491
  H      0.563835   -0.480703    1.971967
  H      1.094707   -1.649046    0.747216
  H      1.939327   -0.104999    0.910801
  H     -0.646509   -2.052531   -1.150112
  H     -0.718998   -3.167584    1.059716
  H     -2.326460   -2.494154    1.355650
  H     -1.559290   -4.591505   -0.748973
  H     -2.820265   -4.753576    0.463997
  H     -3.315425   -3.846786   -2.145497
  H     -4.324605   -3.372599   -0.794064
  H     -3.517798   -1.180450   -0.820307
  H     -2.685331   -1.539333   -2.326675

 Total Charge           Charge          ....    0
 Multiplicity           Mult            ....    1
 Number of Electrons    NEL             ....   72
 Basis Dimension        Dim             ....  375

ORBITAL ENERGIES
----------------

  NO   OCC          E(Eh)            E(eV)
   0   2.0000     -20.541010      -558.9493
   1   2.0000     -11.276061      -306.8372
   2   2.0000     -11.269270      -306.6524
   3   2.0000     -11.215969      -305.2020
   4   2.0000     -11.214633      -305.1657
   5   2.0000     -11.211635      -305.0841
   6   2.0000     -11.210344      -305.0490
   7   2.0000     -11.209138      -305.0161
   8   2.0000     -11.207781      -304.9792
   9   2.0000      -1.364327       -37.1252
  10   2.0000      -1.111167       -30.2364
  11   2.0000      -1.040611       -28.3165
  12   2.0000      -0.959133       -26.0993
  13   2.0000      -0.943766       -25.6812
  14   2.0000      -0.927491       -25.2383
  15   2.0000      -0.797337       -21.6967
  16   2.0000      -0.780716       -21.2444
  17   2.0000      -0.770770       -20.9737
  18   2.0000      -0.675915       -18.3926
  19   2.0000      -0.657676       -17.8963
  20   2.0000      -0.622729       -16.9453
  21   2.0000      -0.610746       -16.6192
  22   2.0000      -0.588723       -16.0200
  23   2.0000      -0.567337       -15.4380
  24   2.0000      -0.553817       -15.0701
  25   2.0000      -0.537303       -14.6207
  26   2.0000      -0.530452       -14.4343
  27   2.0000      -0.519235       -14.1291
  28   2.0000      -0.502907       -13.6848
  29   2.0000      -0.476688       -12.9713
  30   2.0000      -0.475168       -12.9300
  31   2.0000      -0.468079       -12.7371
  32   2.0000      -0.458387       -12.4734
  33   2.0000      -0.454825       -12.3764
  34   2.0000      -0.444169       -12.0865
  35   2.0000      -0.394218       -10.7272
  36   0.0000       0.133772         3.6401
  37   0.0000       0.148042         4.0284
  38   0.0000       0.158491         4.3128
  39   0.0000       0.167939         4.5698
  40   0.0000       0.187229         5.0948

MULLIKEN ATOMIC CHARGES
-----------------------
   0 C :   -0.362638
   1 C :    0.070585
   2 C :   -0.383150
   3 O :   -0.290731
   4 C :    0.021527
   5 C :   -0.194691
   6 C :   -0.231518
   7 C :   -0.229720
   8 C :   -0.202597
   9 H :    0.117697
  10 H :    0.133643
  11 H :    0.125748
  12 H :    0.068764
  13 H :    0.126514
  14 H :    0.126468
  15 H :    0.129273
  16 H :    0.064750
  17 H :    0.113663
  18 H :    0.106939
  19 H :    0.106082
  20 H :    0.123292
  21 H :    0.113444
  22 H :    0.114904
  23 H :    0.114293
  24 H :    0.117460
Sum of atomic charges:   -0.0000000

LOEWDIN ATOMIC CHARGES
----------------------
   0 C :   -0.294170
   1 C :   -0.379300
   2 C :   -0.299689
   3 O :    0.199776
   4 C :   -0.316554
   5 C :   -0.247590
   6 C :   -0.259348
   7 C :   -0.252930
   8 C :   -0.235678
   9 H :    0.123679
  10 H :    0.124909
  11 H :    0.125598
  12 H :    0.131355
  13 H :    0.125913
  14 H :    0.120088
  15 H :    0.125483
  16 H :    0.136400
  17 H :    0.129308
  18 H :    0.141632
  19 H :    0.134018
  20 H :    0.131218
  21 H :    0.130313
  22 H :    0.132960
  23 H :    0.141105
  24 H :    0.131502

  Mayer bond orders larger than 0.1
B(  0-C ,  1-C ) :   0.9338 B(  0-C ,  9-H ) :   0.9320 B(  0-C , 10-H ) :   0.9383
B(  0-C , 11-H ) :   0.9348 B(  1-C ,  2-C ) :   0.9067 B(  1-C ,  3-O ) :   0.9396
B(  1-C , 12-H ) :   0.9331 B(  2-C , 13-H ) :   0.9312 B(  2-C , 14-H ) :   0.9359
B(  2-C , 15-H ) :   0.9283 B(  3-O ,  4-C ) :   0.9355 B(  4-C ,  5-C ) :   0.9168
B(  4-C ,  8-C ) :   0.9332 B(  4-C , 16-H ) :   0.9285 B(  5-C ,  6-C ) :   0.9299
B(  5-C , 17-H ) :   0.9269 B(  5-C , 18-H ) :   0.9254 B(  6-C ,  7-C ) :   0.9309
B(  6-C , 19-H ) :   0.9305 B(  6-C , 20-H ) :   0.9311 B(  7-C ,  8-C ) :   0.9339
B(  7-C , 21-H ) :   0.9336 B(  7-C , 22-H ) :   0.9356 B(  8-C , 23-H ) :   0.9243
B(  8-C , 24-H ) :   0.9302

MP2 TOTAL ENERGY:     -388.831747353 Eh
FINAL SINGLE POINT ENERGY      -388.831747352917

DIPOLE MOMENT
-------------
                                X             Y             Z
Electronic contribution:     -2.10271       0.03540      -0.76208
Nuclear contribution   :      2.44627      -0.25565       0.60085
                        -----------------------------------------
Total Dipole Moment    :      0.34355      -0.22025      -0.16123
                        -----------------------------------------
Magnitude (a.u.)       :      0.43879
Magnitude (Debye)      :      1.11530

                             ****ORCA TERMINATED NORMALLY****
TOTAL RUN TIME: 0 days 0 hours 21 minutes 42 seconds 490 msec
