                         Program Version 3.0.3 - RELEASE   -
|  1> ! RI-MP2 RIJK def2-TZVP def2-TZVP/C def2-TZVP/JK TIGHTSCF
|  2> % maxcore 2000
|  3> % mp2 density relaxed end
|  4> *xyz 0 1
|  5>  C        0.0077990676     1.5627165039    -0.0680057340
|  6>  C        1.5521749078     1.5619479517     0.0946326614
|  7>  C        1.4590740341     0.1068304200     0.6230701821
|  8>  C        0.0284598514     0.0117546364     0.0267017433
|  9>  C        2.4366054856    -1.0365637503     0.4060879425
| 10>  C        3.4208401859    -1.0513927818     1.5867814343
| 11>  C        3.0460265158     0.1104805002     2.5051904108
| 12>  C        1.5732184905    -0.2220817716     2.1399533174
| 13>  C        2.0534778208    -1.6732473106     1.7243053179
| 14>  H       -0.4937971566     2.0187065669     0.7900220353
| 15>  H       -0.4031034607     2.0023777645    -0.9795344261
| 16>  H        2.0676815456     1.6093603307    -0.8701929827
| 17>  H        1.9949737972     2.3118511844     0.7564044171
| 18>  H       -0.7392762502    -0.4770955955     0.6334932743
| 19>  H        0.0336209710    -0.4544952352    -0.9640780027
| 20>  H        2.6733499335    -1.5359131811    -0.5261913274
| 21>  H        4.3721968034    -1.5620307189     1.5048399701
| 22>  H        3.2638472496    -0.1253103845     3.5509380983
| 23>  H        3.4141678720     1.1165473947     2.2718484497
| 24>  H        0.7569103947     0.0221492451     2.8184893591
| 25>  H        1.7294935110    -2.6714245490     1.9785063693
| 26> *
| 27>
| 28>                          ****END OF INPUT****

CARTESIAN COORDINATES (ANGSTROEM)
---------------------------------
  C      0.007799    1.562717   -0.068006
  C      1.552175    1.561948    0.094633
  C      1.459074    0.106830    0.623070
  C      0.028460    0.011755    0.026702
  C      2.436605   -1.036564    0.406088
  C      3.420840   -1.051393    1.586781
  C      3.046027    0.110481    2.505190
  C      1.573218   -0.222082    2.139953
  C      2.053478   -1.673247    1.724305
  H     -0.493797    2.018707    0.790022
  H     -0.403103    2.002378   -0.979534
  H      2.067682    1.609360   -0.870193
  H      1.994974    2.311851    0.756404
  H     -0.739276   -0.477096    0.633493
  H      0.033621   -0.454495   -0.964078
  H      2.673350   -1.535913   -0.526191
  H      4.372197   -1.562031    1.504840
  H      3.263847   -0.125310    3.550938
  H      3.414168    1.116547    2.271848
  H      0.756910    0.022149    2.818489
  H      1.729494   -2.671425    1.978506

 Total Charge           Charge          ....    0
 Multiplicity           Mult            ....    1
 Number of Electrons    NEL             ....   66
 Basis Dimension        Dim             ....  351

ORBITAL ENERGIES
----------------

  NO   OCC          E(Eh)            E(eV)
   0   2.0000     -11.231744      -305.6313
   1   2.0000     -11.229441      -305.5686
   2   2.0000     -11.228901      -305.5539
   3   2.0000     -11.226820      -305.4973
   4   2.0000     -11.224411      -305.4317
   5   2.0000     -11.219408      -305.2956
   6   2.0000     -11.214559      -305.1637
   7   2.0000     -11.212581      -305.1098
   8   2.0000     -11.210045      -305.0408
   9   2.0000      -1.227954       -33.4143
  10   2.0000      -1.107763       -30.1438
  11   2.0000      -0.962715       -26.1968
  12   2.0000      -0.929150       -25.2834
  13   2.0000      -0.891832       -24.2680
  14   2.0000      -0.847731       -23.0679
  15   2.0000      -0.782790       -21.3008
  16   2.0000      -0.733980       -19.9726
  17   2.0000      -0.697237       -18.9728
  18   2.0000      -0.684799       -18.6343
  19   2.0000      -0.638027       -17.3616
  20   2.0000      -0.617638       -16.8068
  21   2.0000      -0.584173       -15.8962
  22   2.0000      -0.564639       -15.3646
  23   2.0000      -0.532448       -14.4886
  24   2.0000      -0.515592       -14.0300
  25   2.0000      -0.494936       -13.4679
  26   2.0000      -0.472292       -12.8517
  27   2.0000      -0.461569       -12.5599
  28   2.0000      -0.446167       -12.1408
  29   2.0000      -0.418554       -11.3894
  30   2.0000      -0.413424       -11.2498
  31   2.0000      -0.379235       -10.3195
  32   2.0000      -0.357898        -9.7389
  33   0.0000       0.141837         3.8596
  34   0.0000       0.163394         4.4462
  35   0.0000       0.165854         4.5131
  36   0.0000       0.169088         4.6011
  37   0.0000       0.184028         5.0076

MULLIKEN ATOMIC CHARGES
-----------------------
   0 C :   -0.221867
   1 C :   -0.235038
   2 C :    0.098948
   3 C :   -0.264142
   4 C :   -0.149675
   5 C :   -0.146179
   6 C :   -0.194364
   7 C :   -0.071251
   8 C :   -0.231771
   9 H :    0.111350
  10 H :    0.114724
  11 H :    0.111208
  12 H :    0.109400
  13 H :    0.113842
  14 H :    0.107976
  15 H :    0.127544
  16 H :    0.128083
  17 H :    0.112218
  18 H :    0.104099
  19 H :    0.128760
  20 H :    0.146136
Sum of atomic charges:   -0.0000000

LOEWDIN ATOMIC CHARGES
----------------------
   0 C :   -0.241100
   1 C :   -0.203932
   2 C :   -0.203704
   3 C :   -0.192718
   4 C :   -0.132847
   5 C :   -0.165926
   6 C :   -0.197084
   7 C :   -0.120520
   8 C :   -0.118536
   9 H :    0.131609
  10 H :    0.121626
  11 H :    0.136332
  12 H :    0.125174
  13 H :    0.126530
  14 H :    0.135192
  15 H :    0.138622
  16 H :    0.135885
  17 H :    0.137885
  18 H :    0.122711
  19 H :    0.133270
  20 H :    0.131529

  Mayer bond orders larger than 0.1
B(  0-C ,  1-C ) :   0.9606 B(  0-C ,  3-C ) :   0.9569 B(  0-C ,  9-H ) :   0.9238
B(  0-C , 10-H ) :   0.9297 B(  1-C ,  2-C ) :   0.8965 B(  1-C , 11-H ) :   0.9169
B(  1-C , 12-H ) :   0.9239 B(  2-C ,  3-C ) :   0.9101 B(  2-C ,  4-C ) :   0.9237
B(  2-C ,  7-C ) :   0.8797 B(  3-C , 13-H ) :   0.9237 B(  3-C , 14-H ) :   0.9188
B(  4-C ,  5-C ) :   0.8082 B(  4-C ,  8-C ) :   0.8679 B(  4-C , 15-H ) :   0.9195
B(  5-C ,  6-C ) :   0.9625 B(  5-C ,  8-C ) :   0.8657 B(  5-C , 16-H ) :   0.9363
B(  6-C ,  7-C ) :   0.9340 B(  6-C , 17-H ) :   0.9310 B(  6-C , 18-H ) :   0.9201
B(  7-C ,  8-C ) :   0.9162 B(  7-C , 19-H ) :   0.9071 B(  8-C , 20-H ) :   0.9099

MP2 TOTAL ENERGY:     -349.241566451 Eh
FINAL SINGLE POINT ENERGY      -349.241566450837

DIPOLE MOMENT
-------------
                                X             Y             Z
Electronic contribution:      1.76126      -2.69823       0.94287
Nuclear contribution   :     -1.77204       2.61071      -0.91723
                        -----------------------------------------
Total Dipole Moment    :     -0.01078      -0.08752       0.02564
                        -----------------------------------------
Magnitude (a.u.)       :      0.09183
Magnitude (Debye)      :      0.23341

                             ****ORCA TERMINATED NORMALLY****
TOTAL RUN TIME: 0 days 0 hours 19 minutes 48 seconds 809 msec
