                         Program Version 3.0.3 - RELEASE   -
|  1> ! RI-MP2 RIJK def2-TZVP def2-TZVP/C def2-TZVP/JK TIGHTSCF
|  2> % maxcore 2000
|  3> % mp2 density relaxed end
|  4> *xyz 0 1
|  5>  C       -0.2164518575     1.6300231861    -0.0422100214
|  6>  C        0.0370183679     0.1291879268    -0.0015612506
|  7>  C        1.0953403392    -0.5752305781    -0.9067658388
|  8>  C        2.4126594967     0.1246499275    -0.5204645736
|  9>  C        2.3656514093    -0.3873203888     0.9325105842
| 10>  O        2.5000707648    -1.8267017876     0.7144007773
| 11>  C        1.1636567559    -1.7268115105     0.2156829851
| 12>  C        0.8023819374    -0.5540810119     1.1471713685
| 13>  H        0.6842911428     2.2178134013     0.1542191083
| 14>  H       -0.6102999610     1.9378872841    -1.0173438110
| 15>  H       -0.9574534271     1.9106981741     0.7144183762
| 16>  H       -0.9193320307    -0.3979996028    -0.1129717963
| 17>  H        0.8992004806    -0.7852366993    -1.9569936297
| 18>  H        3.2926505655    -0.2747841761    -1.0282870689
| 19>  H        2.3855627159     1.2091998588    -0.6379958010
| 20>  H        3.0445923464     0.0080911460     1.6863670506
| 21>  H        0.6258090567    -2.6649353496     0.0891659438
| 22>  H        0.4332335772    -0.6755185101     2.1645251375
| 23> *
| 24>
| 25>                          ****END OF INPUT****

CARTESIAN COORDINATES (ANGSTROEM)
---------------------------------
  C     -0.216452    1.630023   -0.042210
  C      0.037018    0.129188   -0.001561
  C      1.095340   -0.575231   -0.906766
  C      2.412659    0.124650   -0.520465
  C      2.365651   -0.387320    0.932511
  O      2.500071   -1.826702    0.714401
  C      1.163657   -1.726812    0.215683
  C      0.802382   -0.554081    1.147171
  H      0.684291    2.217813    0.154219
  H     -0.610300    1.937887   -1.017344
  H     -0.957453    1.910698    0.714418
  H     -0.919332   -0.398000   -0.112972
  H      0.899200   -0.785237   -1.956994
  H      3.292651   -0.274784   -1.028287
  H      2.385563    1.209200   -0.637996
  H      3.044592    0.008091    1.686367
  H      0.625809   -2.664935    0.089166
  H      0.433234   -0.675519    2.164525

 Total Charge           Charge          ....    0
 Multiplicity           Mult            ....    1
 Number of Electrons    NEL             ....   60
 Basis Dimension        Dim             ....  308

ORBITAL ENERGIES
----------------

  NO   OCC          E(Eh)            E(eV)
   0   2.0000     -20.544254      -559.0376
   1   2.0000     -11.286878      -307.1316
   2   2.0000     -11.283334      -307.0351
   3   2.0000     -11.235477      -305.7329
   4   2.0000     -11.234888      -305.7168
   5   2.0000     -11.232511      -305.6522
   6   2.0000     -11.221568      -305.3544
   7   2.0000     -11.217811      -305.2522
   8   2.0000      -1.390950       -37.8497
   9   2.0000      -1.151141       -31.3241
  10   2.0000      -1.000010       -27.2117
  11   2.0000      -0.969940       -26.3934
  12   2.0000      -0.926823       -25.2201
  13   2.0000      -0.827664       -22.5219
  14   2.0000      -0.765041       -20.8178
  15   2.0000      -0.722297       -19.6547
  16   2.0000      -0.706979       -19.2379
  17   2.0000      -0.649923       -17.6853
  18   2.0000      -0.625028       -17.0079
  19   2.0000      -0.601966       -16.3803
  20   2.0000      -0.562515       -15.3068
  21   2.0000      -0.552140       -15.0245
  22   2.0000      -0.530891       -14.4463
  23   2.0000      -0.517028       -14.0691
  24   2.0000      -0.482701       -13.1350
  25   2.0000      -0.477152       -12.9840
  26   2.0000      -0.441471       -12.0130
  27   2.0000      -0.434812       -11.8318
  28   2.0000      -0.420424       -11.4403
  29   2.0000      -0.391979       -10.6663
  30   0.0000       0.135500         3.6872
  31   0.0000       0.159850         4.3497
  32   0.0000       0.171659         4.6711
  33   0.0000       0.177741         4.8366
  34   0.0000       0.193291         5.2597

MULLIKEN ATOMIC CHARGES
-----------------------
   0 C :   -0.412932
   1 C :   -0.099837
   2 C :   -0.021218
   3 C :   -0.277957
   4 C :    0.028950
   5 O :   -0.316044
   6 C :   -0.042583
   7 C :   -0.108197
   8 H :    0.124306
   9 H :    0.134203
  10 H :    0.134277
  11 H :    0.100001
  12 H :    0.132685
  13 H :    0.122998
  14 H :    0.121465
  15 H :    0.129933
  16 H :    0.123219
  17 H :    0.126732
Sum of atomic charges:   -0.0000000

LOEWDIN ATOMIC CHARGES
----------------------
   0 C :   -0.298770
   1 C :   -0.227884
   2 C :   -0.166401
   3 C :   -0.214310
   4 C :   -0.215006
   5 O :    0.159771
   6 C :   -0.220215
   7 C :   -0.147993
   8 H :    0.120946
   9 H :    0.126047
  10 H :    0.126351
  11 H :    0.158271
  12 H :    0.131275
  13 H :    0.140825
  14 H :    0.134157
  15 H :    0.129032
  16 H :    0.129478
  17 H :    0.134427

  Mayer bond orders larger than 0.1
B(  0-C ,  1-C ) :   0.8892 B(  0-C ,  8-H ) :   0.9392 B(  0-C ,  9-H ) :   0.9364
B(  0-C , 10-H ) :   0.9385 B(  1-C ,  2-C ) :   0.9090 B(  1-C ,  7-C ) :   0.9214
B(  1-C , 11-H ) :   0.9262 B(  2-C ,  3-C ) :   0.8913 B(  2-C ,  6-C ) :   0.8515
B(  2-C , 12-H ) :   0.9099 B(  3-C ,  4-C ) :   0.9502 B(  3-C , 13-H ) :   0.9222
B(  3-C , 14-H ) :   0.9324 B(  4-C ,  5-O ) :   0.8885 B(  4-C ,  7-C ) :   0.8848
B(  4-C , 15-H ) :   0.9144 B(  5-O ,  6-C ) :   0.9753 B(  6-C ,  7-C ) :   0.9201
B(  6-C , 16-H ) :   0.9168 B(  7-C , 17-H ) :   0.9158

MP2 TOTAL ENERGY:     -347.160929176 Eh
FINAL SINGLE POINT ENERGY      -347.160929175568

DIPOLE MOMENT
-------------
                                X             Y             Z
Electronic contribution:      3.13077      -5.43112       1.64775
Nuclear contribution   :     -3.65746       5.97684      -1.76207
                        -----------------------------------------
Total Dipole Moment    :     -0.52668       0.54571      -0.11431
                        -----------------------------------------
Magnitude (a.u.)       :      0.76699
Magnitude (Debye)      :      1.94953

                             ****ORCA TERMINATED NORMALLY****
TOTAL RUN TIME: 0 days 0 hours 13 minutes 24 seconds 89 msec
