                         Program Version 3.0.3 - RELEASE   -
|  1> ! RI-MP2 RIJK def2-TZVP def2-TZVP/C def2-TZVP/JK TIGHTSCF
|  2> % maxcore 2000
|  3> % mp2 density relaxed end
|  4> *xyz 0 1
|  5>  C       -0.0241708809     1.5022094623     0.0451988639
|  6>  C       -0.0352812157     0.0024220083    -0.0784126789
|  7>  C        0.8265247032    -0.6507770778    -1.1546374756
|  8>  C        0.3565943789    -2.1173318745    -1.1477906750
|  9>  O        0.8663544717    -3.0302742972    -1.7455386833
| 10>  C       -0.8807718707    -2.1773478839    -0.3059778310
| 11>  C       -0.8137230088    -1.4810768052     1.0688935206
| 12>  O        0.3320249937    -0.6583927665     1.1951992854
| 13>  C       -1.3985343571    -0.7612026984    -0.0800797079
| 14>  H        0.9867979811     1.8567774565     0.2684502794
| 15>  H       -0.3533537803     1.9664500830    -0.8902754057
| 16>  H       -0.6882170221     1.8263189426     0.8510383420
| 17>  H        0.6303367501    -0.2174037942    -2.1432957172
| 18>  H        1.8972541840    -0.5789239655    -0.9497540480
| 19>  H       -1.5581978850    -3.0166839275    -0.3991206905
| 20>  H       -1.2322120692    -1.9317406536     1.9604771713
| 21>  H       -2.3868014029    -0.3874829085    -0.3093002495
| 22> *
| 23>
| 24>                          ****END OF INPUT****

CARTESIAN COORDINATES (ANGSTROEM)
---------------------------------
  C     -0.024171    1.502209    0.045199
  C     -0.035281    0.002422   -0.078413
  C      0.826525   -0.650777   -1.154637
  C      0.356594   -2.117332   -1.147791
  O      0.866354   -3.030274   -1.745539
  C     -0.880772   -2.177348   -0.305978
  C     -0.813723   -1.481077    1.068894
  O      0.332025   -0.658393    1.195199
  C     -1.398534   -0.761203   -0.080080
  H      0.986798    1.856777    0.268450
  H     -0.353354    1.966450   -0.890275
  H     -0.688217    1.826319    0.851038
  H      0.630337   -0.217404   -2.143296
  H      1.897254   -0.578924   -0.949754
  H     -1.558198   -3.016684   -0.399121
  H     -1.232212   -1.931741    1.960477
  H     -2.386801   -0.387483   -0.309300

 Total Charge           Charge          ....    0
 Multiplicity           Mult            ....    1
 Number of Electrons    NEL             ....   66
 Basis Dimension        Dim             ....  327

ORBITAL ENERGIES
----------------

  NO   OCC          E(Eh)            E(eV)
   0   2.0000     -20.568083      -559.6860
   1   2.0000     -20.542797      -558.9979
   2   2.0000     -11.333456      -308.3990
   3   2.0000     -11.316800      -307.9458
   4   2.0000     -11.315199      -307.9022
   5   2.0000     -11.259230      -306.3792
   6   2.0000     -11.253968      -306.2360
   7   2.0000     -11.242219      -305.9163
   8   2.0000     -11.237007      -305.7745
   9   2.0000      -1.416474       -38.5442
  10   2.0000      -1.385917       -37.7127
  11   2.0000      -1.156704       -31.4755
  12   2.0000      -1.071634       -29.1606
  13   2.0000      -0.996101       -27.1053
  14   2.0000      -0.898930       -24.4611
  15   2.0000      -0.851721       -23.1765
  16   2.0000      -0.758127       -20.6297
  17   2.0000      -0.750809       -20.4305
  18   2.0000      -0.706208       -19.2169
  19   2.0000      -0.674971       -18.3669
  20   2.0000      -0.645051       -17.5527
  21   2.0000      -0.621811       -16.9203
  22   2.0000      -0.608991       -16.5715
  23   2.0000      -0.593395       -16.1471
  24   2.0000      -0.570138       -15.5142
  25   2.0000      -0.555879       -15.1262
  26   2.0000      -0.545472       -14.8430
  27   2.0000      -0.516441       -14.0531
  28   2.0000      -0.509732       -13.8705
  29   2.0000      -0.467022       -12.7083
  30   2.0000      -0.441243       -12.0068
  31   2.0000      -0.403453       -10.9785
  32   2.0000      -0.389021       -10.5858
  33   0.0000       0.130370         3.5476
  34   0.0000       0.136003         3.7008
  35   0.0000       0.158047         4.3007
  36   0.0000       0.171207         4.6588
  37   0.0000       0.180688         4.9168

MULLIKEN ATOMIC CHARGES
-----------------------
   0 C :   -0.418810
   1 C :    0.213311
   2 C :   -0.165315
   3 C :    0.116787
   4 O :   -0.268871
   5 C :   -0.140215
   6 C :    0.035585
   7 O :   -0.319183
   8 C :   -0.195200
   9 H :    0.149131
  10 H :    0.133341
  11 H :    0.144451
  12 H :    0.134682
  13 H :    0.132109
  14 H :    0.145375
  15 H :    0.146087
  16 H :    0.156735
Sum of atomic charges:   -0.0000000

LOEWDIN ATOMIC CHARGES
----------------------
   0 C :   -0.260266
   1 C :   -0.278093
   2 C :   -0.174702
   3 C :   -0.297975
   4 O :    0.151520
   5 C :   -0.138960
   6 C :   -0.225391
   7 O :    0.190144
   8 C :   -0.118838
   9 H :    0.136456
  10 H :    0.133731
  11 H :    0.134372
  12 H :    0.157505
  13 H :    0.154127
  14 H :    0.157013
  15 H :    0.138057
  16 H :    0.141298

  Mayer bond orders larger than 0.1
B(  0-C ,  1-C ) :   0.8674 B(  0-C ,  9-H ) :   0.9388 B(  0-C , 10-H ) :   0.9309
B(  0-C , 11-H ) :   0.9409 B(  1-C ,  2-C ) :   0.9511 B(  1-C ,  7-O ) :   0.8841
B(  1-C ,  8-C ) :   0.8732 B(  2-C ,  3-C ) :   0.9334 B(  2-C , 12-H ) :   0.8874
B(  2-C , 13-H ) :   0.8810 B(  3-C ,  4-O ) :   2.0458 B(  3-C ,  5-C ) :   0.9269
B(  5-C ,  6-C ) :   0.8138 B(  5-C ,  8-C ) :   0.7961 B(  5-C , 14-H ) :   0.9194
B(  6-C ,  7-O ) :   0.9859 B(  6-C ,  8-C ) :   0.9398 B(  6-C , 15-H ) :   0.9205
B(  8-C , 16-H ) :   0.8913

MP2 TOTAL ENERGY:     -421.109317506 Eh
FINAL SINGLE POINT ENERGY      -421.109317505562

DIPOLE MOMENT
-------------
                                X             Y             Z
Electronic contribution:      1.06311      -6.21988      -0.13949
Nuclear contribution   :     -2.08201       7.24746       0.31775
                        -----------------------------------------
Total Dipole Moment    :     -1.01891       1.02757       0.17826
                        -----------------------------------------
Magnitude (a.u.)       :      1.45803
Magnitude (Debye)      :      3.70602

                             ****ORCA TERMINATED NORMALLY****
TOTAL RUN TIME: 0 days 0 hours 18 minutes 51 seconds 277 msec
