                         Program Version 3.0.3 - RELEASE   -
|  1> ! RI-MP2 RIJK def2-TZVP def2-TZVP/C def2-TZVP/JK TIGHTSCF
|  2> % maxcore 2000
|  3> % mp2 density relaxed end
|  4> *xyz 0 1
|  5>  C       -0.2075825770     1.4031350882     0.0642462390
|  6>  C        0.0551977883    -0.0976970049     0.0167690114
|  7>  C        0.9455086559    -0.5197949107    -1.1554428495
|  8>  C        2.1783839638    -0.4106492457    -0.3449095490
|  9>  C        1.2403824826    -0.5588127032     0.9147265923
| 10>  C        1.3327598327    -2.0721720609     0.6225554139
| 11>  C        0.1584306498    -2.9213749703     0.8207881390
| 12>  N       -0.7746935070    -3.5822022694     0.9906215623
| 13>  N        1.7264629444    -1.7615436828    -0.7979260703
| 14>  H        0.7211654926     1.9749721404    -0.0387678377
| 15>  H       -0.8797467630     1.7079352089    -0.7444145052
| 16>  H       -0.6782074586     1.6846854946     1.0115408923
| 17>  H       -0.8791149688    -0.6537104890     0.1507420479
| 18>  H        0.8024786081    -0.3530438703    -2.2150401571
| 19>  H        3.1706085710    -0.0182761733    -0.5184303000
| 20>  H        1.3802468616    -0.1584365406     1.9166387306
| 21>  H        2.1962039736    -2.5384896810     1.1044425401
| 22> *
| 23>
| 24>                          ****END OF INPUT****

CARTESIAN COORDINATES (ANGSTROEM)
---------------------------------
  C     -0.207583    1.403135    0.064246
  C      0.055198   -0.097697    0.016769
  C      0.945509   -0.519795   -1.155443
  C      2.178384   -0.410649   -0.344910
  C      1.240382   -0.558813    0.914727
  C      1.332760   -2.072172    0.622555
  C      0.158431   -2.921375    0.820788
  N     -0.774694   -3.582202    0.990622
  N      1.726463   -1.761544   -0.797926
  H      0.721165    1.974972   -0.038768
  H     -0.879747    1.707935   -0.744415
  H     -0.678207    1.684685    1.011541
  H     -0.879115   -0.653710    0.150742
  H      0.802479   -0.353044   -2.215040
  H      3.170609   -0.018276   -0.518430
  H      1.380247   -0.158437    1.916639
  H      2.196204   -2.538490    1.104443

 Total Charge           Charge          ....    0
 Multiplicity           Mult            ....    1
 Number of Electrons    NEL             ....   64
 Basis Dimension        Dim             ....  327

ORBITAL ENERGIES
----------------

  NO   OCC          E(Eh)            E(eV)
   0   2.0000     -15.591594      -424.2688
   1   2.0000     -15.574185      -423.7951
   2   2.0000     -11.315656      -307.9146
   3   2.0000     -11.286468      -307.1204
   4   2.0000     -11.281470      -306.9844
   5   2.0000     -11.274090      -306.7836
   6   2.0000     -11.272341      -306.7360
   7   2.0000     -11.257785      -306.3399
   8   2.0000     -11.235126      -305.7233
   9   2.0000      -1.344161       -36.5765
  10   2.0000      -1.219089       -33.1731
  11   2.0000      -1.083075       -29.4720
  12   2.0000      -1.040675       -28.3182
  13   2.0000      -0.956616       -26.0309
  14   2.0000      -0.891422       -24.2568
  15   2.0000      -0.826171       -22.4812
  16   2.0000      -0.752593       -20.4791
  17   2.0000      -0.719630       -19.5821
  18   2.0000      -0.705267       -19.1913
  19   2.0000      -0.650675       -17.7058
  20   2.0000      -0.629799       -17.1377
  21   2.0000      -0.581494       -15.8233
  22   2.0000      -0.566073       -15.4036
  23   2.0000      -0.556359       -15.1393
  24   2.0000      -0.536631       -14.6025
  25   2.0000      -0.499420       -13.5899
  26   2.0000      -0.483163       -13.1475
  27   2.0000      -0.477200       -12.9853
  28   2.0000      -0.465502       -12.6669
  29   2.0000      -0.456175       -12.4131
  30   2.0000      -0.437965       -11.9176
  31   2.0000      -0.394881       -10.7453
  32   0.0000       0.124943         3.3999
  33   0.0000       0.140095         3.8122
  34   0.0000       0.151341         4.1182
  35   0.0000       0.159705         4.3458
  36   0.0000       0.174789         4.7563

MULLIKEN ATOMIC CHARGES
-----------------------
   0 C :   -0.445100
   1 C :   -0.025441
   2 C :   -0.082638
   3 C :   -0.171416
   4 C :   -0.060455
   5 C :    0.125637
   6 C :   -0.218364
   7 N :   -0.044053
   8 N :   -0.224090
   9 H :    0.136456
  10 H :    0.142751
  11 H :    0.140886
  12 H :    0.128905
  13 H :    0.143981
  14 H :    0.157038
  15 H :    0.149418
  16 H :    0.146484
Sum of atomic charges:    0.0000000

LOEWDIN ATOMIC CHARGES
----------------------
   0 C :   -0.280793
   1 C :   -0.216983
   2 C :   -0.181151
   3 C :   -0.158166
   4 C :   -0.123786
   5 C :   -0.229860
   6 C :   -0.165143
   7 N :    0.072981
   8 N :    0.158372
   9 H :    0.129702
  10 H :    0.128752
  11 H :    0.127847
  12 H :    0.151229
  13 H :    0.141207
  14 H :    0.133369
  15 H :    0.139632
  16 H :    0.172792

  Mayer bond orders larger than 0.1
B(  0-C ,  1-C ) :   0.8815 B(  0-C ,  9-H ) :   0.9369 B(  0-C , 10-H ) :   0.9391
B(  0-C , 11-H ) :   0.9348 B(  1-C ,  2-C ) :   0.8843 B(  1-C ,  4-C ) :   0.9208
B(  1-C , 12-H ) :   0.9023 B(  2-C ,  3-C ) :   0.8841 B(  2-C ,  8-N ) :   0.8858
B(  2-C , 13-H ) :   0.9333 B(  3-C ,  4-C ) :   0.9280 B(  3-C ,  8-N ) :   0.8681
B(  3-C , 14-H ) :   0.8959 B(  4-C ,  5-C ) :   0.9436 B(  4-C , 15-H ) :   0.9076
B(  5-C ,  6-C ) :   0.9390 B(  5-C ,  8-N ) :   0.9215 B(  5-C , 16-H ) :   0.8983
B(  6-C ,  7-N ) :   2.8486

MP2 TOTAL ENERGY:     -380.139838882 Eh
FINAL SINGLE POINT ENERGY      -380.139838882438

DIPOLE MOMENT
-------------
                                X             Y             Z
Electronic contribution:      0.81428      -8.39093       0.46688
Nuclear contribution   :     -0.00866       9.98309      -0.28966
                        -----------------------------------------
Total Dipole Moment    :      0.80562       1.59215       0.17722
                        -----------------------------------------
Magnitude (a.u.)       :      1.79315
Magnitude (Debye)      :      4.55782

                             ****ORCA TERMINATED NORMALLY****
TOTAL RUN TIME: 0 days 0 hours 18 minutes 2 seconds 577 msec
