                         Program Version 3.0.3 - RELEASE   -
|  1> ! RI-MP2 RIJK def2-TZVP def2-TZVP/C def2-TZVP/JK TIGHTSCF
|  2> % maxcore 2000
|  3> % mp2 density relaxed end
|  4> *xyz 0 1
|  5>  O       -0.1509762439     0.7021279135    -1.2314666585
|  6>  C       -0.0976551694     1.3657610519    -0.2394212567
|  7>  O       -1.2049793654     1.6500299434     0.4807050491
|  8>  C       -1.0638378143     2.4863804910     1.6436553050
|  9>  C       -0.8257847590     3.9473044760     1.2562767384
| 10>  C        0.2299765272     4.0627203601     0.1548796009
| 11>  O        1.3780657926     3.2421949856     0.4385794400
| 12>  C        1.2568266006     1.9039099727     0.2976832606
| 13>  O        2.1624631810     1.1651150326     0.5454948305
| 14>  H       -1.9958553109     2.3661883226     2.1967832707
| 15>  H       -0.2509931334     2.1092537514     2.2737863956
| 16>  H       -1.7524013406     4.4059701374     0.8954934349
| 17>  H       -0.5104841513     4.4945378735     2.1508594713
| 18>  H       -0.1877141691     3.7896325374    -0.8202941917
| 19>  H        0.6173649059     5.0790697609     0.0773068798
| 20> *
| 21>
| 22>                          ****END OF INPUT****

CARTESIAN COORDINATES (ANGSTROEM)
---------------------------------
  O     -0.150976    0.702128   -1.231467
  C     -0.097655    1.365761   -0.239421
  O     -1.204979    1.650030    0.480705
  C     -1.063838    2.486380    1.643655
  C     -0.825785    3.947304    1.256277
  C      0.229977    4.062720    0.154880
  O      1.378066    3.242195    0.438579
  C      1.256827    1.903910    0.297683
  O      2.162463    1.165115    0.545495
  H     -1.995855    2.366188    2.196783
  H     -0.250993    2.109254    2.273786
  H     -1.752401    4.405970    0.895493
  H     -0.510484    4.494538    2.150859
  H     -0.187714    3.789633   -0.820294
  H      0.617365    5.079070    0.077307

 Total Charge           Charge          ....    0
 Multiplicity           Mult            ....    1
 Number of Electrons    NEL             ....   68
 Basis Dimension        Dim             ....  315

ORBITAL ENERGIES
----------------

  NO   OCC          E(Eh)            E(eV)
   0   2.0000     -20.632503      -561.4389
   1   2.0000     -20.632503      -561.4389
   2   2.0000     -20.574232      -559.8533
   3   2.0000     -20.574229      -559.8532
   4   2.0000     -11.416064      -310.6469
   5   2.0000     -11.415539      -310.6326
   6   2.0000     -11.328772      -308.2716
   7   2.0000     -11.328764      -308.2713
   8   2.0000     -11.271206      -306.7051
   9   2.0000      -1.502717       -40.8910
  10   2.0000      -1.471969       -40.0543
  11   2.0000      -1.403818       -38.1998
  12   2.0000      -1.389239       -37.8031
  13   2.0000      -1.102860       -30.0104
  14   2.0000      -0.996459       -27.1150
  15   2.0000      -0.953864       -25.9560
  16   2.0000      -0.874537       -23.7974
  17   2.0000      -0.799273       -21.7493
  18   2.0000      -0.741205       -20.1692
  19   2.0000      -0.729006       -19.8373
  20   2.0000      -0.723924       -19.6990
  21   2.0000      -0.672317       -18.2947
  22   2.0000      -0.671601       -18.2752
  23   2.0000      -0.654134       -17.7999
  24   2.0000      -0.630616       -17.1599
  25   2.0000      -0.623984       -16.9795
  26   2.0000      -0.564830       -15.3698
  27   2.0000      -0.561744       -15.2858
  28   2.0000      -0.560196       -15.2437
  29   2.0000      -0.530448       -14.4342
  30   2.0000      -0.515916       -14.0388
  31   2.0000      -0.482200       -13.1213
  32   2.0000      -0.476932       -12.9780
  33   2.0000      -0.448240       -12.1972
  34   0.0000       0.103924         2.8279
  35   0.0000       0.120528         3.2797
  36   0.0000       0.147378         4.0104
  37   0.0000       0.158823         4.3218
  38   0.0000       0.165968         4.5162

MULLIKEN ATOMIC CHARGES
-----------------------
   0 O :   -0.245733
   1 C :    0.228503
   2 O :   -0.207299
   3 C :   -0.112931
   4 C :   -0.216782
   5 C :   -0.112931
   6 O :   -0.207298
   7 C :    0.228502
   8 O :   -0.245733
   9 H :    0.156001
  10 H :    0.157391
  11 H :    0.132460
  12 H :    0.132459
  13 H :    0.157390
  14 H :    0.156001
Sum of atomic charges:    0.0000000

LOEWDIN ATOMIC CHARGES
----------------------
   0 O :    0.180330
   1 C :   -0.462961
   2 O :    0.267429
   3 C :   -0.277830
   4 C :   -0.269587
   5 C :   -0.277830
   6 O :    0.267429
   7 C :   -0.462962
   8 O :    0.180329
   9 H :    0.140368
  10 H :    0.138053
  11 H :    0.149405
  12 H :    0.149405
  13 H :    0.138053
  14 H :    0.140368

  Mayer bond orders larger than 0.1
B(  0-O ,  1-C ) :   2.0159 B(  1-C ,  2-O ) :   1.1057 B(  1-C ,  7-C ) :   0.8670
B(  2-O ,  3-C ) :   0.8388 B(  3-C ,  4-C ) :   0.9341 B(  3-C ,  9-H ) :   0.9284
B(  3-C , 10-H ) :   0.9354 B(  4-C ,  5-C ) :   0.9341 B(  4-C , 11-H ) :   0.9132
B(  4-C , 12-H ) :   0.9132 B(  5-C ,  6-O ) :   0.8388 B(  5-C , 13-H ) :   0.9354
B(  5-C , 14-H ) :   0.9284 B(  6-O ,  7-C ) :   1.1057 B(  7-C ,  8-O ) :   2.0159

MP2 TOTAL ENERGY:     -494.183623698 Eh
FINAL SINGLE POINT ENERGY      -494.183623697884

DIPOLE MOMENT
-------------
                                X             Y             Z
Electronic contribution:      3.77981      -6.21949      -3.30047
Nuclear contribution   :     -4.88102       8.03146       4.26203
                        -----------------------------------------
Total Dipole Moment    :     -1.10121       1.81197       0.96156
                        -----------------------------------------
Magnitude (a.u.)       :      2.32820
Magnitude (Debye)      :      5.91780

                             ****ORCA TERMINATED NORMALLY****
TOTAL RUN TIME: 0 days 0 hours 14 minutes 5 seconds 413 msec
