                         Program Version 3.0.3 - RELEASE   -
|  1> ! RI-MP2 RIJK def2-TZVP def2-TZVP/C def2-TZVP/JK TIGHTSCF
|  2> % maxcore 2000
|  3> % mp2 density relaxed end
|  4> *xyz 0 1
|  5>  N       -0.0364471502    -1.0598300255    -0.3944877144
|  6>  C       -0.0015453820     0.0838212858    -0.2419145941
|  7>  C        0.0024814411     1.5366815663    -0.0464122965
|  8>  O        1.3293007101     1.9981047290    -0.0311938095
|  9>  C        1.4175620635     3.4020747896     0.1575218222
| 10>  C        2.8817322660     3.7865795102     0.1249015777
| 11>  C        3.5445045016     3.7453438616    -1.2686428127
| 12>  O        3.6123978176     5.1871495190    -1.3250274599
| 13>  C        3.1490765497     5.3053285663     0.0337069850
| 14>  H       -0.5810231185     2.0019603528    -0.8579529697
| 15>  H       -0.5182235316     1.7648498233     0.8982893787
| 16>  H        0.8666219077     3.9293272008    -0.6396957409
| 17>  H        0.9612376665     3.6877016457     1.1202429557
| 18>  H        3.4204898594     3.2572195820     0.9129109981
| 19>  H        4.5406780032     3.2871491999    -1.2941296009
| 20>  H        2.9373961830     3.3245003296    -2.0784940786
| 21>  H        2.2718255199     5.9604563258     0.1169784897
| 22>  H        3.9319653632     5.6767518679     0.7070322901
| 23> *
| 24>
| 25>                          ****END OF INPUT****

CARTESIAN COORDINATES (ANGSTROEM)
---------------------------------
  N     -0.036447   -1.059830   -0.394488
  C     -0.001545    0.083821   -0.241915
  C      0.002481    1.536682   -0.046412
  O      1.329301    1.998105   -0.031194
  C      1.417562    3.402075    0.157522
  C      2.881732    3.786580    0.124902
  C      3.544505    3.745344   -1.268643
  O      3.612398    5.187150   -1.325027
  C      3.149077    5.305329    0.033707
  H     -0.581023    2.001960   -0.857953
  H     -0.518224    1.764850    0.898289
  H      0.866622    3.929327   -0.639696
  H      0.961238    3.687702    1.120243
  H      3.420490    3.257220    0.912911
  H      4.540678    3.287149   -1.294130
  H      2.937396    3.324500   -2.078494
  H      2.271826    5.960456    0.116978
  H      3.931965    5.676752    0.707032

 Total Charge           Charge          ....    0
 Multiplicity           Mult            ....    1
 Number of Electrons    NEL             ....   68
 Basis Dimension        Dim             ....  333

ORBITAL ENERGIES
----------------

  NO   OCC          E(Eh)            E(eV)
   0   2.0000     -20.598382      -560.5105
   1   2.0000     -20.556553      -559.3723
   2   2.0000     -15.581639      -423.9980
   3   2.0000     -11.347982      -308.7943
   4   2.0000     -11.307489      -307.6924
   5   2.0000     -11.291846      -307.2667
   6   2.0000     -11.286459      -307.1202
   7   2.0000     -11.281523      -306.9859
   8   2.0000     -11.250413      -306.1393
   9   2.0000      -1.422478       -38.7076
  10   2.0000      -1.386791       -37.7365
  11   2.0000      -1.226917       -33.3861
  12   2.0000      -1.082232       -29.4490
  13   2.0000      -1.010056       -27.4850
  14   2.0000      -0.944765       -25.7084
  15   2.0000      -0.908299       -24.7161
  16   2.0000      -0.781525       -21.2664
  17   2.0000      -0.734881       -19.9971
  18   2.0000      -0.721789       -19.6409
  19   2.0000      -0.707990       -19.2654
  20   2.0000      -0.682561       -18.5734
  21   2.0000      -0.666698       -18.1418
  22   2.0000      -0.612966       -16.6796
  23   2.0000      -0.596435       -16.2298
  24   2.0000      -0.580337       -15.7918
  25   2.0000      -0.570196       -15.5158
  26   2.0000      -0.552572       -15.0362
  27   2.0000      -0.519810       -14.1448
  28   2.0000      -0.490606       -13.3501
  29   2.0000      -0.483433       -13.1549
  30   2.0000      -0.471684       -12.8352
  31   2.0000      -0.464677       -12.6445
  32   2.0000      -0.454030       -12.3548
  33   2.0000      -0.424389       -11.5482
  34   0.0000       0.113557         3.0900
  35   0.0000       0.140221         3.8156
  36   0.0000       0.152005         4.1363
  37   0.0000       0.156452         4.2573
  38   0.0000       0.165015         4.4903

MULLIKEN ATOMIC CHARGES
-----------------------
   0 N :   -0.053848
   1 C :   -0.147921
   2 C :    0.022233
   3 O :   -0.271649
   4 C :   -0.170319
   5 C :   -0.017927
   6 C :   -0.034416
   7 O :   -0.328742
   8 C :   -0.042561
   9 H :    0.139408
  10 H :    0.139763
  11 H :    0.124075
  12 H :    0.110818
  13 H :    0.124760
  14 H :    0.100740
  15 H :    0.106163
  16 H :    0.098851
  17 H :    0.100573
Sum of atomic charges:    0.0000000

LOEWDIN ATOMIC CHARGES
----------------------
   0 N :    0.074346
   1 C :   -0.178239
   2 C :   -0.313965
   3 O :    0.178384
   4 C :   -0.303322
   5 C :   -0.241682
   6 C :   -0.246675
   7 O :    0.109507
   8 C :   -0.252394
   9 H :    0.145813
  10 H :    0.145642
  11 H :    0.129838
  12 H :    0.125527
  13 H :    0.149201
  14 H :    0.119759
  15 H :    0.121004
  16 H :    0.118387
  17 H :    0.118872

  Mayer bond orders larger than 0.1
B(  0-N ,  1-C ) :   2.8463 B(  1-C ,  2-C ) :   0.9381 B(  2-C ,  3-O ) :   0.9730
B(  2-C ,  9-H ) :   0.9061 B(  2-C , 10-H ) :   0.9065 B(  3-O ,  4-C ) :   0.9132
B(  4-C ,  5-C ) :   0.9435 B(  4-C , 11-H ) :   0.9222 B(  4-C , 12-H ) :   0.9202
B(  5-C ,  6-C ) :   0.9495 B(  5-C ,  8-C ) :   0.9308 B(  5-C , 13-H ) :   0.9201
B(  6-C ,  7-O ) :   0.9438 B(  6-C , 14-H ) :   0.9148 B(  6-C , 15-H ) :   0.9100
B(  7-O ,  8-C ) :   0.9554 B(  8-C , 16-H ) :   0.9095 B(  8-C , 17-H ) :   0.9125

MP2 TOTAL ENERGY:     -438.328547637 Eh
FINAL SINGLE POINT ENERGY      -438.328547636800

DIPOLE MOMENT
-------------
                                X             Y             Z
Electronic contribution:     -1.98076      -6.49169      -1.05839
Nuclear contribution   :      1.55890       7.76492       1.81613
                        -----------------------------------------
Total Dipole Moment    :     -0.42186       1.27323       0.75774
                        -----------------------------------------
Magnitude (a.u.)       :      1.54053
Magnitude (Debye)      :      3.91573

                             ****ORCA TERMINATED NORMALLY****
TOTAL RUN TIME: 0 days 0 hours 13 minutes 49 seconds 729 msec
