                         Program Version 3.0.3 - RELEASE   -
|  1> ! RI-MP2 RIJK def2-TZVP def2-TZVP/C def2-TZVP/JK TIGHTSCF
|  2> % maxcore 2000
|  3> % mp2 density relaxed end
|  4> *xyz 0 1
|  5>  C        0.0449346469     0.6966897994     0.8130069619
|  6>  O        0.1515320289    -0.5978397031     0.2389735467
|  7>  C        0.4690869041    -0.6175311077    -1.1362713313
|  8>  C        1.7582859799     0.0619697155    -1.5543125076
|  9>  O        1.6468400769     1.4564175094    -1.8142093628
| 10>  C        0.0370993222    -1.8994680748    -1.8340055646
| 11>  C       -0.5497834635    -3.0714423103    -1.0792628473
| 12>  C       -0.7418357817    -0.6140673369    -2.0442879254
| 13>  O       -2.0061542511    -0.4463198390    -1.4762120501
| 14>  H        1.0326732246     1.1572152382     0.9654875225
| 15>  H       -0.5776141344     1.3639881576     0.2034725219
| 16>  H       -0.4158364217     0.5713926269     1.7963878844
| 17>  H        2.5345404824    -0.1504664725    -0.8029639236
| 18>  H        2.0942358486    -0.3757450462    -2.4988027979
| 19>  H        1.5196640730     1.9153001001    -0.9800518922
| 20>  H        0.6803585351    -2.1848914544    -2.6633914189
| 21>  H       -1.1818629779    -2.7520623012    -0.2494284932
| 22>  H       -1.1598567342    -3.6863420503    -1.7487303433
| 23>  H        0.2404959914    -3.7045468683    -0.6634628244
| 24>  H       -0.6778852331    -0.1062255971    -3.0007180827
| 25>  H       -1.9067126866    -0.6089751954    -0.5302595023
| 26> *
| 27>
| 28>                          ****END OF INPUT****

CARTESIAN COORDINATES (ANGSTROEM)
---------------------------------
  C      0.044935    0.696690    0.813007
  O      0.151532   -0.597840    0.238974
  C      0.469087   -0.617531   -1.136271
  C      1.758286    0.061970   -1.554313
  O      1.646840    1.456418   -1.814209
  C      0.037099   -1.899468   -1.834006
  C     -0.549783   -3.071442   -1.079263
  C     -0.741836   -0.614067   -2.044288
  O     -2.006154   -0.446320   -1.476212
  H      1.032673    1.157215    0.965488
  H     -0.577614    1.363988    0.203473
  H     -0.415836    0.571393    1.796388
  H      2.534540   -0.150466   -0.802964
  H      2.094236   -0.375745   -2.498803
  H      1.519664    1.915300   -0.980052
  H      0.680359   -2.184891   -2.663391
  H     -1.181863   -2.752062   -0.249428
  H     -1.159857   -3.686342   -1.748730
  H      0.240496   -3.704547   -0.663463
  H     -0.677885   -0.106226   -3.000718
  H     -1.906713   -0.608975   -0.530260

 Total Charge           Charge          ....    0
 Multiplicity           Mult            ....    1
 Number of Electrons    NEL             ....   72
 Basis Dimension        Dim             ....  351

ORBITAL ENERGIES
----------------

  NO   OCC          E(Eh)            E(eV)
   0   2.0000     -20.577622      -559.9456
   1   2.0000     -20.561919      -559.5183
   2   2.0000     -20.558870      -559.4353
   3   2.0000     -11.290294      -307.2245
   4   2.0000     -11.287367      -307.1449
   5   2.0000     -11.286189      -307.1128
   6   2.0000     -11.280375      -306.9546
   7   2.0000     -11.234322      -305.7015
   8   2.0000     -11.218526      -305.2716
   9   2.0000      -1.405123       -38.2353
  10   2.0000      -1.365755       -37.1641
  11   2.0000      -1.360674       -37.0258
  12   2.0000      -1.134860       -30.8811
  13   2.0000      -0.985256       -26.8102
  14   2.0000      -0.946279       -25.7496
  15   2.0000      -0.934198       -25.4208
  16   2.0000      -0.806977       -21.9590
  17   2.0000      -0.779749       -21.2181
  18   2.0000      -0.731036       -19.8925
  19   2.0000      -0.683185       -18.5904
  20   2.0000      -0.671780       -18.2801
  21   2.0000      -0.651999       -17.7418
  22   2.0000      -0.635711       -17.2986
  23   2.0000      -0.607712       -16.5367
  24   2.0000      -0.599593       -16.3158
  25   2.0000      -0.582160       -15.8414
  26   2.0000      -0.572029       -15.5657
  27   2.0000      -0.557443       -15.1688
  28   2.0000      -0.538101       -14.6425
  29   2.0000      -0.531275       -14.4567
  30   2.0000      -0.511226       -13.9112
  31   2.0000      -0.503982       -13.7140
  32   2.0000      -0.477239       -12.9863
  33   2.0000      -0.454484       -12.3671
  34   2.0000      -0.397025       -10.8036
  35   2.0000      -0.371681       -10.1140
  36   0.0000       0.127947         3.4816
  37   0.0000       0.142474         3.8769
  38   0.0000       0.157279         4.2798
  39   0.0000       0.181290         4.9331
  40   0.0000       0.187189         5.0937

MULLIKEN ATOMIC CHARGES
-----------------------
   0 C :   -0.312509
   1 O :   -0.335459
   2 C :    0.187573
   3 C :   -0.070648
   4 O :   -0.464756
   5 C :   -0.138778
   6 C :   -0.380098
   7 C :    0.008842
   8 O :   -0.456852
   9 H :    0.121064
  10 H :    0.164496
  11 H :    0.150149
  12 H :    0.127146
  13 H :    0.115936
  14 H :    0.312502
  15 H :    0.120456
  16 H :    0.114656
  17 H :    0.140367
  18 H :    0.135420
  19 H :    0.131674
  20 H :    0.328819
Sum of atomic charges:   -0.0000000

LOEWDIN ATOMIC CHARGES
----------------------
   0 C :   -0.355677
   1 O :    0.177212
   2 C :   -0.329075
   3 C :   -0.307866
   4 O :   -0.042086
   5 C :   -0.201382
   6 C :   -0.289054
   7 C :   -0.277394
   8 O :    0.007975
   9 H :    0.100917
  10 H :    0.112611
  11 H :    0.116491
  12 H :    0.128830
  13 H :    0.139968
  14 H :    0.164083
  15 H :    0.151686
  16 H :    0.123661
  17 H :    0.129462
  18 H :    0.127704
  19 H :    0.143739
  20 H :    0.178196

  Mayer bond orders larger than 0.1
B(  0-C ,  1-O ) :   0.8898 B(  0-C ,  9-H ) :   0.9298 B(  0-C , 10-H ) :   0.9287
B(  0-C , 11-H ) :   0.9359 B(  1-O ,  2-C ) :   0.9283 B(  2-C ,  3-C ) :   0.9030
B(  2-C ,  5-C ) :   0.8422 B(  2-C ,  7-C ) :   0.8957 B(  3-C ,  4-O ) :   0.9253
B(  3-C , 12-H ) :   0.9369 B(  3-C , 13-H ) :   0.9176 B(  4-O , 14-H ) :   0.8495
B(  5-C ,  6-C ) :   0.9081 B(  5-C ,  7-C ) :   0.8746 B(  5-C , 15-H ) :   0.9078
B(  6-C , 16-H ) :   0.9269 B(  6-C , 17-H ) :   0.9361 B(  6-C , 18-H ) :   0.9413
B(  7-C ,  8-O ) :   0.9764 B(  7-C , 19-H ) :   0.9297 B(  8-O , 20-H ) :   0.8237

MP2 TOTAL ENERGY:     -460.590533080 Eh
FINAL SINGLE POINT ENERGY      -460.590533079937

DIPOLE MOMENT
-------------
                                X             Y             Z
Electronic contribution:     -0.62035       2.23594      -1.73280
Nuclear contribution   :      1.09492      -2.26007       2.48449
                        -----------------------------------------
Total Dipole Moment    :      0.47457      -0.02413       0.75169
                        -----------------------------------------
Magnitude (a.u.)       :      0.88929
Magnitude (Debye)      :      2.26040

                             ****ORCA TERMINATED NORMALLY****
TOTAL RUN TIME: 0 days 0 hours 17 minutes 17 seconds 788 msec
