                         Program Version 3.0.3 - RELEASE   -
|  1> ! RI-MP2 RIJK def2-TZVP def2-TZVP/C def2-TZVP/JK TIGHTSCF
|  2> % maxcore 2000
|  3> % mp2 density relaxed end
|  4> *xyz 0 1
|  5>  C        0.3325249874     1.4279400115    -0.1567056113
|  6>  O        0.2353020168     0.0248703093     0.0603955296
|  7>  C        0.6790793902    -0.7502042600    -0.9453671834
|  8>  N        0.6541454223    -2.0050081775    -0.8481054007
|  9>  C        1.1872650643    -2.7588653990    -1.9670323138
| 10>  C        2.5132089897    -3.4069830796    -1.5928383172
| 11>  C        2.5026008753    -4.3247144675    -0.3923789891
| 12>  C        3.5352858599    -3.5567551072    -2.6377682760
| 13>  O        3.6305494575    -2.5068106769    -1.6707461561
| 14>  H        1.3763999786     1.7443717792    -0.2685536344
| 15>  H       -0.2369494586     1.7384366672    -1.0411717651
| 16>  H       -0.0929072382     1.9050998059     0.7267520077
| 17>  H        1.0415161703    -0.1969470898    -1.8258137461
| 18>  H        0.4690625590    -3.5462790438    -2.2304459350
| 19>  H        1.3481735618    -2.1377693420    -2.8630277694
| 20>  H        1.8590528144    -5.1920573442    -0.5760429073
| 21>  H        3.5130666728    -4.6778126032    -0.1729125687
| 22>  H        2.1115916682    -3.7959460064     0.4803102704
| 23>  H        4.2825611983    -4.3447404061    -2.5487860785
| 24>  H        3.3255418298    -3.2361214699    -3.6581986054
| 25> *
| 26>
| 27>                          ****END OF INPUT****

CARTESIAN COORDINATES (ANGSTROEM)
---------------------------------
  C      0.332525    1.427940   -0.156706
  O      0.235302    0.024870    0.060396
  C      0.679079   -0.750204   -0.945367
  N      0.654145   -2.005008   -0.848105
  C      1.187265   -2.758865   -1.967032
  C      2.513209   -3.406983   -1.592838
  C      2.502601   -4.324714   -0.392379
  C      3.535286   -3.556755   -2.637768
  O      3.630549   -2.506811   -1.670746
  H      1.376400    1.744372   -0.268554
  H     -0.236949    1.738437   -1.041172
  H     -0.092907    1.905100    0.726752
  H      1.041516   -0.196947   -1.825814
  H      0.469063   -3.546279   -2.230446
  H      1.348174   -2.137769   -2.863028
  H      1.859053   -5.192057   -0.576043
  H      3.513067   -4.677813   -0.172913
  H      2.111592   -3.795946    0.480310
  H      4.282561   -4.344740   -2.548786
  H      3.325542   -3.236121   -3.658199

 Total Charge           Charge          ....    0
 Multiplicity           Mult            ....    1
 Number of Electrons    NEL             ....   70
 Basis Dimension        Dim             ....  345

ORBITAL ENERGIES
----------------

  NO   OCC          E(Eh)            E(eV)
   0   2.0000     -20.591220      -560.3156
   1   2.0000     -20.559134      -559.4425
   2   2.0000     -15.541079      -422.8942
   3   2.0000     -11.331800      -308.3540
   4   2.0000     -11.292737      -307.2910
   5   2.0000     -11.286674      -307.1260
   6   2.0000     -11.276624      -306.8525
   7   2.0000     -11.257817      -306.3408
   8   2.0000     -11.212733      -305.1140
   9   2.0000      -1.426090       -38.8059
  10   2.0000      -1.404194       -38.2101
  11   2.0000      -1.222565       -33.2677
  12   2.0000      -1.030111       -28.0308
  13   2.0000      -0.973163       -26.4811
  14   2.0000      -0.928103       -25.2550
  15   2.0000      -0.900907       -24.5149
  16   2.0000      -0.815573       -22.1929
  17   2.0000      -0.770112       -20.9558
  18   2.0000      -0.703093       -19.1321
  19   2.0000      -0.687533       -18.7087
  20   2.0000      -0.666801       -18.1446
  21   2.0000      -0.655943       -17.8491
  22   2.0000      -0.632808       -17.2196
  23   2.0000      -0.599169       -16.3042
  24   2.0000      -0.587131       -15.9767
  25   2.0000      -0.555877       -15.1262
  26   2.0000      -0.549476       -14.9520
  27   2.0000      -0.528796       -14.3893
  28   2.0000      -0.520065       -14.1517
  29   2.0000      -0.507627       -13.8132
  30   2.0000      -0.501861       -13.6563
  31   2.0000      -0.442601       -12.0438
  32   2.0000      -0.432350       -11.7648
  33   2.0000      -0.408816       -11.1244
  34   2.0000      -0.380807       -10.3623
  35   0.0000       0.138617         3.7719
  36   0.0000       0.146074         3.9749
  37   0.0000       0.160334         4.3629
  38   0.0000       0.170516         4.6400
  39   0.0000       0.186017         5.0618

MULLIKEN ATOMIC CHARGES
-----------------------
   0 C :   -0.241425
   1 O :   -0.229182
   2 C :    0.105575
   3 N :   -0.230139
   4 C :   -0.087873
   5 C :    0.184031
   6 C :   -0.416181
   7 C :   -0.083167
   8 O :   -0.344813
   9 H :    0.138443
  10 H :    0.131546
  11 H :    0.150318
  12 H :    0.063461
  13 H :    0.122231
  14 H :    0.092864
  15 H :    0.125305
  16 H :    0.134071
  17 H :    0.161406
  18 H :    0.114157
  19 H :    0.109373
Sum of atomic charges:   -0.0000000

LOEWDIN ATOMIC CHARGES
----------------------
   0 C :   -0.332289
   1 O :    0.218678
   2 C :   -0.356580
   3 N :    0.091044
   4 C :   -0.262692
   5 C :   -0.351386
   6 C :   -0.266240
   7 C :   -0.251415
   8 O :    0.156379
   9 H :    0.109538
  10 H :    0.107433
  11 H :    0.118981
  12 H :    0.111681
  13 H :    0.140384
  14 H :    0.130113
  15 H :    0.130774
  16 H :    0.130204
  17 H :    0.136390
  18 H :    0.120564
  19 H :    0.118440

  Mayer bond orders larger than 0.1
B(  0-C ,  1-O ) :   0.8690 B(  0-C ,  9-H ) :   0.9350 B(  0-C , 10-H ) :   0.9365
B(  0-C , 11-H ) :   0.9387 B(  1-O ,  2-C ) :   1.0791 B(  2-C ,  3-N ) :   1.8371
B(  2-C , 12-H ) :   0.9234 B(  3-N ,  4-C ) :   0.8752 B(  4-C ,  5-C ) :   0.9038
B(  4-C , 13-H ) :   0.9248 B(  4-C , 14-H ) :   0.9191 B(  5-C ,  6-C ) :   0.9184
B(  5-C ,  7-C ) :   0.9780 B(  5-C ,  8-O ) :   0.8233 B(  6-C , 15-H ) :   0.9309
B(  6-C , 16-H ) :   0.9348 B(  6-C , 17-H ) :   0.9318 B(  7-C ,  8-O ) :   0.9140
B(  7-C , 18-H ) :   0.9134 B(  7-C , 19-H ) :   0.8984

MP2 TOTAL ENERGY:     -439.528989046 Eh
FINAL SINGLE POINT ENERGY      -439.528989046465

DIPOLE MOMENT
-------------
                                X             Y             Z
Electronic contribution:     -0.41465       0.81804       0.74802
Nuclear contribution   :      0.30320      -0.37718      -1.58750
                        -----------------------------------------
Total Dipole Moment    :     -0.11145       0.44085      -0.83947
                        -----------------------------------------
Magnitude (a.u.)       :      0.95472
Magnitude (Debye)      :      2.42671

                             ****ORCA TERMINATED NORMALLY****
TOTAL RUN TIME: 0 days 0 hours 14 minutes 53 seconds 250 msec
