                         Program Version 3.0.3 - RELEASE   -
|  1> ! RI-MP2 RIJK def2-TZVP def2-TZVP/C def2-TZVP/JK TIGHTSCF
|  2> % maxcore 2000
|  3> % mp2 density relaxed end
|  4> *xyz 0 1
|  5>  C        0.8714449628     1.0119472506     0.2309700444
|  6>  O        0.8154218868    -0.3578542763    -0.0866620125
|  7>  C       -0.0065910323    -0.6299254401    -1.2006123035
|  8>  C        0.0235781745    -2.1335654532    -1.4975579918
|  9>  O       -1.0396110643    -2.4620070808    -2.3834436977
| 10>  C        1.3493557373    -2.5953348225    -2.0823868695
| 11>  O        1.5177421610    -2.1478203730    -3.4137119686
| 12>  C        2.5850751516    -2.6481909535    -1.2393781089
| 13>  C        1.9321482009    -3.9319367171    -1.7144357510
| 14>  H        1.2856708260     1.6066684205    -0.5983623417
| 15>  H       -0.1241344090     1.4146355380     0.4765220744
| 16>  H        1.5208378736     1.1209113303     1.1031162003
| 17>  H       -1.0493734835    -0.3368696250    -1.0004117077
| 18>  H        0.3370133201    -0.0704630153    -2.0875276322
| 19>  H       -0.1731245972    -2.6705799749    -0.5640508157
| 20>  H       -0.8103005198    -2.0517770814    -3.2265905293
| 21>  H        1.2119784815    -2.8532553010    -3.9932861058
| 22>  H        3.5084516446    -2.3531382719    -1.7240279900
| 23>  H        2.5002183238    -2.3679058563    -0.1973649922
| 24>  H        1.4001674614    -4.5477877744    -0.9971684734
| 25>  H        2.4392122300    -4.4849777128    -2.4984750776
| 26> *
| 27>
| 28>                          ****END OF INPUT****

CARTESIAN COORDINATES (ANGSTROEM)
---------------------------------
  C      0.871445    1.011947    0.230970
  O      0.815422   -0.357854   -0.086662
  C     -0.006591   -0.629925   -1.200612
  C      0.023578   -2.133565   -1.497558
  O     -1.039611   -2.462007   -2.383444
  C      1.349356   -2.595335   -2.082387
  O      1.517742   -2.147820   -3.413712
  C      2.585075   -2.648191   -1.239378
  C      1.932148   -3.931937   -1.714436
  H      1.285671    1.606668   -0.598362
  H     -0.124134    1.414636    0.476522
  H      1.520838    1.120911    1.103116
  H     -1.049373   -0.336870   -1.000412
  H      0.337013   -0.070463   -2.087528
  H     -0.173125   -2.670580   -0.564051
  H     -0.810301   -2.051777   -3.226591
  H      1.211978   -2.853255   -3.993286
  H      3.508452   -2.353138   -1.724028
  H      2.500218   -2.367906   -0.197365
  H      1.400167   -4.547788   -0.997168
  H      2.439212   -4.484978   -2.498475

 Total Charge           Charge          ....    0
 Multiplicity           Mult            ....    1
 Number of Electrons    NEL             ....   72
 Basis Dimension        Dim             ....  351

ORBITAL ENERGIES
----------------

  NO   OCC          E(Eh)            E(eV)
   0   2.0000     -20.569872      -559.7347
   1   2.0000     -20.557246      -559.3911
   2   2.0000     -20.557112      -559.3874
   3   2.0000     -11.286200      -307.1131
   4   2.0000     -11.281327      -306.9805
   5   2.0000     -11.272070      -306.7286
   6   2.0000     -11.271876      -306.7233
   7   2.0000     -11.227910      -305.5270
   8   2.0000     -11.222373      -305.3763
   9   2.0000      -1.389767       -37.8175
  10   2.0000      -1.376889       -37.4670
  11   2.0000      -1.354460       -36.8567
  12   2.0000      -1.132812       -30.8254
  13   2.0000      -1.013517       -27.5792
  14   2.0000      -0.917790       -24.9743
  15   2.0000      -0.856834       -23.3157
  16   2.0000      -0.833858       -22.6904
  17   2.0000      -0.788280       -21.4502
  18   2.0000      -0.710584       -19.3360
  19   2.0000      -0.688332       -18.7305
  20   2.0000      -0.663564       -18.0565
  21   2.0000      -0.656585       -17.8666
  22   2.0000      -0.649344       -17.6696
  23   2.0000      -0.634193       -17.2573
  24   2.0000      -0.591562       -16.0972
  25   2.0000      -0.581170       -15.8144
  26   2.0000      -0.565825       -15.3969
  27   2.0000      -0.545198       -14.8356
  28   2.0000      -0.522000       -14.2043
  29   2.0000      -0.513745       -13.9797
  30   2.0000      -0.494346       -13.4518
  31   2.0000      -0.487424       -13.2635
  32   2.0000      -0.461867       -12.5680
  33   2.0000      -0.427603       -11.6357
  34   2.0000      -0.406134       -11.0515
  35   2.0000      -0.401614       -10.9285
  36   0.0000       0.134069         3.6482
  37   0.0000       0.148572         4.0429
  38   0.0000       0.161209         4.3867
  39   0.0000       0.177787         4.8378
  40   0.0000       0.187239         5.0950

MULLIKEN ATOMIC CHARGES
-----------------------
   0 C :   -0.216288
   1 O :   -0.310740
   2 C :   -0.106903
   3 C :    0.169902
   4 O :   -0.475797
   5 C :    0.133234
   6 O :   -0.496944
   7 C :   -0.232590
   8 C :   -0.332093
   9 H :    0.114730
  10 H :    0.112648
  11 H :    0.137659
  12 H :    0.113480
  13 H :    0.103224
  14 H :    0.097772
  15 H :    0.308295
  16 H :    0.333705
  17 H :    0.127229
  18 H :    0.149966
  19 H :    0.130755
  20 H :    0.138758
Sum of atomic charges:    0.0000000

LOEWDIN ATOMIC CHARGES
----------------------
   0 C :   -0.360838
   1 O :    0.138770
   2 C :   -0.312459
   3 C :   -0.314201
   4 O :   -0.013160
   5 C :   -0.357238
   6 O :    0.011956
   7 C :   -0.198841
   8 C :   -0.215640
   9 H :    0.102394
  10 H :    0.102496
  11 H :    0.112994
  12 H :    0.124162
  13 H :    0.124589
  14 H :    0.154675
  15 H :    0.172789
  16 H :    0.180395
  17 H :    0.138894
  18 H :    0.138978
  19 H :    0.135168
  20 H :    0.134115

  Mayer bond orders larger than 0.1
B(  0-C ,  1-O ) :   0.9189 B(  0-C ,  9-H ) :   0.9373 B(  0-C , 10-H ) :   0.9366
B(  0-C , 11-H ) :   0.9397 B(  1-O ,  2-C ) :   0.9369 B(  2-C ,  3-C ) :   0.9562
B(  2-C , 12-H ) :   0.9250 B(  2-C , 13-H ) :   0.9086 B(  3-C ,  4-O ) :   0.8928
B(  3-C ,  5-C ) :   0.9139 B(  3-C , 14-H ) :   0.9026 B(  4-O , 15-H ) :   0.8341
B(  5-C ,  6-O ) :   0.9900 B(  5-C ,  7-C ) :   0.8608 B(  5-C ,  8-C ) :   0.8838
B(  6-O , 16-H ) :   0.8355 B(  7-C ,  8-C ) :   0.9068 B(  7-C , 17-H ) :   0.9184
B(  7-C , 18-H ) :   0.9224 B(  8-C , 19-H ) :   0.9142 B(  8-C , 20-H ) :   0.9267

MP2 TOTAL ENERGY:     -460.597732676 Eh
FINAL SINGLE POINT ENERGY      -460.597732676025

DIPOLE MOMENT
-------------
                                X             Y             Z
Electronic contribution:     -1.40278      -2.78695      -2.82226
Nuclear contribution   :      1.57380       2.95786       2.62947
                        -----------------------------------------
Total Dipole Moment    :      0.17102       0.17091      -0.19279
                        -----------------------------------------
Magnitude (a.u.)       :      0.30923
Magnitude (Debye)      :      0.78601

                             ****ORCA TERMINATED NORMALLY****
TOTAL RUN TIME: 0 days 0 hours 16 minutes 2 seconds 948 msec
