                         Program Version 3.0.3 - RELEASE   -
|  1> ! RI-MP2 RIJK def2-TZVP def2-TZVP/C def2-TZVP/JK TIGHTSCF
|  2> % maxcore 2000
|  3> % mp2 density relaxed end
|  4> *xyz 0 1
|  5>  C       -0.0268400810     1.5235018457     0.0926479946
|  6>  C       -0.0554763817     0.0203168719     0.0413112216
|  7>  C        1.1701060660    -0.8177011561    -0.2914492317
|  8>  C        0.5082455226    -0.9748485129     1.0529504567
|  9>  O        1.1136347057    -0.5922940637     2.2495971027
| 10>  C       -0.7338325419    -1.8278661393     0.9849937405
| 11>  C       -1.9295230341    -0.9918213092     1.3200227246
| 12>  O       -1.9197116462    -0.0096878671     2.3158494120
| 13>  C       -1.3147149180    -0.8128798161    -0.0472428309
| 14>  H        0.9357952911     1.8845623587     0.4687170526
| 15>  H       -0.1793681377     1.9571812726    -0.9023911933
| 16>  H       -0.8149169098     1.8968557065     0.7524481641
| 17>  H        1.1278135579    -1.6126019549    -1.0316044628
| 18>  H        2.1067435430    -0.2676227068    -0.2680555377
| 19>  H        1.7202998255    -1.2861213945     2.5311182574
| 20>  H       -0.7561399819    -2.9121565573     0.9478684038
| 21>  H       -2.8781507215    -1.5250787946     1.3085291221
| 22>  H       -1.0454535985    -0.0104135041     2.7232616780
| 23>  H       -1.8524367693    -1.0563859788    -0.9578614443
| 24> *
| 25>
| 26>                          ****END OF INPUT****

CARTESIAN COORDINATES (ANGSTROEM)
---------------------------------
  C     -0.026840    1.523502    0.092648
  C     -0.055476    0.020317    0.041311
  C      1.170106   -0.817701   -0.291449
  C      0.508246   -0.974849    1.052950
  O      1.113635   -0.592294    2.249597
  C     -0.733833   -1.827866    0.984994
  C     -1.929523   -0.991821    1.320023
  O     -1.919712   -0.009688    2.315849
  C     -1.314715   -0.812880   -0.047243
  H      0.935795    1.884562    0.468717
  H     -0.179368    1.957181   -0.902391
  H     -0.814917    1.896856    0.752448
  H      1.127814   -1.612602   -1.031604
  H      2.106744   -0.267623   -0.268056
  H      1.720300   -1.286121    2.531118
  H     -0.756140   -2.912157    0.947868
  H     -2.878151   -1.525079    1.308529
  H     -1.045454   -0.010414    2.723262
  H     -1.852437   -1.056386   -0.957861

 Total Charge           Charge          ....    0
 Multiplicity           Mult            ....    1
 Number of Electrons    NEL             ....   68
 Basis Dimension        Dim             ....  339

ORBITAL ENERGIES
----------------

  NO   OCC          E(Eh)            E(eV)
   0   2.0000     -20.578860      -559.9792
   1   2.0000     -20.549801      -559.1885
   2   2.0000     -11.294117      -307.3286
   3   2.0000     -11.287139      -307.1387
   4   2.0000     -11.242490      -305.9237
   5   2.0000     -11.238071      -305.8034
   6   2.0000     -11.237447      -305.7865
   7   2.0000     -11.232908      -305.6630
   8   2.0000     -11.212883      -305.1181
   9   2.0000      -1.389596       -37.8128
  10   2.0000      -1.360816       -37.0297
  11   2.0000      -1.214990       -33.0616
  12   2.0000      -1.072950       -29.1964
  13   2.0000      -0.970307       -26.4034
  14   2.0000      -0.866808       -23.5870
  15   2.0000      -0.849978       -23.1291
  16   2.0000      -0.795070       -21.6350
  17   2.0000      -0.734170       -19.9778
  18   2.0000      -0.702213       -19.1082
  19   2.0000      -0.680555       -18.5188
  20   2.0000      -0.655482       -17.8366
  21   2.0000      -0.619237       -16.8503
  22   2.0000      -0.610124       -16.6023
  23   2.0000      -0.581244       -15.8164
  24   2.0000      -0.568123       -15.4594
  25   2.0000      -0.560232       -15.2447
  26   2.0000      -0.537566       -14.6279
  27   2.0000      -0.534226       -14.5370
  28   2.0000      -0.494654       -13.4602
  29   2.0000      -0.483431       -13.1548
  30   2.0000      -0.437606       -11.9079
  31   2.0000      -0.400431       -10.8963
  32   2.0000      -0.379363       -10.3230
  33   2.0000      -0.372292       -10.1306
  34   0.0000       0.130165         3.5420
  35   0.0000       0.155195         4.2231
  36   0.0000       0.162353         4.4178
  37   0.0000       0.184458         5.0194
  38   0.0000       0.195028         5.3070

MULLIKEN ATOMIC CHARGES
-----------------------
   0 C :   -0.451536
   1 C :    0.118881
   2 C :   -0.311676
   3 C :    0.082503
   4 O :   -0.471038
   5 C :   -0.157559
   6 C :    0.047028
   7 O :   -0.473839
   8 C :   -0.131953
   9 H :    0.133440
  10 H :    0.135219
  11 H :    0.155021
  12 H :    0.134716
  13 H :    0.132446
  14 H :    0.332341
  15 H :    0.130987
  16 H :    0.115094
  17 H :    0.346849
  18 H :    0.133078
Sum of atomic charges:    0.0000000

LOEWDIN ATOMIC CHARGES
----------------------
   0 C :   -0.268508
   1 C :   -0.195132
   2 C :   -0.164230
   3 C :   -0.313000
   4 O :    0.018807
   5 C :   -0.139599
   6 C :   -0.286233
   7 O :    0.001281
   8 C :   -0.114541
   9 H :    0.131706
  10 H :    0.128737
  11 H :    0.134206
  12 H :    0.133048
  13 H :    0.142900
  14 H :    0.186279
  15 H :    0.136225
  16 H :    0.145744
  17 H :    0.184567
  18 H :    0.137743

  Mayer bond orders larger than 0.1
B(  0-C ,  1-C ) :   0.8667 B(  0-C ,  9-H ) :   0.9284 B(  0-C , 10-H ) :   0.9393
B(  0-C , 11-H ) :   0.9365 B(  1-C ,  2-C ) :   0.8785 B(  1-C ,  3-C ) :   0.8615
B(  1-C ,  8-C ) :   0.9221 B(  2-C ,  3-C ) :   0.9122 B(  2-C , 12-H ) :   0.9005
B(  2-C , 13-H ) :   0.9307 B(  3-C ,  4-O ) :   1.0518 B(  3-C ,  5-C ) :   0.9434
B(  4-O , 14-H ) :   0.8323 B(  5-C ,  6-C ) :   0.9029 B(  5-C ,  8-C ) :   0.8160
B(  5-C , 15-H ) :   0.9147 B(  6-C ,  7-O ) :   0.9867 B(  6-C ,  8-C ) :   0.8535
B(  6-C , 16-H ) :   0.9607 B(  7-O , 17-H ) :   0.8194 B(  8-C , 18-H ) :   0.9124

MP2 TOTAL ENERGY:     -422.276384373 Eh
FINAL SINGLE POINT ENERGY      -422.276384372726

DIPOLE MOMENT
-------------
                                X             Y             Z
Electronic contribution:     -0.96140      -2.40894       3.04834
Nuclear contribution   :      1.67289       1.65732      -3.39844
                        -----------------------------------------
Total Dipole Moment    :      0.71149      -0.75162      -0.35010
                        -----------------------------------------
Magnitude (a.u.)       :      1.09258
Magnitude (Debye)      :      2.77711

                             ****ORCA TERMINATED NORMALLY****
TOTAL RUN TIME: 0 days 0 hours 17 minutes 48 seconds 796 msec
