                         Program Version 3.0.3 - RELEASE   -
|  1> ! RI-MP2 RIJK def2-TZVP def2-TZVP/C def2-TZVP/JK TIGHTSCF
|  2> % maxcore 2000
|  3> % mp2 density relaxed end
|  4> *xyz 0 1
|  5>  C       -0.1798200769     1.5853553451    -0.0205216836
|  6>  C       -0.0060537127     0.0769838176    -0.1380659554
|  7>  C        0.9960906165    -0.4681566994    -1.2046481578
|  8>  N        1.7809691572    -1.0211744381    -0.0929122227
|  9>  C        2.9526757156    -1.8514515031    -0.0402445969
| 10>  C        4.2223774331    -1.1033745928    -0.4325925815
| 11>  O        5.1338627966    -1.5949383271    -1.0412427389
| 12>  C        0.9310903918    -0.5864946252     0.9009245261
| 13>  O        0.9705790395    -0.7117506731     2.0965623329
| 14>  H        0.7892930490     2.0950547836    -0.0041704332
| 15>  H       -0.7599674563     1.9838954976    -0.8585585682
| 16>  H       -0.7045743571     1.8346650288     0.9061719923
| 17>  H       -0.9753905564    -0.4282170620    -0.1778929626
| 18>  H        0.5963820305    -1.2283419979    -1.8846405045
| 19>  H        1.5194176518     0.3005355253    -1.7835081917
| 20>  H        3.0620843751    -2.1688452582     1.0062713106
| 21>  H        2.8601023306    -2.7487048934    -0.6633243248
| 22>  H        4.2381805323    -0.0419136677    -0.0939847900
| 23> *
| 24>
| 25>                          ****END OF INPUT****

CARTESIAN COORDINATES (ANGSTROEM)
---------------------------------
  C     -0.179820    1.585355   -0.020522
  C     -0.006054    0.076984   -0.138066
  C      0.996091   -0.468157   -1.204648
  N      1.780969   -1.021174   -0.092912
  C      2.952676   -1.851452   -0.040245
  C      4.222377   -1.103375   -0.432593
  O      5.133863   -1.594938   -1.041243
  C      0.931090   -0.586495    0.900925
  O      0.970579   -0.711751    2.096562
  H      0.789293    2.095055   -0.004170
  H     -0.759967    1.983895   -0.858559
  H     -0.704574    1.834665    0.906172
  H     -0.975391   -0.428217   -0.177893
  H      0.596382   -1.228342   -1.884641
  H      1.519418    0.300536   -1.783508
  H      3.062084   -2.168845    1.006271
  H      2.860102   -2.748705   -0.663324
  H      4.238181   -0.041914   -0.093985

 Total Charge           Charge          ....    0
 Multiplicity           Mult            ....    1
 Number of Electrons    NEL             ....   68
 Basis Dimension        Dim             ....  333

ORBITAL ENERGIES
----------------

  NO   OCC          E(Eh)            E(eV)
   0   2.0000     -20.571559      -559.7806
   1   2.0000     -20.535879      -558.8097
   2   2.0000     -15.601676      -424.5432
   3   2.0000     -11.357579      -309.0554
   4   2.0000     -11.344078      -308.6881
   5   2.0000     -11.291707      -307.2630
   6   2.0000     -11.290380      -307.2269
   7   2.0000     -11.264823      -306.5314
   8   2.0000     -11.240187      -305.8610
   9   2.0000      -1.411326       -38.4041
  10   2.0000      -1.399120       -38.0720
  11   2.0000      -1.292155       -35.1613
  12   2.0000      -1.099031       -29.9062
  13   2.0000      -1.010517       -27.4976
  14   2.0000      -0.928153       -25.2563
  15   2.0000      -0.882524       -24.0147
  16   2.0000      -0.819170       -22.2908
  17   2.0000      -0.739257       -20.1162
  18   2.0000      -0.703690       -19.1484
  19   2.0000      -0.688080       -18.7236
  20   2.0000      -0.676163       -18.3993
  21   2.0000      -0.655071       -17.8254
  22   2.0000      -0.641777       -17.4636
  23   2.0000      -0.603780       -16.4297
  24   2.0000      -0.584246       -15.8981
  25   2.0000      -0.578075       -15.7302
  26   2.0000      -0.556568       -15.1450
  27   2.0000      -0.543362       -14.7856
  28   2.0000      -0.524126       -14.2622
  29   2.0000      -0.516663       -14.0591
  30   2.0000      -0.494968       -13.4688
  31   2.0000      -0.449385       -12.2284
  32   2.0000      -0.421747       -11.4763
  33   2.0000      -0.391392       -10.6503
  34   0.0000       0.114702         3.1212
  35   0.0000       0.121808         3.3146
  36   0.0000       0.146123         3.9762
  37   0.0000       0.151831         4.1315
  38   0.0000       0.173115         4.7107

MULLIKEN ATOMIC CHARGES
-----------------------
   0 C :   -0.427913
   1 C :   -0.027867
   2 C :   -0.176784
   3 N :   -0.126920
   4 C :   -0.123708
   5 C :    0.087578
   6 O :   -0.249695
   7 C :    0.170483
   8 O :   -0.324471
   9 H :    0.130235
  10 H :    0.139738
  11 H :    0.151946
  12 H :    0.124467
  13 H :    0.127609
  14 H :    0.130937
  15 H :    0.169772
  16 H :    0.138414
  17 H :    0.086182
Sum of atomic charges:   -0.0000000

LOEWDIN ATOMIC CHARGES
----------------------
   0 C :   -0.288486
   1 C :   -0.212537
   2 C :   -0.201279
   3 N :    0.203841
   4 C :   -0.264269
   5 C :   -0.292118
   6 O :    0.143010
   7 C :   -0.408891
   8 O :    0.102432
   9 H :    0.127721
  10 H :    0.126289
  11 H :    0.134119
  12 H :    0.155760
  13 H :    0.125390
  14 H :    0.126410
  15 H :    0.166029
  16 H :    0.144640
  17 H :    0.111937

  Mayer bond orders larger than 0.1
B(  0-C ,  1-C ) :   0.8904 B(  0-C ,  9-H ) :   0.9310 B(  0-C , 10-H ) :   0.9372
B(  0-C , 11-H ) :   0.9353 B(  1-C ,  2-C ) :   0.9080 B(  1-C ,  7-C ) :   0.8870
B(  1-C , 12-H ) :   0.9084 B(  2-C ,  3-N ) :   0.9015 B(  2-C , 13-H ) :   0.9194
B(  2-C , 14-H ) :   0.9230 B(  3-N ,  4-C ) :   0.8472 B(  3-N ,  7-C ) :   1.1058
B(  4-C ,  5-C ) :   0.8682 B(  4-C , 15-H ) :   0.8963 B(  4-C , 16-H ) :   0.9020
B(  5-C ,  6-O ) :   2.0107 B(  5-C , 17-H ) :   0.9317 B(  7-C ,  8-O ) :   1.9978

MP2 TOTAL ENERGY:     -438.385357695 Eh
FINAL SINGLE POINT ENERGY      -438.385357695037

DIPOLE MOMENT
-------------
                                X             Y             Z
Electronic contribution:      5.20084      -4.56828       2.44273
Nuclear contribution   :     -5.96370       4.90511      -3.37009
                        -----------------------------------------
Total Dipole Moment    :     -0.76286       0.33684      -0.92736
                        -----------------------------------------
Magnitude (a.u.)       :      1.24716
Magnitude (Debye)      :      3.17002

                             ****ORCA TERMINATED NORMALLY****
TOTAL RUN TIME: 0 days 0 hours 15 minutes 39 seconds 448 msec
