                         Program Version 3.0.3 - RELEASE   -
|  1> ! RI-MP2 RIJK def2-TZVP def2-TZVP/C def2-TZVP/JK TIGHTSCF
|  2> % maxcore 2000
|  3> % mp2 density relaxed end
|  4> *xyz 0 1
|  5>  O        0.1753264371    -0.0486144766     0.2408450984
|  6>  C        0.0326681185     1.1354871653     0.1760716588
|  7>  C       -1.2498639464     1.9338937102    -0.0329851448
|  8>  C       -0.8757567976     3.3560780709     0.3696672766
|  9>  C       -1.6995029165     4.5661798383    -0.1165331704
| 10>  C       -2.0273886017     4.7709433396     1.3751575055
| 11>  O       -1.2113952482     3.6402744900     1.7514397261
| 12>  C        0.6408458258     3.3603516138     0.1304068878
| 13>  O        1.0808648502     2.0040898545     0.2694483375
| 14>  H       -1.5169665986     1.8758897629    -1.0946869646
| 15>  H       -2.0713953043     1.5227979653     0.5539171780
| 16>  H       -1.1118063484     5.3624683705    -0.5787267285
| 17>  H       -2.5446368835     4.3246920752    -0.7629702851
| 18>  H       -1.6653506341     5.7031774398     1.8227261776
| 19>  H       -3.0772294059     4.6254624622     1.6539108998
| 20>  H        0.8845628268     3.7154451305    -0.8789858552
| 21>  H        1.1601944267     3.9726807275     0.8702987925
| 22> *
| 23>
| 24>                          ****END OF INPUT****

CARTESIAN COORDINATES (ANGSTROEM)
---------------------------------
  O      0.175326   -0.048614    0.240845
  C      0.032668    1.135487    0.176072
  C     -1.249864    1.933894   -0.032985
  C     -0.875757    3.356078    0.369667
  C     -1.699503    4.566180   -0.116533
  C     -2.027389    4.770943    1.375158
  O     -1.211395    3.640274    1.751440
  C      0.640846    3.360352    0.130407
  O      1.080865    2.004090    0.269448
  H     -1.516967    1.875890   -1.094687
  H     -2.071395    1.522798    0.553917
  H     -1.111806    5.362468   -0.578727
  H     -2.544637    4.324692   -0.762970
  H     -1.665351    5.703177    1.822726
  H     -3.077229    4.625462    1.653911
  H      0.884563    3.715445   -0.878986
  H      1.160194    3.972681    0.870299

 Total Charge           Charge          ....    0
 Multiplicity           Mult            ....    1
 Number of Electrons    NEL             ....   68
 Basis Dimension        Dim             ....  327

ORBITAL ENERGIES
----------------

  NO   OCC          E(Eh)            E(eV)
   0   2.0000     -20.602589      -560.6250
   1   2.0000     -20.567531      -559.6710
   2   2.0000     -20.540709      -558.9411
   3   2.0000     -11.380044      -309.6667
   4   2.0000     -11.318379      -307.9888
   5   2.0000     -11.303450      -307.5825
   6   2.0000     -11.298836      -307.4569
   7   2.0000     -11.257472      -306.3314
   8   2.0000     -11.256415      -306.3026
   9   2.0000      -1.460285       -39.7364
  10   2.0000      -1.401035       -38.1241
  11   2.0000      -1.367379       -37.2083
  12   2.0000      -1.087005       -29.5789
  13   2.0000      -1.028002       -27.9734
  14   2.0000      -0.992474       -27.0066
  15   2.0000      -0.888829       -24.1863
  16   2.0000      -0.798804       -21.7366
  17   2.0000      -0.764116       -20.7926
  18   2.0000      -0.707044       -19.2397
  19   2.0000      -0.702233       -19.1087
  20   2.0000      -0.680899       -18.5282
  21   2.0000      -0.679963       -18.5027
  22   2.0000      -0.634046       -17.2533
  23   2.0000      -0.621036       -16.8993
  24   2.0000      -0.607291       -16.5252
  25   2.0000      -0.567130       -15.4324
  26   2.0000      -0.556101       -15.1323
  27   2.0000      -0.541237       -14.7278
  28   2.0000      -0.533926       -14.5289
  29   2.0000      -0.495102       -13.4724
  30   2.0000      -0.482514       -13.1299
  31   2.0000      -0.462732       -12.5916
  32   2.0000      -0.443276       -12.0622
  33   2.0000      -0.422568       -11.4986
  34   0.0000       0.120784         3.2867
  35   0.0000       0.137632         3.7452
  36   0.0000       0.151980         4.1356
  37   0.0000       0.161444         4.3931
  38   0.0000       0.171425         4.6647

MULLIKEN ATOMIC CHARGES
-----------------------
   0 O :   -0.277404
   1 C :    0.238978
   2 C :   -0.251043
   3 C :    0.185227
   4 C :   -0.287791
   5 C :   -0.024179
   6 O :   -0.334405
   7 C :   -0.068516
   8 O :   -0.221847
   9 H :    0.147473
  10 H :    0.154796
  11 H :    0.133430
  12 H :    0.137351
  13 H :    0.106557
  14 H :    0.105638
  15 H :    0.119050
  16 H :    0.136686
Sum of atomic charges:   -0.0000000

LOEWDIN ATOMIC CHARGES
----------------------
   0 O :    0.143821
   1 C :   -0.458344
   2 C :   -0.186095
   3 C :   -0.317106
   4 C :   -0.204154
   5 C :   -0.265400
   6 O :    0.157092
   7 C :   -0.231366
   8 O :    0.255911
   9 H :    0.163340
  10 H :    0.161005
  11 H :    0.136589
  12 H :    0.136193
  13 H :    0.118430
  14 H :    0.118900
  15 H :    0.131931
  16 H :    0.139253

  Mayer bond orders larger than 0.1
B(  0-O ,  1-C ) :   2.0459 B(  1-C ,  2-C ) :   0.9407 B(  1-C ,  8-O ) :   1.1002
B(  2-C ,  3-C ) :   0.9130 B(  2-C ,  9-H ) :   0.9017 B(  2-C , 10-H ) :   0.8978
B(  3-C ,  4-C ) :   0.8692 B(  3-C ,  6-O ) :   0.9507 B(  3-C ,  7-C ) :   0.9292
B(  4-C ,  5-C ) :   0.9783 B(  4-C , 11-H ) :   0.9253 B(  4-C , 12-H ) :   0.9258
B(  5-C ,  6-O ) :   0.9380 B(  5-C , 13-H ) :   0.9176 B(  5-C , 14-H ) :   0.9173
B(  7-C ,  8-O ) :   0.8884 B(  7-C , 15-H ) :   0.9232 B(  7-C , 16-H ) :   0.9169

MP2 TOTAL ENERGY:     -458.251846700 Eh
FINAL SINGLE POINT ENERGY      -458.251846699908

DIPOLE MOMENT
-------------
                                X             Y             Z
Electronic contribution:      4.15359      -6.69843       1.29266
Nuclear contribution   :     -5.11358       8.60583      -2.05142
                        -----------------------------------------
Total Dipole Moment    :     -0.95999       1.90740      -0.75876
                        -----------------------------------------
Magnitude (a.u.)       :      2.26616
Magnitude (Debye)      :      5.76013

                             ****ORCA TERMINATED NORMALLY****
TOTAL RUN TIME: 0 days 0 hours 15 minutes 28 seconds 995 msec
