                         Program Version 3.0.3 - RELEASE   -
|  1> ! RI-MP2 RIJK def2-TZVP def2-TZVP/C def2-TZVP/JK TIGHTSCF
|  2> % maxcore 2000
|  3> % mp2 density relaxed end
|  4> *xyz 0 1
|  5>  C        0.9052039482     1.3776604891    -1.0640122934
|  6>  C        0.0681086437     0.1076970961    -0.8426461196
|  7>  C        0.8832221948    -1.1344145395    -0.5271497672
|  8>  O        0.6671839714    -1.8184435361     0.4442855939
|  9>  C        2.0417820438    -1.5174264288    -1.4705048516
| 10>  C        1.6321780700    -1.6810293843    -2.9209215053
| 11>  O        1.0728086367    -0.8440678103    -3.5881461164
| 12>  O        1.9767171418    -2.8947635113    -3.3836798391
| 13>  C        1.6375161844    -3.1482351126    -4.7552698089
| 14>  H        1.5655247315     1.5793618854    -0.2139996622
| 15>  H        1.5084634677     1.2958591158    -1.9712051594
| 16>  H        0.2454246922     2.2414955570    -1.1833097201
| 17>  H       -0.6353088007     0.2326463246    -0.0155396077
| 18>  H       -0.5053077620    -0.0931735566    -1.7548539787
| 19>  H        2.7816944966    -0.7084382269    -1.4418914754
| 20>  H        2.4982323577    -2.4297239837    -1.0902510691
| 21>  H        1.9900644091    -4.1579422320    -4.9637745762
| 22>  H        0.5568484395    -3.0803661655    -4.9014715564
| 23>  H        2.1278402337    -2.4256905603    -5.4120930973
| 24> *
| 25>
| 26>                          ****END OF INPUT****

CARTESIAN COORDINATES (ANGSTROEM)
---------------------------------
  C      0.905204    1.377660   -1.064012
  C      0.068109    0.107697   -0.842646
  C      0.883222   -1.134415   -0.527150
  O      0.667184   -1.818444    0.444286
  C      2.041782   -1.517426   -1.470505
  C      1.632178   -1.681029   -2.920922
  O      1.072809   -0.844068   -3.588146
  O      1.976717   -2.894764   -3.383680
  C      1.637516   -3.148235   -4.755270
  H      1.565525    1.579362   -0.214000
  H      1.508463    1.295859   -1.971205
  H      0.245425    2.241496   -1.183310
  H     -0.635309    0.232646   -0.015540
  H     -0.505308   -0.093174   -1.754854
  H      2.781694   -0.708438   -1.441891
  H      2.498232   -2.429724   -1.090251
  H      1.990064   -4.157942   -4.963775
  H      0.556848   -3.080366   -4.901472
  H      2.127840   -2.425691   -5.412093

 Total Charge           Charge          ....    0
 Multiplicity           Mult            ....    1
 Number of Electrons    NEL             ....   70
 Basis Dimension        Dim             ....  339

ORBITAL ENERGIES
----------------

  NO   OCC          E(Eh)            E(eV)
   0   2.0000     -20.616972      -561.0163
   1   2.0000     -20.556661      -559.3752
   2   2.0000     -20.552753      -559.2688
   3   2.0000     -11.397428      -310.1398
   4   2.0000     -11.340565      -308.5925
   5   2.0000     -11.294676      -307.3438
   6   2.0000     -11.260346      -306.4096
   7   2.0000     -11.235363      -305.7298
   8   2.0000     -11.227586      -305.5182
   9   2.0000      -1.475493       -40.1502
  10   2.0000      -1.397493       -38.0277
  11   2.0000      -1.374057       -37.3900
  12   2.0000      -1.079481       -29.3742
  13   2.0000      -1.038091       -28.2479
  14   2.0000      -0.967808       -26.3354
  15   2.0000      -0.889312       -24.1994
  16   2.0000      -0.802094       -21.8261
  17   2.0000      -0.750472       -20.4214
  18   2.0000      -0.709863       -19.3164
  19   2.0000      -0.695326       -18.9208
  20   2.0000      -0.683810       -18.6074
  21   2.0000      -0.653576       -17.7847
  22   2.0000      -0.650310       -17.6958
  23   2.0000      -0.610419       -16.6104
  24   2.0000      -0.594724       -16.1833
  25   2.0000      -0.577827       -15.7235
  26   2.0000      -0.555727       -15.1221
  27   2.0000      -0.549417       -14.9504
  28   2.0000      -0.540466       -14.7068
  29   2.0000      -0.529096       -14.3974
  30   2.0000      -0.504464       -13.7272
  31   2.0000      -0.494220       -13.4484
  32   2.0000      -0.475060       -12.9270
  33   2.0000      -0.460297       -12.5253
  34   2.0000      -0.414560       -11.2808
  35   0.0000       0.123944         3.3727
  36   0.0000       0.134956         3.6723
  37   0.0000       0.150026         4.0824
  38   0.0000       0.169485         4.6119
  39   0.0000       0.178917         4.8686

MULLIKEN ATOMIC CHARGES
-----------------------
   0 C :   -0.443980
   1 C :   -0.145812
   2 C :    0.138082
   3 O :   -0.267246
   4 C :   -0.188209
   5 C :    0.284785
   6 O :   -0.344172
   7 O :   -0.249843
   8 C :   -0.219953
   9 H :    0.134660
  10 H :    0.146483
  11 H :    0.141523
  12 H :    0.131154
  13 H :    0.137670
  14 H :    0.155517
  15 H :    0.156076
  16 H :    0.149196
  17 H :    0.142227
  18 H :    0.141842
Sum of atomic charges:   -0.0000000

LOEWDIN ATOMIC CHARGES
----------------------
   0 C :   -0.310278
   1 C :   -0.257996
   2 C :   -0.316043
   3 O :    0.158598
   4 C :   -0.193119
   5 C :   -0.481236
   6 O :    0.121511
   7 O :    0.236059
   8 C :   -0.304318
   9 H :    0.122055
  10 H :    0.124426
  11 H :    0.126378
  12 H :    0.145469
  13 H :    0.156220
  14 H :    0.168344
  15 H :    0.157687
  16 H :    0.116351
  17 H :    0.115087
  18 H :    0.114806

  Mayer bond orders larger than 0.1
B(  0-C ,  1-C ) :   0.8825 B(  0-C ,  9-H ) :   0.9382 B(  0-C , 10-H ) :   0.9289
B(  0-C , 11-H ) :   0.9339 B(  1-C ,  2-C ) :   0.9218 B(  1-C , 12-H ) :   0.9268
B(  1-C , 13-H ) :   0.8943 B(  2-C ,  3-O ) :   2.0393 B(  2-C ,  4-C ) :   0.8805
B(  4-C ,  5-C ) :   0.8908 B(  4-C , 14-H ) :   0.8985 B(  4-C , 15-H ) :   0.9139
B(  5-C ,  6-O ) :   1.8710 B(  5-C ,  7-O ) :   1.1500 B(  7-O ,  8-C ) :   0.8318
B(  8-C , 16-H ) :   0.9328 B(  8-C , 17-H ) :   0.9374 B(  8-C , 18-H ) :   0.9374

MP2 TOTAL ENERGY:     -459.474070152 Eh
FINAL SINGLE POINT ENERGY      -459.474070152139

DIPOLE MOMENT
-------------
                                X             Y             Z
Electronic contribution:      0.40395      -4.96489       1.47519
Nuclear contribution   :      0.00979       5.04498      -2.31228
                        -----------------------------------------
Total Dipole Moment    :      0.41374       0.08009      -0.83709
                        -----------------------------------------
Magnitude (a.u.)       :      0.93718
Magnitude (Debye)      :      2.38213

                             ****ORCA TERMINATED NORMALLY****
TOTAL RUN TIME: 0 days 0 hours 16 minutes 19 seconds 589 msec
