                         Program Version 3.0.3 - RELEASE   -
|  1> ! RI-MP2 RIJK def2-TZVP def2-TZVP/C def2-TZVP/JK TIGHTSCF
|  2> % maxcore 2000
|  3> % mp2 density relaxed end
|  4> *xyz 0 1
|  5>  O       -0.0072339771     1.4918974559     0.1218091383
|  6>  C       -0.0244963327     0.1046608787    -0.0057369676
|  7>  C        0.6412616706    -0.6142134241     1.2076088717
|  8>  C        0.0234383758    -0.2456462371     2.4726322430
|  9>  C       -0.4934870251     0.0552537501     3.5139200025
| 10>  C       -1.4754132457    -0.3911061112    -0.1556626573
| 11>  O       -1.7732381423    -1.5547272879    -0.1905961188
| 12>  C        0.7255451966    -0.3129470840    -1.2724720794
| 13>  O        1.2724606748     0.5065294275    -1.9658797793
| 14>  H        0.5405894825     1.8228477527    -0.6091022781
| 15>  H        0.5565159282    -1.6951857552     1.0487371226
| 16>  H        1.7069269477    -0.3570781007     1.2187832377
| 17>  H       -0.9474903668     0.3203499960     4.4366069106
| 18>  H       -2.2076508050     0.4370711301    -0.2497000835
| 19>  H        0.7313961083    -1.3944980310    -1.5014085824
| 20> *
| 21>
| 22>                          ****END OF INPUT****

CARTESIAN COORDINATES (ANGSTROEM)
---------------------------------
  O     -0.007234    1.491897    0.121809
  C     -0.024496    0.104661   -0.005737
  C      0.641262   -0.614213    1.207609
  C      0.023438   -0.245646    2.472632
  C     -0.493487    0.055254    3.513920
  C     -1.475413   -0.391106   -0.155663
  O     -1.773238   -1.554727   -0.190596
  C      0.725545   -0.312947   -1.272472
  O      1.272461    0.506529   -1.965880
  H      0.540589    1.822848   -0.609102
  H      0.556516   -1.695186    1.048737
  H      1.706927   -0.357078    1.218783
  H     -0.947490    0.320350    4.436607
  H     -2.207651    0.437071   -0.249700
  H      0.731396   -1.394498   -1.501409

 Total Charge           Charge          ....    0
 Multiplicity           Mult            ....    1
 Number of Electrons    NEL             ....   66
 Basis Dimension        Dim             ....  315

ORBITAL ENERGIES
----------------

  NO   OCC          E(Eh)            E(eV)
   0   2.0000     -20.602026      -560.6096
   1   2.0000     -20.586492      -560.1869
   2   2.0000     -20.585812      -560.1684
   3   2.0000     -11.370266      -309.4007
   4   2.0000     -11.357060      -309.0413
   5   2.0000     -11.337414      -308.5067
   6   2.0000     -11.285689      -307.0992
   7   2.0000     -11.246550      -306.0342
   8   2.0000     -11.234969      -305.7190
   9   2.0000      -1.451227       -39.4899
  10   2.0000      -1.426864       -38.8269
  11   2.0000      -1.395924       -37.9850
  12   2.0000      -1.112013       -30.2594
  13   2.0000      -1.033687       -28.1280
  14   2.0000      -0.953321       -25.9412
  15   2.0000      -0.884817       -24.0771
  16   2.0000      -0.792982       -21.5781
  17   2.0000      -0.758629       -20.6434
  18   2.0000      -0.734002       -19.9732
  19   2.0000      -0.726266       -19.7627
  20   2.0000      -0.683932       -18.6107
  21   2.0000      -0.678373       -18.4595
  22   2.0000      -0.641689       -17.4612
  23   2.0000      -0.629179       -17.1208
  24   2.0000      -0.602144       -16.3852
  25   2.0000      -0.576361       -15.6836
  26   2.0000      -0.563029       -15.3208
  27   2.0000      -0.548163       -14.9163
  28   2.0000      -0.517374       -14.0785
  29   2.0000      -0.471333       -12.8256
  30   2.0000      -0.434033       -11.8106
  31   2.0000      -0.400211       -10.8903
  32   2.0000      -0.398162       -10.8345
  33   0.0000       0.076010         2.0683
  34   0.0000       0.131391         3.5753
  35   0.0000       0.136739         3.7209
  36   0.0000       0.156063         4.2467
  37   0.0000       0.162167         4.4128

MULLIKEN ATOMIC CHARGES
-----------------------
   0 O :   -0.465900
   1 C :    0.248497
   2 C :   -0.348839
   3 C :   -0.044246
   4 C :   -0.109595
   5 C :    0.083718
   6 O :   -0.254640
   7 C :    0.075878
   8 O :   -0.273874
   9 H :    0.339153
  10 H :    0.162172
  11 H :    0.146616
  12 H :    0.195665
  13 H :    0.114436
  14 H :    0.130959
Sum of atomic charges:   -0.0000000

LOEWDIN ATOMIC CHARGES
----------------------
   0 O :    0.048831
   1 C :   -0.394057
   2 C :   -0.199460
   3 C :   -0.105657
   4 C :   -0.084965
   5 C :   -0.237411
   6 O :    0.157778
   7 C :   -0.240146
   8 O :    0.147072
   9 H :    0.188495
  10 H :    0.169130
  11 H :    0.164446
  12 H :    0.128700
  13 H :    0.124401
  14 H :    0.132842

  Mayer bond orders larger than 0.1
B(  0-O ,  1-C ) :   1.1236 B(  0-O ,  9-H ) :   0.7977 B(  1-C ,  2-C ) :   0.8634
B(  1-C ,  5-C ) :   0.8005 B(  1-C ,  7-C ) :   0.8363 B(  2-C ,  3-C ) :   1.1450
B(  2-C ,  4-C ) :  -0.1122 B(  2-C , 10-H ) :   0.9026 B(  2-C , 11-H ) :   0.9017
B(  3-C ,  4-C ) :   2.6177 B(  4-C , 12-H ) :   0.8890 B(  5-C ,  6-O ) :   1.9687
B(  5-C , 13-H ) :   0.9101 B(  7-C ,  8-O ) :   1.9135 B(  7-C , 14-H ) :   0.9233

MP2 TOTAL ENERGY:     -456.993647999 Eh
FINAL SINGLE POINT ENERGY      -456.993647999466

DIPOLE MOMENT
-------------
                                X             Y             Z
Electronic contribution:     -0.72925       0.25082      -2.14660
Nuclear contribution   :      1.02357      -0.32778       2.20020
                        -----------------------------------------
Total Dipole Moment    :      0.29432      -0.07696       0.05360
                        -----------------------------------------
Magnitude (a.u.)       :      0.30890
Magnitude (Debye)      :      0.78517

                             ****ORCA TERMINATED NORMALLY****
TOTAL RUN TIME: 0 days 0 hours 15 minutes 22 seconds 237 msec
