                         Program Version 3.0.3 - RELEASE   -
|  1> ! RI-MP2 RIJK def2-TZVP def2-TZVP/C def2-TZVP/JK TIGHTSCF
|  2> % maxcore 2000
|  3> % mp2 density relaxed end
|  4> *xyz 0 1
|  5>  C        0.1417048299     1.4571415974    -0.2515868668
|  6>  C        0.0019395439    -0.0411633572     0.0339897388
|  7>  C        0.5620990317    -0.4188556658     1.4008804132
|  8>  O       -1.3594628532    -0.4586435843     0.0280840501
|  9>  C       -1.9613274688    -0.5515936313    -1.2443570931
| 10>  C       -3.3451547104    -1.1990833141    -1.0941770537
| 11>  C       -3.2199025433    -2.6246206713    -0.5451959273
| 12>  C       -4.2499720810    -0.3362617530    -0.2066745091
| 13>  O       -3.8398632564    -1.2226933442    -2.4378943578
| 14>  H        1.1949396448     1.7542636175    -0.2232017978
| 15>  H       -0.2501506963     1.7208082956    -1.2378112634
| 16>  H       -0.4018690635     2.0375181331     0.5011372535
| 17>  H        0.5448029631    -0.6036847720    -0.7447946427
| 18>  H        0.0241254689     0.1142930395     2.1914026612
| 19>  H        0.4516410585    -1.4922781612     1.5758491858
| 20>  H        1.6227782134    -0.1599514977     1.4697081347
| 21>  H       -2.0881604203     0.4351136160    -1.7133852356
| 22>  H       -1.3495412776    -1.1669532012    -1.9230687401
| 23>  H       -2.7266816173    -2.6207595507     0.4297371841
| 24>  H       -4.2083909427    -3.0843539450    -0.4295519351
| 25>  H       -2.6337964326    -3.2418096248    -1.2327172578
| 26>  H       -4.3843340700     0.6523728391    -0.6556704887
| 27>  H       -5.2376084318    -0.7988682306    -0.0944074017
| 28>  H       -3.8134554387    -0.2124695804     0.7873397386
| 29>  H       -4.7164369802    -1.6201018233    -2.4181930194
| 30> *
| 31>
| 32>                          ****END OF INPUT****

CARTESIAN COORDINATES (ANGSTROEM)
---------------------------------
  C      0.141705    1.457142   -0.251587
  C      0.001940   -0.041163    0.033990
  C      0.562099   -0.418856    1.400880
  O     -1.359463   -0.458644    0.028084
  C     -1.961327   -0.551594   -1.244357
  C     -3.345155   -1.199083   -1.094177
  C     -3.219903   -2.624621   -0.545196
  C     -4.249972   -0.336262   -0.206675
  O     -3.839863   -1.222693   -2.437894
  H      1.194940    1.754264   -0.223202
  H     -0.250151    1.720808   -1.237811
  H     -0.401869    2.037518    0.501137
  H      0.544803   -0.603685   -0.744795
  H      0.024125    0.114293    2.191403
  H      0.451641   -1.492278    1.575849
  H      1.622778   -0.159951    1.469708
  H     -2.088160    0.435114   -1.713385
  H     -1.349541   -1.166953   -1.923069
  H     -2.726682   -2.620760    0.429737
  H     -4.208391   -3.084354   -0.429552
  H     -2.633796   -3.241810   -1.232717
  H     -4.384334    0.652373   -0.655670
  H     -5.237608   -0.798868   -0.094407
  H     -3.813455   -0.212470    0.787340
  H     -4.716437   -1.620102   -2.418193

 Total Charge           Charge          ....    0
 Multiplicity           Mult            ....    1
 Number of Electrons    NEL             ....   74
 Basis Dimension        Dim             ....  375

ORBITAL ENERGIES
----------------

  NO   OCC          E(Eh)            E(eV)
   0   2.0000     -20.549482      -559.1798
   1   2.0000     -20.548285      -559.1473
   2   2.0000     -11.281623      -306.9886
   3   2.0000     -11.279357      -306.9269
   4   2.0000     -11.265329      -306.5452
   5   2.0000     -11.213611      -305.1379
   6   2.0000     -11.211716      -305.0863
   7   2.0000     -11.208797      -305.0069
   8   2.0000     -11.208576      -305.0009
   9   2.0000      -1.374517       -37.4025
  10   2.0000      -1.355295       -36.8795
  11   2.0000      -1.069449       -29.1012
  12   2.0000      -1.029018       -28.0010
  13   2.0000      -0.939691       -25.5703
  14   2.0000      -0.934404       -25.4264
  15   2.0000      -0.916569       -24.9411
  16   2.0000      -0.798364       -21.7246
  17   2.0000      -0.765739       -20.8368
  18   2.0000      -0.684348       -18.6221
  19   2.0000      -0.656187       -17.8557
  20   2.0000      -0.645477       -17.5643
  21   2.0000      -0.630895       -17.1675
  22   2.0000      -0.608871       -16.5682
  23   2.0000      -0.588082       -16.0025
  24   2.0000      -0.571764       -15.5585
  25   2.0000      -0.564341       -15.3565
  26   2.0000      -0.541171       -14.7260
  27   2.0000      -0.532584       -14.4924
  28   2.0000      -0.530940       -14.4476
  29   2.0000      -0.516427       -14.0527
  30   2.0000      -0.506041       -13.7701
  31   2.0000      -0.503923       -13.7124
  32   2.0000      -0.492725       -13.4077
  33   2.0000      -0.465067       -12.6551
  34   2.0000      -0.447729       -12.1833
  35   2.0000      -0.433514       -11.7965
  36   2.0000      -0.413178       -11.2432
  37   0.0000       0.128792         3.5046
  38   0.0000       0.146647         3.9905
  39   0.0000       0.168934         4.5969
  40   0.0000       0.171777         4.6743
  41   0.0000       0.183556         4.9948

MULLIKEN ATOMIC CHARGES
-----------------------
   0 C :   -0.398767
   1 C :    0.090820
   2 C :   -0.367348
   3 O :   -0.308925
   4 C :   -0.064007
   5 C :    0.249921
   6 C :   -0.444538
   7 C :   -0.442193
   8 O :   -0.475405
   9 H :    0.128321
  10 H :    0.135914
  11 H :    0.126324
  12 H :    0.066385
  13 H :    0.127039
  14 H :    0.134023
  15 H :    0.121705
  16 H :    0.105336
  17 H :    0.108284
  18 H :    0.143942
  19 H :    0.119377
  20 H :    0.133797
  21 H :    0.134115
  22 H :    0.119225
  23 H :    0.144173
  24 H :    0.312478
Sum of atomic charges:   -0.0000000

LOEWDIN ATOMIC CHARGES
----------------------
   0 C :   -0.299769
   1 C :   -0.375269
   2 C :   -0.294051
   3 O :    0.184757
   4 C :   -0.288337
   5 C :   -0.432263
   6 C :   -0.282340
   7 C :   -0.281776
   8 O :    0.000886
   9 H :    0.126229
  10 H :    0.121704
  11 H :    0.125766
  12 H :    0.132787
  13 H :    0.125760
  14 H :    0.124490
  15 H :    0.124934
  16 H :    0.126082
  17 H :    0.126704
  18 H :    0.131699
  19 H :    0.120917
  20 H :    0.127064
  21 H :    0.127301
  22 H :    0.120728
  23 H :    0.131896
  24 H :    0.174099

  Mayer bond orders larger than 0.1
B(  0-C ,  1-C ) :   0.9154 B(  0-C ,  9-H ) :   0.9309 B(  0-C , 10-H ) :   0.9372
B(  0-C , 11-H ) :   0.9317 B(  1-C ,  2-C ) :   0.9285 B(  1-C ,  3-O ) :   0.9210
B(  1-C , 12-H ) :   0.9339 B(  2-C , 13-H ) :   0.9344 B(  2-C , 14-H ) :   0.9381
B(  2-C , 15-H ) :   0.9337 B(  3-O ,  4-C ) :   0.9221 B(  4-C ,  5-C ) :   0.9159
B(  4-C , 16-H ) :   0.9198 B(  4-C , 17-H ) :   0.9244 B(  5-C ,  6-C ) :   0.9210
B(  5-C ,  7-C ) :   0.9249 B(  5-C ,  8-O ) :   0.9289 B(  6-C , 18-H ) :   0.9282
B(  6-C , 19-H ) :   0.9288 B(  6-C , 20-H ) :   0.9387 B(  7-C , 21-H ) :   0.9381
B(  7-C , 22-H ) :   0.9284 B(  7-C , 23-H ) :   0.9270 B(  8-O , 24-H ) :   0.8459

MP2 TOTAL ENERGY:     -425.933836940 Eh
FINAL SINGLE POINT ENERGY      -425.933836939605

DIPOLE MOMENT
-------------
                                X             Y             Z
Electronic contribution:     -2.81141      -1.35934      -3.68836
Nuclear contribution   :      2.84574       1.28686       3.89516
                        -----------------------------------------
Total Dipole Moment    :      0.03433      -0.07248       0.20680
                        -----------------------------------------
Magnitude (a.u.)       :      0.22180
Magnitude (Debye)      :      0.56378

                             ****ORCA TERMINATED NORMALLY****
TOTAL RUN TIME: 0 days 0 hours 20 minutes 38 seconds 584 msec
