                         Program Version 3.0.3 - RELEASE   -
|  1> ! RI-MP2 RIJK def2-TZVP def2-TZVP/C def2-TZVP/JK TIGHTSCF
|  2> % maxcore 2000
|  3> % mp2 density relaxed end
|  4> *xyz 0 1
|  5>  C        0.0116524276     1.5533270099     0.0026926408
|  6>  C        0.0804519125     0.0534938129    -0.0043007165
|  7>  C        0.5943242469    -0.9307622244    -1.0396277382
|  8>  C        1.2574737361    -1.7839471014     0.0479861402
|  9>  C        0.7146796977    -0.7821667892     1.1238289049
| 10>  O        1.7223929617    -0.0141902797     1.7481505869
| 11>  C       -0.9054967295    -0.7910676872    -0.8091332904
| 12>  C       -1.7822844498    -1.8516870463    -0.2613218412
| 13>  O       -2.9280068022    -2.0164625591    -0.6105235660
| 14>  H        0.9663207743     1.9752979664     0.3270332400
| 15>  H       -0.2190040881     1.9384184375    -0.9953780109
| 16>  H       -0.7654229755     1.9111815597     0.6876010337
| 17>  H        0.9961290532    -0.7399993017    -2.0281175349
| 18>  H        0.9717036916    -2.8374294707     0.1179214554
| 19>  H        2.3463829437    -1.7080380574     0.0112067318
| 20>  H        0.0236762170    -1.1923487528     1.8730616622
| 21>  H        2.1717189919    -0.5736676017     2.3896292525
| 22>  H       -1.4097052608    -0.2145427562    -1.5801723166
| 23>  H       -1.3320409282    -2.5142223386     0.5085388263
| 24> *
| 25>
| 26>                          ****END OF INPUT****

CARTESIAN COORDINATES (ANGSTROEM)
---------------------------------
  C      0.011652    1.553327    0.002693
  C      0.080452    0.053494   -0.004301
  C      0.594324   -0.930762   -1.039628
  C      1.257474   -1.783947    0.047986
  C      0.714680   -0.782167    1.123829
  O      1.722393   -0.014190    1.748151
  C     -0.905497   -0.791068   -0.809133
  C     -1.782284   -1.851687   -0.261322
  O     -2.928007   -2.016463   -0.610524
  H      0.966321    1.975298    0.327033
  H     -0.219004    1.938418   -0.995378
  H     -0.765423    1.911182    0.687601
  H      0.996129   -0.739999   -2.028118
  H      0.971704   -2.837429    0.117921
  H      2.346383   -1.708038    0.011207
  H      0.023676   -1.192349    1.873062
  H      2.171719   -0.573668    2.389629
  H     -1.409705   -0.214543   -1.580172
  H     -1.332041   -2.514222    0.508539

 Total Charge           Charge          ....    0
 Multiplicity           Mult            ....    1
 Number of Electrons    NEL             ....   68
 Basis Dimension        Dim             ....  339

ORBITAL ENERGIES
----------------

  NO   OCC          E(Eh)            E(eV)
   0   2.0000     -20.572307      -559.8009
   1   2.0000     -20.548803      -559.1614
   2   2.0000     -11.328531      -308.2650
   3   2.0000     -11.300874      -307.5124
   4   2.0000     -11.260134      -306.4038
   5   2.0000     -11.255027      -306.2648
   6   2.0000     -11.247840      -306.0693
   7   2.0000     -11.242078      -305.9125
   8   2.0000     -11.224097      -305.4232
   9   2.0000      -1.387101       -37.7449
  10   2.0000      -1.381340       -37.5882
  11   2.0000      -1.208157       -32.8756
  12   2.0000      -1.010735       -27.5035
  13   2.0000      -0.987101       -26.8604
  14   2.0000      -0.899398       -24.4739
  15   2.0000      -0.875850       -23.8331
  16   2.0000      -0.769805       -20.9474
  17   2.0000      -0.741380       -20.1740
  18   2.0000      -0.718617       -19.5546
  19   2.0000      -0.669842       -18.2273
  20   2.0000      -0.656166       -17.8552
  21   2.0000      -0.640343       -17.4246
  22   2.0000      -0.615505       -16.7487
  23   2.0000      -0.574938       -15.6449
  24   2.0000      -0.572197       -15.5703
  25   2.0000      -0.556392       -15.1402
  26   2.0000      -0.549043       -14.9402
  27   2.0000      -0.535626       -14.5751
  28   2.0000      -0.524874       -14.2826
  29   2.0000      -0.466151       -12.6846
  30   2.0000      -0.464976       -12.6526
  31   2.0000      -0.432283       -11.7630
  32   2.0000      -0.412849       -11.2342
  33   2.0000      -0.380831       -10.3629
  34   0.0000       0.121753         3.3131
  35   0.0000       0.128089         3.4855
  36   0.0000       0.146323         3.9817
  37   0.0000       0.161393         4.3917
  38   0.0000       0.166752         4.5375

MULLIKEN ATOMIC CHARGES
-----------------------
   0 C :   -0.407405
   1 C :    0.129355
   2 C :   -0.100906
   3 C :   -0.235869
   4 C :   -0.034168
   5 O :   -0.453660
   6 C :   -0.153683
   7 C :    0.076171
   8 O :   -0.271281
   9 H :    0.157356
  10 H :    0.132720
  11 H :    0.136669
  12 H :    0.142552
  13 H :    0.129851
  14 H :    0.117738
  15 H :    0.099102
  16 H :    0.319759
  17 H :    0.131906
  18 H :    0.083792
Sum of atomic charges:   -0.0000000

LOEWDIN ATOMIC CHARGES
----------------------
   0 C :   -0.264896
   1 C :   -0.180845
   2 C :   -0.133193
   3 C :   -0.204894
   4 C :   -0.279819
   5 O :   -0.005898
   6 C :   -0.159898
   7 C :   -0.285823
   8 O :    0.123681
   9 H :    0.135945
  10 H :    0.131371
  11 H :    0.132411
  12 H :    0.140220
  13 H :    0.125278
  14 H :    0.141700
  15 H :    0.124250
  16 H :    0.177989
  17 H :    0.167338
  18 H :    0.115084

  Mayer bond orders larger than 0.1
B(  0-C ,  1-C ) :   0.8944 B(  0-C ,  9-H ) :   0.9363 B(  0-C , 10-H ) :   0.9334
B(  0-C , 11-H ) :   0.9310 B(  1-C ,  2-C ) :   0.8101 B(  1-C ,  4-C ) :   0.8799
B(  1-C ,  6-C ) :   0.7831 B(  2-C ,  3-C ) :   0.8966 B(  2-C ,  6-C ) :   0.8124
B(  2-C , 12-H ) :   0.9034 B(  3-C ,  4-C ) :   0.9131 B(  3-C , 13-H ) :   0.9204
B(  3-C , 14-H ) :   0.9084 B(  4-C ,  5-O ) :   1.1133 B(  4-C , 15-H ) :   0.9760
B(  5-O , 16-H ) :   0.8412 B(  6-C ,  7-C ) :   0.9231 B(  6-C , 17-H ) :   0.9256
B(  7-C ,  8-O ) :   1.9787 B(  7-C , 18-H ) :   0.9521

MP2 TOTAL ENERGY:     -422.296795594 Eh
FINAL SINGLE POINT ENERGY      -422.296795593610

DIPOLE MOMENT
-------------
                                X             Y             Z
Electronic contribution:     -3.45952      -3.07805      -0.24248
Nuclear contribution   :      4.68325       3.04184       0.63282
                        -----------------------------------------
Total Dipole Moment    :      1.22373      -0.03621       0.39034
                        -----------------------------------------
Magnitude (a.u.)       :      1.28498
Magnitude (Debye)      :      3.26617

                             ****ORCA TERMINATED NORMALLY****
TOTAL RUN TIME: 0 days 0 hours 17 minutes 57 seconds 678 msec
