                         Program Version 3.0.3 - RELEASE   -
|  1> ! RI-MP2 RIJK def2-TZVP def2-TZVP/C def2-TZVP/JK TIGHTSCF
|  2> % maxcore 2000
|  3> % mp2 density relaxed end
|  4> *xyz 0 1
|  5>  N        0.0150860564     1.3162696401    -0.2633514061
|  6>  C        0.0324684786    -0.0557612263    -0.0379514286
|  7>  N       -1.1041480295    -0.6758777143     0.0216961657
|  8>  O       -1.1094533211    -2.0379745714     0.1393335941
|  9>  N        0.0410393122    -2.7823840521     0.3340132865
| 10>  C        1.1794767798    -2.1572037644     0.3435256236
| 11>  N        2.3263520437    -2.8471285183     0.6042154188
| 12>  C        1.3197499950    -0.7269681327     0.0684019325
| 13>  N        2.4934184195    -0.2206454498    -0.0622934012
| 14>  H        0.6212863838     1.8380561296     0.3581679087
| 15>  H       -0.9269274857     1.6880522863    -0.2526541493
| 16>  H        2.2865107638    -3.8503054686     0.5224558679
| 17>  H        3.1692217029    -2.3827175708     0.2992790037
| 18>  H        2.4468436207     0.7637869927    -0.3272552664
| 19> *
| 20>
| 21>                          ****END OF INPUT****

CARTESIAN COORDINATES (ANGSTROEM)
---------------------------------
  N      0.015086    1.316270   -0.263351
  C      0.032468   -0.055761   -0.037951
  N     -1.104148   -0.675878    0.021696
  O     -1.109453   -2.037975    0.139334
  N      0.041039   -2.782384    0.334013
  C      1.179477   -2.157204    0.343526
  N      2.326352   -2.847129    0.604215
  C      1.319750   -0.726968    0.068402
  N      2.493418   -0.220645   -0.062293
  H      0.621286    1.838056    0.358168
  H     -0.926927    1.688052   -0.252654
  H      2.286511   -3.850305    0.522456
  H      3.169222   -2.382718    0.299279
  H      2.446844    0.763787   -0.327255

 Total Charge           Charge          ....    0
 Multiplicity           Mult            ....    1
 Number of Electrons    NEL             ....   66
 Basis Dimension        Dim             ....  309

ORBITAL ENERGIES
----------------

  NO   OCC          E(Eh)            E(eV)
   0   2.0000     -20.652883      -561.9935
   1   2.0000     -15.646995      -425.7764
   2   2.0000     -15.629012      -425.2870
   3   2.0000     -15.597306      -424.4243
   4   2.0000     -15.592357      -424.2896
   5   2.0000     -15.581180      -423.9855
   6   2.0000     -11.341941      -308.6299
   7   2.0000     -11.337712      -308.5148
   8   2.0000     -11.332761      -308.3801
   9   2.0000      -1.497962       -40.7616
  10   2.0000      -1.297516       -35.3072
  11   2.0000      -1.288503       -35.0620
  12   2.0000      -1.217467       -33.1290
  13   2.0000      -1.175410       -31.9845
  14   2.0000      -1.107180       -30.1279
  15   2.0000      -0.940868       -25.6023
  16   2.0000      -0.888210       -24.1694
  17   2.0000      -0.805102       -21.9079
  18   2.0000      -0.749675       -20.3997
  19   2.0000      -0.715911       -19.4809
  20   2.0000      -0.692312       -18.8388
  21   2.0000      -0.688207       -18.7271
  22   2.0000      -0.667894       -18.1743
  23   2.0000      -0.627687       -17.0802
  24   2.0000      -0.609746       -16.5920
  25   2.0000      -0.561759       -15.2862
  26   2.0000      -0.548556       -14.9270
  27   2.0000      -0.519951       -14.1486
  28   2.0000      -0.499621       -13.5954
  29   2.0000      -0.462337       -12.5808
  30   2.0000      -0.433245       -11.7892
  31   2.0000      -0.402675       -10.9573
  32   2.0000      -0.339805        -9.2466
  33   0.0000       0.055142         1.5005
  34   0.0000       0.113507         3.0887
  35   0.0000       0.143503         3.9049
  36   0.0000       0.151923         4.1340
  37   0.0000       0.171262         4.6603

MULLIKEN ATOMIC CHARGES
-----------------------
   0 N :   -0.533265
   1 C :    0.223391
   2 N :   -0.084194
   3 O :   -0.068773
   4 N :   -0.100765
   5 C :    0.178817
   6 N :   -0.487055
   7 C :    0.000281
   8 N :   -0.408073
   9 H :    0.257989
  10 H :    0.261862
  11 H :    0.260857
  12 H :    0.285493
  13 H :    0.213436
Sum of atomic charges:    0.0000000

LOEWDIN ATOMIC CHARGES
----------------------
   0 N :   -0.062868
   1 C :   -0.356825
   2 N :    0.037186
   3 O :    0.150167
   4 N :    0.034600
   5 C :   -0.356605
   6 N :   -0.017562
   7 C :   -0.262980
   8 N :   -0.036142
   9 H :    0.172939
  10 H :    0.178241
  11 H :    0.175621
  12 H :    0.183533
  13 H :    0.160694

  Mayer bond orders larger than 0.1
B(  0-N ,  1-C ) :   1.0337 B(  0-N ,  9-H ) :   0.8607 B(  0-N , 10-H ) :   0.8659
B(  1-C ,  2-N ) :   1.6493 B(  1-C ,  7-C ) :   1.0070 B(  2-N ,  3-O ) :   0.8808
B(  3-O ,  4-N ) :   0.8451 B(  4-N ,  5-C ) :   1.6681 B(  5-C ,  6-N ) :   1.1699
B(  5-C ,  7-C ) :   1.0136 B(  6-N , 11-H ) :   0.8641 B(  6-N , 12-H ) :   0.8409
B(  7-C ,  8-N ) :   1.8142 B(  8-N , 13-H ) :   0.8662

MP2 TOTAL ENERGY:     -465.364281750 Eh
FINAL SINGLE POINT ENERGY      -465.364281750462

DIPOLE MOMENT
-------------
                                X             Y             Z
Electronic contribution:     -3.69764      -2.51991       0.09919
Nuclear contribution   :      4.40780       3.43758      -0.03518
                        -----------------------------------------
Total Dipole Moment    :      0.71016       0.91767       0.06401
                        -----------------------------------------
Magnitude (a.u.)       :      1.16213
Magnitude (Debye)      :      2.95390

                             ****ORCA TERMINATED NORMALLY****
TOTAL RUN TIME: 0 days 0 hours 15 minutes 37 seconds 274 msec
