                         Program Version 3.0.3 - RELEASE   -
|  1> ! RI-MP2 RIJK def2-TZVP def2-TZVP/C def2-TZVP/JK TIGHTSCF
|  2> % maxcore 2000
|  3> % mp2 density relaxed end
|  4> *xyz 0 1
|  5>  O       -0.0312298050     1.3384616201    -0.1015277522
|  6>  C       -0.0337276112    -0.0540143384    -0.0513986290
|  7>  C       -0.4234846850    -0.7062638688     1.2559230192
|  8>  O       -0.8058959868     0.1712876853     2.2871399635
|  9>  C       -1.3708768244    -0.7658723054     0.0859332435
| 10>  C       -2.6901454762     0.0052656044     0.0465123017
| 11>  O       -3.5598586234    -0.8944654001    -0.6884799636
| 12>  C       -2.8079285467    -1.9850520503    -0.9618465959
| 13>  N       -1.5975574140    -2.0297738542    -0.5775689348
| 14>  H       -0.2730046647     1.6409452946     0.7856229773
| 15>  H        0.7274314824    -0.5103548699    -0.6757992268
| 16>  H        0.0495968344    -1.6342827180     1.5663854234
| 17>  H       -0.0432756386     0.3069990592     2.8603715127
| 18>  H       -3.1278109567     0.1855770582     1.0319476024
| 19>  H       -2.6122622731     0.9499410355    -0.4986344209
| 20>  H       -3.3235157110    -2.7637093020    -1.5117132105
| 21> *
| 22>
| 23>                          ****END OF INPUT****

CARTESIAN COORDINATES (ANGSTROEM)
---------------------------------
  O     -0.031230    1.338462   -0.101528
  C     -0.033728   -0.054014   -0.051399
  C     -0.423485   -0.706264    1.255923
  O     -0.805896    0.171288    2.287140
  C     -1.370877   -0.765872    0.085933
  C     -2.690145    0.005266    0.046512
  O     -3.559859   -0.894465   -0.688480
  C     -2.807929   -1.985052   -0.961847
  N     -1.597557   -2.029774   -0.577569
  H     -0.273005    1.640945    0.785623
  H      0.727431   -0.510355   -0.675799
  H      0.049597   -1.634283    1.566385
  H     -0.043276    0.306999    2.860372
  H     -3.127811    0.185577    1.031948
  H     -2.612262    0.949941   -0.498634
  H     -3.323516   -2.763709   -1.511713

 Total Charge           Charge          ....    0
 Multiplicity           Mult            ....    1
 Number of Electrons    NEL             ....   68
 Basis Dimension        Dim             ....  321

ORBITAL ENERGIES
----------------

  NO   OCC          E(Eh)            E(eV)
   0   2.0000     -20.598215      -560.5059
   1   2.0000     -20.593471      -560.3768
   2   2.0000     -20.569014      -559.7113
   3   2.0000     -15.555633      -423.2903
   4   2.0000     -11.336419      -308.4797
   5   2.0000     -11.296328      -307.3887
   6   2.0000     -11.293022      -307.2988
   7   2.0000     -11.288398      -307.1729
   8   2.0000     -11.271906      -306.7241
   9   2.0000      -1.441459       -39.2241
  10   2.0000      -1.408138       -38.3174
  11   2.0000      -1.370986       -37.3064
  12   2.0000      -1.228663       -33.4336
  13   2.0000      -1.115535       -30.3553
  14   2.0000      -0.982583       -26.7374
  15   2.0000      -0.841865       -22.9083
  16   2.0000      -0.824110       -22.4252
  17   2.0000      -0.794377       -21.6161
  18   2.0000      -0.733123       -19.9493
  19   2.0000      -0.720932       -19.6176
  20   2.0000      -0.695802       -18.9337
  21   2.0000      -0.675969       -18.3940
  22   2.0000      -0.639860       -17.4115
  23   2.0000      -0.617345       -16.7988
  24   2.0000      -0.591394       -16.0927
  25   2.0000      -0.574154       -15.6235
  26   2.0000      -0.559410       -15.2223
  27   2.0000      -0.541714       -14.7408
  28   2.0000      -0.526974       -14.3397
  29   2.0000      -0.517443       -14.0803
  30   2.0000      -0.468478       -12.7479
  31   2.0000      -0.449628       -12.2350
  32   2.0000      -0.403917       -10.9911
  33   2.0000      -0.350655        -9.5418
  34   0.0000       0.118137         3.2147
  35   0.0000       0.159555         4.3417
  36   0.0000       0.164498         4.4762
  37   0.0000       0.172720         4.6999
  38   0.0000       0.185121         5.0374

MULLIKEN ATOMIC CHARGES
-----------------------
   0 O :   -0.469998
   1 C :    0.044416
   2 C :   -0.034063
   3 O :   -0.479792
   4 C :    0.106667
   5 C :   -0.078755
   6 O :   -0.268667
   7 C :    0.108742
   8 N :   -0.280375
   9 H :    0.331734
  10 H :    0.131965
  11 H :    0.125382
  12 H :    0.336385
  13 H :    0.137498
  14 H :    0.137510
  15 H :    0.151352
Sum of atomic charges:   -0.0000000

LOEWDIN ATOMIC CHARGES
----------------------
   0 O :    0.007461
   1 C :   -0.282034
   2 C :   -0.283301
   3 O :   -0.004598
   4 C :   -0.272658
   5 C :   -0.207684
   6 O :    0.217477
   7 C :   -0.337085
   8 N :    0.110165
   9 H :    0.180191
  10 H :    0.143320
  11 H :    0.138929
  12 H :    0.186568
  13 H :    0.133548
  14 H :    0.134824
  15 H :    0.134876

  Mayer bond orders larger than 0.1
B(  0-O ,  1-C ) :   0.9680 B(  0-O ,  9-H ) :   0.8172 B(  1-C ,  2-C ) :   0.9283
B(  1-C ,  4-C ) :   0.7987 B(  1-C , 10-H ) :   0.9297 B(  2-C ,  3-O ) :   1.0304
B(  2-C ,  4-C ) :   0.8057 B(  2-C , 11-H ) :   0.9217 B(  3-O , 12-H ) :   0.8331
B(  4-C ,  5-C ) :   0.9412 B(  4-C ,  8-N ) :   0.9566 B(  5-C ,  6-O ) :   0.8666
B(  5-C , 13-H ) :   0.9180 B(  5-C , 14-H ) :   0.9169 B(  6-O ,  7-C ) :   1.0827
B(  7-C ,  8-N ) :   1.7837 B(  7-C , 15-H ) :   0.9225

MP2 TOTAL ENERGY:     -474.253373155 Eh
FINAL SINGLE POINT ENERGY      -474.253373154953

DIPOLE MOMENT
-------------
                                X             Y             Z
Electronic contribution:     -1.25998      -1.40347      -1.28143
Nuclear contribution   :      1.56141       1.49083       2.12948
                        -----------------------------------------
Total Dipole Moment    :      0.30143       0.08736       0.84805
                        -----------------------------------------
Magnitude (a.u.)       :      0.90426
Magnitude (Debye)      :      2.29845

                             ****ORCA TERMINATED NORMALLY****
TOTAL RUN TIME: 0 days 0 hours 14 minutes 20 seconds 991 msec
