                         Program Version 3.0.3 - RELEASE   -
|  1> ! RI-MP2 RIJK def2-TZVP def2-TZVP/C def2-TZVP/JK TIGHTSCF
|  2> % maxcore 2000
|  3> % mp2 density relaxed end
|  4> *xyz 0 1
|  5>  C       -0.4849930376     1.3091646143     0.1254508788
|  6>  C        0.0820444090    -0.1161013896     0.0879034003
|  7>  C        0.8131226470    -0.3685043646    -1.2423239662
|  8>  C        0.9834231035    -0.4736045719     1.2814889868
|  9>  C        2.1197867353     0.4043464828     1.6697857538
| 10>  N        0.9373065667     0.2874225327     2.5405285729
| 11>  C        1.1462490248    -1.9583416755     1.4725217653
| 12>  C        1.1158323928    -2.5911578136     2.7944520344
| 13>  O       -0.0155395655    -2.6657222569     1.9199766025
| 14>  H        0.3041857982     2.0702404877     0.1308307387
| 15>  H       -1.0939151005     1.4879159161    -0.7660261940
| 16>  H       -1.1326001082     1.4744640217     0.9921841130
| 17>  H       -0.7697080180    -0.8061213606     0.1421493057
| 18>  H        1.6644147525     0.3117970821    -1.3569332666
| 19>  H        1.1919702184    -1.3918921430    -1.3147186861
| 20>  H        0.1394489528    -0.2080257230    -2.0901338083
| 21>  H        3.0303428578    -0.0315691164     2.0727736371
| 22>  H        2.2705839101     1.3289230655     1.1183072634
| 23>  H        0.3506839442     1.1094539276     2.4343791681
| 24>  H        1.6869915687    -2.4701170521     0.6746914657
| 25>  H        1.6446327723    -3.5310792469     2.9499178969
| 26>  H        0.9843077556    -1.9575421464     3.6666635479
| 27> *
| 28>
| 29>                          ****END OF INPUT****

CARTESIAN COORDINATES (ANGSTROEM)
---------------------------------
  C     -0.484993    1.309165    0.125451
  C      0.082044   -0.116101    0.087903
  C      0.813123   -0.368504   -1.242324
  C      0.983423   -0.473605    1.281489
  C      2.119787    0.404346    1.669786
  N      0.937307    0.287423    2.540529
  C      1.146249   -1.958342    1.472522
  C      1.115832   -2.591158    2.794452
  O     -0.015540   -2.665722    1.919977
  H      0.304186    2.070240    0.130831
  H     -1.093915    1.487916   -0.766026
  H     -1.132600    1.474464    0.992184
  H     -0.769708   -0.806121    0.142149
  H      1.664415    0.311797   -1.356933
  H      1.191970   -1.391892   -1.314719
  H      0.139449   -0.208026   -2.090134
  H      3.030343   -0.031569    2.072774
  H      2.270584    1.328923    1.118307
  H      0.350684    1.109454    2.434379
  H      1.686992   -2.470117    0.674691
  H      1.644633   -3.531079    2.949918
  H      0.984308   -1.957542    3.666664

 Total Charge           Charge          ....    0
 Multiplicity           Mult            ....    1
 Number of Electrons    NEL             ....   70
 Basis Dimension        Dim             ....  357

ORBITAL ENERGIES
----------------

  NO   OCC          E(Eh)            E(eV)
   0   2.0000     -20.559473      -559.4517
   1   2.0000     -15.558025      -423.3554
   2   2.0000     -11.281168      -306.9762
   3   2.0000     -11.272029      -306.7275
   4   2.0000     -11.269411      -306.6563
   5   2.0000     -11.257239      -306.3250
   6   2.0000     -11.238871      -305.8252
   7   2.0000     -11.224394      -305.4313
   8   2.0000     -11.220152      -305.3158
   9   2.0000      -1.402273       -38.1578
  10   2.0000      -1.266772       -34.4706
  11   2.0000      -1.075200       -29.2577
  12   2.0000      -0.964307       -26.2401
  13   2.0000      -0.933395       -25.3990
  14   2.0000      -0.898600       -24.4521
  15   2.0000      -0.877753       -23.8849
  16   2.0000      -0.820065       -22.3151
  17   2.0000      -0.756310       -20.5802
  18   2.0000      -0.699230       -19.0270
  19   2.0000      -0.676569       -18.4104
  20   2.0000      -0.662196       -18.0193
  21   2.0000      -0.611531       -16.6406
  22   2.0000      -0.585736       -15.9387
  23   2.0000      -0.568331       -15.4651
  24   2.0000      -0.560702       -15.2575
  25   2.0000      -0.552023       -15.0213
  26   2.0000      -0.541970       -14.7478
  27   2.0000      -0.502899       -13.6846
  28   2.0000      -0.501295       -13.6409
  29   2.0000      -0.486451       -13.2370
  30   2.0000      -0.471845       -12.8396
  31   2.0000      -0.462328       -12.5806
  32   2.0000      -0.437891       -11.9156
  33   2.0000      -0.425452       -11.5771
  34   2.0000      -0.386630       -10.5207
  35   0.0000       0.133330         3.6281
  36   0.0000       0.155239         4.2243
  37   0.0000       0.165838         4.5127
  38   0.0000       0.172017         4.6808
  39   0.0000       0.184710         5.0262

MULLIKEN ATOMIC CHARGES
-----------------------
   0 C :   -0.469280
   1 C :   -0.010034
   2 C :   -0.422217
   3 C :    0.138407
   4 C :   -0.227606
   5 N :   -0.356790
   6 C :   -0.006004
   7 C :   -0.077275
   8 O :   -0.345959
   9 H :    0.132156
  10 H :    0.144052
  11 H :    0.144903
  12 H :    0.114047
  13 H :    0.121713
  14 H :    0.135253
  15 H :    0.134315
  16 H :    0.126977
  17 H :    0.126577
  18 H :    0.218547
  19 H :    0.127328
  20 H :    0.106786
  21 H :    0.144104
Sum of atomic charges:    0.0000000

LOEWDIN ATOMIC CHARGES
----------------------
   0 C :   -0.297061
   1 C :   -0.263174
   2 C :   -0.284764
   3 C :   -0.277544
   4 C :   -0.237757
   5 N :    0.021748
   6 C :   -0.256793
   7 C :   -0.254899
   8 O :    0.143482
   9 H :    0.122502
  10 H :    0.129492
  11 H :    0.122763
  12 H :    0.164232
  13 H :    0.123256
  14 H :    0.123428
  15 H :    0.124025
  16 H :    0.127667
  17 H :    0.122321
  18 H :    0.163610
  19 H :    0.139675
  20 H :    0.116367
  21 H :    0.127424

  Mayer bond orders larger than 0.1
B(  0-C ,  1-C ) :   0.8820 B(  0-C ,  9-H ) :   0.9323 B(  0-C , 10-H ) :   0.9366
B(  0-C , 11-H ) :   0.9399 B(  1-C ,  2-C ) :   0.9126 B(  1-C ,  3-C ) :   0.8949
B(  1-C , 12-H ) :   0.9297 B(  2-C , 13-H ) :   0.9300 B(  2-C , 14-H ) :   0.9393
B(  2-C , 15-H ) :   0.9399 B(  3-C ,  4-C ) :   0.9056 B(  3-C ,  5-N ) :   0.8936
B(  3-C ,  6-C ) :   0.8986 B(  4-C ,  5-N ) :   0.9228 B(  4-C , 16-H ) :   0.9129
B(  4-C , 17-H ) :   0.9172 B(  5-N , 18-H ) :   0.8744 B(  6-C ,  7-C ) :   0.9907
B(  6-C ,  8-O ) :   0.8354 B(  6-C , 19-H ) :   0.9153 B(  7-C ,  8-O ) :   0.9330
B(  7-C , 20-H ) :   0.9175 B(  7-C , 21-H ) :   0.9003

MP2 TOTAL ENERGY:     -403.611629862 Eh
FINAL SINGLE POINT ENERGY      -403.611629861828

DIPOLE MOMENT
-------------
                                X             Y             Z
Electronic contribution:     -0.22299      -5.25990       5.65475
Nuclear contribution   :      0.74655       5.85035      -6.18545
                        -----------------------------------------
Total Dipole Moment    :      0.52356       0.59046      -0.53070
                        -----------------------------------------
Magnitude (a.u.)       :      0.95100
Magnitude (Debye)      :      2.41725

                             ****ORCA TERMINATED NORMALLY****
TOTAL RUN TIME: 0 days 0 hours 20 minutes 17 seconds 317 msec
