                         Program Version 3.0.3 - RELEASE   -
|  1> ! RI-MP2 RIJK def2-TZVP def2-TZVP/C def2-TZVP/JK TIGHTSCF
|  2> % maxcore 2000
|  3> % mp2 density relaxed end
|  4> *xyz 0 1
|  5>  C        0.0182476819     1.5012267213    -0.0451748218
|  6>  C        0.0172414514    -0.0149125985    -0.0196096043
|  7>  C        1.3417354506    -0.7371685724    -0.1979195166
|  8>  C        0.6848657040    -0.7139050333     1.1522727841
|  9>  C       -1.1901434021    -0.6511137049    -0.5960685825
| 10>  N       -1.3540579013    -1.9788402755    -0.6532196457
| 11>  N       -2.5416560973    -2.1204024957    -1.2285450767
| 12>  N       -3.1799883893    -1.0100844133    -1.5579068635
| 13>  C       -2.3353744462    -0.0550383567    -1.1632718670
| 14>  H        0.9398601973     1.8908906577     0.3959491804
| 15>  H       -0.0481742573     1.8851520910    -1.0695618938
| 16>  H       -0.8228189489     1.9125334086     0.5245836087
| 17>  H        1.3231427212    -1.6682799365    -0.7519542918
| 18>  H        2.2240144880    -0.1255675970    -0.3554840552
| 19>  H        1.1139251338    -0.0862890421     1.9264152497
| 20>  H        0.2249444871    -1.6294055671     1.5052620899
| 21>  H       -2.9361678402    -3.0299314201    -1.4049759189
| 22>  H       -2.5792739928     0.9856299147    -1.2995576651
| 23> *
| 24>
| 25>                          ****END OF INPUT****

CARTESIAN COORDINATES (ANGSTROEM)
---------------------------------
  C      0.018248    1.501227   -0.045175
  C      0.017241   -0.014913   -0.019610
  C      1.341735   -0.737169   -0.197920
  C      0.684866   -0.713905    1.152273
  C     -1.190143   -0.651114   -0.596069
  N     -1.354058   -1.978840   -0.653220
  N     -2.541656   -2.120402   -1.228545
  N     -3.179988   -1.010084   -1.557907
  C     -2.335374   -0.055038   -1.163272
  H      0.939860    1.890891    0.395949
  H     -0.048174    1.885152   -1.069562
  H     -0.822819    1.912533    0.524584
  H      1.323143   -1.668280   -0.751954
  H      2.224014   -0.125568   -0.355484
  H      1.113925   -0.086289    1.926415
  H      0.224944   -1.629406    1.505262
  H     -2.936168   -3.029931   -1.404976
  H     -2.579274    0.985630   -1.299558

 Total Charge           Charge          ....    0
 Multiplicity           Mult            ....    1
 Number of Electrons    NEL             ....   66
 Basis Dimension        Dim             ....  333

ORBITAL ENERGIES
----------------

  NO   OCC          E(Eh)            E(eV)
   0   2.0000     -15.674738      -426.5313
   1   2.0000     -15.614307      -424.8869
   2   2.0000     -15.604775      -424.6275
   3   2.0000     -11.266977      -306.5900
   4   2.0000     -11.256853      -306.3145
   5   2.0000     -11.249582      -306.1167
   6   2.0000     -11.227399      -305.5131
   7   2.0000     -11.226719      -305.4946
   8   2.0000     -11.225803      -305.4696
   9   2.0000      -1.442728       -39.2586
  10   2.0000      -1.196455       -32.5572
  11   2.0000      -1.157675       -31.5019
  12   2.0000      -1.092611       -29.7315
  13   2.0000      -0.976273       -26.5657
  14   2.0000      -0.872035       -23.7293
  15   2.0000      -0.845017       -22.9941
  16   2.0000      -0.825685       -22.4680
  17   2.0000      -0.757067       -20.6009
  18   2.0000      -0.730852       -19.8875
  19   2.0000      -0.657791       -17.8994
  20   2.0000      -0.647508       -17.6196
  21   2.0000      -0.627080       -17.0637
  22   2.0000      -0.616998       -16.7894
  23   2.0000      -0.576809       -15.6958
  24   2.0000      -0.549330       -14.9480
  25   2.0000      -0.518768       -14.1164
  26   2.0000      -0.516491       -14.0544
  27   2.0000      -0.503942       -13.7130
  28   2.0000      -0.470225       -12.7955
  29   2.0000      -0.441112       -12.0033
  30   2.0000      -0.422532       -11.4977
  31   2.0000      -0.390818       -10.6347
  32   2.0000      -0.342820        -9.3286
  33   0.0000       0.133085         3.6214
  34   0.0000       0.136257         3.7077
  35   0.0000       0.145515         3.9597
  36   0.0000       0.169549         4.6136
  37   0.0000       0.186799         5.0831

MULLIKEN ATOMIC CHARGES
-----------------------
   0 C :   -0.426505
   1 C :    0.111288
   2 C :   -0.275669
   3 C :   -0.275626
   4 C :    0.088115
   5 N :   -0.207540
   6 N :   -0.017127
   7 N :   -0.164210
   8 C :   -0.203668
   9 H :    0.134429
  10 H :    0.139631
  11 H :    0.139635
  12 H :    0.144398
  13 H :    0.129763
  14 H :    0.129763
  15 H :    0.144393
  16 H :    0.266126
  17 H :    0.142803
Sum of atomic charges:   -0.0000000

LOEWDIN ATOMIC CHARGES
----------------------
   0 C :   -0.258896
   1 C :   -0.243839
   2 C :   -0.196073
   3 C :   -0.196074
   4 C :   -0.244206
   5 N :    0.052186
   6 N :    0.063952
   7 N :    0.018504
   8 C :   -0.253976
   9 H :    0.130701
  10 H :    0.128872
  11 H :    0.128871
  12 H :    0.138619
  13 H :    0.132921
  14 H :    0.132926
  15 H :    0.138624
  16 H :    0.187763
  17 H :    0.139126

  Mayer bond orders larger than 0.1
B(  0-C ,  1-C ) :   0.9170 B(  0-C ,  9-H ) :   0.9280 B(  0-C , 10-H ) :   0.9394
B(  0-C , 11-H ) :   0.9395 B(  1-C ,  2-C ) :   0.8321 B(  1-C ,  3-C ) :   0.8321
B(  1-C ,  4-C ) :   0.9679 B(  2-C ,  3-C ) :   0.9110 B(  2-C , 12-H ) :   0.9228
B(  2-C , 13-H ) :   0.9279 B(  3-C , 14-H ) :   0.9279 B(  3-C , 15-H ) :   0.9228
B(  4-C ,  5-N ) :   1.4291 B(  4-C ,  8-C ) :   1.3341 B(  5-N ,  6-N ) :   1.1397
B(  6-N ,  7-N ) :   1.1572 B(  6-N , 16-H ) :   0.8765 B(  7-N ,  8-C ) :   1.5192
B(  8-C , 17-H ) :   0.9346

MP2 TOTAL ENERGY:     -397.439784278 Eh
FINAL SINGLE POINT ENERGY      -397.439784278287

DIPOLE MOMENT
-------------
                                X             Y             Z
Electronic contribution:     -7.27638      -5.51577      -3.44538
Nuclear contribution   :      7.48946       5.55856       3.54830
                        -----------------------------------------
Total Dipole Moment    :      0.21307       0.04279       0.10292
                        -----------------------------------------
Magnitude (a.u.)       :      0.24047
Magnitude (Debye)      :      0.61121

                             ****ORCA TERMINATED NORMALLY****
TOTAL RUN TIME: 0 days 0 hours 17 minutes 51 seconds 283 msec
