                         Program Version 3.0.3 - RELEASE   -
|  1> ! RI-MP2 RIJK def2-TZVP def2-TZVP/C def2-TZVP/JK TIGHTSCF
|  2> % maxcore 2000
|  3> % mp2 density relaxed end
|  4> *xyz 0 1
|  5>  C       -0.0245690156     1.4189121697     0.6020877201
|  6>  C       -0.1377415202    -0.0385868635     0.1990048328
|  7>  C       -1.2947007264    -0.5531314091    -0.5418255860
|  8>  O       -0.0573658627    -0.2868832156    -1.2115207435
|  9>  C        1.3334319349     1.9746608683     0.3086724411
| 10>  C        2.2485265374     2.7051216073     1.0313712418
| 11>  N        3.3344611495     2.9609320970     0.2484126956
| 12>  N        3.1473724721     2.4263473285    -0.9242764075
| 13>  N        1.9398116830     1.8338164156    -0.8974587362
| 14>  H       -0.7915360245     1.9939716105     0.0682451495
| 15>  H       -0.2336183914     1.5240853944     1.6714332454
| 16>  H        0.4459193390    -0.7372749647     0.7985892902
| 17>  H       -1.5626588563    -1.6052900755    -0.4690464786
| 18>  H       -2.1135728285     0.1204986410    -0.7895880565
| 19>  H        2.1876743486     3.0554594573     2.0493434350
| 20>  H        1.5977968511     1.3188521090    -1.6956126132
| 21> *
| 22>
| 23>                          ****END OF INPUT****

CARTESIAN COORDINATES (ANGSTROEM)
---------------------------------
  C     -0.024569    1.418912    0.602088
  C     -0.137742   -0.038587    0.199005
  C     -1.294701   -0.553131   -0.541826
  O     -0.057366   -0.286883   -1.211521
  C      1.333432    1.974661    0.308672
  C      2.248527    2.705122    1.031371
  N      3.334461    2.960932    0.248413
  N      3.147372    2.426347   -0.924276
  N      1.939812    1.833816   -0.897459
  H     -0.791536    1.993972    0.068245
  H     -0.233618    1.524085    1.671433
  H      0.445919   -0.737275    0.798589
  H     -1.562659   -1.605290   -0.469046
  H     -2.113573    0.120499   -0.789588
  H      2.187674    3.055459    2.049343
  H      1.597797    1.318852   -1.695613

 Total Charge           Charge          ....    0
 Multiplicity           Mult            ....    1
 Number of Electrons    NEL             ....   66
 Basis Dimension        Dim             ....  321

ORBITAL ENERGIES
----------------

  NO   OCC          E(Eh)            E(eV)
   0   2.0000     -20.593903      -560.3886
   1   2.0000     -15.645624      -425.7391
   2   2.0000     -15.632128      -425.3718
   3   2.0000     -15.589249      -424.2050
   4   2.0000     -11.315771      -307.9178
   5   2.0000     -11.308204      -307.7119
   6   2.0000     -11.287649      -307.1526
   7   2.0000     -11.271540      -306.7142
   8   2.0000     -11.248036      -306.0746
   9   2.0000      -1.437482       -39.1159
  10   2.0000      -1.427841       -38.8535
  11   2.0000      -1.196749       -32.5652
  12   2.0000      -1.105599       -30.0849
  13   2.0000      -1.025901       -27.9162
  14   2.0000      -0.938892       -25.5485
  15   2.0000      -0.867616       -23.6090
  16   2.0000      -0.841804       -22.9067
  17   2.0000      -0.821678       -22.3590
  18   2.0000      -0.741239       -20.1701
  19   2.0000      -0.708051       -19.2670
  20   2.0000      -0.679695       -18.4954
  21   2.0000      -0.635828       -17.3018
  22   2.0000      -0.627089       -17.0640
  23   2.0000      -0.604331       -16.4447
  24   2.0000      -0.597248       -16.2519
  25   2.0000      -0.554099       -15.0778
  26   2.0000      -0.548138       -14.9156
  27   2.0000      -0.507082       -13.7984
  28   2.0000      -0.477924       -13.0050
  29   2.0000      -0.466311       -12.6890
  30   2.0000      -0.432568       -11.7708
  31   2.0000      -0.409878       -11.1534
  32   2.0000      -0.348870        -9.4932
  33   0.0000       0.124373         3.3844
  34   0.0000       0.147413         4.0113
  35   0.0000       0.156545         4.2598
  36   0.0000       0.158460         4.3119
  37   0.0000       0.164475         4.4756

MULLIKEN ATOMIC CHARGES
-----------------------
   0 C :   -0.247406
   1 C :    0.054426
   2 C :   -0.082572
   3 O :   -0.359062
   4 C :    0.067424
   5 C :   -0.174288
   6 N :   -0.152993
   7 N :   -0.147606
   8 N :   -0.067621
   9 H :    0.146796
  10 H :    0.143962
  11 H :    0.144410
  12 H :    0.130243
  13 H :    0.124386
  14 H :    0.139625
  15 H :    0.280275
Sum of atomic charges:    0.0000000

LOEWDIN ATOMIC CHARGES
----------------------
   0 C :   -0.214148
   1 C :   -0.281965
   2 C :   -0.255288
   3 O :    0.128495
   4 C :   -0.256122
   5 C :   -0.260168
   6 N :   -0.001289
   7 N :   -0.049855
   8 N :    0.148341
   9 H :    0.157154
  10 H :    0.160786
  11 H :    0.142888
  12 H :    0.124137
  13 H :    0.122955
  14 H :    0.137292
  15 H :    0.196786

  Mayer bond orders larger than 0.1
B(  0-C ,  1-C ) :   0.9190 B(  0-C ,  4-C ) :   0.9056 B(  0-C ,  9-H ) :   0.9206
B(  0-C , 10-H ) :   0.9422 B(  1-C ,  2-C ) :   0.9822 B(  1-C ,  3-O ) :   0.8280
B(  1-C , 11-H ) :   0.9083 B(  2-C ,  3-O ) :   0.9091 B(  2-C , 12-H ) :   0.9274
B(  2-C , 13-H ) :   0.9063 B(  4-C ,  5-C ) :   1.4416 B(  4-C ,  7-N ) :   0.1262
B(  4-C ,  8-N ) :   1.1679 B(  5-C ,  6-N ) :   1.3814 B(  5-C , 14-H ) :   0.9455
B(  6-N ,  7-N ) :   1.2993 B(  7-N ,  8-N ) :   1.0366 B(  8-N , 15-H ) :   0.8449

MP2 TOTAL ENERGY:     -433.323083647 Eh
FINAL SINGLE POINT ENERGY      -433.323083647453

DIPOLE MOMENT
-------------
                                X             Y             Z
Electronic contribution:      5.67052       2.56860      -1.96441
Nuclear contribution   :     -7.88842      -3.52583       2.59025
                        -----------------------------------------
Total Dipole Moment    :     -2.21790      -0.95723       0.62584
                        -----------------------------------------
Magnitude (a.u.)       :      2.49541
Magnitude (Debye)      :      6.34283

                             ****ORCA TERMINATED NORMALLY****
TOTAL RUN TIME: 0 days 0 hours 14 minutes 7 seconds 206 msec
