                         Program Version 3.0.3 - RELEASE   -
|  1> ! RI-MP2 RIJK def2-TZVP def2-TZVP/C def2-TZVP/JK TIGHTSCF
|  2> % maxcore 2000
|  3> % mp2 density relaxed end
|  4> *xyz 0 1
|  5>  C        0.0118614342     1.5435864315     0.0025327602
|  6>  C        0.0026256323     0.0096976262     0.0074488083
|  7>  C       -1.4492974731    -0.5039737149     0.0027764418
|  8>  C        0.7887920999    -0.5771525693    -1.2047151449
|  9>  C        1.3384311046    -1.9426315857    -0.7392490779
| 10>  C        1.5298556945    -1.7843202832     0.7632720078
| 11>  O        1.5432185056    -2.9380420463     1.5514942846
| 12>  C        2.2521267138    -0.5497020372     1.2432173921
| 13>  C        0.7324386236    -0.5926993241     1.2109435308
| 14>  H        1.0332087971     1.9335623635     0.0601348523
| 15>  H       -0.4478515676     1.9366218571    -0.9116967497
| 16>  H       -0.5485237082     1.9459431033     0.8538083929
| 17>  H       -1.9965842642    -0.1201922902    -0.8653125006
| 18>  H       -1.4880367461    -1.5975210208    -0.0278226897
| 19>  H       -1.9830893183    -0.1798892868     0.9030720866
| 20>  H        0.1587118010    -0.6611476445    -2.0952301031
| 21>  H        1.6144491098     0.0915327028    -1.4698820658
| 22>  H        0.6084864338    -2.7433204021    -0.9026991408
| 23>  H        2.2558470032    -2.2267184638    -1.2684202334
| 24>  H        2.4092706190    -3.3497509876     1.4594296145
| 25>  H        2.7001064762    -0.6214175450     2.2284007951
| 26>  H        2.7989340755     0.0748453831     0.5433534764
| 27>  H        0.2203539232    -0.6160050260     2.1673946924
| 28> *
| 29>
| 30>                          ****END OF INPUT****

CARTESIAN COORDINATES (ANGSTROEM)
---------------------------------
  C      0.011861    1.543586    0.002533
  C      0.002626    0.009698    0.007449
  C     -1.449297   -0.503974    0.002776
  C      0.788792   -0.577153   -1.204715
  C      1.338431   -1.942632   -0.739249
  C      1.529856   -1.784320    0.763272
  O      1.543219   -2.938042    1.551494
  C      2.252127   -0.549702    1.243217
  C      0.732439   -0.592699    1.210944
  H      1.033209    1.933562    0.060135
  H     -0.447852    1.936622   -0.911697
  H     -0.548524    1.945943    0.853808
  H     -1.996584   -0.120192   -0.865313
  H     -1.488037   -1.597521   -0.027823
  H     -1.983089   -0.179889    0.903072
  H      0.158712   -0.661148   -2.095230
  H      1.614449    0.091533   -1.469882
  H      0.608486   -2.743320   -0.902699
  H      2.255847   -2.226718   -1.268420
  H      2.409271   -3.349751    1.459430
  H      2.700106   -0.621418    2.228401
  H      2.798934    0.074845    0.543353
  H      0.220354   -0.616005    2.167395

 Total Charge           Charge          ....    0
 Multiplicity           Mult            ....    1
 Number of Electrons    NEL             ....   70
 Basis Dimension        Dim             ....  363

ORBITAL ENERGIES
----------------

  NO   OCC          E(Eh)            E(eV)
   0   2.0000     -20.558564      -559.4270
   1   2.0000     -11.278057      -306.8915
   2   2.0000     -11.233736      -305.6855
   3   2.0000     -11.219901      -305.3090
   4   2.0000     -11.219673      -305.3028
   5   2.0000     -11.219248      -305.2913
   6   2.0000     -11.217988      -305.2570
   7   2.0000     -11.208675      -305.0036
   8   2.0000     -11.208423      -304.9967
   9   2.0000      -1.368749       -37.2456
  10   2.0000      -1.167183       -31.7607
  11   2.0000      -1.056397       -28.7460
  12   2.0000      -1.002510       -27.2797
  13   2.0000      -0.927665       -25.2431
  14   2.0000      -0.874244       -23.7894
  15   2.0000      -0.841102       -22.8876
  16   2.0000      -0.768657       -20.9162
  17   2.0000      -0.727102       -19.7854
  18   2.0000      -0.690802       -18.7977
  19   2.0000      -0.638194       -17.3661
  20   2.0000      -0.630804       -17.1651
  21   2.0000      -0.599653       -16.3174
  22   2.0000      -0.581757       -15.8304
  23   2.0000      -0.575299       -15.6547
  24   2.0000      -0.557872       -15.1805
  25   2.0000      -0.544723       -14.8227
  26   2.0000      -0.531361       -14.4591
  27   2.0000      -0.518907       -14.1202
  28   2.0000      -0.501088       -13.6353
  29   2.0000      -0.484200       -13.1758
  30   2.0000      -0.463401       -12.6098
  31   2.0000      -0.453419       -12.3381
  32   2.0000      -0.441190       -12.0054
  33   2.0000      -0.390787       -10.6339
  34   2.0000      -0.382727       -10.4145
  35   0.0000       0.134513         3.6603
  36   0.0000       0.144569         3.9339
  37   0.0000       0.164753         4.4832
  38   0.0000       0.174804         4.7567
  39   0.0000       0.181869         4.9489

MULLIKEN ATOMIC CHARGES
-----------------------
   0 C :   -0.400709
   1 C :    0.113858
   2 C :   -0.447036
   3 C :   -0.281475
   4 C :   -0.235000
   5 C :    0.169205
   6 O :   -0.453990
   7 C :   -0.330991
   8 C :   -0.101590
   9 H :    0.125148
  10 H :    0.129516
  11 H :    0.128208
  12 H :    0.129590
  13 H :    0.141398
  14 H :    0.129476
  15 H :    0.124069
  16 H :    0.124242
  17 H :    0.119579
  18 H :    0.111732
  19 H :    0.321535
  20 H :    0.134348
  21 H :    0.125412
  22 H :    0.123475
Sum of atomic charges:    0.0000000

LOEWDIN ATOMIC CHARGES
----------------------
   0 C :   -0.269441
   1 C :   -0.296603
   2 C :   -0.263938
   3 C :   -0.202886
   4 C :   -0.218190
   5 C :   -0.346360
   6 O :    0.021033
   7 C :   -0.193200
   8 C :   -0.141515
   9 H :    0.124150
  10 H :    0.124806
  11 H :    0.125462
  12 H :    0.124129
  13 H :    0.128996
  14 H :    0.125338
  15 H :    0.137958
  16 H :    0.138251
  17 H :    0.142988
  18 H :    0.133859
  19 H :    0.181363
  20 H :    0.138982
  21 H :    0.132782
  22 H :    0.152034

  Mayer bond orders larger than 0.1
B(  0-C ,  1-C ) :   0.9144 B(  0-C ,  9-H ) :   0.9313 B(  0-C , 10-H ) :   0.9376
B(  0-C , 11-H ) :   0.9384 B(  1-C ,  2-C ) :   0.8999 B(  1-C ,  3-C ) :   0.8869
B(  1-C ,  8-C ) :   0.9055 B(  2-C , 12-H ) :   0.9370 B(  2-C , 13-H ) :   0.9341
B(  2-C , 14-H ) :   0.9379 B(  3-C ,  4-C ) :   0.9208 B(  3-C , 15-H ) :   0.9227
B(  3-C , 16-H ) :   0.9319 B(  4-C ,  5-C ) :   0.9548 B(  4-C , 17-H ) :   0.9259
B(  4-C , 18-H ) :   0.9152 B(  5-C ,  6-O ) :   1.0506 B(  5-C ,  7-C ) :   0.9079
B(  5-C ,  8-C ) :   0.8624 B(  6-O , 19-H ) :   0.8403 B(  7-C ,  8-C ) :   0.8795
B(  7-C , 20-H ) :   0.9280 B(  7-C , 21-H ) :   0.9009 B(  8-C , 22-H ) :   0.9142

MP2 TOTAL ENERGY:     -387.631293843 Eh
FINAL SINGLE POINT ENERGY      -387.631293843194

DIPOLE MOMENT
-------------
                                X             Y             Z
Electronic contribution:      3.36029      -5.12387       3.29445
Nuclear contribution   :     -2.95462       5.24723      -3.61112
                        -----------------------------------------
Total Dipole Moment    :      0.40567       0.12336      -0.31666
                        -----------------------------------------
Magnitude (a.u.)       :      0.52921
Magnitude (Debye)      :      1.34514

                             ****ORCA TERMINATED NORMALLY****
TOTAL RUN TIME: 0 days 0 hours 21 minutes 47 seconds 781 msec
