                         Program Version 3.0.3 - RELEASE   -
|  1> ! RI-MP2 RIJK def2-TZVP def2-TZVP/C def2-TZVP/JK TIGHTSCF
|  2> % maxcore 2000
|  3> % mp2 density relaxed end
|  4> *xyz 0 1
|  5>  C       -0.1700051548     1.6233082863    -0.0264607627
|  6>  C       -0.0484160994     0.1067077719    -0.0044262794
|  7>  C        1.1790881777    -0.5808086695    -0.6552396622
|  8>  O        1.5139364088    -0.6761471512    -1.9914364600
|  9>  C        2.1472646964    -0.2720340005     0.5530642572
| 10>  C        2.5822602530    -1.7487572622     0.6551800479
| 11>  C        1.0894719030    -1.8290112902     0.2741320820
| 12>  C        0.7196919271    -0.5915049405     1.1468740695
| 13>  O        0.3742889585    -0.7027391626     2.4791525129
| 14>  H        0.7801497442     2.1117956696     0.2186624540
| 15>  H       -0.4836822942     1.9821640906    -1.0132863438
| 16>  H       -0.9188647295     1.9720967551     0.6936440664
| 17>  H       -1.0031629892    -0.3754020740    -0.2506743498
| 18>  H        1.7158828797     0.2065463275    -2.3200648481
| 19>  H        2.7359281470     0.6336519368     0.7085145612
| 20>  H        3.2949808451    -2.1005639499    -0.0950393520
| 21>  H        2.8498101631    -2.1109297996     1.6510790993
| 22>  H        0.4491978111    -2.6956931848     0.1057716505
| 23>  H        0.3919789324     0.1756108270     2.8742657373
| 24> *
| 25>
| 26>                          ****END OF INPUT****

CARTESIAN COORDINATES (ANGSTROEM)
---------------------------------
  C     -0.170005    1.623308   -0.026461
  C     -0.048416    0.106708   -0.004426
  C      1.179088   -0.580809   -0.655240
  O      1.513936   -0.676147   -1.991436
  C      2.147265   -0.272034    0.553064
  C      2.582260   -1.748757    0.655180
  C      1.089472   -1.829011    0.274132
  C      0.719692   -0.591505    1.146874
  O      0.374289   -0.702739    2.479153
  H      0.780150    2.111796    0.218662
  H     -0.483682    1.982164   -1.013286
  H     -0.918865    1.972097    0.693644
  H     -1.003163   -0.375402   -0.250674
  H      1.715883    0.206546   -2.320065
  H      2.735928    0.633652    0.708515
  H      3.294981   -2.100564   -0.095039
  H      2.849810   -2.110930    1.651079
  H      0.449198   -2.695693    0.105772
  H      0.391979    0.175611    2.874266

 Total Charge           Charge          ....    0
 Multiplicity           Mult            ....    1
 Number of Electrons    NEL             ....   68
 Basis Dimension        Dim             ....  339

ORBITAL ENERGIES
----------------

  NO   OCC          E(Eh)            E(eV)
   0   2.0000     -20.570309      -559.7466
   1   2.0000     -20.570307      -559.7465
   2   2.0000     -11.295364      -307.3625
   3   2.0000     -11.295301      -307.3608
   4   2.0000     -11.237186      -305.7794
   5   2.0000     -11.234093      -305.6952
   6   2.0000     -11.232324      -305.6471
   7   2.0000     -11.224215      -305.4264
   8   2.0000     -11.220454      -305.3241
   9   2.0000      -1.386725       -37.7347
  10   2.0000      -1.377662       -37.4881
  11   2.0000      -1.229627       -33.4598
  12   2.0000      -1.040323       -28.3086
  13   2.0000      -0.940422       -25.5902
  14   2.0000      -0.870836       -23.6967
  15   2.0000      -0.844036       -22.9674
  16   2.0000      -0.803970       -21.8771
  17   2.0000      -0.743292       -20.2260
  18   2.0000      -0.684843       -18.6355
  19   2.0000      -0.659454       -17.9447
  20   2.0000      -0.652704       -17.7610
  21   2.0000      -0.632173       -17.2023
  22   2.0000      -0.607628       -16.5344
  23   2.0000      -0.580550       -15.7976
  24   2.0000      -0.571490       -15.5510
  25   2.0000      -0.545844       -14.8532
  26   2.0000      -0.543406       -14.7868
  27   2.0000      -0.524451       -14.2710
  28   2.0000      -0.483227       -13.1493
  29   2.0000      -0.454202       -12.3595
  30   2.0000      -0.430723       -11.7206
  31   2.0000      -0.408847       -11.1253
  32   2.0000      -0.408635       -11.1195
  33   2.0000      -0.384620       -10.4660
  34   0.0000       0.117032         3.1846
  35   0.0000       0.147245         4.0067
  36   0.0000       0.168620         4.5884
  37   0.0000       0.169647         4.6163
  38   0.0000       0.178209         4.8493

MULLIKEN ATOMIC CHARGES
-----------------------
   0 C :   -0.463100
   1 C :    0.017359
   2 C :    0.072633
   3 O :   -0.446471
   4 C :   -0.132855
   5 C :   -0.243798
   6 C :   -0.083509
   7 C :    0.072629
   8 O :   -0.446473
   9 H :    0.131064
  10 H :    0.138654
  11 H :    0.138659
  12 H :    0.095068
  13 H :    0.327845
  14 H :    0.131632
  15 H :    0.118148
  16 H :    0.118145
  17 H :    0.126526
  18 H :    0.327845
Sum of atomic charges:   -0.0000000

LOEWDIN ATOMIC CHARGES
----------------------
   0 C :   -0.303718
   1 C :   -0.187036
   2 C :   -0.281816
   3 O :    0.034652
   4 C :   -0.129469
   5 C :   -0.200263
   6 C :   -0.100389
   7 C :   -0.281818
   8 O :    0.034649
   9 H :    0.124984
  10 H :    0.126071
  11 H :    0.126071
  12 H :    0.147631
  13 H :    0.186980
  14 H :    0.123213
  15 H :    0.130154
  16 H :    0.130154
  17 H :    0.132970
  18 H :    0.186979

  Mayer bond orders larger than 0.1
B(  0-C ,  1-C ) :   0.8628 B(  0-C ,  9-H ) :   0.9388 B(  0-C , 10-H ) :   0.9381
B(  0-C , 11-H ) :   0.9381 B(  1-C ,  2-C ) :   0.9237 B(  1-C ,  7-C ) :   0.9237
B(  1-C , 12-H ) :   0.9093 B(  2-C ,  3-O ) :   1.0811 B(  2-C ,  4-C ) :   0.8354
B(  2-C ,  6-C ) :   0.8696 B(  3-O , 13-H ) :   0.8345 B(  4-C ,  5-C ) :   0.9208
B(  4-C ,  7-C ) :   0.8355 B(  4-C , 14-H ) :   0.8784 B(  5-C ,  6-C ) :   0.9292
B(  5-C , 15-H ) :   0.9143 B(  5-C , 16-H ) :   0.9143 B(  6-C ,  7-C ) :   0.8696
B(  6-C , 17-H ) :   0.8898 B(  7-C ,  8-O ) :   1.0811 B(  8-O , 18-H ) :   0.8345

MP2 TOTAL ENERGY:     -422.254047917 Eh
FINAL SINGLE POINT ENERGY      -422.254047917137

DIPOLE MOMENT
-------------
                                X             Y             Z
Electronic contribution:      0.54743      -3.30771       0.11996
Nuclear contribution   :     -0.47774       4.40200      -0.09568
                        -----------------------------------------
Total Dipole Moment    :      0.06969       1.09429       0.02428
                        -----------------------------------------
Magnitude (a.u.)       :      1.09677
Magnitude (Debye)      :      2.78778

                             ****ORCA TERMINATED NORMALLY****
TOTAL RUN TIME: 0 days 0 hours 17 minutes 13 seconds 604 msec
