                         Program Version 3.0.3 - RELEASE   -
|  1> ! RI-MP2 RIJK def2-TZVP def2-TZVP/C def2-TZVP/JK TIGHTSCF
|  2> % maxcore 2000
|  3> % mp2 density relaxed end
|  4> *xyz 0 1
|  5>  O       -0.0156362546     0.1187113259    -0.7632884323
|  6>  C       -0.0442204089     1.2053869871    -0.2716961208
|  7>  C       -1.1605541293     2.1675894617     0.2264363925
|  8>  O       -1.3646590312     2.0267673167     1.6499291694
|  9>  C       -0.5034500183     3.1581515912     1.9371694435
| 10>  C       -0.0753736922     3.2699036184     0.4643673163
| 11>  C        1.0159821358     2.2632928497     0.0606652912
| 12>  C        2.4005187569     2.0907447239     0.5249092324
| 13>  O        2.1077257484     2.5556127576    -0.7909760920
| 14>  H       -2.0854037468     2.2668902664    -0.3460939568
| 15>  H       -1.0880812313     4.0096028543     2.3044176554
| 16>  H        0.2792003163     2.9124474668     2.6634988579
| 17>  H       -0.0566211374     4.2372282656    -0.0318703125
| 18>  H        2.8252555174     2.8311892860     1.2013461367
| 19>  H        2.8180149150     1.0874322686     0.5855341089
| 20> *
| 21>
| 22>                          ****END OF INPUT****

CARTESIAN COORDINATES (ANGSTROEM)
---------------------------------
  O     -0.015636    0.118711   -0.763288
  C     -0.044220    1.205387   -0.271696
  C     -1.160554    2.167589    0.226436
  O     -1.364659    2.026767    1.649929
  C     -0.503450    3.158152    1.937169
  C     -0.075374    3.269904    0.464367
  C      1.015982    2.263293    0.060665
  C      2.400519    2.090745    0.524909
  O      2.107726    2.555613   -0.790976
  H     -2.085404    2.266890   -0.346094
  H     -1.088081    4.009603    2.304418
  H      0.279200    2.912447    2.663499
  H     -0.056621    4.237228   -0.031870
  H      2.825256    2.831189    1.201346
  H      2.818015    1.087432    0.585534

 Total Charge           Charge          ....    0
 Multiplicity           Mult            ....    1
 Number of Electrons    NEL             ....   66
 Basis Dimension        Dim             ....  315

ORBITAL ENERGIES
----------------

  NO   OCC          E(Eh)            E(eV)
   0   2.0000     -20.600231      -560.5608
   1   2.0000     -20.580011      -560.0106
   2   2.0000     -20.577085      -559.9310
   3   2.0000     -11.348504      -308.8085
   4   2.0000     -11.319422      -308.0171
   5   2.0000     -11.314728      -307.8894
   6   2.0000     -11.310579      -307.7765
   7   2.0000     -11.307263      -307.6863
   8   2.0000     -11.267551      -306.6056
   9   2.0000      -1.447511       -39.3888
  10   2.0000      -1.418011       -38.5860
  11   2.0000      -1.403567       -38.1930
  12   2.0000      -1.121131       -30.5075
  13   2.0000      -0.986705       -26.8496
  14   2.0000      -0.941998       -25.6331
  15   2.0000      -0.879371       -23.9289
  16   2.0000      -0.828143       -22.5349
  17   2.0000      -0.745159       -20.2768
  18   2.0000      -0.721282       -19.6271
  19   2.0000      -0.710853       -19.3433
  20   2.0000      -0.684504       -18.6263
  21   2.0000      -0.655579       -17.8392
  22   2.0000      -0.635407       -17.2903
  23   2.0000      -0.615529       -16.7494
  24   2.0000      -0.595013       -16.1911
  25   2.0000      -0.559387       -15.2217
  26   2.0000      -0.546900       -14.8819
  27   2.0000      -0.518347       -14.1049
  28   2.0000      -0.491119       -13.3640
  29   2.0000      -0.483676       -13.1615
  30   2.0000      -0.454312       -12.3624
  31   2.0000      -0.446813       -12.1584
  32   2.0000      -0.403490       -10.9795
  33   0.0000       0.090627         2.4661
  34   0.0000       0.134492         3.6597
  35   0.0000       0.155684         4.2364
  36   0.0000       0.164042         4.4638
  37   0.0000       0.174228         4.7410

MULLIKEN ATOMIC CHARGES
-----------------------
   0 O :   -0.219117
   1 C :    0.115777
   2 C :    0.094466
   3 O :   -0.324089
   4 C :   -0.045863
   5 C :   -0.099194
   6 C :    0.082481
   7 C :   -0.065864
   8 O :   -0.311385
   9 H :    0.130640
  10 H :    0.112859
  11 H :    0.108679
  12 H :    0.153444
  13 H :    0.127776
  14 H :    0.139391
Sum of atomic charges:    0.0000000

LOEWDIN ATOMIC CHARGES
----------------------
   0 O :    0.198242
   1 C :   -0.253251
   2 C :   -0.189770
   3 O :    0.145338
   4 C :   -0.239454
   5 C :   -0.150825
   6 C :   -0.265912
   7 C :   -0.223703
   8 O :    0.197680
   9 H :    0.133595
  10 H :    0.123209
  11 H :    0.121344
  12 H :    0.147365
  13 H :    0.125926
  14 H :    0.130214

  Mayer bond orders larger than 0.1
B(  0-O ,  1-C ) :   2.0553 B(  1-C ,  2-C ) :   0.8311 B(  1-C ,  6-C ) :   0.8463
B(  2-C ,  3-O ) :   0.9239 B(  2-C ,  5-C ) :   0.9270 B(  2-C ,  9-H ) :   0.9206
B(  3-O ,  4-C ) :   0.9240 B(  4-C ,  5-C ) :   0.9588 B(  4-C , 10-H ) :   0.9219
B(  4-C , 11-H ) :   0.9073 B(  5-C ,  6-C ) :   0.8580 B(  5-C , 12-H ) :   0.9012
B(  6-C ,  7-C ) :   0.9189 B(  6-C ,  8-O ) :   0.8777 B(  7-C ,  8-O ) :   0.9019
B(  7-C , 13-H ) :   0.9204 B(  7-C , 14-H ) :   0.9053

MP2 TOTAL ENERGY:     -456.956172303 Eh
FINAL SINGLE POINT ENERGY      -456.956172303144

DIPOLE MOMENT
-------------
                                X             Y             Z
Electronic contribution:     -0.78025      -3.35024      -3.34423
Nuclear contribution   :      1.00868       4.52319       4.03636
                        -----------------------------------------
Total Dipole Moment    :      0.22843       1.17295       0.69214
                        -----------------------------------------
Magnitude (a.u.)       :      1.38095
Magnitude (Debye)      :      3.51011

                             ****ORCA TERMINATED NORMALLY****
TOTAL RUN TIME: 0 days 0 hours 17 minutes 6 seconds 596 msec
