                         Program Version 3.0.3 - RELEASE   -
|  1> ! RI-MP2 RIJK def2-TZVP def2-TZVP/C def2-TZVP/JK TIGHTSCF
|  2> % maxcore 2000
|  3> % mp2 density relaxed end
|  4> *xyz 0 1
|  5>  C       -0.0141045505     1.5219725975    -0.0187437268
|  6>  C       -0.0073478038     0.0318359337     0.0594927525
|  7>  N       -0.0437438850    -0.6728551276    -1.0581445253
|  8>  O       -0.0278415602    -2.0789701504    -0.6947784532
|  9>  C        0.0175683420    -2.0690247180     0.6174287495
| 10>  C        0.0339459360    -0.8405243457     1.1858606137
| 11>  N        0.0820474776    -0.9989571516     2.5703743517
| 12>  C        0.0910986714    -2.2805736804     2.7185401699
| 13>  O        0.0517446554    -3.0386853476     1.5387880201
| 14>  H        0.8848454957     1.9337671649     0.4504760523
| 15>  H       -0.0528290174     1.8446493712    -1.0604019131
| 16>  H       -0.8786095591     1.9291845604     0.5147620613
| 17>  H        0.1240855378    -2.8595739264     3.6271212772
| 18> *
| 19>
| 20>                          ****END OF INPUT****

CARTESIAN COORDINATES (ANGSTROEM)
---------------------------------
  C     -0.014105    1.521973   -0.018744
  C     -0.007348    0.031836    0.059493
  N     -0.043744   -0.672855   -1.058145
  O     -0.027842   -2.078970   -0.694778
  C      0.017568   -2.069025    0.617429
  C      0.033946   -0.840524    1.185861
  N      0.082047   -0.998957    2.570374
  C      0.091099   -2.280574    2.718540
  O      0.051745   -3.038685    1.538788
  H      0.884845    1.933767    0.450476
  H     -0.052829    1.844649   -1.060402
  H     -0.878610    1.929185    0.514762
  H      0.124086   -2.859574    3.627121

 Total Charge           Charge          ....    0
 Multiplicity           Mult            ....    1
 Number of Electrons    NEL             ....   64
 Basis Dimension        Dim             ....  303

ORBITAL ENERGIES
----------------

  NO   OCC          E(Eh)            E(eV)
   0   2.0000     -20.673752      -562.5614
   1   2.0000     -20.658306      -562.1411
   2   2.0000     -15.630275      -425.3214
   3   2.0000     -15.605143      -424.6375
   4   2.0000     -11.376647      -309.5743
   5   2.0000     -11.362921      -309.2008
   6   2.0000     -11.314968      -307.8959
   7   2.0000     -11.265936      -306.5617
   8   2.0000     -11.250725      -306.1478
   9   2.0000      -1.533530       -41.7295
  10   2.0000      -1.478831       -40.2410
  11   2.0000      -1.271992       -34.6127
  12   2.0000      -1.190299       -32.3897
  13   2.0000      -1.062986       -28.9253
  14   2.0000      -1.000621       -27.2283
  15   2.0000      -0.895887       -24.3783
  16   2.0000      -0.837272       -22.7833
  17   2.0000      -0.817089       -22.2341
  18   2.0000      -0.719257       -19.5720
  19   2.0000      -0.713495       -19.4152
  20   2.0000      -0.707796       -19.2601
  21   2.0000      -0.662279       -18.0215
  22   2.0000      -0.631421       -17.1818
  23   2.0000      -0.597260       -16.2523
  24   2.0000      -0.594013       -16.1639
  25   2.0000      -0.574458       -15.6318
  26   2.0000      -0.556870       -15.1532
  27   2.0000      -0.502234       -13.6665
  28   2.0000      -0.490587       -13.3496
  29   2.0000      -0.484136       -13.1740
  30   2.0000      -0.420107       -11.4317
  31   2.0000      -0.345305        -9.3962
  32   0.0000       0.116394         3.1672
  33   0.0000       0.134772         3.6673
  34   0.0000       0.140534         3.8241
  35   0.0000       0.163616         4.4522
  36   0.0000       0.167632         4.5615

MULLIKEN ATOMIC CHARGES
-----------------------
   0 C :   -0.417676
   1 C :    0.044409
   2 N :   -0.100406
   3 O :   -0.131475
   4 C :    0.274557
   5 C :    0.046304
   6 N :   -0.262795
   7 C :    0.111583
   8 O :   -0.204660
   9 H :    0.154050
  10 H :    0.162315
  11 H :    0.154078
  12 H :    0.169715
Sum of atomic charges:   -0.0000000

LOEWDIN ATOMIC CHARGES
----------------------
   0 C :   -0.257560
   1 C :   -0.265775
   2 N :    0.088427
   3 O :    0.288206
   4 C :   -0.392424
   5 C :   -0.228618
   6 N :    0.133346
   7 C :   -0.262142
   8 O :    0.339337
   9 H :    0.139949
  10 H :    0.140516
  11 H :    0.139945
  12 H :    0.136794

  Mayer bond orders larger than 0.1
B(  0-C ,  1-C ) :   0.8837 B(  0-C ,  9-H ) :   0.9258 B(  0-C , 10-H ) :   0.9446
B(  0-C , 11-H ) :   0.9259 B(  1-C ,  2-N ) :   1.6616 B(  1-C ,  5-C ) :   1.1174
B(  2-N ,  3-O ) :   0.8008 B(  3-O ,  4-C ) :   1.1815 B(  4-C ,  5-C ) :   1.3924
B(  4-C ,  8-O ) :   1.0834 B(  5-C ,  6-N ) :   1.1509 B(  6-N ,  7-C ) :   1.6841
B(  7-C ,  8-O ) :   0.9893 B(  7-C , 12-H ) :   0.9263

MP2 TOTAL ENERGY:     -451.987361263 Eh
FINAL SINGLE POINT ENERGY      -451.987361262853

DIPOLE MOMENT
-------------
                                X             Y             Z
Electronic contribution:      0.02602      -6.97875       0.21611
Nuclear contribution   :     -0.00169       7.05284       0.49029
                        -----------------------------------------
Total Dipole Moment    :      0.02433       0.07409       0.70640
                        -----------------------------------------
Magnitude (a.u.)       :      0.71069
Magnitude (Debye)      :      1.80642

                             ****ORCA TERMINATED NORMALLY****
TOTAL RUN TIME: 0 days 0 hours 14 minutes 24 seconds 379 msec
