                         Program Version 3.0.3 - RELEASE   -
|  1> ! RI-MP2 RIJK def2-TZVP def2-TZVP/C def2-TZVP/JK TIGHTSCF
|  2> % maxcore 2000
|  3> % mp2 density relaxed end
|  4> *xyz 0 1
|  5>  C        0.0930630798     1.6389513834     0.1738358594
|  6>  C        1.5605405790     1.5126961555    -0.3262703846
|  7>  C        1.2924850235     0.0363819316    -0.6842036907
|  8>  O        2.2989738103    -0.8313597369    -0.2260642574
|  9>  C        2.0160680335    -2.2025597209    -0.4217700253
| 10>  C        0.9841835551    -2.7841204009     0.5101472336
| 11>  C        0.1714563067    -2.1264478541     1.3373609278
| 12>  C        0.0625956903    -0.6235625573     1.4813850239
| 13>  C       -0.0414660726     0.0875558420     0.1292079162
| 14>  H       -0.0501406556     2.1071306415     1.1511633199
| 15>  H       -0.5603832236     2.1404200074    -0.5441986470
| 16>  H        1.8773955410     2.1712673344    -1.1375050858
| 17>  H        2.2908372606     1.5778858602     0.4837086768
| 18>  H        1.1150542179    -0.1234476999    -1.7592230296
| 19>  H        1.7209433585    -2.3885888097    -1.4715316384
| 20>  H        2.9675975406    -2.7297086602    -0.2743143744
| 21>  H        0.9392411308    -3.8724471725     0.4870841755
| 22>  H       -0.4938418899    -2.7173106991     1.9629692399
| 23>  H       -0.8201473117    -0.3776690944     2.0824563384
| 24>  H        0.9271665469    -0.2346152346     2.0342784139
| 25>  H       -0.9170564612    -0.2881214955    -0.4082600720
| 26> *
| 27>
| 28>                          ****END OF INPUT****

CARTESIAN COORDINATES (ANGSTROEM)
---------------------------------
  C      0.093063    1.638951    0.173836
  C      1.560541    1.512696   -0.326270
  C      1.292485    0.036382   -0.684204
  O      2.298974   -0.831360   -0.226064
  C      2.016068   -2.202560   -0.421770
  C      0.984184   -2.784120    0.510147
  C      0.171456   -2.126448    1.337361
  C      0.062596   -0.623563    1.481385
  C     -0.041466    0.087556    0.129208
  H     -0.050141    2.107131    1.151163
  H     -0.560383    2.140420   -0.544199
  H      1.877396    2.171267   -1.137505
  H      2.290837    1.577886    0.483709
  H      1.115054   -0.123448   -1.759223
  H      1.720943   -2.388589   -1.471532
  H      2.967598   -2.729709   -0.274314
  H      0.939241   -3.872447    0.487084
  H     -0.493842   -2.717311    1.962969
  H     -0.820147   -0.377669    2.082456
  H      0.927167   -0.234615    2.034278
  H     -0.917056   -0.288121   -0.408260

 Total Charge           Charge          ....    0
 Multiplicity           Mult            ....    1
 Number of Electrons    NEL             ....   68
 Basis Dimension        Dim             ....  351

ORBITAL ENERGIES
----------------

  NO   OCC          E(Eh)            E(eV)
   0   2.0000     -20.551826      -559.2436
   1   2.0000     -11.278426      -306.9016
   2   2.0000     -11.272157      -306.7310
   3   2.0000     -11.225763      -305.4685
   4   2.0000     -11.223830      -305.4160
   5   2.0000     -11.223377      -305.4036
   6   2.0000     -11.222653      -305.3839
   7   2.0000     -11.218874      -305.2811
   8   2.0000     -11.215524      -305.1899
   9   2.0000      -1.376670       -37.4611
  10   2.0000      -1.126535       -30.6546
  11   2.0000      -1.076215       -29.2853
  12   2.0000      -0.978953       -26.6387
  13   2.0000      -0.929592       -25.2955
  14   2.0000      -0.872119       -23.7316
  15   2.0000      -0.843528       -22.9536
  16   2.0000      -0.743735       -20.2381
  17   2.0000      -0.731316       -19.9001
  18   2.0000      -0.675404       -18.3787
  19   2.0000      -0.664692       -18.0872
  20   2.0000      -0.640840       -17.4381
  21   2.0000      -0.613695       -16.6995
  22   2.0000      -0.590750       -16.0751
  23   2.0000      -0.572170       -15.5695
  24   2.0000      -0.552326       -15.0296
  25   2.0000      -0.526630       -14.3303
  26   2.0000      -0.523159       -14.2359
  27   2.0000      -0.498677       -13.5697
  28   2.0000      -0.477301       -12.9880
  29   2.0000      -0.467059       -12.7093
  30   2.0000      -0.444154       -12.0860
  31   2.0000      -0.423458       -11.5229
  32   2.0000      -0.397042       -10.8041
  33   2.0000      -0.346232        -9.4215
  34   0.0000       0.137612         3.7446
  35   0.0000       0.153080         4.1655
  36   0.0000       0.160779         4.3750
  37   0.0000       0.163471         4.4483
  38   0.0000       0.172774         4.7014

MULLIKEN ATOMIC CHARGES
-----------------------
   0 C :   -0.239076
   1 C :   -0.244914
   2 C :    0.018110
   3 O :   -0.299383
   4 C :    0.003212
   5 C :   -0.206284
   6 C :   -0.173380
   7 C :   -0.243239
   8 C :    0.010309
   9 H :    0.111666
  10 H :    0.120345
  11 H :    0.119005
  12 H :    0.124786
  13 H :    0.077064
  14 H :    0.097522
  15 H :    0.133934
  16 H :    0.116059
  17 H :    0.119319
  18 H :    0.126688
  19 H :    0.127843
  20 H :    0.100412
Sum of atomic charges:   -0.0000000

LOEWDIN ATOMIC CHARGES
----------------------
   0 C :   -0.221331
   1 C :   -0.217542
   2 C :   -0.286820
   3 O :    0.187652
   4 C :   -0.308254
   5 C :   -0.185077
   6 C :   -0.171604
   7 C :   -0.234532
   8 C :   -0.209032
   9 H :    0.127326
  10 H :    0.131277
  11 H :    0.125552
  12 H :    0.140332
  13 H :    0.130299
  14 H :    0.127415
  15 H :    0.137749
  16 H :    0.146040
  17 H :    0.143338
  18 H :    0.142948
  19 H :    0.152329
  20 H :    0.141933

  Mayer bond orders larger than 0.1
B(  0-C ,  1-C ) :   0.9445 B(  0-C ,  8-C ) :   0.8948 B(  0-C ,  9-H ) :   0.9229
B(  0-C , 10-H ) :   0.9246 B(  1-C ,  2-C ) :   0.9184 B(  1-C , 11-H ) :   0.9269
B(  1-C , 12-H ) :   0.9219 B(  2-C ,  3-O ) :   1.0254 B(  2-C ,  8-C ) :   0.9123
B(  2-C , 13-H ) :   0.9404 B(  3-O ,  4-C ) :   0.9299 B(  4-C ,  5-C ) :   0.9201
B(  4-C , 14-H ) :   0.9309 B(  4-C , 15-H ) :   0.9253 B(  5-C ,  6-C ) :   1.8317
B(  5-C , 16-H ) :   0.9177 B(  6-C ,  7-C ) :   0.9355 B(  6-C , 17-H ) :   0.9307
B(  7-C ,  8-C ) :   0.9105 B(  7-C , 18-H ) :   0.9362 B(  7-C , 19-H ) :   0.9044
B(  8-C , 20-H ) :   0.9218

MP2 TOTAL ENERGY:     -386.397815030 Eh
FINAL SINGLE POINT ENERGY      -386.397815030243

DIPOLE MOMENT
-------------
                                X             Y             Z
Electronic contribution:      2.00128      -2.14093      -0.30096
Nuclear contribution   :     -2.38102       2.04996       0.13358
                        -----------------------------------------
Total Dipole Moment    :     -0.37974      -0.09097      -0.16739
                        -----------------------------------------
Magnitude (a.u.)       :      0.42484
Magnitude (Debye)      :      1.07987

                             ****ORCA TERMINATED NORMALLY****
TOTAL RUN TIME: 0 days 0 hours 19 minutes 31 seconds 115 msec
