                         Program Version 3.0.3 - RELEASE   -
|  1> ! RI-MP2 RIJK def2-TZVP def2-TZVP/C def2-TZVP/JK TIGHTSCF
|  2> % maxcore 2000
|  3> % mp2 density relaxed end
|  4> *xyz 0 1
|  5>  C        0.0617715658     1.4876581627     0.0230836239
|  6>  C        0.0062634791    -0.0012064045    -0.0557598640
|  7>  C       -0.1035175274    -0.7675250860    -1.1502910146
|  8>  C       -0.0870183747    -2.2038060737    -0.7990722086
|  9>  O       -0.2467932629    -3.1418230810    -1.5450723825
| 10>  C        0.1791612328    -2.2856419855     0.7102900149
| 11>  C        0.0686905999    -0.8431722495     1.2169910636
| 12>  O        1.1894883014    -0.5266118017     2.0374120020
| 13>  H        0.9931861174     1.8043040144     0.5076178378
| 14>  H        0.0110305158     1.9539889596    -0.9629954934
| 15>  H       -0.7629640454     1.8791051358     0.6332000369
| 16>  H       -0.1944895300    -0.4233807164    -2.1737865384
| 17>  H       -0.5010985012    -2.9896405324     1.1938259122
| 18>  H        1.2006731508    -2.6433046651     0.8745901397
| 19>  H       -0.8629306794    -0.6989784713     1.7874028366
| 20>  H        0.9888407280     0.2719171146     2.5348569738
| 21> *
| 22>
| 23>                          ****END OF INPUT****

CARTESIAN COORDINATES (ANGSTROEM)
---------------------------------
  C      0.061772    1.487658    0.023084
  C      0.006263   -0.001206   -0.055760
  C     -0.103518   -0.767525   -1.150291
  C     -0.087018   -2.203806   -0.799072
  O     -0.246793   -3.141823   -1.545072
  C      0.179161   -2.285642    0.710290
  C      0.068691   -0.843172    1.216991
  O      1.189488   -0.526612    2.037412
  H      0.993186    1.804304    0.507618
  H      0.011031    1.953989   -0.962995
  H     -0.762964    1.879105    0.633200
  H     -0.194490   -0.423381   -2.173787
  H     -0.501099   -2.989641    1.193826
  H      1.200673   -2.643305    0.874590
  H     -0.862931   -0.698978    1.787403
  H      0.988841    0.271917    2.534857

 Total Charge           Charge          ....    0
 Multiplicity           Mult            ....    1
 Number of Electrons    NEL             ....   60
 Basis Dimension        Dim             ....  296

ORBITAL ENERGIES
----------------

  NO   OCC          E(Eh)            E(eV)
   0   2.0000     -20.577289      -559.9365
   1   2.0000     -20.533970      -558.7577
   2   2.0000     -11.325494      -308.1824
   3   2.0000     -11.307972      -307.7056
   4   2.0000     -11.273509      -306.7678
   5   2.0000     -11.249916      -306.1258
   6   2.0000     -11.237557      -305.7895
   7   2.0000     -11.235627      -305.7370
   8   2.0000      -1.383728       -37.6532
   9   2.0000      -1.376593       -37.4590
  10   2.0000      -1.150754       -31.3136
  11   2.0000      -1.032266       -28.0894
  12   2.0000      -0.970808       -26.4170
  13   2.0000      -0.898267       -24.4431
  14   2.0000      -0.770779       -20.9740
  15   2.0000      -0.753857       -20.5135
  16   2.0000      -0.719645       -19.5825
  17   2.0000      -0.664488       -18.0816
  18   2.0000      -0.636686       -17.3251
  19   2.0000      -0.604567       -16.4511
  20   2.0000      -0.593478       -16.1494
  21   2.0000      -0.588633       -16.0175
  22   2.0000      -0.572157       -15.5692
  23   2.0000      -0.561798       -15.2873
  24   2.0000      -0.560453       -15.2507
  25   2.0000      -0.515525       -14.0282
  26   2.0000      -0.498243       -13.5579
  27   2.0000      -0.459193       -12.4953
  28   2.0000      -0.403717       -10.9857
  29   2.0000      -0.379161       -10.3175
  30   0.0000       0.095268         2.5924
  31   0.0000       0.115381         3.1397
  32   0.0000       0.155884         4.2418
  33   0.0000       0.163488         4.4487
  34   0.0000       0.176795         4.8108

MULLIKEN ATOMIC CHARGES
-----------------------
   0 C :   -0.459319
   1 C :    0.074947
   2 C :   -0.231957
   3 C :    0.179001
   4 O :   -0.286691
   5 C :   -0.202193
   6 C :    0.074885
   7 O :   -0.461170
   8 H :    0.156974
   9 H :    0.151331
  10 H :    0.148514
  11 H :    0.145946
  12 H :    0.136509
  13 H :    0.145584
  14 H :    0.106612
  15 H :    0.321030
Sum of atomic charges:   -0.0000000

LOEWDIN ATOMIC CHARGES
----------------------
   0 C :   -0.271828
   1 C :   -0.138965
   2 C :   -0.096418
   3 C :   -0.320446
   4 O :    0.138596
   5 C :   -0.186231
   6 C :   -0.292620
   7 O :   -0.015307
   8 H :    0.137934
   9 H :    0.135518
  10 H :    0.136457
  11 H :    0.147408
  12 H :    0.147305
  13 H :    0.162759
  14 H :    0.141588
  15 H :    0.174250

  Mayer bond orders larger than 0.1
B(  0-C ,  1-C ) :   0.8553 B(  0-C ,  8-H ) :   0.9361 B(  0-C ,  9-H ) :   0.9440
B(  0-C , 10-H ) :   0.9244 B(  1-C ,  2-C ) :   1.6033 B(  1-C ,  6-C ) :   0.8861
B(  2-C ,  3-C ) :   0.9911 B(  2-C , 11-H ) :   0.9171 B(  3-C ,  4-O ) :   2.0091
B(  3-C ,  5-C ) :   0.9174 B(  5-C ,  6-C ) :   0.9058 B(  5-C , 12-H ) :   0.9151
B(  5-C , 13-H ) :   0.8939 B(  6-C ,  7-O ) :   1.0161 B(  6-C , 14-H ) :   0.9405
B(  7-O , 15-H ) :   0.8448

MP2 TOTAL ENERGY:     -383.138387192 Eh
FINAL SINGLE POINT ENERGY      -383.138387191722

DIPOLE MOMENT
-------------
                                X             Y             Z
Electronic contribution:      0.03054      -5.29142      -2.50144
Nuclear contribution   :     -0.34152       6.87730       3.34748
                        -----------------------------------------
Total Dipole Moment    :     -0.31097       1.58588       0.84604
                        -----------------------------------------
Magnitude (a.u.)       :      1.82415
Magnitude (Debye)      :      4.63661

                             ****ORCA TERMINATED NORMALLY****
TOTAL RUN TIME: 0 days 0 hours 12 minutes 5 seconds 775 msec
