                         Program Version 3.0.3 - RELEASE   -
|  1> ! RI-MP2 RIJK def2-TZVP def2-TZVP/C def2-TZVP/JK TIGHTSCF
|  2> % maxcore 2000
|  3> % mp2 density relaxed end
|  4> *xyz 0 1
|  5>  C       -0.1113965290     1.5655324512     0.0586652486
|  6>  C        0.0329145367     0.0611431905    -0.0290450441
|  7>  C        0.6752286538    -0.6770034037    -1.1873423994
|  8>  C        1.6301051022     0.1250160652    -2.0547809915
|  9>  O        2.6678877785     0.6315392410    -1.1806599661
| 10>  C        2.5962033174     0.0473611125     0.0397877999
| 11>  O        3.4654094399     0.1145073424     0.8658592673
| 12>  C        1.3168693684    -0.7169706799     0.1778862893
| 13>  O        1.3679990071    -1.8193828091     1.0114079964
| 14>  H        0.7618291320     2.0921355924    -0.3351717183
| 15>  H       -0.9882722930     1.9033617852    -0.5045624146
| 16>  H       -0.2443546475     1.8781619294     1.0991803504
| 17>  H       -0.8016519012    -0.4954627052     0.3918017699
| 18>  H        0.1825959329    -1.5415332798    -1.6145211200
| 19>  H        2.1093960961    -0.4969732009    -2.8171295028
| 20>  H        1.1658715931     0.9868036651    -2.5427780992
| 21>  H        2.1012283726    -1.6521529065     1.6207834441
| 22> *
| 23>
| 24>                          ****END OF INPUT****

CARTESIAN COORDINATES (ANGSTROEM)
---------------------------------
  C     -0.111397    1.565532    0.058665
  C      0.032915    0.061143   -0.029045
  C      0.675229   -0.677003   -1.187342
  C      1.630105    0.125016   -2.054781
  O      2.667888    0.631539   -1.180660
  C      2.596203    0.047361    0.039788
  O      3.465409    0.114507    0.865859
  C      1.316869   -0.716971    0.177886
  O      1.367999   -1.819383    1.011408
  H      0.761829    2.092136   -0.335172
  H     -0.988272    1.903362   -0.504562
  H     -0.244355    1.878162    1.099180
  H     -0.801652   -0.495463    0.391802
  H      0.182596   -1.541533   -1.614521
  H      2.109396   -0.496973   -2.817130
  H      1.165872    0.986804   -2.542778
  H      2.101228   -1.652153    1.620783

 Total Charge           Charge          ....    0
 Multiplicity           Mult            ....    1
 Number of Electrons    NEL             ....   68
 Basis Dimension        Dim             ....  327

ORBITAL ENERGIES
----------------

  NO   OCC          E(Eh)            E(eV)
   0   2.0000     -20.612330      -560.8900
   1   2.0000     -20.581225      -560.0436
   2   2.0000     -20.553670      -559.2938
   3   2.0000     -11.388374      -309.8934
   4   2.0000     -11.316194      -307.9293
   5   2.0000     -11.313460      -307.8549
   6   2.0000     -11.262398      -306.4654
   7   2.0000     -11.261542      -306.4421
   8   2.0000     -11.235792      -305.7415
   9   2.0000      -1.471554       -40.0430
  10   2.0000      -1.396842       -38.0100
  11   2.0000      -1.376307       -37.4512
  12   2.0000      -1.177916       -32.0527
  13   2.0000      -1.007040       -27.4029
  14   2.0000      -0.985650       -26.8209
  15   2.0000      -0.887274       -24.1440
  16   2.0000      -0.822224       -22.3739
  17   2.0000      -0.767225       -20.8773
  18   2.0000      -0.733717       -19.9655
  19   2.0000      -0.700774       -19.0690
  20   2.0000      -0.684703       -18.6317
  21   2.0000      -0.652065       -17.7436
  22   2.0000      -0.634942       -17.2777
  23   2.0000      -0.611107       -16.6291
  24   2.0000      -0.588820       -16.0226
  25   2.0000      -0.578801       -15.7500
  26   2.0000      -0.571174       -15.5424
  27   2.0000      -0.560485       -15.2516
  28   2.0000      -0.541739       -14.7415
  29   2.0000      -0.510270       -13.8852
  30   2.0000      -0.481825       -13.1111
  31   2.0000      -0.464869       -12.6497
  32   2.0000      -0.422954       -11.5092
  33   2.0000      -0.401800       -10.9335
  34   0.0000       0.129400         3.5211
  35   0.0000       0.145927         3.9709
  36   0.0000       0.157473         4.2851
  37   0.0000       0.166318         4.5258
  38   0.0000       0.178735         4.8636

MULLIKEN ATOMIC CHARGES
-----------------------
   0 C :   -0.418246
   1 C :   -0.125035
   2 C :   -0.161764
   3 C :   -0.062377
   4 O :   -0.233087
   5 C :    0.252608
   6 O :   -0.306444
   7 C :    0.160181
   8 O :   -0.450257
   9 H :    0.152660
  10 H :    0.138007
  11 H :    0.147054
  12 H :    0.135122
  13 H :    0.156988
  14 H :    0.136424
  15 H :    0.133843
  16 H :    0.344323
Sum of atomic charges:    0.0000000

LOEWDIN ATOMIC CHARGES
----------------------
   0 C :   -0.287624
   1 C :   -0.182300
   2 C :   -0.161515
   3 C :   -0.233398
   4 O :    0.262051
   5 C :   -0.446498
   6 O :    0.135831
   7 C :   -0.308149
   8 O :    0.042857
   9 H :    0.132200
  10 H :    0.128696
  11 H :    0.132471
  12 H :    0.164744
  13 H :    0.154716
  14 H :    0.134767
  15 H :    0.133143
  16 H :    0.198008

  Mayer bond orders larger than 0.1
B(  0-C ,  1-C ) :   0.8792 B(  0-C ,  9-H ) :   0.9299 B(  0-C , 10-H ) :   0.9304
B(  0-C , 11-H ) :   0.9359 B(  1-C ,  2-C ) :   0.8666 B(  1-C ,  7-C ) :   0.8494
B(  1-C , 12-H ) :   0.9237 B(  2-C ,  3-C ) :   0.9403 B(  2-C ,  7-C ) :   0.8400
B(  2-C , 13-H ) :   0.8953 B(  3-C ,  4-O ) :   0.8654 B(  3-C , 14-H ) :   0.9253
B(  3-C , 15-H ) :   0.9206 B(  4-O ,  5-C ) :   1.1155 B(  5-C ,  6-O ) :   1.9658
B(  5-C ,  7-C ) :   0.9484 B(  7-C ,  8-O ) :   1.0911 B(  8-O , 16-H ) :   0.8087

MP2 TOTAL ENERGY:     -458.257765566 Eh
FINAL SINGLE POINT ENERGY      -458.257765565745

DIPOLE MOMENT
-------------
                                X             Y             Z
Electronic contribution:      6.42094      -3.04101       1.88183
Nuclear contribution   :     -7.53918       3.05946      -2.65923
                        -----------------------------------------
Total Dipole Moment    :     -1.11824       0.01845      -0.77740
                        -----------------------------------------
Magnitude (a.u.)       :      1.36204
Magnitude (Debye)      :      3.46204

                             ****ORCA TERMINATED NORMALLY****
TOTAL RUN TIME: 0 days 0 hours 18 minutes 29 seconds 363 msec
