                         Program Version 3.0.3 - RELEASE   -
|  1> ! RI-MP2 RIJK def2-TZVP def2-TZVP/C def2-TZVP/JK TIGHTSCF
|  2> % maxcore 2000
|  3> % mp2 density relaxed end
|  4> *xyz 0 1
|  5>  C        0.0257032230     1.4690928713    -0.0986253986
|  6>  C        0.0109443655    -0.0469585039    -0.0126166070
|  7>  O        0.6730975836    -0.5626475405    -1.1604223297
|  8>  C        0.7305109770    -1.9318619740    -1.2232710306
|  9>  C       -0.4531763391    -2.9574973618    -1.3067366017
| 10>  C        0.8564339285    -3.7714953268    -1.4122949352
| 11>  O        0.8679662908    -5.1429977815    -1.5593479252
| 12>  C        1.3987728381    -2.6834416916    -2.3960084463
| 13>  C        1.4367380478    -2.9223384331    -0.2366995596
| 14>  H        1.0533560127     1.8421413052    -0.1279241872
| 15>  H       -0.4870733053     1.8070132340    -1.0035675325
| 16>  H       -0.4778846830     1.9040763243     0.7698164601
| 17>  H        0.5206925566    -0.3908379281     0.9001639333
| 18>  H       -1.0218998564    -0.4249725717     0.0255892311
| 19>  H       -1.0469092624    -3.1145284118    -0.4028296669
| 20>  H       -1.0732938397    -2.9145813761    -2.2055370258
| 21>  H        1.7841416752    -5.4370874275    -1.6014081563
| 22>  H        0.9035755842    -2.6107554676    -3.3673776997
| 23>  H        2.4851190903    -2.5852163268    -2.4776667503
| 24>  H        2.5261611075    -2.8467706166    -0.1712617437
| 25>  H        0.9746372952    -3.0734085952     0.7421133316
| 26> *
| 27>
| 28>                          ****END OF INPUT****

CARTESIAN COORDINATES (ANGSTROEM)
---------------------------------
  C      0.025703    1.469093   -0.098625
  C      0.010944   -0.046959   -0.012617
  O      0.673098   -0.562648   -1.160422
  C      0.730511   -1.931862   -1.223271
  C     -0.453176   -2.957497   -1.306737
  C      0.856434   -3.771495   -1.412295
  O      0.867966   -5.142998   -1.559348
  C      1.398773   -2.683442   -2.396008
  C      1.436738   -2.922338   -0.236700
  H      1.053356    1.842141   -0.127924
  H     -0.487073    1.807013   -1.003568
  H     -0.477885    1.904076    0.769816
  H      0.520693   -0.390838    0.900164
  H     -1.021900   -0.424973    0.025589
  H     -1.046909   -3.114528   -0.402830
  H     -1.073294   -2.914581   -2.205537
  H      1.784142   -5.437087   -1.601408
  H      0.903576   -2.610755   -3.367378
  H      2.485119   -2.585216   -2.477667
  H      2.526161   -2.846771   -0.171262
  H      0.974637   -3.073409    0.742113

 Total Charge           Charge          ....    0
 Multiplicity           Mult            ....    1
 Number of Electrons    NEL             ....   70
 Basis Dimension        Dim             ....  351

ORBITAL ENERGIES
----------------

  NO   OCC          E(Eh)            E(eV)
   0   2.0000     -20.567517      -559.6706
   1   2.0000     -20.561535      -559.5078
   2   2.0000     -11.300789      -307.5101
   3   2.0000     -11.299223      -307.4675
   4   2.0000     -11.277935      -306.8882
   5   2.0000     -11.227590      -305.5183
   6   2.0000     -11.225569      -305.4633
   7   2.0000     -11.225507      -305.4616
   8   2.0000     -11.216350      -305.2124
   9   2.0000      -1.390246       -37.8305
  10   2.0000      -1.378834       -37.5200
  11   2.0000      -1.200111       -32.6567
  12   2.0000      -1.020594       -27.7718
  13   2.0000      -0.918096       -24.9827
  14   2.0000      -0.916951       -24.9515
  15   2.0000      -0.855227       -23.2719
  16   2.0000      -0.813667       -22.1410
  17   2.0000      -0.741481       -20.1767
  18   2.0000      -0.722659       -19.6645
  19   2.0000      -0.660051       -17.9609
  20   2.0000      -0.640917       -17.4402
  21   2.0000      -0.627994       -17.0886
  22   2.0000      -0.615148       -16.7390
  23   2.0000      -0.603575       -16.4241
  24   2.0000      -0.564181       -15.3521
  25   2.0000      -0.552938       -15.0462
  26   2.0000      -0.543448       -14.7880
  27   2.0000      -0.522008       -14.2046
  28   2.0000      -0.506405       -13.7800
  29   2.0000      -0.486108       -13.2277
  30   2.0000      -0.480595       -13.0777
  31   2.0000      -0.448881       -12.2147
  32   2.0000      -0.442037       -12.0284
  33   2.0000      -0.409069       -11.1313
  34   2.0000      -0.392434       -10.6787
  35   0.0000       0.131436         3.5765
  36   0.0000       0.144691         3.9373
  37   0.0000       0.164177         4.4675
  38   0.0000       0.178393         4.8543
  39   0.0000       0.179962         4.8970

MULLIKEN ATOMIC CHARGES
-----------------------
   0 C :   -0.362934
   1 C :   -0.044161
   2 O :   -0.286940
   3 C :    0.028044
   4 C :   -0.194214
   5 C :    0.082751
   6 O :   -0.448758
   7 C :   -0.150987
   8 C :   -0.213205
   9 H :    0.130746
  10 H :    0.131480
  11 H :    0.123666
  12 H :    0.100095
  13 H :    0.101497
  14 H :    0.114200
  15 H :    0.113846
  16 H :    0.325047
  17 H :    0.112238
  18 H :    0.109631
  19 H :    0.112120
  20 H :    0.115837
Sum of atomic charges:   -0.0000000

LOEWDIN ATOMIC CHARGES
----------------------
   0 C :   -0.315980
   1 C :   -0.329652
   2 O :    0.217978
   3 C :   -0.329657
   4 C :   -0.163484
   5 C :   -0.346654
   6 O :    0.028355
   7 C :   -0.163188
   8 C :   -0.179247
   9 H :    0.124457
  10 H :    0.124705
  11 H :    0.124862
  12 H :    0.119755
  13 H :    0.120244
  14 H :    0.130408
  15 H :    0.132277
  16 H :    0.186286
  17 H :    0.132345
  18 H :    0.129287
  19 H :    0.127816
  20 H :    0.129088

  Mayer bond orders larger than 0.1
B(  0-C ,  1-C ) :   0.9546 B(  0-C ,  9-H ) :   0.9363 B(  0-C , 10-H ) :   0.9363
B(  0-C , 11-H ) :   0.9326 B(  1-C ,  2-O ) :   0.8736 B(  1-C , 12-H ) :   0.9198
B(  1-C , 13-H ) :   0.9204 B(  2-O ,  3-C ) :   1.0175 B(  3-C ,  4-C ) :   0.8894
B(  3-C ,  7-C ) :   0.9046 B(  3-C ,  8-C ) :   0.8972 B(  4-C ,  5-C ) :   0.9153
B(  4-C , 14-H ) :   0.9157 B(  4-C , 15-H ) :   0.9213 B(  5-C ,  6-O ) :   1.0147
B(  5-C ,  7-C ) :   0.8924 B(  5-C ,  8-C ) :   0.8938 B(  6-O , 16-H ) :   0.8358
B(  7-C , 17-H ) :   0.9196 B(  7-C , 18-H ) :   0.9221 B(  8-C , 19-H ) :   0.9192
B(  8-C , 20-H ) :   0.9162

MP2 TOTAL ENERGY:     -423.473446171 Eh
FINAL SINGLE POINT ENERGY      -423.473446170552

DIPOLE MOMENT
-------------
                                X             Y             Z
Electronic contribution:      1.46943      -6.24769      -2.89758
Nuclear contribution   :     -1.17007       6.38390       3.28789
                        -----------------------------------------
Total Dipole Moment    :      0.29937       0.13620       0.39031
                        -----------------------------------------
Magnitude (a.u.)       :      0.51040
Magnitude (Debye)      :      1.29734

                             ****ORCA TERMINATED NORMALLY****
TOTAL RUN TIME: 0 days 0 hours 17 minutes 32 seconds 511 msec
