                         Program Version 3.0.3 - RELEASE   -
|  1> ! RI-MP2 RIJK def2-TZVP def2-TZVP/C def2-TZVP/JK TIGHTSCF
|  2> % maxcore 2000
|  3> % mp2 density relaxed end
|  4> *xyz 0 1
|  5>  N        0.0144997476     1.3637905855    -0.0169948299
|  6>  C       -0.0951938058     0.0030531200    -0.0202461150
|  7>  C       -1.1895361275    -0.7933609753    -0.0562998043
|  8>  C       -0.7890061011    -2.1862572265    -0.0095878899
|  9>  C        0.7266701548    -2.2610121435    -0.0921617258
| 10>  C        1.1881767688    -0.8005822733     0.1090442124
| 11>  O        2.2096477576    -0.3423132030    -0.7712756512
| 12>  N       -1.4901213448    -3.2548563579     0.0744021943
| 13>  O       -2.8711916873    -2.9442940369     0.1368023299
| 14>  H        0.9116471715     1.7162369694    -0.3182907700
| 15>  H       -0.7775639280     1.9073434454    -0.3216319144
| 16>  H       -2.2205295866    -0.4734309918    -0.0958085174
| 17>  H        1.1523188652    -2.9526186114     0.6372505475
| 18>  H        1.0407165020    -2.6078333296    -1.0845344721
| 19>  H        1.6133069539    -0.6499376103     1.1083020211
| 20>  H        1.9263216939    -0.5392564282    -1.6720841297
| 21>  H       -3.2654688943    -3.8193013227     0.2034850344
| 22> *
| 23>
| 24>                          ****END OF INPUT****

CARTESIAN COORDINATES (ANGSTROEM)
---------------------------------
  N      0.014500    1.363791   -0.016995
  C     -0.095194    0.003053   -0.020246
  C     -1.189536   -0.793361   -0.056300
  C     -0.789006   -2.186257   -0.009588
  C      0.726670   -2.261012   -0.092162
  C      1.188177   -0.800582    0.109044
  O      2.209648   -0.342313   -0.771276
  N     -1.490121   -3.254856    0.074402
  O     -2.871192   -2.944294    0.136802
  H      0.911647    1.716237   -0.318291
  H     -0.777564    1.907343   -0.321632
  H     -2.220530   -0.473431   -0.095809
  H      1.152319   -2.952619    0.637251
  H      1.040717   -2.607833   -1.084534
  H      1.613307   -0.649938    1.108302
  H      1.926322   -0.539256   -1.672084
  H     -3.265469   -3.819301    0.203485

 Total Charge           Charge          ....    0
 Multiplicity           Mult            ....    1
 Number of Electrons    NEL             ....   68
 Basis Dimension        Dim             ....  327

ORBITAL ENERGIES
----------------

  NO   OCC          E(Eh)            E(eV)
   0   2.0000     -20.578817      -559.9781
   1   2.0000     -20.570983      -559.7649
   2   2.0000     -15.587714      -424.1633
   3   2.0000     -15.586073      -424.1186
   4   2.0000     -11.304763      -307.6182
   5   2.0000     -11.297980      -307.4337
   6   2.0000     -11.272654      -306.7445
   7   2.0000     -11.240189      -305.8611
   8   2.0000     -11.219153      -305.2887
   9   2.0000      -1.392945       -37.9040
  10   2.0000      -1.385048       -37.6891
  11   2.0000      -1.244922       -33.8760
  12   2.0000      -1.165405       -31.7123
  13   2.0000      -1.074603       -29.2414
  14   2.0000      -0.979260       -26.6470
  15   2.0000      -0.904344       -24.6085
  16   2.0000      -0.794798       -21.6276
  17   2.0000      -0.756188       -20.5769
  18   2.0000      -0.715117       -19.4593
  19   2.0000      -0.700942       -19.0736
  20   2.0000      -0.668989       -18.2041
  21   2.0000      -0.658143       -17.9090
  22   2.0000      -0.635965       -17.3055
  23   2.0000      -0.610830       -16.6215
  24   2.0000      -0.582425       -15.8486
  25   2.0000      -0.579386       -15.7659
  26   2.0000      -0.547251       -14.8915
  27   2.0000      -0.533443       -14.5157
  28   2.0000      -0.518585       -14.1114
  29   2.0000      -0.499636       -13.5958
  30   2.0000      -0.462382       -12.5821
  31   2.0000      -0.419181       -11.4065
  32   2.0000      -0.407140       -11.0788
  33   2.0000      -0.307743        -8.3741
  34   0.0000       0.115935         3.1547
  35   0.0000       0.128347         3.4925
  36   0.0000       0.153770         4.1843
  37   0.0000       0.162391         4.4189
  38   0.0000       0.166470         4.5299

MULLIKEN ATOMIC CHARGES
-----------------------
   0 N :   -0.497528
   1 C :    0.130608
   2 C :   -0.313234
   3 C :    0.046390
   4 C :   -0.207613
   5 C :    0.121483
   6 O :   -0.473434
   7 N :   -0.109674
   8 O :   -0.377966
   9 H :    0.269013
  10 H :    0.255691
  11 H :    0.140833
  12 H :    0.136654
  13 H :    0.117067
  14 H :    0.115971
  15 H :    0.315283
  16 H :    0.330455
Sum of atomic charges:   -0.0000000

LOEWDIN ATOMIC CHARGES
----------------------
   0 N :   -0.027712
   1 C :   -0.243565
   2 C :   -0.139954
   3 C :   -0.298373
   4 C :   -0.180833
   5 C :   -0.283128
   6 O :   -0.024451
   7 N :    0.004023
   8 O :   -0.091803
   9 H :    0.177689
  10 H :    0.172603
  11 H :    0.145957
  12 H :    0.146173
  13 H :    0.148123
  14 H :    0.153867
  15 H :    0.176282
  16 H :    0.165102

  Mayer bond orders larger than 0.1
B(  0-N ,  1-C ) :   1.1102 B(  0-N ,  9-H ) :   0.8563 B(  0-N , 10-H ) :   0.8749
B(  1-C ,  2-C ) :   1.5027 B(  1-C ,  5-C ) :   0.9363 B(  2-C ,  3-C ) :   1.0716
B(  2-C , 11-H ) :   0.9278 B(  3-C ,  4-C ) :   0.9267 B(  3-C ,  7-N ) :   1.8483
B(  4-C ,  5-C ) :   0.9896 B(  4-C , 12-H ) :   0.9224 B(  4-C , 13-H ) :   0.9017
B(  5-C ,  6-O ) :   0.8682 B(  5-C , 14-H ) :   0.8957 B(  6-O , 15-H ) :   0.8376
B(  7-N ,  8-O ) :   0.7823 B(  8-O , 16-H ) :   0.8482

MP2 TOTAL ENERGY:     -454.387265882 Eh
FINAL SINGLE POINT ENERGY      -454.387265882329

DIPOLE MOMENT
-------------
                                X             Y             Z
Electronic contribution:     -2.23152      -1.54192       0.24471
Nuclear contribution   :      2.26967       2.34911      -0.76590
                        -----------------------------------------
Total Dipole Moment    :      0.03815       0.80719      -0.52119
                        -----------------------------------------
Magnitude (a.u.)       :      0.96159
Magnitude (Debye)      :      2.44416

                             ****ORCA TERMINATED NORMALLY****
TOTAL RUN TIME: 0 days 0 hours 15 minutes 32 seconds 905 msec
