                         Program Version 3.0.3 - RELEASE   -
|  1> ! RI-MP2 RIJK def2-TZVP def2-TZVP/C def2-TZVP/JK TIGHTSCF
|  2> % maxcore 2000
|  3> % mp2 density relaxed end
|  4> *xyz 0 1
|  5>  O        0.0402616785     1.3378322749    -0.5703995103
|  6>  C        0.1559505711    -0.0259589889    -0.2160621458
|  7>  C       -1.2053902386    -0.5296664364     0.2654725673
|  8>  N       -2.2265014046    -0.3078792535    -0.8061754185
|  9>  C       -2.3442838136    -1.7772231444    -1.0353884743
| 10>  C       -1.4386456805    -2.0764659673     0.2065312275
| 11>  O       -0.2547073083    -2.8118032700    -0.0361274461
| 12>  C       -2.1727118354    -2.6087603101     1.3465100084
| 13>  C       -2.7726534820    -3.0767603663     2.2781230117
| 14>  H       -0.7167804107     1.3672206866    -1.1729965596
| 15>  H        0.5065372621    -0.6375582030    -1.0589555698
| 16>  H        0.9004247554    -0.1004687606     0.5816743225
| 17>  H       -1.4555012754    -0.0631847446     1.2219251261
| 18>  H       -3.0857676040     0.0689594608    -0.4229089105
| 19>  H       -3.3596509404    -2.1792463986    -1.0012544777
| 20>  H       -1.8588502613    -2.0871447741    -1.9659991451
| 21>  H       -0.3969266936    -3.7188989094     0.2521818400
| 22>  H       -3.2997741289    -3.4812779951     3.1071036542
| 23> *
| 24>
| 25>                          ****END OF INPUT****

CARTESIAN COORDINATES (ANGSTROEM)
---------------------------------
  O      0.040262    1.337832   -0.570400
  C      0.155951   -0.025959   -0.216062
  C     -1.205390   -0.529666    0.265473
  N     -2.226501   -0.307879   -0.806175
  C     -2.344284   -1.777223   -1.035388
  C     -1.438646   -2.076466    0.206531
  O     -0.254707   -2.811803   -0.036127
  C     -2.172712   -2.608760    1.346510
  C     -2.772653   -3.076760    2.278123
  H     -0.716780    1.367221   -1.172997
  H      0.506537   -0.637558   -1.058956
  H      0.900425   -0.100469    0.581674
  H     -1.455501   -0.063185    1.221925
  H     -3.085768    0.068959   -0.422909
  H     -3.359651   -2.179246   -1.001254
  H     -1.858850   -2.087145   -1.965999
  H     -0.396927   -3.718899    0.252182
  H     -3.299774   -3.481278    3.107104

 Total Charge           Charge          ....    0
 Multiplicity           Mult            ....    1
 Number of Electrons    NEL             ....   68
 Basis Dimension        Dim             ....  333

ORBITAL ENERGIES
----------------

  NO   OCC          E(Eh)            E(eV)
   0   2.0000     -20.578235      -559.9622
   1   2.0000     -20.540833      -558.9445
   2   2.0000     -15.558615      -423.3714
   3   2.0000     -11.326461      -308.2087
   4   2.0000     -11.268600      -306.6342
   5   2.0000     -11.268393      -306.6286
   6   2.0000     -11.265267      -306.5435
   7   2.0000     -11.252029      -306.1833
   8   2.0000     -11.247107      -306.0493
   9   2.0000      -1.390884       -37.8479
  10   2.0000      -1.349885       -36.7322
  11   2.0000      -1.241504       -33.7830
  12   2.0000      -1.063405       -28.9367
  13   2.0000      -0.990233       -26.9456
  14   2.0000      -0.966826       -26.3087
  15   2.0000      -0.879203       -23.9243
  16   2.0000      -0.800127       -21.7726
  17   2.0000      -0.757738       -20.6191
  18   2.0000      -0.719497       -19.5785
  19   2.0000      -0.697467       -18.9790
  20   2.0000      -0.678367       -18.4593
  21   2.0000      -0.645728       -17.5712
  22   2.0000      -0.618878       -16.8405
  23   2.0000      -0.588734       -16.0203
  24   2.0000      -0.576522       -15.6879
  25   2.0000      -0.559618       -15.2280
  26   2.0000      -0.530782       -14.4433
  27   2.0000      -0.514750       -14.0071
  28   2.0000      -0.496751       -13.5173
  29   2.0000      -0.454824       -12.3764
  30   2.0000      -0.443728       -12.0744
  31   2.0000      -0.421208       -11.4617
  32   2.0000      -0.393343       -10.7034
  33   2.0000      -0.387795       -10.5524
  34   0.0000       0.125549         3.4163
  35   0.0000       0.136662         3.7188
  36   0.0000       0.152226         4.1423
  37   0.0000       0.159373         4.3368
  38   0.0000       0.166550         4.5321

MULLIKEN ATOMIC CHARGES
-----------------------
   0 O :   -0.481608
   1 C :   -0.003740
   2 C :   -0.081576
   3 N :   -0.383082
   4 C :   -0.155607
   5 C :    0.189508
   6 O :   -0.453356
   7 C :   -0.167930
   8 C :   -0.123029
   9 H :    0.324898
  10 H :    0.111865
  11 H :    0.108959
  12 H :    0.126247
  13 H :    0.218951
  14 H :    0.132106
  15 H :    0.110297
  16 H :    0.327323
  17 H :    0.199772
Sum of atomic charges:    0.0000000

LOEWDIN ATOMIC CHARGES
----------------------
   0 O :   -0.046975
   1 C :   -0.326876
   2 C :   -0.230107
   3 N :   -0.021927
   4 C :   -0.212612
   5 C :   -0.336900
   6 O :    0.029463
   7 C :   -0.082115
   8 C :   -0.077169
   9 H :    0.173632
  10 H :    0.122907
  11 H :    0.130254
  12 H :    0.143434
  13 H :    0.164050
  14 H :    0.125187
  15 H :    0.131072
  16 H :    0.184344
  17 H :    0.130338

  Mayer bond orders larger than 0.1
B(  0-O ,  1-C ) :   0.9182 B(  0-O ,  9-H ) :   0.8223 B(  1-C ,  2-C ) :   0.9359
B(  1-C , 10-H ) :   0.9042 B(  1-C , 11-H ) :   0.9304 B(  2-C ,  3-N ) :   0.9611
B(  2-C ,  5-C ) :   0.8284 B(  2-C , 12-H ) :   0.9205 B(  3-N ,  4-C ) :   0.9472
B(  3-N , 13-H ) :   0.8764 B(  4-C ,  5-C ) :   0.8854 B(  4-C , 14-H ) :   0.9180
B(  4-C , 15-H ) :   0.9033 B(  5-C ,  6-O ) :   1.0429 B(  5-C ,  7-C ) :   1.1511
B(  6-O , 16-H ) :   0.8327 B(  7-C ,  8-C ) :   2.5643 B(  8-C , 17-H ) :   0.8847

MP2 TOTAL ENERGY:     -438.295109470 Eh
FINAL SINGLE POINT ENERGY      -438.295109470324

DIPOLE MOMENT
-------------
                                X             Y             Z
Electronic contribution:     -0.10374      -1.59582       1.73386
Nuclear contribution   :     -0.99417       0.48846      -1.29214
                        -----------------------------------------
Total Dipole Moment    :     -1.09790      -1.10737       0.44172
                        -----------------------------------------
Magnitude (a.u.)       :      1.62073
Magnitude (Debye)      :      4.11957

                             ****ORCA TERMINATED NORMALLY****
TOTAL RUN TIME: 0 days 0 hours 21 minutes 32 seconds 979 msec
