                         Program Version 3.0.3 - RELEASE   -
|  1> ! RI-MP2 RIJK def2-TZVP def2-TZVP/C def2-TZVP/JK TIGHTSCF
|  2> % maxcore 2000
|  3> % mp2 density relaxed end
|  4> *xyz 0 1
|  5>  C        0.1611564149     1.6334041206     0.1274010047
|  6>  C        0.0224558470     0.1112167369     0.0112620275
|  7>  C       -1.4278866129    -0.4509284404     0.0553782360
|  8>  C       -2.1493513022    -0.0570432807     1.3628311458
|  9>  C       -2.1761534745     0.1215449088    -1.1430650370
| 10>  O       -2.1850873529    -0.3678424381    -2.2442823093
| 11>  C       -1.3633564200    -2.0004493429    -0.0081125337
| 12>  C       -2.6136663203    -2.7538301942    -0.4199134943
| 13>  O       -0.3505393619    -2.5859810913     0.2925949972
| 14>  H        1.2182148802     1.9109921580     0.0779040878
| 15>  H       -0.3503820197     2.1628504136    -0.6832593378
| 16>  H       -0.2295574958     2.0149784065     1.0755313599
| 17>  H        0.4793991334    -0.2287756597    -0.9239475297
| 18>  H        0.5771430654    -0.3828741419     0.8134310343
| 19>  H       -2.3140889603     1.0236033078     1.4072581856
| 20>  H       -3.1266505721    -0.5411253251     1.4516183642
| 21>  H       -1.5494550393    -0.3450021645     2.2305525155
| 22>  H       -2.7066685027     1.0813271083    -0.9452765090
| 23>  H       -2.6754316201    -2.7400642035    -1.5124178545
| 24>  H       -2.5419119246    -3.7860257225    -0.0749712126
| 25>  H       -3.5289367717    -2.2894137756    -0.0418758407
| 26> *
| 27>
| 28>                          ****END OF INPUT****

CARTESIAN COORDINATES (ANGSTROEM)
---------------------------------
  C      0.161156    1.633404    0.127401
  C      0.022456    0.111217    0.011262
  C     -1.427887   -0.450928    0.055378
  C     -2.149351   -0.057043    1.362831
  C     -2.176153    0.121545   -1.143065
  O     -2.185087   -0.367842   -2.244282
  C     -1.363356   -2.000449   -0.008113
  C     -2.613666   -2.753830   -0.419913
  O     -0.350539   -2.585981    0.292595
  H      1.218215    1.910992    0.077904
  H     -0.350382    2.162850   -0.683259
  H     -0.229557    2.014978    1.075531
  H      0.479399   -0.228776   -0.923948
  H      0.577143   -0.382874    0.813431
  H     -2.314089    1.023603    1.407258
  H     -3.126651   -0.541125    1.451618
  H     -1.549455   -0.345002    2.230553
  H     -2.706669    1.081327   -0.945277
  H     -2.675432   -2.740064   -1.512418
  H     -2.541912   -3.786026   -0.074971
  H     -3.528937   -2.289414   -0.041876

 Total Charge           Charge          ....    0
 Multiplicity           Mult            ....    1
 Number of Electrons    NEL             ....   70
 Basis Dimension        Dim             ....  351

ORBITAL ENERGIES
----------------

  NO   OCC          E(Eh)            E(eV)
   0   2.0000     -20.570979      -559.7648
   1   2.0000     -20.549204      -559.1723
   2   2.0000     -11.344680      -308.7044
   3   2.0000     -11.337133      -308.4991
   4   2.0000     -11.267865      -306.6142
   5   2.0000     -11.246545      -306.0341
   6   2.0000     -11.237422      -305.7858
   7   2.0000     -11.232229      -305.6445
   8   2.0000     -11.228563      -305.5447
   9   2.0000      -1.411750       -38.4157
  10   2.0000      -1.394882       -37.9567
  11   2.0000      -1.122578       -30.5469
  12   2.0000      -1.023700       -27.8563
  13   2.0000      -0.992701       -27.0128
  14   2.0000      -0.923204       -25.1217
  15   2.0000      -0.863781       -23.5047
  16   2.0000      -0.813987       -22.1497
  17   2.0000      -0.721603       -19.6358
  18   2.0000      -0.680896       -18.5281
  19   2.0000      -0.676314       -18.4034
  20   2.0000      -0.649314       -17.6687
  21   2.0000      -0.629449       -17.1282
  22   2.0000      -0.613062       -16.6823
  23   2.0000      -0.599720       -16.3192
  24   2.0000      -0.578353       -15.7378
  25   2.0000      -0.562698       -15.3118
  26   2.0000      -0.559259       -15.2182
  27   2.0000      -0.554501       -15.0888
  28   2.0000      -0.534148       -14.5349
  29   2.0000      -0.511873       -13.9288
  30   2.0000      -0.509075       -13.8526
  31   2.0000      -0.495436       -13.4815
  32   2.0000      -0.477246       -12.9865
  33   2.0000      -0.426470       -11.6048
  34   2.0000      -0.408134       -11.1059
  35   0.0000       0.109030         2.9668
  36   0.0000       0.124181         3.3791
  37   0.0000       0.142542         3.8788
  38   0.0000       0.153284         4.1711
  39   0.0000       0.170383         4.6363

MULLIKEN ATOMIC CHARGES
-----------------------
   0 C :   -0.427156
   1 C :   -0.229821
   2 C :    0.163386
   3 C :   -0.479284
   4 C :    0.033227
   5 O :   -0.256857
   6 C :    0.194878
   7 C :   -0.428811
   8 O :   -0.276755
   9 H :    0.146888
  10 H :    0.136315
  11 H :    0.133067
  12 H :    0.135480
  13 H :    0.145343
  14 H :    0.149490
  15 H :    0.144371
  16 H :    0.158456
  17 H :    0.093373
  18 H :    0.176564
  19 H :    0.155236
  20 H :    0.132611
Sum of atomic charges:    0.0000000

LOEWDIN ATOMIC CHARGES
----------------------
   0 C :   -0.314049
   1 C :   -0.236876
   2 C :   -0.276273
   3 C :   -0.257077
   4 C :   -0.251884
   5 O :    0.147756
   6 C :   -0.296599
   7 C :   -0.275501
   8 O :    0.165942
   9 H :    0.127186
  10 H :    0.122053
  11 H :    0.120971
  12 H :    0.149580
  13 H :    0.149659
  14 H :    0.129656
  15 H :    0.128106
  16 H :    0.136838
  17 H :    0.117992
  18 H :    0.148034
  19 H :    0.134587
  20 H :    0.129900

  Mayer bond orders larger than 0.1
B(  0-C ,  1-C ) :   0.8977 B(  0-C ,  9-H ) :   0.9422 B(  0-C , 10-H ) :   0.9343
B(  0-C , 11-H ) :   0.9392 B(  1-C ,  2-C ) :   0.8738 B(  1-C , 12-H ) :   0.9307
B(  1-C , 13-H ) :   0.9255 B(  2-C ,  3-C ) :   0.8880 B(  2-C ,  4-C ) :   0.7970
B(  2-C ,  6-C ) :   0.8155 B(  3-C , 14-H ) :   0.9279 B(  3-C , 15-H ) :   0.9269
B(  3-C , 16-H ) :   0.9334 B(  4-C ,  5-O ) :   1.9941 B(  4-C , 17-H ) :   0.9479
B(  6-C ,  7-C ) :   0.9165 B(  6-C ,  8-O ) :   1.9870 B(  7-C , 18-H ) :   0.9066
B(  7-C , 19-H ) :   0.9313 B(  7-C , 20-H ) :   0.9248

MP2 TOTAL ENERGY:     -423.548511814 Eh
FINAL SINGLE POINT ENERGY      -423.548511814011

DIPOLE MOMENT
-------------
                                X             Y             Z
Electronic contribution:     -0.01652      -5.14510      -4.48377
Nuclear contribution   :     -0.59253       5.91020       5.17774
                        -----------------------------------------
Total Dipole Moment    :     -0.60905       0.76510       0.69397
                        -----------------------------------------
Magnitude (a.u.)       :      1.19913
Magnitude (Debye)      :      3.04794

                             ****ORCA TERMINATED NORMALLY****
TOTAL RUN TIME: 0 days 0 hours 20 minutes 11 seconds 779 msec
