                         Program Version 3.0.3 - RELEASE   -
|  1> ! RI-MP2 RIJK def2-TZVP def2-TZVP/C def2-TZVP/JK TIGHTSCF
|  2> % maxcore 2000
|  3> % mp2 density relaxed end
|  4> *xyz 0 1
|  5>  C       -0.1521115341     1.4963231364    -0.4255940559
|  6>  C       -0.3787318449    -0.0118192435    -0.4413273644
|  7>  C       -1.4853245885    -0.4776389364     0.4842032765
|  8>  O       -2.1413562290     0.2820260947     1.1595874509
|  9>  C       -1.7839675140    -1.9785572321     0.5050302077
| 10>  C       -3.1521403115    -2.2365836274    -0.1672199990
| 11>  O       -3.1446819714    -1.7991549717    -1.5261652609
| 12>  C       -3.5489569235    -3.6395009038    -0.0533134360
| 13>  C       -3.8354320461    -4.8056175991     0.0058415441
| 14>  H        0.6461561634     1.7764908487    -1.1184303168
| 15>  H       -1.0631098110     2.0275215556    -0.7120882846
| 16>  H        0.1221739076     1.8396825205     0.5754249590
| 17>  H       -0.6516477510    -0.3717675117    -1.4437515417
| 18>  H        0.5363079208    -0.5620302700    -0.1789271911
| 19>  H       -1.0106145369    -2.5601416647    -0.0065450772
| 20>  H       -1.8340461138    -2.3055072562     1.5481329455
| 21>  H       -3.8882355563    -1.6006616198     0.3373802164
| 22>  H       -2.7653838369    -2.5079857192    -2.0573530694
| 23>  H       -4.1115228328    -5.8295714602     0.0672419170
| 24> *
| 25>
| 26>                          ****END OF INPUT****

CARTESIAN COORDINATES (ANGSTROEM)
---------------------------------
  C     -0.152112    1.496323   -0.425594
  C     -0.378732   -0.011819   -0.441327
  C     -1.485325   -0.477639    0.484203
  O     -2.141356    0.282026    1.159587
  C     -1.783968   -1.978557    0.505030
  C     -3.152140   -2.236584   -0.167220
  O     -3.144682   -1.799155   -1.526165
  C     -3.548957   -3.639501   -0.053313
  C     -3.835432   -4.805618    0.005842
  H      0.646156    1.776491   -1.118430
  H     -1.063110    2.027522   -0.712088
  H      0.122174    1.839683    0.575425
  H     -0.651648   -0.371768   -1.443752
  H      0.536308   -0.562030   -0.178927
  H     -1.010615   -2.560142   -0.006545
  H     -1.834046   -2.305507    1.548133
  H     -3.888236   -1.600662    0.337380
  H     -2.765384   -2.507986   -2.057353
  H     -4.111523   -5.829571    0.067242

 Total Charge           Charge          ....    0
 Multiplicity           Mult            ....    1
 Number of Electrons    NEL             ....   68
 Basis Dimension        Dim             ....  339

ORBITAL ENERGIES
----------------

  NO   OCC          E(Eh)            E(eV)
   0   2.0000     -20.577427      -559.9402
   1   2.0000     -20.545134      -559.0615
   2   2.0000     -11.331197      -308.3376
   3   2.0000     -11.325286      -308.1767
   4   2.0000     -11.248695      -306.0925
   5   2.0000     -11.248405      -306.0847
   6   2.0000     -11.243013      -305.9379
   7   2.0000     -11.239246      -305.8354
   8   2.0000     -11.216483      -305.2160
   9   2.0000      -1.392267       -37.8855
  10   2.0000      -1.382607       -37.6227
  11   2.0000      -1.087786       -29.6002
  12   2.0000      -1.056297       -28.7433
  13   2.0000      -1.019786       -27.7498
  14   2.0000      -0.923947       -25.1419
  15   2.0000      -0.865090       -23.5403
  16   2.0000      -0.768422       -20.9098
  17   2.0000      -0.734296       -19.9812
  18   2.0000      -0.704435       -19.1687
  19   2.0000      -0.675178       -18.3725
  20   2.0000      -0.649146       -17.6642
  21   2.0000      -0.638556       -17.3760
  22   2.0000      -0.621605       -16.9147
  23   2.0000      -0.610742       -16.6191
  24   2.0000      -0.566266       -15.4089
  25   2.0000      -0.544124       -14.8064
  26   2.0000      -0.527257       -14.3474
  27   2.0000      -0.517314       -14.0768
  28   2.0000      -0.511252       -13.9119
  29   2.0000      -0.491858       -13.3841
  30   2.0000      -0.471788       -12.8380
  31   2.0000      -0.422474       -11.4961
  32   2.0000      -0.410797       -11.1784
  33   2.0000      -0.395429       -10.7602
  34   0.0000       0.119163         3.2426
  35   0.0000       0.136245         3.7074
  36   0.0000       0.149948         4.0803
  37   0.0000       0.156877         4.2688
  38   0.0000       0.161412         4.3923

MULLIKEN ATOMIC CHARGES
-----------------------
   0 C :   -0.375459
   1 C :   -0.257553
   2 C :    0.201973
   3 O :   -0.295397
   4 C :   -0.151140
   5 C :   -0.090629
   6 O :   -0.466164
   7 C :   -0.057956
   8 C :   -0.106102
   9 H :    0.131450
  10 H :    0.138722
  11 H :    0.131050
  12 H :    0.136841
  13 H :    0.133048
  14 H :    0.122302
  15 H :    0.141629
  16 H :    0.142949
  17 H :    0.322434
  18 H :    0.198003
Sum of atomic charges:    0.0000000

LOEWDIN ATOMIC CHARGES
----------------------
   0 C :   -0.310351
   1 C :   -0.273072
   2 C :   -0.321881
   3 O :    0.157164
   4 C :   -0.204985
   5 C :   -0.326744
   6 O :   -0.003551
   7 C :   -0.096198
   8 C :   -0.082162
   9 H :    0.121183
  10 H :    0.128686
  11 H :    0.126544
  12 H :    0.153828
  13 H :    0.149621
  14 H :    0.144455
  15 H :    0.158856
  16 H :    0.169093
  17 H :    0.179959
  18 H :    0.129555

  Mayer bond orders larger than 0.1
B(  0-C ,  1-C ) :   0.9388 B(  0-C ,  9-H ) :   0.9386 B(  0-C , 10-H ) :   0.9362
B(  0-C , 11-H ) :   0.9356 B(  1-C ,  2-C ) :   0.9324 B(  1-C , 12-H ) :   0.9080
B(  1-C , 13-H ) :   0.9055 B(  2-C ,  3-O ) :   1.9688 B(  2-C ,  4-C ) :   0.8592
B(  4-C ,  5-C ) :   0.9203 B(  4-C , 14-H ) :   0.9114 B(  4-C , 15-H ) :   0.9057
B(  5-C ,  6-O ) :   0.8936 B(  5-C ,  7-C ) :   1.1361 B(  5-C , 16-H ) :   0.9240
B(  6-O , 17-H ) :   0.8371 B(  7-C ,  8-C ) :   2.5736 B(  8-C , 18-H ) :   0.8886

MP2 TOTAL ENERGY:     -422.294506402 Eh
FINAL SINGLE POINT ENERGY      -422.294506402092

DIPOLE MOMENT
-------------
                                X             Y             Z
Electronic contribution:     -6.20917      -4.60519       1.64902
Nuclear contribution   :      6.97827       3.51933      -2.06449
                        -----------------------------------------
Total Dipole Moment    :      0.76910      -1.08586      -0.41546
                        -----------------------------------------
Magnitude (a.u.)       :      1.39399
Magnitude (Debye)      :      3.54324

                             ****ORCA TERMINATED NORMALLY****
TOTAL RUN TIME: 0 days 0 hours 16 minutes 16 seconds 852 msec
