                         Program Version 3.0.3 - RELEASE   -
|  1> ! RI-MP2 RIJK def2-TZVP def2-TZVP/C def2-TZVP/JK TIGHTSCF
|  2> % maxcore 2000
|  3> % mp2 density relaxed end
|  4> *xyz 0 1
|  5>  C       -0.2397951045     1.5774292475    -0.0438415844
|  6>  C        0.0062146790     0.0598357235    -0.0128850234
|  7>  C        0.7452249316    -0.4289100052    -1.2766762679
|  8>  C        2.2256292628    -0.0178105595    -1.2926290471
|  9>  C        2.9519079415    -0.5096560261    -0.0364933022
| 10>  O        4.2936114526    -0.0392151651     0.0280987690
| 11>  C        2.2424288921    -0.0264466901     1.2263689589
| 12>  C        0.7593075057    -0.4373914900     1.2494370873
| 13>  C        0.0859467318    -0.0254130935     2.5634359775
| 14>  H        0.6887642561     2.1552928784    -0.0096469176
| 15>  H       -0.7648612782     1.8573464278    -0.9634588214
| 16>  H       -0.8590668145     1.9011305876     0.7973420304
| 17>  H       -0.9814970767    -0.4213113072    -0.0056772831
| 18>  H        0.6813617813    -1.5245466899    -1.3219832685
| 19>  H        0.2411993748    -0.0539481814    -2.1749659915
| 20>  H        2.7163179710    -0.4204096270    -2.1889866545
| 21>  H        2.3279027873     1.0730108615    -1.3425650067
| 22>  H        2.9415820411    -1.6146725463    -0.0384775732
| 23>  H        4.7397963912    -0.3074636186    -0.7816244295
| 24>  H        2.7598263779    -0.4285153711     2.1046811711
| 25>  H        2.3420064439     1.0650930955     1.2818495602
| 26>  H        0.7301402814    -1.5367641338     1.2027606717
| 27>  H        0.1579154917     1.0535219711     2.7355523271
| 28>  H       -0.9760037780    -0.2950962863     2.5688485474
| 29>  H        0.5614870474    -0.5233238016     3.4149851605
| 30> *
| 31>
| 32>                          ****END OF INPUT****

CARTESIAN COORDINATES (ANGSTROEM)
---------------------------------
  C     -0.239795    1.577429   -0.043842
  C      0.006215    0.059836   -0.012885
  C      0.745225   -0.428910   -1.276676
  C      2.225629   -0.017811   -1.292629
  C      2.951908   -0.509656   -0.036493
  O      4.293611   -0.039215    0.028099
  C      2.242429   -0.026447    1.226369
  C      0.759308   -0.437391    1.249437
  C      0.085947   -0.025413    2.563436
  H      0.688764    2.155293   -0.009647
  H     -0.764861    1.857346   -0.963459
  H     -0.859067    1.901131    0.797342
  H     -0.981497   -0.421311   -0.005677
  H      0.681362   -1.524547   -1.321983
  H      0.241199   -0.053948   -2.174966
  H      2.716318   -0.420410   -2.188987
  H      2.327903    1.073011   -1.342565
  H      2.941582   -1.614673   -0.038478
  H      4.739796   -0.307464   -0.781624
  H      2.759826   -0.428515    2.104681
  H      2.342006    1.065093    1.281850
  H      0.730140   -1.536764    1.202761
  H      0.157915    1.053522    2.735552
  H     -0.976004   -0.295096    2.568849
  H      0.561487   -0.523324    3.414985

 Total Charge           Charge          ....    0
 Multiplicity           Mult            ....    1
 Number of Electrons    NEL             ....   72
 Basis Dimension        Dim             ....  375

ORBITAL ENERGIES
----------------

  NO   OCC          E(Eh)            E(eV)
   0   2.0000     -20.548342      -559.1488
   1   2.0000     -11.271484      -306.7127
   2   2.0000     -11.223674      -305.4117
   3   2.0000     -11.223010      -305.3936
   4   2.0000     -11.219193      -305.2898
   5   2.0000     -11.217175      -305.2348
   6   2.0000     -11.209516      -305.0264
   7   2.0000     -11.209290      -305.0203
   8   2.0000     -11.209240      -305.0189
   9   2.0000      -1.354388       -36.8548
  10   2.0000      -1.121754       -30.5245
  11   2.0000      -1.028344       -27.9827
  12   2.0000      -1.015163       -27.6240
  13   2.0000      -0.941486       -25.6191
  14   2.0000      -0.897462       -24.4212
  15   2.0000      -0.818288       -22.2667
  16   2.0000      -0.802774       -21.8446
  17   2.0000      -0.731175       -19.8963
  18   2.0000      -0.678251       -18.4561
  19   2.0000      -0.651215       -17.7205
  20   2.0000      -0.622383       -16.9359
  21   2.0000      -0.609219       -16.5777
  22   2.0000      -0.599117       -16.3028
  23   2.0000      -0.566495       -15.4151
  24   2.0000      -0.558538       -15.1986
  25   2.0000      -0.538809       -14.6617
  26   2.0000      -0.528982       -14.3943
  27   2.0000      -0.518578       -14.1112
  28   2.0000      -0.512832       -13.9549
  29   2.0000      -0.508353       -13.8330
  30   2.0000      -0.474179       -12.9031
  31   2.0000      -0.466847       -12.7035
  32   2.0000      -0.444518       -12.0960
  33   2.0000      -0.441393       -12.0109
  34   2.0000      -0.429845       -11.6967
  35   2.0000      -0.415547       -11.3076
  36   0.0000       0.128214         3.4889
  37   0.0000       0.146176         3.9777
  38   0.0000       0.151444         4.1210
  39   0.0000       0.162122         4.4116
  40   0.0000       0.179877         4.8947

MULLIKEN ATOMIC CHARGES
-----------------------
   0 C :   -0.475884
   1 C :    0.015595
   2 C :   -0.238715
   3 C :   -0.288482
   4 C :    0.098506
   5 O :   -0.457749
   6 C :   -0.252880
   7 C :   -0.056360
   8 C :   -0.419058
   9 H :    0.134753
  10 H :    0.132603
  11 H :    0.140617
  12 H :    0.090685
  13 H :    0.113910
  14 H :    0.121101
  15 H :    0.111626
  16 H :    0.124512
  17 H :    0.069719
  18 H :    0.309767
  19 H :    0.125048
  20 H :    0.116073
  21 H :    0.085436
  22 H :    0.132605
  23 H :    0.132245
  24 H :    0.134326
Sum of atomic charges:   -0.0000000

LOEWDIN ATOMIC CHARGES
----------------------
   0 C :   -0.292517
   1 C :   -0.258009
   2 C :   -0.240282
   3 C :   -0.255655
   4 C :   -0.351299
   5 O :   -0.023021
   6 C :   -0.218522
   7 C :   -0.257530
   8 C :   -0.293445
   9 H :    0.121404
  10 H :    0.124504
  11 H :    0.123776
  12 H :    0.152643
  13 H :    0.139617
  14 H :    0.137993
  15 H :    0.133331
  16 H :    0.140879
  17 H :    0.133134
  18 H :    0.171059
  19 H :    0.143347
  20 H :    0.143674
  21 H :    0.154773
  22 H :    0.123048
  23 H :    0.123358
  24 H :    0.123740

  Mayer bond orders larger than 0.1
B(  0-C ,  1-C ) :   0.8877 B(  0-C ,  9-H ) :   0.9347 B(  0-C , 10-H ) :   0.9385
B(  0-C , 11-H ) :   0.9413 B(  1-C ,  2-C ) :   0.9190 B(  1-C ,  7-C ) :   0.9011
B(  1-C , 12-H ) :   0.9257 B(  2-C ,  3-C ) :   0.9153 B(  2-C , 13-H ) :   0.9323
B(  2-C , 14-H ) :   0.9292 B(  3-C ,  4-C ) :   0.9185 B(  3-C , 15-H ) :   0.9254
B(  3-C , 16-H ) :   0.9311 B(  4-C ,  5-O ) :   1.0208 B(  4-C ,  6-C ) :   0.9212
B(  4-C , 17-H ) :   0.9478 B(  5-O , 18-H ) :   0.8478 B(  6-C ,  7-C ) :   0.9139
B(  6-C , 19-H ) :   0.9262 B(  6-C , 20-H ) :   0.9214 B(  7-C ,  8-C ) :   0.8963
B(  7-C , 21-H ) :   0.9270 B(  8-C , 22-H ) :   0.9378 B(  8-C , 23-H ) :   0.9418
B(  8-C , 24-H ) :   0.9395

MP2 TOTAL ENERGY:     -388.854457076 Eh
FINAL SINGLE POINT ENERGY      -388.854457076328

DIPOLE MOMENT
-------------
                                X             Y             Z
Electronic contribution:      5.81720      -1.75159      -1.40202
Nuclear contribution   :     -6.14840       1.42636       0.93105
                        -----------------------------------------
Total Dipole Moment    :     -0.33119      -0.32523      -0.47097
                        -----------------------------------------
Magnitude (a.u.)       :      0.66127
Magnitude (Debye)      :      1.68080

                             ****ORCA TERMINATED NORMALLY****
TOTAL RUN TIME: 0 days 0 hours 22 minutes 51 seconds 409 msec
