                         Program Version 3.0.3 - RELEASE   -
|  1> ! RI-MP2 RIJK def2-TZVP def2-TZVP/C def2-TZVP/JK TIGHTSCF
|  2> % maxcore 2000
|  3> % mp2 density relaxed end
|  4> *xyz 0 1
|  5>  C       -0.0000116096     1.3963105888    -0.3455251024
|  6>  O        1.3614370153     1.6225362821     0.0611417137
|  7>  C        1.4605644361     0.3065303793     0.6342040713
|  8>  C        0.0650859695    -0.0950776604     0.0831843433
|  9>  C       -0.9585152536    -0.6257177123     1.0189163062
| 10>  C       -1.4277895211    -0.1776442060     2.2168268573
| 11>  O       -2.3557168771    -1.0148149885     2.6689976053
| 12>  N       -2.4696065305    -2.0498679816     1.6876736889
| 13>  N       -1.6581949943    -1.7915998337     0.7652355905
| 14>  H       -0.7120789176     2.0009215652     0.2324405228
| 15>  H       -0.1526977049     1.5870225570    -1.4133296167
| 16>  H        2.3157691816    -0.2547752293     0.2424753113
| 17>  H        1.5214165297     0.3344403322     1.7306328073
| 18>  H        0.1313283466    -0.7722063623    -0.7687580976
| 19>  H       -1.2000161803     0.6790182396     2.8300521189
| 20> *
| 21>
| 22>                          ****END OF INPUT****

CARTESIAN COORDINATES (ANGSTROEM)
---------------------------------
  C     -0.000012    1.396311   -0.345525
  O      1.361437    1.622536    0.061142
  C      1.460564    0.306530    0.634204
  C      0.065086   -0.095078    0.083184
  C     -0.958515   -0.625718    1.018916
  C     -1.427790   -0.177644    2.216827
  O     -2.355717   -1.014815    2.668998
  N     -2.469607   -2.049868    1.687674
  N     -1.658195   -1.791600    0.765236
  H     -0.712079    2.000922    0.232441
  H     -0.152698    1.587023   -1.413330
  H      2.315769   -0.254775    0.242475
  H      1.521417    0.334440    1.730633
  H      0.131328   -0.772206   -0.768758
  H     -1.200016    0.679018    2.830052

 Total Charge           Charge          ....    0
 Multiplicity           Mult            ....    1
 Number of Electrons    NEL             ....   66
 Basis Dimension        Dim             ....  315

ORBITAL ENERGIES
----------------

  NO   OCC          E(Eh)            E(eV)
   0   2.0000     -20.670038      -562.4603
   1   2.0000     -20.563818      -559.5699
   2   2.0000     -15.698516      -427.1783
   3   2.0000     -15.645162      -425.7265
   4   2.0000     -11.334018      -308.4143
   5   2.0000     -11.297779      -307.4282
   6   2.0000     -11.297775      -307.4281
   7   2.0000     -11.287631      -307.1521
   8   2.0000     -11.266013      -306.5638
   9   2.0000      -1.537363       -41.8338
  10   2.0000      -1.396009       -37.9873
  11   2.0000      -1.324005       -36.0280
  12   2.0000      -1.131380       -30.7864
  13   2.0000      -1.024704       -27.8836
  14   2.0000      -0.951896       -25.9024
  15   2.0000      -0.889342       -24.2002
  16   2.0000      -0.865230       -23.5441
  17   2.0000      -0.798528       -21.7291
  18   2.0000      -0.742021       -20.1914
  19   2.0000      -0.701829       -19.0977
  20   2.0000      -0.692119       -18.8335
  21   2.0000      -0.677876       -18.4459
  22   2.0000      -0.625099       -17.0098
  23   2.0000      -0.618899       -16.8411
  24   2.0000      -0.580783       -15.8039
  25   2.0000      -0.569646       -15.5009
  26   2.0000      -0.551376       -15.0037
  27   2.0000      -0.516518       -14.0552
  28   2.0000      -0.490583       -13.3495
  29   2.0000      -0.487655       -13.2698
  30   2.0000      -0.474431       -12.9099
  31   2.0000      -0.431167       -11.7327
  32   2.0000      -0.375250       -10.2111
  33   0.0000       0.088480         2.4077
  34   0.0000       0.131863         3.5882
  35   0.0000       0.149002         4.0546
  36   0.0000       0.161902         4.4056
  37   0.0000       0.162024         4.4089

MULLIKEN ATOMIC CHARGES
-----------------------
   0 C :   -0.025330
   1 O :   -0.321302
   2 C :   -0.025330
   3 C :   -0.088896
   4 C :   -0.051414
   5 C :   -0.033688
   6 O :   -0.090198
   7 N :   -0.022293
   8 N :   -0.084544
   9 H :    0.098259
  10 H :    0.111896
  11 H :    0.111896
  12 H :    0.098260
  13 H :    0.140017
  14 H :    0.182665
Sum of atomic charges:   -0.0000000

LOEWDIN ATOMIC CHARGES
----------------------
   0 C :   -0.241483
   1 O :    0.115376
   2 C :   -0.241482
   3 C :   -0.201430
   4 C :   -0.264132
   5 C :   -0.256264
   6 O :    0.263111
   7 N :   -0.013544
   8 N :    0.050135
   9 H :    0.118528
  10 H :    0.120505
  11 H :    0.120505
  12 H :    0.118528
  13 H :    0.165087
  14 H :    0.146560

  Mayer bond orders larger than 0.1
B(  0-C ,  1-O ) :   0.9544 B(  0-C ,  3-C ) :   0.9483 B(  0-C ,  9-H ) :   0.9051
B(  0-C , 10-H ) :   0.9159 B(  1-O ,  2-C ) :   0.9544 B(  2-C ,  3-C ) :   0.9483
B(  2-C , 11-H ) :   0.9159 B(  2-C , 12-H ) :   0.9051 B(  3-C ,  4-C ) :   0.9384
B(  3-C , 13-H ) :   0.9112 B(  4-C ,  5-C ) :   1.4909 B(  4-C ,  8-N ) :   1.2615
B(  5-C ,  6-O ) :   1.1582 B(  5-C , 14-H ) :   0.9094 B(  6-O ,  7-N ) :   0.8607
B(  7-N ,  8-N ) :   1.4173

MP2 TOTAL ENERGY:     -453.150006385 Eh
FINAL SINGLE POINT ENERGY      -453.150006384899

DIPOLE MOMENT
-------------
                                X             Y             Z
Electronic contribution:     -5.04059      -4.09233       2.96260
Nuclear contribution   :      5.44148       4.72681      -2.85459
                        -----------------------------------------
Total Dipole Moment    :      0.40089       0.63448       0.10801
                        -----------------------------------------
Magnitude (a.u.)       :      0.75825
Magnitude (Debye)      :      1.92732

                             ****ORCA TERMINATED NORMALLY****
TOTAL RUN TIME: 0 days 0 hours 14 minutes 33 seconds 855 msec
