                         Program Version 3.0.3 - RELEASE   -
|  1> ! RI-MP2 RIJK def2-TZVP def2-TZVP/C def2-TZVP/JK TIGHTSCF
|  2> % maxcore 2000
|  3> % mp2 density relaxed end
|  4> *xyz 0 1
|  5>  C       -0.1152348554     1.5014595367     0.0122415436
|  6>  C        0.0204394104    -0.0085991428     0.0035946210
|  7>  O       -1.3150315157    -0.5542037511     0.0107349372
|  8>  C       -1.4527282915    -1.8717362490     0.0053269395
|  9>  N       -0.3664840011    -2.6507904361    -0.0062440034
| 10>  C       -0.6341509506    -3.9556193502    -0.0101633762
| 11>  N       -1.8413129710    -4.5150228122    -0.0037329752
| 12>  C       -2.8394881251    -3.6221406469     0.0079402918
| 13>  N       -2.7212743425    -2.3025090558     0.0130261595
| 14>  H        0.8779908825     1.9597695817     0.0071371567
| 15>  H       -0.6618580396     1.8488614796    -0.8685997696
| 16>  H       -0.6486153858     1.8399027324     0.9046132886
| 17>  H        0.5482491786    -0.3691401763    -0.8845267763
| 18>  H        0.5613586912    -0.3780763785     0.8800756820
| 19>  H        0.2229088165    -4.6261519035    -0.0197496637
| 20>  H       -3.8521393409    -4.0200488179     0.0135863544
| 21> *
| 22>
| 23>                          ****END OF INPUT****

CARTESIAN COORDINATES (ANGSTROEM)
---------------------------------
  C     -0.115235    1.501460    0.012242
  C      0.020439   -0.008599    0.003595
  O     -1.315032   -0.554204    0.010735
  C     -1.452728   -1.871736    0.005327
  N     -0.366484   -2.650790   -0.006244
  C     -0.634151   -3.955619   -0.010163
  N     -1.841313   -4.515023   -0.003733
  C     -2.839488   -3.622141    0.007940
  N     -2.721274   -2.302509    0.013026
  H      0.877991    1.959770    0.007137
  H     -0.661858    1.848861   -0.868600
  H     -0.648615    1.839903    0.904613
  H      0.548249   -0.369140   -0.884527
  H      0.561359   -0.378076    0.880076
  H      0.222909   -4.626152   -0.019750
  H     -3.852139   -4.020049    0.013586

 Total Charge           Charge          ....    0
 Multiplicity           Mult            ....    1
 Number of Electrons    NEL             ....   66
 Basis Dimension        Dim             ....  321

ORBITAL ENERGIES
----------------

  NO   OCC          E(Eh)            E(eV)
   0   2.0000     -20.607681      -560.7635
   1   2.0000     -15.576596      -423.8607
   2   2.0000     -15.572919      -423.7607
   3   2.0000     -15.571305      -423.7168
   4   2.0000     -11.393439      -310.0312
   5   2.0000     -11.338958      -308.5487
   6   2.0000     -11.335917      -308.4660
   7   2.0000     -11.295544      -307.3674
   8   2.0000     -11.227850      -305.5253
   9   2.0000      -1.458041       -39.6753
  10   2.0000      -1.345681       -36.6179
  11   2.0000      -1.216952       -33.1149
  12   2.0000      -1.200240       -32.6602
  13   2.0000      -1.045158       -28.4402
  14   2.0000      -0.935167       -25.4472
  15   2.0000      -0.911811       -24.8117
  16   2.0000      -0.852900       -23.2086
  17   2.0000      -0.766108       -20.8469
  18   2.0000      -0.752716       -20.4825
  19   2.0000      -0.691213       -18.8089
  20   2.0000      -0.665227       -18.1018
  21   2.0000      -0.621525       -16.9126
  22   2.0000      -0.615067       -16.7368
  23   2.0000      -0.577891       -15.7252
  24   2.0000      -0.574485       -15.6325
  25   2.0000      -0.553031       -15.0487
  26   2.0000      -0.551086       -14.9958
  27   2.0000      -0.517874       -14.0921
  28   2.0000      -0.494562       -13.4577
  29   2.0000      -0.443472       -12.0675
  30   2.0000      -0.442582       -12.0433
  31   2.0000      -0.432972       -11.7818
  32   2.0000      -0.402536       -10.9536
  33   0.0000       0.092635         2.5207
  34   0.0000       0.119719         3.2577
  35   0.0000       0.134672         3.6646
  36   0.0000       0.168216         4.5774
  37   0.0000       0.183794         5.0013

MULLIKEN ATOMIC CHARGES
-----------------------
   0 C :   -0.361515
   1 C :   -0.063438
   2 O :   -0.209093
   3 C :    0.335869
   4 N :   -0.296132
   5 C :    0.069166
   6 N :   -0.264712
   7 C :    0.085254
   8 N :   -0.237435
   9 H :    0.131949
  10 H :    0.137219
  11 H :    0.137217
  12 H :    0.122710
  13 H :    0.122712
  14 H :    0.143876
  15 H :    0.146352
Sum of atomic charges:   -0.0000000

LOEWDIN ATOMIC CHARGES
----------------------
   0 C :   -0.312839
   1 C :   -0.302140
   2 O :    0.286363
   3 C :   -0.419329
   4 N :    0.122652
   5 C :   -0.267986
   6 N :    0.099817
   7 C :   -0.265613
   8 N :    0.143627
   9 H :    0.128908
  10 H :    0.126990
  11 H :    0.126989
  12 H :    0.128192
  13 H :    0.128193
  14 H :    0.137723
  15 H :    0.138453

  Mayer bond orders larger than 0.1
B(  0-C ,  1-C ) :   0.9442 B(  0-C ,  9-H ) :   0.9335 B(  0-C , 10-H ) :   0.9334
B(  0-C , 11-H ) :   0.9334 B(  1-C ,  2-O ) :   0.8222 B(  1-C , 12-H ) :   0.9277
B(  1-C , 13-H ) :   0.9277 B(  2-O ,  3-C ) :   1.2056 B(  3-C ,  4-N ) :   1.3119
B(  3-C ,  8-N ) :   1.3675 B(  4-N ,  5-C ) :   1.3915 B(  5-C ,  6-N ) :   1.4011
B(  5-C , 14-H ) :   0.9360 B(  6-N ,  7-C ) :   1.3405 B(  7-C ,  8-N ) :   1.4214
B(  7-C , 15-H ) :   0.9362

MP2 TOTAL ENERGY:     -433.393028869 Eh
FINAL SINGLE POINT ENERGY      -433.393028869042

DIPOLE MOMENT
-------------
                                X             Y             Z
Electronic contribution:     -4.57301      -8.69446      -0.00877
Nuclear contribution   :      5.27126       9.12609       0.00567
                        -----------------------------------------
Total Dipole Moment    :      0.69825       0.43163      -0.00310
                        -----------------------------------------
Magnitude (a.u.)       :      0.82090
Magnitude (Debye)      :      2.08655

                             ****ORCA TERMINATED NORMALLY****
TOTAL RUN TIME: 0 days 0 hours 13 minutes 54 seconds 85 msec
