                         Program Version 3.0.3 - RELEASE   -
|  1> ! RI-MP2 RIJK def2-TZVP def2-TZVP/C def2-TZVP/JK TIGHTSCF
|  2> % maxcore 2000
|  3> % mp2 density relaxed end
|  4> *xyz 0 1
|  5>  C       -0.1672794737     1.5721307047    -0.0103088545
|  6>  C        0.0244656603     0.0552321945     0.0106411623
|  7>  C        0.8901241071    -0.5122802487    -1.1479380815
|  8>  N        1.6053945248    -1.6925656006    -0.6105368397
|  9>  C        2.5632791925    -1.4433709674     0.4753494566
| 10>  C        1.1856580973    -1.9423247831     0.7635300726
| 11>  C        0.7637867791    -0.5199432289     1.2279419995
| 12>  C        2.2856851348    -0.1378908893     1.2246868547
| 13>  O        2.8962301472    -0.2331059505     2.4966754621
| 14>  H        0.7881568206     2.1045130222     0.0498437559
| 15>  H       -0.6632980419     1.8914418065    -0.9329757683
| 16>  H       -0.7888852005     1.9054077294     0.8275885246
| 17>  H       -0.9657466306    -0.4181267410    -0.0340455882
| 18>  H        0.2803205799    -0.8338561429    -1.9973637679
| 19>  H        1.6101394322     0.2245282888    -1.5215785983
| 20>  H        3.5176292608    -1.9578377941     0.4511990028
| 21>  H        0.8128928952    -2.9119625556     1.0698898817
| 22>  H        0.2676550125    -0.3988521022     2.1918960489
| 23>  H        2.5644057874     0.8032167243     0.7290736444
| 24>  H        2.6162400750     0.5263278438     3.0175301421
| 25> *
| 26>
| 27>                          ****END OF INPUT****

CARTESIAN COORDINATES (ANGSTROEM)
---------------------------------
  C     -0.167279    1.572131   -0.010309
  C      0.024466    0.055232    0.010641
  C      0.890124   -0.512280   -1.147938
  N      1.605395   -1.692566   -0.610537
  C      2.563279   -1.443371    0.475349
  C      1.185658   -1.942325    0.763530
  C      0.763787   -0.519943    1.227942
  C      2.285685   -0.137891    1.224687
  O      2.896230   -0.233106    2.496675
  H      0.788157    2.104513    0.049844
  H     -0.663298    1.891442   -0.932976
  H     -0.788885    1.905408    0.827589
  H     -0.965747   -0.418127   -0.034046
  H      0.280321   -0.833856   -1.997364
  H      1.610139    0.224528   -1.521579
  H      3.517629   -1.957838    0.451199
  H      0.812893   -2.911963    1.069890
  H      0.267655   -0.398852    2.191896
  H      2.564406    0.803217    0.729074
  H      2.616240    0.526328    3.017530

 Total Charge           Charge          ....    0
 Multiplicity           Mult            ....    1
 Number of Electrons    NEL             ....   68
 Basis Dimension        Dim             ....  345

ORBITAL ENERGIES
----------------

  NO   OCC          E(Eh)            E(eV)
   0   2.0000     -20.562065      -559.5222
   1   2.0000     -15.557820      -423.3498
   2   2.0000     -11.286424      -307.1192
   3   2.0000     -11.254040      -306.2380
   4   2.0000     -11.253181      -306.2146
   5   2.0000     -11.247431      -306.0582
   6   2.0000     -11.234734      -305.7127
   7   2.0000     -11.233050      -305.6668
   8   2.0000     -11.222656      -305.3840
   9   2.0000      -1.371434       -37.3186
  10   2.0000      -1.296713       -35.2854
  11   2.0000      -1.074573       -29.2406
  12   2.0000      -1.036060       -28.1926
  13   2.0000      -0.941450       -25.6182
  14   2.0000      -0.905163       -24.6307
  15   2.0000      -0.803377       -21.8610
  16   2.0000      -0.781781       -21.2734
  17   2.0000      -0.738392       -20.0927
  18   2.0000      -0.707018       -19.2389
  19   2.0000      -0.690820       -18.7982
  20   2.0000      -0.633887       -17.2490
  21   2.0000      -0.626677       -17.0527
  22   2.0000      -0.582780       -15.8583
  23   2.0000      -0.571758       -15.5583
  24   2.0000      -0.568688       -15.4748
  25   2.0000      -0.549788       -14.9605
  26   2.0000      -0.517011       -14.0686
  27   2.0000      -0.502963       -13.6863
  28   2.0000      -0.479932       -13.0596
  29   2.0000      -0.450595       -12.2613
  30   2.0000      -0.445189       -12.1142
  31   2.0000      -0.427697       -11.6382
  32   2.0000      -0.411101       -11.1866
  33   2.0000      -0.370609       -10.0848
  34   0.0000       0.126642         3.4461
  35   0.0000       0.146472         3.9857
  36   0.0000       0.156267         4.2522
  37   0.0000       0.178482         4.8567
  38   0.0000       0.187825         5.1110

MULLIKEN ATOMIC CHARGES
-----------------------
   0 C :   -0.418908
   1 C :   -0.104965
   2 C :   -0.152679
   3 N :   -0.208487
   4 C :   -0.066819
   5 C :   -0.114395
   6 C :   -0.010885
   7 C :   -0.006842
   8 O :   -0.452158
   9 H :    0.123616
  10 H :    0.139094
  11 H :    0.133479
  12 H :    0.093110
  13 H :    0.125524
  14 H :    0.118022
  15 H :    0.132035
  16 H :    0.141574
  17 H :    0.125071
  18 H :    0.088700
  19 H :    0.315912
Sum of atomic charges:   -0.0000000

LOEWDIN ATOMIC CHARGES
----------------------
   0 C :   -0.295906
   1 C :   -0.256257
   2 C :   -0.241360
   3 N :    0.143690
   4 C :   -0.193792
   5 C :   -0.181531
   6 C :   -0.172700
   7 C :   -0.291837
   8 O :   -0.005872
   9 H :    0.121094
  10 H :    0.126389
  11 H :    0.124062
  12 H :    0.153871
  13 H :    0.131708
  14 H :    0.132026
  15 H :    0.135563
  16 H :    0.130920
  17 H :    0.143805
  18 H :    0.120544
  19 H :    0.175584

  Mayer bond orders larger than 0.1
B(  0-C ,  1-C ) :   0.9006 B(  0-C ,  9-H ) :   0.9325 B(  0-C , 10-H ) :   0.9391
B(  0-C , 11-H ) :   0.9394 B(  1-C ,  2-C ) :   0.9381 B(  1-C ,  6-C ) :   0.8734
B(  1-C , 12-H ) :   0.9115 B(  2-C ,  3-N ) :   0.9084 B(  2-C , 13-H ) :   0.9217
B(  2-C , 14-H ) :   0.9299 B(  3-N ,  4-C ) :   0.9185 B(  3-N ,  5-C ) :   0.9349
B(  4-C ,  5-C ) :   0.8819 B(  4-C ,  7-C ) :   0.8714 B(  4-C , 15-H ) :   0.9278
B(  5-C ,  6-C ) :   0.8449 B(  5-C , 16-H ) :   0.9027 B(  6-C ,  7-C ) :   0.8932
B(  6-C , 17-H ) :   0.9208 B(  7-C ,  8-O ) :   1.0589 B(  7-C , 18-H ) :   0.9701
B(  8-O , 19-H ) :   0.8444

MP2 TOTAL ENERGY:     -402.423198518 Eh
FINAL SINGLE POINT ENERGY      -402.423198517729

DIPOLE MOMENT
-------------
                                X             Y             Z
Electronic contribution:      3.92312      -5.08256       2.04621
Nuclear contribution   :     -4.53790       5.95861      -1.79154
                        -----------------------------------------
Total Dipole Moment    :     -0.61478       0.87605       0.25467
                        -----------------------------------------
Magnitude (a.u.)       :      1.10012
Magnitude (Debye)      :      2.79629

                             ****ORCA TERMINATED NORMALLY****
TOTAL RUN TIME: 0 days 0 hours 18 minutes 52 seconds 468 msec
