                         Program Version 3.0.3 - RELEASE   -
|  1> ! RI-MP2 RIJK def2-TZVP def2-TZVP/C def2-TZVP/JK TIGHTSCF
|  2> % maxcore 2000
|  3> % mp2 density relaxed end
|  4> *xyz 0 1
|  5>  N       -0.1139921912     1.2656086834    -0.1919669953
|  6>  C       -0.0074270189     0.0084276983    -0.0012741218
|  7>  C       -1.2127730716    -0.8126909716    -0.0369249152
|  8>  C       -1.3692283604    -2.0274363689     0.5090496096
|  9>  C       -0.3817597392    -2.7430584999     1.2923966110
| 10>  N        0.8980181954    -2.7077693666     1.3358207266
| 11>  O        1.6095717640    -1.9113758673     0.4053608323
| 12>  C        1.3917336500    -0.5992304170     0.0886902014
| 13>  O        2.3435796270     0.0556704353    -0.2299860142
| 14>  H        0.8238231651     1.6819093398    -0.1918922938
| 15>  H       -2.0553014349    -0.3293187706    -0.5211461441
| 16>  H       -2.3455281704    -2.4999361081     0.4598199829
| 17>  H       -0.7676861548    -3.4666955269     2.0104733807
| 18> *
| 19>
| 20>                          ****END OF INPUT****

CARTESIAN COORDINATES (ANGSTROEM)
---------------------------------
  N     -0.113992    1.265609   -0.191967
  C     -0.007427    0.008428   -0.001274
  C     -1.212773   -0.812691   -0.036925
  C     -1.369228   -2.027436    0.509050
  C     -0.381760   -2.743058    1.292397
  N      0.898018   -2.707769    1.335821
  O      1.609572   -1.911376    0.405361
  C      1.391734   -0.599230    0.088690
  O      2.343580    0.055670   -0.229986
  H      0.823823    1.681909   -0.191892
  H     -2.055301   -0.329319   -0.521146
  H     -2.345528   -2.499936    0.459820
  H     -0.767686   -3.466696    2.010473

 Total Charge           Charge          ....    0
 Multiplicity           Mult            ....    1
 Number of Electrons    NEL             ....   64
 Basis Dimension        Dim             ....  303

ORBITAL ENERGIES
----------------

  NO   OCC          E(Eh)            E(eV)
   0   2.0000     -20.643440      -561.7365
   1   2.0000     -20.573987      -559.8467
   2   2.0000     -15.666576      -426.3092
   3   2.0000     -15.600312      -424.5061
   4   2.0000     -11.414788      -310.6122
   5   2.0000     -11.331354      -308.3418
   6   2.0000     -11.323608      -308.1310
   7   2.0000     -11.295456      -307.3650
   8   2.0000     -11.290104      -307.2194
   9   2.0000      -1.495629       -40.6981
  10   2.0000      -1.408639       -38.3310
  11   2.0000      -1.259792       -34.2807
  12   2.0000      -1.215780       -33.0831
  13   2.0000      -1.113716       -30.3058
  14   2.0000      -0.953961       -25.9586
  15   2.0000      -0.935066       -25.4444
  16   2.0000      -0.828332       -22.5401
  17   2.0000      -0.791012       -21.5245
  18   2.0000      -0.729974       -19.8636
  19   2.0000      -0.697181       -18.9712
  20   2.0000      -0.681182       -18.5359
  21   2.0000      -0.675706       -18.3869
  22   2.0000      -0.645131       -17.5549
  23   2.0000      -0.609738       -16.5918
  24   2.0000      -0.568369       -15.4661
  25   2.0000      -0.556263       -15.1367
  26   2.0000      -0.524406       -14.2698
  27   2.0000      -0.506733       -13.7889
  28   2.0000      -0.485836       -13.2203
  29   2.0000      -0.456117       -12.4116
  30   2.0000      -0.451973       -12.2988
  31   2.0000      -0.387241       -10.5374
  32   0.0000       0.025371         0.6904
  33   0.0000       0.079381         2.1601
  34   0.0000       0.132157         3.5962
  35   0.0000       0.163091         4.4379
  36   0.0000       0.168576         4.5872

MULLIKEN ATOMIC CHARGES
-----------------------
   0 N :   -0.287557
   1 C :    0.022049
   2 C :   -0.154821
   3 C :   -0.077359
   4 C :   -0.038748
   5 N :   -0.064639
   6 O :   -0.135265
   7 C :    0.290450
   8 O :   -0.266240
   9 H :    0.245986
  10 H :    0.156818
  11 H :    0.153346
  12 H :    0.155980
Sum of atomic charges:    0.0000000

LOEWDIN ATOMIC CHARGES
----------------------
   0 N :    0.042068
   1 C :   -0.256506
   2 C :   -0.096502
   3 C :   -0.142885
   4 C :   -0.242438
   5 N :    0.074547
   6 O :    0.221296
   7 C :   -0.442112
   8 O :    0.174620
   9 H :    0.178017
  10 H :    0.166483
  11 H :    0.162042
  12 H :    0.161370

  Mayer bond orders larger than 0.1
B(  0-N ,  1-C ) :   1.8987 B(  0-N ,  9-H ) :   0.8491 B(  1-C ,  2-C ) :   0.9833
B(  1-C ,  7-C ) :   0.9011 B(  2-C ,  3-C ) :   1.6881 B(  2-C , 10-H ) :   0.9205
B(  3-C ,  4-C ) :   0.9859 B(  3-C , 11-H ) :   0.9106 B(  4-C ,  5-N ) :   1.7732
B(  4-C , 12-H ) :   0.9177 B(  5-N ,  6-O ) :   0.7341 B(  6-O ,  7-C ) :   1.1089
B(  7-C ,  8-O ) :   1.9405

MP2 TOTAL ENERGY:     -451.958447905 Eh
FINAL SINGLE POINT ENERGY      -451.958447904670

DIPOLE MOMENT
-------------
                                X             Y             Z
Electronic contribution:      4.03955      -0.14290      -0.12699
Nuclear contribution   :     -5.56848      -0.43034       0.34795
                        -----------------------------------------
Total Dipole Moment    :     -1.52893      -0.57325       0.22096
                        -----------------------------------------
Magnitude (a.u.)       :      1.64775
Magnitude (Debye)      :      4.18824

                             ****ORCA TERMINATED NORMALLY****
TOTAL RUN TIME: 0 days 0 hours 15 minutes 11 seconds 908 msec
