                         Program Version 3.0.3 - RELEASE   -
|  1> ! RI-MP2 RIJK def2-TZVP def2-TZVP/C def2-TZVP/JK TIGHTSCF
|  2> % maxcore 2000
|  3> % mp2 density relaxed end
|  4> *xyz 0 1
|  5>  O        0.0175449745     0.2123447877     0.6170611374
|  6>  C       -0.0089947330     1.3007214785     0.1096558271
|  7>  C       -1.2777395178     2.1107247078    -0.2185473951
|  8>  C       -0.7793699012     3.4039976072    -0.8606628383
|  9>  C       -0.7127398964     4.7052637113    -0.0518311492
| 10>  C        0.0801785321     4.5059573047     1.2158554939
| 11>  C        0.8021304079     4.5898966930    -0.1034779969
| 12>  N        0.7356636356     3.3612602017    -0.9002930501
| 13>  C        1.2239192139     2.1151088678    -0.3247208671
| 14>  H       -1.9126495184     1.5124562238    -0.8787752733
| 15>  H       -1.8393552180     2.2730794716     0.7066683107
| 16>  H       -1.1858200199     3.5573161270    -1.8641725153
| 17>  H       -1.3368271039     5.5728530544    -0.2198662196
| 18>  H        0.1652863708     5.3913793268     1.8381811129
| 19>  H        0.0296108832     3.5793531442     1.7812187254
| 20>  H        1.5564628500     5.3396389296    -0.3143900307
| 21>  H        1.8714015741     2.2734823230     0.5464095887
| 22>  H        1.7963708364     1.5225375600    -1.0503533105
| 23> *
| 24>
| 25>                          ****END OF INPUT****

CARTESIAN COORDINATES (ANGSTROEM)
---------------------------------
  O      0.017545    0.212345    0.617061
  C     -0.008995    1.300721    0.109656
  C     -1.277740    2.110725   -0.218547
  C     -0.779370    3.403998   -0.860663
  C     -0.712740    4.705264   -0.051831
  C      0.080179    4.505957    1.215855
  C      0.802130    4.589897   -0.103478
  N      0.735664    3.361260   -0.900293
  C      1.223919    2.115109   -0.324721
  H     -1.912650    1.512456   -0.878775
  H     -1.839355    2.273079    0.706668
  H     -1.185820    3.557316   -1.864173
  H     -1.336827    5.572853   -0.219866
  H      0.165286    5.391379    1.838181
  H      0.029611    3.579353    1.781219
  H      1.556463    5.339639   -0.314390
  H      1.871402    2.273482    0.546410
  H      1.796371    1.522538   -1.050353

 Total Charge           Charge          ....    0
 Multiplicity           Mult            ....    1
 Number of Electrons    NEL             ....   66
 Basis Dimension        Dim             ....  333

ORBITAL ENERGIES
----------------

  NO   OCC          E(Eh)            E(eV)
   0   2.0000     -20.549296      -559.1748
   1   2.0000     -15.560228      -423.4153
   2   2.0000     -11.334385      -308.4243
   3   2.0000     -11.275165      -306.8128
   4   2.0000     -11.271776      -306.7206
   5   2.0000     -11.260834      -306.4229
   6   2.0000     -11.246434      -306.0310
   7   2.0000     -11.242949      -305.9362
   8   2.0000     -11.240486      -305.8692
   9   2.0000      -1.395515       -37.9739
  10   2.0000      -1.288007       -35.0485
  11   2.0000      -1.115516       -30.3547
  12   2.0000      -1.037605       -28.2347
  13   2.0000      -0.977466       -26.5982
  14   2.0000      -0.878410       -23.9027
  15   2.0000      -0.815414       -22.1886
  16   2.0000      -0.754016       -20.5178
  17   2.0000      -0.744186       -20.2503
  18   2.0000      -0.709471       -19.3057
  19   2.0000      -0.673088       -18.3157
  20   2.0000      -0.647752       -17.6262
  21   2.0000      -0.608250       -16.5513
  22   2.0000      -0.603852       -16.4316
  23   2.0000      -0.596787       -16.2394
  24   2.0000      -0.583537       -15.8788
  25   2.0000      -0.545978       -14.8568
  26   2.0000      -0.512204       -13.9378
  27   2.0000      -0.499032       -13.5793
  28   2.0000      -0.483133       -13.1467
  29   2.0000      -0.464874       -12.6499
  30   2.0000      -0.414563       -11.2808
  31   2.0000      -0.397751       -10.8233
  32   2.0000      -0.359865        -9.7924
  33   0.0000       0.124084         3.3765
  34   0.0000       0.139379         3.7927
  35   0.0000       0.157282         4.2799
  36   0.0000       0.160047         4.3551
  37   0.0000       0.170001         4.6260

MULLIKEN ATOMIC CHARGES
-----------------------
   0 O :   -0.259618
   1 C :    0.078622
   2 C :   -0.231013
   3 C :    0.022601
   4 C :   -0.220723
   5 C :   -0.263004
   6 C :   -0.062672
   7 N :   -0.161862
   8 C :   -0.158804
   9 H :    0.151038
  10 H :    0.152319
  11 H :    0.118769
  12 H :    0.137528
  13 H :    0.132750
  14 H :    0.145239
  15 H :    0.128132
  16 H :    0.146083
  17 H :    0.144615
Sum of atomic charges:   -0.0000000

LOEWDIN ATOMIC CHARGES
----------------------
   0 O :    0.158067
   1 C :   -0.313457
   2 C :   -0.211379
   3 C :   -0.201614
   4 C :   -0.171168
   5 C :   -0.213768
   6 C :   -0.218168
   7 N :    0.132681
   8 C :   -0.256072
   9 H :    0.154015
  10 H :    0.158934
  11 H :    0.144553
  12 H :    0.136746
  13 H :    0.143030
  14 H :    0.133359
  15 H :    0.132321
  16 H :    0.147590
  17 H :    0.144329

  Mayer bond orders larger than 0.1
B(  0-O ,  1-C ) :   2.0556 B(  1-C ,  2-C ) :   0.8857 B(  1-C ,  8-C ) :   0.9095
B(  2-C ,  3-C ) :   0.9278 B(  2-C ,  8-C ) :  -0.1178 B(  2-C ,  9-H ) :   0.9070
B(  2-C , 10-H ) :   0.8994 B(  3-C ,  4-C ) :   0.9453 B(  3-C ,  7-N ) :   0.9263
B(  3-C , 11-H ) :   0.9132 B(  4-C ,  5-C ) :   0.8743 B(  4-C ,  6-C ) :   0.8804
B(  4-C , 12-H ) :   0.9198 B(  5-C ,  6-C ) :   0.8614 B(  5-C , 13-H ) :   0.9260
B(  5-C , 14-H ) :   0.9214 B(  6-C ,  7-N ) :   0.9613 B(  6-C , 15-H ) :   0.9300
B(  7-N ,  8-C ) :   0.9317 B(  8-C , 16-H ) :   0.9179 B(  8-C , 17-H ) :   0.9022

MP2 TOTAL ENERGY:     -401.228599478 Eh
FINAL SINGLE POINT ENERGY      -401.228599477624

DIPOLE MOMENT
-------------
                                X             Y             Z
Electronic contribution:      0.63216      -3.75352      -0.89351
Nuclear contribution   :     -0.91130       4.74351       0.85876
                        -----------------------------------------
Total Dipole Moment    :     -0.27915       0.98999      -0.03475
                        -----------------------------------------
Magnitude (a.u.)       :      1.02918
Magnitude (Debye)      :      2.61597

                             ****ORCA TERMINATED NORMALLY****
TOTAL RUN TIME: 0 days 0 hours 18 minutes 46 seconds 569 msec
