                         Program Version 3.0.3 - RELEASE   -
|  1> ! RI-MP2 RIJK def2-TZVP def2-TZVP/C def2-TZVP/JK TIGHTSCF
|  2> % maxcore 2000
|  3> % mp2 density relaxed end
|  4> *xyz 0 1
|  5>  C       -0.0126206339     1.5305405786    -0.0137562686
|  6>  C       -0.0591170368    -0.0081969419    -0.0009771642
|  7>  C       -1.5337625241    -0.4791562611     0.1098745708
|  8>  N        0.6127916938    -0.4745533963    -1.2214458610
|  9>  C        0.9452477086    -1.8937177834    -1.2659760826
| 10>  C        1.8288570331    -2.2823457452    -0.0852021947
| 11>  O        2.6108576045    -3.2087092667    -0.1458368851
| 12>  C        1.5967517981    -1.5128546240     1.1515441200
| 13>  C        0.7066925972    -0.5157540142     1.1961314460
| 14>  H        1.0212894383     1.8788553098    -0.0692853096
| 15>  H       -0.5506890553     1.9153359430    -0.8871665123
| 16>  H       -0.4851094409     1.9490755621     0.8804683597
| 17>  H       -2.1224640103    -0.0597424970    -0.7137422675
| 18>  H       -1.6082398348    -1.5694680265     0.0701078222
| 19>  H       -1.9899318998    -0.1486593530     1.0486951783
| 20>  H        0.0643753746    -0.2147616488    -2.0342729433
| 21>  H        0.0725577635    -2.5758013481    -1.2437401278
| 22>  H        1.4923454598    -2.1110143001    -2.1869148568
| 23>  H        2.1475468596    -1.8364565490     2.0292598934
| 24>  H        0.4934515346    -0.0138871081     2.1376664229
| 25> *
| 26>
| 27>                          ****END OF INPUT****

CARTESIAN COORDINATES (ANGSTROEM)
---------------------------------
  C     -0.012621    1.530541   -0.013756
  C     -0.059117   -0.008197   -0.000977
  C     -1.533763   -0.479156    0.109875
  N      0.612792   -0.474553   -1.221446
  C      0.945248   -1.893718   -1.265976
  C      1.828857   -2.282346   -0.085202
  O      2.610858   -3.208709   -0.145837
  C      1.596752   -1.512855    1.151544
  C      0.706693   -0.515754    1.196131
  H      1.021289    1.878855   -0.069285
  H     -0.550689    1.915336   -0.887167
  H     -0.485109    1.949076    0.880468
  H     -2.122464   -0.059742   -0.713742
  H     -1.608240   -1.569468    0.070108
  H     -1.989932   -0.148659    1.048695
  H      0.064375   -0.214762   -2.034273
  H      0.072558   -2.575801   -1.243740
  H      1.492345   -2.111014   -2.186915
  H      2.147547   -1.836457    2.029260
  H      0.493452   -0.013887    2.137666

 Total Charge           Charge          ....    0
 Multiplicity           Mult            ....    1
 Number of Electrons    NEL             ....   68
 Basis Dimension        Dim             ....  345

ORBITAL ENERGIES
----------------

  NO   OCC          E(Eh)            E(eV)
   0   2.0000     -20.536961      -558.8391
   1   2.0000     -15.557636      -423.3448
   2   2.0000     -11.324902      -308.1663
   3   2.0000     -11.286984      -307.1344
   4   2.0000     -11.263801      -306.5036
   5   2.0000     -11.262930      -306.4799
   6   2.0000     -11.237076      -305.7764
   7   2.0000     -11.232821      -305.6606
   8   2.0000     -11.228522      -305.5436
   9   2.0000      -1.379287       -37.5323
  10   2.0000      -1.239066       -33.7167
  11   2.0000      -1.087726       -29.5985
  12   2.0000      -1.054920       -28.7058
  13   2.0000      -0.953814       -25.9546
  14   2.0000      -0.938875       -25.5481
  15   2.0000      -0.865159       -23.5422
  16   2.0000      -0.806174       -21.9371
  17   2.0000      -0.690358       -18.7856
  18   2.0000      -0.686647       -18.6846
  19   2.0000      -0.670699       -18.2506
  20   2.0000      -0.635559       -17.2944
  21   2.0000      -0.619478       -16.8568
  22   2.0000      -0.603763       -16.4292
  23   2.0000      -0.594938       -16.1891
  24   2.0000      -0.576552       -15.6888
  25   2.0000      -0.565777       -15.3956
  26   2.0000      -0.555242       -15.1089
  27   2.0000      -0.520964       -14.1762
  28   2.0000      -0.513042       -13.9606
  29   2.0000      -0.495528       -13.4840
  30   2.0000      -0.490617       -13.3504
  31   2.0000      -0.414857       -11.2888
  32   2.0000      -0.382835       -10.4175
  33   2.0000      -0.375544       -10.2191
  34   0.0000       0.091435         2.4881
  35   0.0000       0.120452         3.2777
  36   0.0000       0.154048         4.1918
  37   0.0000       0.164930         4.4880
  38   0.0000       0.169123         4.6021

MULLIKEN ATOMIC CHARGES
-----------------------
   0 C :   -0.392334
   1 C :    0.195264
   2 C :   -0.425711
   3 N :   -0.344213
   4 C :   -0.141820
   5 C :    0.225875
   6 O :   -0.288820
   7 C :   -0.259658
   8 C :   -0.101031
   9 H :    0.146792
  10 H :    0.128091
  11 H :    0.124703
  12 H :    0.129216
  13 H :    0.141013
  14 H :    0.132210
  15 H :    0.203398
  16 H :    0.112242
  17 H :    0.141107
  18 H :    0.136780
  19 H :    0.136898
Sum of atomic charges:    0.0000000

LOEWDIN ATOMIC CHARGES
----------------------
   0 C :   -0.264100
   1 C :   -0.366409
   2 C :   -0.268320
   3 N :    0.035479
   4 C :   -0.266809
   5 C :   -0.322815
   6 O :    0.146209
   7 C :   -0.128728
   8 C :   -0.080153
   9 H :    0.131266
  10 H :    0.125413
  11 H :    0.125763
  12 H :    0.124609
  13 H :    0.125815
  14 H :    0.128087
  15 H :    0.173174
  16 H :    0.131108
  17 H :    0.144246
  18 H :    0.153080
  19 H :    0.153083

  Mayer bond orders larger than 0.1
B(  0-C ,  1-C ) :   0.8911 B(  0-C ,  9-H ) :   0.9394 B(  0-C , 10-H ) :   0.9287
B(  0-C , 11-H ) :   0.9319 B(  1-C ,  2-C ) :   0.9257 B(  1-C ,  3-N ) :   0.9812
B(  1-C ,  8-C ) :   0.8971 B(  2-C , 12-H ) :   0.9263 B(  2-C , 13-H ) :   0.9297
B(  2-C , 14-H ) :   0.9281 B(  3-N ,  4-C ) :   0.9220 B(  3-N , 15-H ) :   0.8807
B(  4-C ,  5-C ) :   0.9081 B(  4-C , 16-H ) :   0.9079 B(  4-C , 17-H ) :   0.9114
B(  5-C ,  6-O ) :   1.9841 B(  5-C ,  7-C ) :   1.0075 B(  7-C ,  8-C ) :   1.6661
B(  7-C , 18-H ) :   0.9241 B(  8-C , 19-H ) :   0.9134

MP2 TOTAL ENERGY:     -402.479951536 Eh
FINAL SINGLE POINT ENERGY      -402.479951535840

DIPOLE MOMENT
-------------
                                X             Y             Z
Electronic contribution:      7.53643      -6.54936       0.37525
Nuclear contribution   :     -8.81509       7.47895      -0.31428
                        -----------------------------------------
Total Dipole Moment    :     -1.27865       0.92959       0.06097
                        -----------------------------------------
Magnitude (a.u.)       :      1.58203
Magnitude (Debye)      :      4.02119

                             ****ORCA TERMINATED NORMALLY****
TOTAL RUN TIME: 0 days 0 hours 20 minutes 34 seconds 494 msec
