                         Program Version 3.0.3 - RELEASE   -
|  1> ! RI-MP2 RIJK def2-TZVP def2-TZVP/C def2-TZVP/JK TIGHTSCF
|  2> % maxcore 2000
|  3> % mp2 density relaxed end
|  4> *xyz 0 1
|  5>  O        0.0650243769     1.4915448942    -0.0589966160
|  6>  C        0.0191899100     0.0879724530     0.0339664853
|  7>  C        0.1385919244    -0.6292935344     1.4146654778
|  8>  C       -0.9240079438     0.1253360888     2.2370293005
|  9>  C       -2.1133742851    -0.3304407568     1.3640056383
| 10>  C       -2.0824445496    -1.8664743743     1.5851517000
| 11>  C       -0.7690563261    -1.7797424640     0.7947183942
| 12>  C       -1.3533846631    -0.5687219057    -0.0146721237
| 13>  H        0.9851844916     1.7706140076    -0.0127089705
| 14>  H        0.6803945100    -0.3842577673    -0.7075489493
| 15>  H        1.1067369028    -0.8382697179     1.8699029616
| 16>  H       -1.0105794991    -0.2174364847     3.2718394319
| 17>  H       -0.7550313416     1.2035421143     2.2237395344
| 18>  H       -3.0401434110     0.2390487418     1.4135866290
| 19>  H       -2.0782837185    -2.2387516811     2.6151625043
| 20>  H       -2.8480019880    -2.3921838121     1.0064643035
| 21>  H       -0.2727167183    -2.6309008316     0.3312030279
| 22>  H       -1.9488798714    -0.6743724199    -0.9201523394
| 23> *
| 24>
| 25>                          ****END OF INPUT****

CARTESIAN COORDINATES (ANGSTROEM)
---------------------------------
  O      0.065024    1.491545   -0.058997
  C      0.019190    0.087972    0.033966
  C      0.138592   -0.629294    1.414665
  C     -0.924008    0.125336    2.237029
  C     -2.113374   -0.330441    1.364006
  C     -2.082445   -1.866474    1.585152
  C     -0.769056   -1.779742    0.794718
  C     -1.353385   -0.568722   -0.014672
  H      0.985184    1.770614   -0.012709
  H      0.680395   -0.384258   -0.707549
  H      1.106737   -0.838270    1.869903
  H     -1.010579   -0.217436    3.271839
  H     -0.755031    1.203542    2.223740
  H     -3.040143    0.239049    1.413587
  H     -2.078284   -2.238752    2.615163
  H     -2.848002   -2.392184    1.006464
  H     -0.272717   -2.630901    0.331203
  H     -1.948880   -0.674372   -0.920152

 Total Charge           Charge          ....    0
 Multiplicity           Mult            ....    1
 Number of Electrons    NEL             ....   60
 Basis Dimension        Dim             ....  308

ORBITAL ENERGIES
----------------

  NO   OCC          E(Eh)            E(eV)
   0   2.0000     -20.553497      -559.2891
   1   2.0000     -11.275377      -306.8186
   2   2.0000     -11.230248      -305.5906
   3   2.0000     -11.228097      -305.5320
   4   2.0000     -11.228079      -305.5316
   5   2.0000     -11.225133      -305.4514
   6   2.0000     -11.217699      -305.2491
   7   2.0000     -11.211371      -305.0769
   8   2.0000      -1.362113       -37.0650
   9   2.0000      -1.206152       -32.8211
  10   2.0000      -1.002743       -27.2860
  11   2.0000      -0.965599       -26.2753
  12   2.0000      -0.897116       -24.4118
  13   2.0000      -0.816224       -22.2106
  14   2.0000      -0.750357       -20.4183
  15   2.0000      -0.711148       -19.3513
  16   2.0000      -0.699059       -19.0224
  17   2.0000      -0.677622       -18.4390
  18   2.0000      -0.639306       -17.3964
  19   2.0000      -0.620883       -16.8951
  20   2.0000      -0.565950       -15.4003
  21   2.0000      -0.534988       -14.5578
  22   2.0000      -0.515736       -14.0339
  23   2.0000      -0.485247       -13.2042
  24   2.0000      -0.470295       -12.7974
  25   2.0000      -0.452787       -12.3210
  26   2.0000      -0.438515       -11.9326
  27   2.0000      -0.423102       -11.5132
  28   2.0000      -0.409735       -11.1494
  29   2.0000      -0.399135       -10.8610
  30   0.0000       0.135462         3.6861
  31   0.0000       0.155041         4.2189
  32   0.0000       0.166663         4.5351
  33   0.0000       0.177392         4.8271
  34   0.0000       0.191893         5.2217

MULLIKEN ATOMIC CHARGES
-----------------------
   0 O :   -0.464138
   1 C :   -0.018627
   2 C :   -0.061700
   3 C :   -0.227298
   4 C :   -0.091664
   5 C :   -0.227943
   6 C :   -0.180895
   7 C :   -0.089477
   8 H :    0.315581
   9 H :    0.090763
  10 H :    0.128557
  11 H :    0.117811
  12 H :    0.118689
  13 H :    0.126665
  14 H :    0.109337
  15 H :    0.113693
  16 H :    0.119143
  17 H :    0.121504
Sum of atomic charges:    0.0000000

LOEWDIN ATOMIC CHARGES
----------------------
   0 O :   -0.013489
   1 C :   -0.310906
   2 C :   -0.172978
   3 C :   -0.208507
   4 C :   -0.173634
   5 C :   -0.210496
   6 C :   -0.150945
   7 C :   -0.133258
   8 H :    0.176001
   9 H :    0.138477
  10 H :    0.128688
  11 H :    0.133651
  12 H :    0.138024
  13 H :    0.131780
  14 H :    0.122862
  15 H :    0.138741
  16 H :    0.131419
  17 H :    0.134572

  Mayer bond orders larger than 0.1
B(  0-O ,  1-C ) :   1.1402 B(  0-O ,  7-C ) :  -0.1051 B(  0-O ,  8-H ) :   0.8438
B(  1-C ,  2-C ) :   0.8844 B(  1-C ,  7-C ) :   0.9050 B(  1-C ,  9-H ) :   0.9646
B(  2-C ,  3-C ) :   0.9495 B(  2-C ,  6-C ) :   0.8643 B(  2-C , 10-H ) :   0.9084
B(  3-C ,  4-C ) :   0.9312 B(  3-C , 11-H ) :   0.9341 B(  3-C , 12-H ) :   0.9095
B(  4-C ,  5-C ) :   0.9131 B(  4-C ,  7-C ) :   0.8784 B(  4-C , 13-H ) :   0.9152
B(  5-C ,  6-C ) :   0.9425 B(  5-C , 14-H ) :   0.9204 B(  5-C , 15-H ) :   0.9223
B(  6-C ,  7-C ) :   0.8865 B(  6-C , 16-H ) :   0.9200 B(  7-C , 17-H ) :   0.9142

MP2 TOTAL ENERGY:     -347.175380859 Eh
FINAL SINGLE POINT ENERGY      -347.175380859253

DIPOLE MOMENT
-------------
                                X             Y             Z
Electronic contribution:      1.13121       1.89587      -1.88332
Nuclear contribution   :     -0.65351      -2.18232       1.93471
                        -----------------------------------------
Total Dipole Moment    :      0.47770      -0.28644       0.05139
                        -----------------------------------------
Magnitude (a.u.)       :      0.55936
Magnitude (Debye)      :      1.42178

                             ****ORCA TERMINATED NORMALLY****
TOTAL RUN TIME: 0 days 0 hours 13 minutes 35 seconds 693 msec
