                         Program Version 3.0.3 - RELEASE   -
|  1> ! RI-MP2 RIJK def2-TZVP def2-TZVP/C def2-TZVP/JK TIGHTSCF
|  2> % maxcore 2000
|  3> % mp2 density relaxed end
|  4> *xyz 0 1
|  5>  C       -0.0130624967     1.5467517756    -0.1406403689
|  6>  C        1.5382564134     1.3043397067     0.0278252778
|  7>  N        1.1235650106     0.2433638502     1.0130281447
|  8>  C       -0.0010267330    -0.0208119905     0.0386732516
|  9>  C        0.7658763221    -0.4266903183    -1.2262559614
| 10>  C        1.7995942212     0.4454655319    -1.2095450122
| 11>  O        2.4083062533     0.4309044786    -2.4197982261
| 12>  C        1.6925372130    -0.5245718415    -3.1044842351
| 13>  N        0.6888635988    -1.0452327458    -2.4581540706
| 14>  H       -0.4539473644     2.0753375013     0.7077350256
| 15>  H       -0.3620588939     1.9438965847    -1.0945855562
| 16>  H        2.2387891282     2.0708721009     0.3523050409
| 17>  H        1.7903236578    -0.5298285987     1.0464763904
| 18>  H       -0.8615624281    -0.5863241300     0.3895191999
| 19>  H        2.0635772576    -0.7801538752    -4.0845029003
| 20> *
| 21>
| 22>                          ****END OF INPUT****

CARTESIAN COORDINATES (ANGSTROEM)
---------------------------------
  C     -0.013062    1.546752   -0.140640
  C      1.538256    1.304340    0.027825
  N      1.123565    0.243364    1.013028
  C     -0.001027   -0.020812    0.038673
  C      0.765876   -0.426690   -1.226256
  C      1.799594    0.445466   -1.209545
  O      2.408306    0.430904   -2.419798
  C      1.692537   -0.524572   -3.104484
  N      0.688864   -1.045233   -2.458154
  H     -0.453947    2.075338    0.707735
  H     -0.362059    1.943897   -1.094586
  H      2.238789    2.070872    0.352305
  H      1.790324   -0.529829    1.046476
  H     -0.861562   -0.586324    0.389519
  H      2.063577   -0.780154   -4.084503

 Total Charge           Charge          ....    0
 Multiplicity           Mult            ....    1
 Number of Electrons    NEL             ....   64
 Basis Dimension        Dim             ....  315

ORBITAL ENERGIES
----------------

  NO   OCC          E(Eh)            E(eV)
   0   2.0000     -20.648658      -561.8786
   1   2.0000     -15.578498      -423.9125
   2   2.0000     -15.561971      -423.4628
   3   2.0000     -11.338286      -308.5305
   4   2.0000     -11.296218      -307.3857
   5   2.0000     -11.288238      -307.1686
   6   2.0000     -11.283091      -307.0285
   7   2.0000     -11.250003      -306.1281
   8   2.0000     -11.248555      -306.0888
   9   2.0000      -1.487047       -40.4646
  10   2.0000      -1.282879       -34.9089
  11   2.0000      -1.234241       -33.5854
  12   2.0000      -1.042375       -28.3645
  13   2.0000      -0.973089       -26.4791
  14   2.0000      -0.940896       -25.6031
  15   2.0000      -0.859162       -23.3790
  16   2.0000      -0.785171       -21.3656
  17   2.0000      -0.776434       -21.1278
  18   2.0000      -0.719205       -19.5706
  19   2.0000      -0.697738       -18.9864
  20   2.0000      -0.669482       -18.2175
  21   2.0000      -0.632034       -17.1985
  22   2.0000      -0.581349       -15.8193
  23   2.0000      -0.572705       -15.5841
  24   2.0000      -0.533426       -14.5153
  25   2.0000      -0.532198       -14.4818
  26   2.0000      -0.499290       -13.5864
  27   2.0000      -0.480833       -13.0841
  28   2.0000      -0.462636       -12.5890
  29   2.0000      -0.450912       -12.2699
  30   2.0000      -0.414860       -11.2889
  31   2.0000      -0.311230        -8.4690
  32   0.0000       0.123874         3.3708
  33   0.0000       0.151568         4.1244
  34   0.0000       0.162694         4.4271
  35   0.0000       0.169682         4.6173
  36   0.0000       0.176733         4.8092

MULLIKEN ATOMIC CHARGES
-----------------------
   0 C :   -0.221650
   1 C :   -0.009016
   2 N :   -0.299927
   3 C :    0.004030
   4 C :   -0.056708
   5 C :    0.040880
   6 O :   -0.208020
   7 C :    0.102978
   8 N :   -0.267914
   9 H :    0.129676
  10 H :    0.129869
  11 H :    0.150106
  12 H :    0.201262
  13 H :    0.147796
  14 H :    0.156637
Sum of atomic charges:   -0.0000000

LOEWDIN ATOMIC CHARGES
----------------------
   0 C :   -0.172761
   1 C :   -0.200575
   2 N :    0.036178
   3 C :   -0.191051
   4 C :   -0.221224
   5 C :   -0.231257
   6 O :    0.344899
   7 C :   -0.305227
   8 N :    0.118058
   9 H :    0.135007
  10 H :    0.130318
  11 H :    0.134767
  12 H :    0.156396
  13 H :    0.134824
  14 H :    0.131648

  Mayer bond orders larger than 0.1
B(  0-C ,  1-C ) :   0.9052 B(  0-C ,  3-C ) :   0.9043 B(  0-C ,  9-H ) :   0.9211
B(  0-C , 10-H ) :   0.9111 B(  1-C ,  2-N ) :   0.9889 B(  1-C ,  5-C ) :   0.9798
B(  1-C , 11-H ) :   0.9060 B(  2-N ,  3-C ) :   0.9780 B(  2-N , 12-H ) :   0.8823
B(  3-C ,  4-C ) :   0.9863 B(  3-C , 13-H ) :   0.9082 B(  4-C ,  5-C ) :   1.4320
B(  4-C ,  8-N ) :   1.2595 B(  5-C ,  6-O ) :   1.0634 B(  6-O ,  7-C ) :   1.0496
B(  7-C ,  8-N ) :   1.5984 B(  7-C , 14-H ) :   0.9294

MP2 TOTAL ENERGY:     -416.052197823 Eh
FINAL SINGLE POINT ENERGY      -416.052197822914

DIPOLE MOMENT
-------------
                                X             Y             Z
Electronic contribution:      2.44791      -2.16490      -3.47419
Nuclear contribution   :     -2.19361       2.64884       3.41661
                        -----------------------------------------
Total Dipole Moment    :      0.25430       0.48394      -0.05758
                        -----------------------------------------
Magnitude (a.u.)       :      0.54971
Magnitude (Debye)      :      1.39724

                             ****ORCA TERMINATED NORMALLY****
TOTAL RUN TIME: 0 days 0 hours 16 minutes 45 seconds 7 msec
