                         Program Version 3.0.3 - RELEASE   -
|  1> ! RI-MP2 RIJK def2-TZVP def2-TZVP/C def2-TZVP/JK TIGHTSCF
|  2> % maxcore 2000
|  3> % mp2 density relaxed end
|  4> *xyz 0 1
|  5>  C       -0.0852865032     1.6634077930    -0.0989830977
|  6>  C        0.0082100879     0.1417125670     0.0590132115
|  7>  C        0.6277591336    -0.5280462934    -1.1763726695
|  8>  C        0.7509923007    -2.0778766637    -1.1702950461
|  9>  C        1.4913391757    -2.5584207349     0.0936880576
| 10>  C       -0.6653540969    -2.6893691648    -1.1796532757
| 11>  C        1.5166894266    -2.5074483786    -2.4736040341
| 12>  C        3.0048409607    -2.1138677606    -2.4844471665
| 13>  C        1.4061195866    -4.0062661698    -2.8068158425
| 14>  H        0.9038921075     2.1075372601    -0.2580500504
| 15>  H       -0.7089963373     1.9352471419    -0.9580486812
| 16>  H       -0.5207654516     2.1312837513     0.7896575206
| 17>  H        0.6054896080    -0.0889546882     0.9488091914
| 18>  H       -0.9946566419    -0.2570465318     0.2513480705
| 19>  H        0.0407546116    -0.2383401943    -2.0596591067
| 20>  H        1.6213861413    -0.0884835326    -1.3226903353
| 21>  H        0.8846569619    -2.3961675818     0.9895980896
| 22>  H        1.7094243325    -3.6301279193     0.0443530367
| 23>  H        2.4394139733    -2.0310887717     0.2379485624
| 24>  H       -1.1929201735    -2.4561286356    -2.1119532138
| 25>  H       -0.6383416810    -3.7770109305    -1.0724335695
| 26>  H       -1.2671528653    -2.3027399055    -0.3523686921
| 27>  H        1.0295791768    -1.9631317596    -3.2959999684
| 28>  H        3.5797771230    -2.7069829688    -1.7651926247
| 29>  H        3.4336224135    -2.3027849273    -3.4741303279
| 30>  H        3.1718462191    -1.0584690085    -2.2550041116
| 31>  H        0.3764580216    -4.3208812072    -2.9910472800
| 32>  H        1.9824882084    -4.2304132095    -3.7106447552
| 33>  H        1.8111052706    -4.6329373651    -2.0040742312
| 34> *
| 35>
| 36>                          ****END OF INPUT****

CARTESIAN COORDINATES (ANGSTROEM)
---------------------------------
  C     -0.085287    1.663408   -0.098983
  C      0.008210    0.141713    0.059013
  C      0.627759   -0.528046   -1.176373
  C      0.750992   -2.077877   -1.170295
  C      1.491339   -2.558421    0.093688
  C     -0.665354   -2.689369   -1.179653
  C      1.516689   -2.507448   -2.473604
  C      3.004841   -2.113868   -2.484447
  C      1.406120   -4.006266   -2.806816
  H      0.903892    2.107537   -0.258050
  H     -0.708996    1.935247   -0.958049
  H     -0.520765    2.131284    0.789658
  H      0.605490   -0.088955    0.948809
  H     -0.994657   -0.257047    0.251348
  H      0.040755   -0.238340   -2.059659
  H      1.621386   -0.088484   -1.322690
  H      0.884657   -2.396168    0.989598
  H      1.709424   -3.630128    0.044353
  H      2.439414   -2.031089    0.237949
  H     -1.192920   -2.456129   -2.111953
  H     -0.638342   -3.777011   -1.072434
  H     -1.267153   -2.302740   -0.352369
  H      1.029579   -1.963132   -3.296000
  H      3.579777   -2.706983   -1.765193
  H      3.433622   -2.302785   -3.474130
  H      3.171846   -1.058469   -2.255004
  H      0.376458   -4.320881   -2.991047
  H      1.982488   -4.230413   -3.710645
  H      1.811105   -4.632937   -2.004074

 Total Charge           Charge          ....    0
 Multiplicity           Mult            ....    1
 Number of Electrons    NEL             ....   74
 Basis Dimension        Dim             ....  399

ORBITAL ENERGIES
----------------

  NO   OCC          E(Eh)            E(eV)
   0   2.0000     -11.230250      -305.5906
   1   2.0000     -11.222209      -305.3718
   2   2.0000     -11.213848      -305.1443
   3   2.0000     -11.210266      -305.0468
   4   2.0000     -11.209312      -305.0209
   5   2.0000     -11.206426      -304.9423
   6   2.0000     -11.206273      -304.9382
   7   2.0000     -11.205542      -304.9183
   8   2.0000     -11.204903      -304.9009
   9   2.0000      -1.114840       -30.3363
  10   2.0000      -1.046357       -28.4728
  11   2.0000      -1.004181       -27.3252
  12   2.0000      -0.934939       -25.4410
  13   2.0000      -0.921620       -25.0785
  14   2.0000      -0.906084       -24.6558
  15   2.0000      -0.838434       -22.8149
  16   2.0000      -0.784930       -21.3590
  17   2.0000      -0.711095       -19.3499
  18   2.0000      -0.639871       -17.4118
  19   2.0000      -0.628091       -17.0912
  20   2.0000      -0.610591       -16.6150
  21   2.0000      -0.597952       -16.2711
  22   2.0000      -0.574172       -15.6240
  23   2.0000      -0.562241       -15.2994
  24   2.0000      -0.545766       -14.8511
  25   2.0000      -0.540811       -14.7162
  26   2.0000      -0.526673       -14.3315
  27   2.0000      -0.518128       -14.0990
  28   2.0000      -0.507721       -13.8158
  29   2.0000      -0.503290       -13.6952
  30   2.0000      -0.489193       -13.3116
  31   2.0000      -0.485212       -13.2033
  32   2.0000      -0.472640       -12.8612
  33   2.0000      -0.460294       -12.5252
  34   2.0000      -0.438932       -11.9439
  35   2.0000      -0.427429       -11.6309
  36   2.0000      -0.419626       -11.4186
  37   0.0000       0.129815         3.5324
  38   0.0000       0.152665         4.1542
  39   0.0000       0.161951         4.4069
  40   0.0000       0.165396         4.5007
  41   0.0000       0.181883         4.9493

MULLIKEN ATOMIC CHARGES
-----------------------
   0 C :   -0.388632
   1 C :   -0.209610
   2 C :   -0.293930
   3 C :    0.219428
   4 C :   -0.491036
   5 C :   -0.461668
   6 C :   -0.020042
   7 C :   -0.434526
   8 C :   -0.424781
   9 H :    0.121599
  10 H :    0.122279
  11 H :    0.132823
  12 H :    0.114526
  13 H :    0.104318
  14 H :    0.110161
  15 H :    0.102806
  16 H :    0.141336
  17 H :    0.134221
  18 H :    0.140486
  19 H :    0.132365
  20 H :    0.140886
  21 H :    0.134067
  22 H :    0.081174
  23 H :    0.131627
  24 H :    0.133038
  25 H :    0.130681
  26 H :    0.140899
  27 H :    0.132457
  28 H :    0.123049
Sum of atomic charges:    0.0000000

LOEWDIN ATOMIC CHARGES
----------------------
   0 C :   -0.321366
   1 C :   -0.294154
   2 C :   -0.230632
   3 C :   -0.298154
   4 C :   -0.272271
   5 C :   -0.272540
   6 C :   -0.262429
   7 C :   -0.296231
   8 C :   -0.295461
   9 H :    0.119608
  10 H :    0.119797
  11 H :    0.119571
  12 H :    0.135317
  13 H :    0.132314
  14 H :    0.141637
  15 H :    0.139884
  16 H :    0.125565
  17 H :    0.124132
  18 H :    0.126205
  19 H :    0.126018
  20 H :    0.125011
  21 H :    0.122424
  22 H :    0.153487
  23 H :    0.123763
  24 H :    0.123368
  25 H :    0.118289
  26 H :    0.121862
  27 H :    0.124082
  28 H :    0.120904

  Mayer bond orders larger than 0.1
B(  0-C ,  1-C ) :   0.9225 B(  0-C ,  9-H ) :   0.9403 B(  0-C , 10-H ) :   0.9409
B(  0-C , 11-H ) :   0.9438 B(  1-C ,  2-C ) :   0.9328 B(  1-C , 12-H ) :   0.9336
B(  1-C , 13-H ) :   0.9332 B(  2-C ,  3-C ) :   0.8960 B(  2-C , 14-H ) :   0.9278
B(  2-C , 15-H ) :   0.9314 B(  3-C ,  4-C ) :   0.8765 B(  3-C ,  5-C ) :   0.8795
B(  3-C ,  6-C ) :   0.8695 B(  4-C , 16-H ) :   0.9384 B(  4-C , 17-H ) :   0.9351
B(  4-C , 18-H ) :   0.9389 B(  5-C , 19-H ) :   0.9379 B(  5-C , 20-H ) :   0.9406
B(  5-C , 21-H ) :   0.9364 B(  6-C ,  7-C ) :   0.9075 B(  6-C ,  8-C ) :   0.9019
B(  6-C , 22-H ) :   0.9241 B(  7-C , 23-H ) :   0.9341 B(  7-C , 24-H ) :   0.9395
B(  7-C , 25-H ) :   0.9405 B(  8-C , 26-H ) :   0.9420 B(  8-C , 27-H ) :   0.9415
B(  8-C , 28-H ) :   0.9343

MP2 TOTAL ENERGY:     -354.129907450 Eh
FINAL SINGLE POINT ENERGY      -354.129907450262

DIPOLE MOMENT
-------------
                                X             Y             Z
Electronic contribution:     -0.30177      -0.23177      -0.48019
Nuclear contribution   :      0.28969       0.24204       0.47646
                        -----------------------------------------
Total Dipole Moment    :     -0.01207       0.01027      -0.00372
                        -----------------------------------------
Magnitude (a.u.)       :      0.01628
Magnitude (Debye)      :      0.04139

                             ****ORCA TERMINATED NORMALLY****
TOTAL RUN TIME: 0 days 0 hours 23 minutes 23 seconds 906 msec
