                         Program Version 3.0.3 - RELEASE   -
|  1> ! RI-MP2 RIJK def2-TZVP def2-TZVP/C def2-TZVP/JK TIGHTSCF
|  2> % maxcore 2000
|  3> % mp2 density relaxed end
|  4> *xyz 0 1
|  5>  C       -0.0696280576     1.5825513483    -0.0814190931
|  6>  C       -0.0099138687     0.0436592824     0.0209998434
|  7>  C        0.7818134433    -0.4518900112     1.2533956566
|  8>  C        2.2603886304    -0.0803126857     1.2314325751
|  9>  O        2.8724739219    -0.7248029085     2.3383155847
| 10>  C       -1.3600864188    -0.5187939726     0.0320593598
| 11>  C       -2.4744464755    -0.9692293327     0.0597458395
| 12>  H        0.9308562644     2.0086168824    -0.1964390951
| 13>  H       -0.6697920294     1.8873205445    -0.9424334979
| 14>  H       -0.5259219073     2.0090836728     0.8172035119
| 15>  H        0.4998169612    -0.3339761066    -0.8776706411
| 16>  H        0.3225276611    -0.0585488458     2.1671798649
| 17>  H        0.7105176440    -1.5426769095     1.3100463464
| 18>  H        2.7106733291    -0.4090555945     0.2790891424
| 19>  H        2.3884101846     1.0110465381     1.2925603919
| 20>  H        3.7961518015    -0.4593335295     2.3679048899
| 21>  H       -3.4559011045    -1.3739373518     0.0750759006
| 22> *
| 23>
| 24>                          ****END OF INPUT****

CARTESIAN COORDINATES (ANGSTROEM)
---------------------------------
  C     -0.069628    1.582551   -0.081419
  C     -0.009914    0.043659    0.021000
  C      0.781813   -0.451890    1.253396
  C      2.260389   -0.080313    1.231433
  O      2.872474   -0.724803    2.338316
  C     -1.360086   -0.518794    0.032059
  C     -2.474446   -0.969229    0.059746
  H      0.930856    2.008617   -0.196439
  H     -0.669792    1.887321   -0.942433
  H     -0.525922    2.009084    0.817204
  H      0.499817   -0.333976   -0.877671
  H      0.322528   -0.058549    2.167180
  H      0.710518   -1.542677    1.310046
  H      2.710673   -0.409056    0.279089
  H      2.388410    1.011047    1.292560
  H      3.796152   -0.459334    2.367905
  H     -3.455901   -1.373937    0.075076

 Total Charge           Charge          ....    0
 Multiplicity           Mult            ....    1
 Number of Electrons    NEL             ....   54
 Basis Dimension        Dim             ....  277

ORBITAL ENERGIES
----------------

  NO   OCC          E(Eh)            E(eV)
   0   2.0000     -20.558282      -559.4193
   1   2.0000     -11.279805      -306.9391
   2   2.0000     -11.259467      -306.3857
   3   2.0000     -11.228875      -305.5532
   4   2.0000     -11.225814      -305.4699
   5   2.0000     -11.225536      -305.4624
   6   2.0000     -11.216814      -305.2250
   7   2.0000      -1.362473       -37.0748
   8   2.0000      -1.108163       -30.1547
   9   2.0000      -1.012611       -27.5546
  10   2.0000      -0.975109       -26.5341
  11   2.0000      -0.886732       -24.1292
  12   2.0000      -0.808634       -22.0041
  13   2.0000      -0.719781       -19.5862
  14   2.0000      -0.697849       -18.9894
  15   2.0000      -0.663274       -18.0486
  16   2.0000      -0.640957       -17.4413
  17   2.0000      -0.599751       -16.3201
  18   2.0000      -0.573110       -15.5951
  19   2.0000      -0.557314       -15.1653
  20   2.0000      -0.534072       -14.5328
  21   2.0000      -0.500052       -13.6071
  22   2.0000      -0.494488       -13.4557
  23   2.0000      -0.482564       -13.1312
  24   2.0000      -0.446704       -12.1554
  25   2.0000      -0.382860       -10.4182
  26   2.0000      -0.381937       -10.3930
  27   0.0000       0.129322         3.5190
  28   0.0000       0.142882         3.8880
  29   0.0000       0.165487         4.5031
  30   0.0000       0.166265         4.5243
  31   0.0000       0.177738         4.8365

MULLIKEN ATOMIC CHARGES
-----------------------
   0 C :   -0.399832
   1 C :   -0.206767
   2 C :   -0.141693
   3 C :   -0.096288
   4 O :   -0.462577
   5 C :   -0.022610
   6 C :   -0.132431
   7 H :    0.130133
   8 H :    0.143571
   9 H :    0.132420
  10 H :    0.109898
  11 H :    0.118396
  12 H :    0.130372
  13 H :    0.090925
  14 H :    0.101555
  15 H :    0.315767
  16 H :    0.189162
Sum of atomic charges:    0.0000000

LOEWDIN ATOMIC CHARGES
----------------------
   0 C :   -0.273239
   1 C :   -0.267373
   2 C :   -0.232322
   3 C :   -0.351437
   4 O :   -0.048748
   5 C :   -0.089358
   6 C :   -0.104165
   7 H :    0.120547
   8 H :    0.128561
   9 H :    0.128503
  10 H :    0.168364
  11 H :    0.144975
  12 H :    0.149323
  13 H :    0.114889
  14 H :    0.113511
  15 H :    0.172059
  16 H :    0.125910

  Mayer bond orders larger than 0.1
B(  0-C ,  1-C ) :   0.9065 B(  0-C ,  7-H ) :   0.9377 B(  0-C ,  8-H ) :   0.9360
B(  0-C ,  9-H ) :   0.9291 B(  1-C ,  2-C ) :   0.9314 B(  1-C ,  5-C ) :   1.1454
B(  1-C ,  6-C ) :  -0.1067 B(  1-C , 10-H ) :   0.9118 B(  2-C ,  3-C ) :   0.9143
B(  2-C , 11-H ) :   0.9151 B(  2-C , 12-H ) :   0.9261 B(  3-C ,  4-O ) :   1.0296
B(  3-C , 13-H ) :   0.9286 B(  3-C , 14-H ) :   0.9390 B(  4-O , 15-H ) :   0.8490
B(  5-C ,  6-C ) :   2.5992 B(  6-C , 16-H ) :   0.8926

MP2 TOTAL ENERGY:     -309.144800940 Eh
FINAL SINGLE POINT ENERGY      -309.144800939899

DIPOLE MOMENT
-------------
                                X             Y             Z
Electronic contribution:     -1.75697      -3.37908       0.79096
Nuclear contribution   :      2.29049       3.85755      -1.14449
                        -----------------------------------------
Total Dipole Moment    :      0.53352       0.47847      -0.35352
                        -----------------------------------------
Magnitude (a.u.)       :      0.79910
Magnitude (Debye)      :      2.03114

                             ****ORCA TERMINATED NORMALLY****
TOTAL RUN TIME: 0 days 0 hours 7 minutes 22 seconds 227 msec
