                         Program Version 3.0.3 - RELEASE   -
|  1> ! RI-MP2 RIJK def2-TZVP def2-TZVP/C def2-TZVP/JK TIGHTSCF
|  2> % maxcore 2000
|  3> % mp2 density relaxed end
|  4> *xyz 0 1
|  5>  C        0.0134364706     1.5298657602     0.1813172343
|  6>  C        0.0174168309     0.0491787638    -0.2185442895
|  7>  C       -1.3655643374    -0.5673064023    -0.1313428559
|  8>  C       -1.6021470540    -2.0645532287     0.0280826243
|  9>  C       -0.4594845557    -3.0551987907     0.1069274125
| 10>  C       -1.8947809614    -1.1045859291     1.1673443595
| 11>  O       -1.0311133790    -1.0493862891     2.2616299653
| 12>  C       -1.4015696849    -1.9336190021     3.3002507070
| 13>  H        1.0113306606     1.9694749809     0.0843296830
| 14>  H       -0.6689985104     2.1108913693    -0.4494241036
| 15>  H       -0.3095873066     1.6448997645     1.2203434553
| 16>  H        0.3936795221    -0.0569125874    -1.2442876701
| 17>  H        0.7117913124    -0.4925070495     0.4281607049
| 18>  H       -2.1037979739    -0.0494099066    -0.7409126771
| 19>  H       -2.4798762064    -2.4440785182    -0.4900474195
| 20>  H        0.3118509314    -2.7250745716     0.8059300243
| 21>  H       -0.8182288027    -4.0327826211     0.4474031411
| 22>  H        0.0116650534    -3.2011835373    -0.8714430392
| 23>  H       -2.9381582925    -0.9161913116     1.4278387268
| 24>  H       -1.3915790470    -2.9814309425     2.9695106354
| 25>  H       -0.6767253801    -1.8052805301     4.1078448211
| 26>  H       -2.4066814294    -1.7021962308     3.6849254001
| 27> *
| 28>
| 29>                          ****END OF INPUT****

CARTESIAN COORDINATES (ANGSTROEM)
---------------------------------
  C      0.013436    1.529866    0.181317
  C      0.017417    0.049179   -0.218544
  C     -1.365564   -0.567306   -0.131343
  C     -1.602147   -2.064553    0.028083
  C     -0.459485   -3.055199    0.106927
  C     -1.894781   -1.104586    1.167344
  O     -1.031113   -1.049386    2.261630
  C     -1.401570   -1.933619    3.300251
  H      1.011331    1.969475    0.084330
  H     -0.668999    2.110891   -0.449424
  H     -0.309587    1.644900    1.220343
  H      0.393680   -0.056913   -1.244288
  H      0.711791   -0.492507    0.428161
  H     -2.103798   -0.049410   -0.740913
  H     -2.479876   -2.444079   -0.490047
  H      0.311851   -2.725075    0.805930
  H     -0.818229   -4.032783    0.447403
  H      0.011665   -3.201184   -0.871443
  H     -2.938158   -0.916191    1.427839
  H     -1.391579   -2.981431    2.969511
  H     -0.676725   -1.805281    4.107845
  H     -2.406681   -1.702196    3.684925

 Total Charge           Charge          ....    0
 Multiplicity           Mult            ....    1
 Number of Electrons    NEL             ....   64
 Basis Dimension        Dim             ....  332

ORBITAL ENERGIES
----------------

  NO   OCC          E(Eh)            E(eV)
   0   2.0000     -20.557020      -559.3850
   1   2.0000     -11.272059      -306.7283
   2   2.0000     -11.269902      -306.6696
   3   2.0000     -11.224240      -305.4271
   4   2.0000     -11.220704      -305.3309
   5   2.0000     -11.213399      -305.1321
   6   2.0000     -11.212752      -305.1145
   7   2.0000     -11.202946      -304.8476
   8   2.0000      -1.379748       -37.5449
   9   2.0000      -1.137556       -30.9545
  10   2.0000      -1.017824       -27.6964
  11   2.0000      -0.963135       -26.2082
  12   2.0000      -0.922402       -25.0998
  13   2.0000      -0.857416       -23.3315
  14   2.0000      -0.774567       -21.0770
  15   2.0000      -0.746890       -20.3239
  16   2.0000      -0.696790       -18.9606
  17   2.0000      -0.643658       -17.5148
  18   2.0000      -0.632676       -17.2160
  19   2.0000      -0.604060       -16.4373
  20   2.0000      -0.586414       -15.9571
  21   2.0000      -0.571062       -15.5394
  22   2.0000      -0.555567       -15.1177
  23   2.0000      -0.538415       -14.6510
  24   2.0000      -0.521254       -14.1840
  25   2.0000      -0.506986       -13.7958
  26   2.0000      -0.495314       -13.4782
  27   2.0000      -0.481036       -13.0897
  28   2.0000      -0.464246       -12.6328
  29   2.0000      -0.456049       -12.4097
  30   2.0000      -0.389690       -10.6040
  31   2.0000      -0.371666       -10.1135
  32   0.0000       0.136341         3.7100
  33   0.0000       0.157073         4.2742
  34   0.0000       0.163927         4.4607
  35   0.0000       0.170283         4.6336
  36   0.0000       0.199192         5.4203

MULLIKEN ATOMIC CHARGES
-----------------------
   0 C :   -0.407708
   1 C :   -0.176721
   2 C :   -0.107006
   3 C :   -0.067253
   4 C :   -0.434834
   5 C :    0.009016
   6 O :   -0.314232
   7 C :   -0.224063
   8 H :    0.127942
   9 H :    0.115286
  10 H :    0.140729
  11 H :    0.110524
  12 H :    0.111826
  13 H :    0.114118
  14 H :    0.112934
  15 H :    0.150589
  16 H :    0.133031
  17 H :    0.135254
  18 H :    0.099897
  19 H :    0.117100
  20 H :    0.138688
  21 H :    0.114884
Sum of atomic charges:   -0.0000000

LOEWDIN ATOMIC CHARGES
----------------------
   0 C :   -0.314352
   1 C :   -0.270876
   2 C :   -0.194972
   3 C :   -0.219329
   4 C :   -0.298687
   5 C :   -0.285915
   6 O :    0.169191
   7 C :   -0.348917
   8 H :    0.118730
   9 H :    0.118199
  10 H :    0.124686
  11 H :    0.136906
  12 H :    0.141820
  13 H :    0.149653
  14 H :    0.145370
  15 H :    0.128355
  16 H :    0.123827
  17 H :    0.125726
  18 H :    0.130702
  19 H :    0.103886
  20 H :    0.112966
  21 H :    0.103030

  Mayer bond orders larger than 0.1
B(  0-C ,  1-C ) :   0.9149 B(  0-C ,  8-H ) :   0.9407 B(  0-C ,  9-H ) :   0.9379
B(  0-C , 10-H ) :   0.9409 B(  1-C ,  2-C ) :   0.9274 B(  1-C , 11-H ) :   0.9339
B(  1-C , 12-H ) :   0.9272 B(  2-C ,  3-C ) :   0.8571 B(  2-C ,  5-C ) :   0.8956
B(  2-C , 13-H ) :   0.9214 B(  3-C ,  4-C ) :   0.8914 B(  3-C ,  5-C ) :   0.8838
B(  3-C , 14-H ) :   0.9229 B(  4-C , 15-H ) :   0.9399 B(  4-C , 16-H ) :   0.9383
B(  4-C , 17-H ) :   0.9370 B(  5-C ,  6-O ) :   0.9547 B(  5-C , 18-H ) :   0.9320
B(  6-O ,  7-C ) :   0.9049 B(  7-C , 19-H ) :   0.9362 B(  7-C , 20-H ) :   0.9396
B(  7-C , 21-H ) :   0.9378

MP2 TOTAL ENERGY:     -349.574137128 Eh
FINAL SINGLE POINT ENERGY      -349.574137127593

DIPOLE MOMENT
-------------
                                X             Y             Z
Electronic contribution:     -2.09699      -0.07098       0.96138
Nuclear contribution   :      1.80766      -0.26800      -0.91044
                        -----------------------------------------
Total Dipole Moment    :     -0.28933      -0.33898       0.05094
                        -----------------------------------------
Magnitude (a.u.)       :      0.44857
Magnitude (Debye)      :      1.14017

                             ****ORCA TERMINATED NORMALLY****
TOTAL RUN TIME: 0 days 0 hours 15 minutes 55 seconds 123 msec
