                         Program Version 3.0.3 - RELEASE   -
|  1> ! RI-MP2 RIJK def2-TZVP def2-TZVP/C def2-TZVP/JK TIGHTSCF
|  2> % maxcore 2000
|  3> % mp2 density relaxed end
|  4> *xyz 0 1
|  5>  O        0.0235731203     0.0703974273     0.0854045461
|  6>  C       -0.0053534925     1.2627378929     0.0847980091
|  7>  C       -1.0771649972     2.3012446551    -0.0580985520
|  8>  C       -0.0871045781     3.1792611469    -0.7804956096
|  9>  N       -0.5791210672     3.5855801890     0.5372829297
| 10>  C        0.7581251774     3.2588792703     1.1523448641
| 11>  C        1.0917046457     2.3729082215    -0.0715045868
| 12>  C        2.4079498569     2.0810053525    -0.5331119981
| 13>  C        3.5197686696     1.8335027636    -0.9193161967
| 14>  H       -2.1425459176     2.1932848506    -0.2038332010
| 15>  H       -0.1756918775     3.7183304355    -1.7129947755
| 16>  H        1.3464049533     4.1768436886     1.1955762871
| 17>  H        0.7213387962     2.7763318222     2.1344099263
| 18>  H        4.4997868808     1.6069756338    -1.2603479628
| 19> *
| 20>
| 21>                          ****END OF INPUT****

CARTESIAN COORDINATES (ANGSTROEM)
---------------------------------
  O      0.023573    0.070397    0.085405
  C     -0.005353    1.262738    0.084798
  C     -1.077165    2.301245   -0.058099
  C     -0.087105    3.179261   -0.780496
  N     -0.579121    3.585580    0.537283
  C      0.758125    3.258879    1.152345
  C      1.091705    2.372908   -0.071505
  C      2.407950    2.081005   -0.533112
  C      3.519769    1.833503   -0.919316
  H     -2.142546    2.193285   -0.203833
  H     -0.175692    3.718330   -1.712995
  H      1.346405    4.176844    1.195576
  H      0.721339    2.776332    2.134410
  H      4.499787    1.606976   -1.260348

 Total Charge           Charge          ....    0
 Multiplicity           Mult            ....    1
 Number of Electrons    NEL             ....   62
 Basis Dimension        Dim             ....  309

ORBITAL ENERGIES
----------------

  NO   OCC          E(Eh)            E(eV)
   0   2.0000     -20.564640      -559.5923
   1   2.0000     -15.605271      -424.6410
   2   2.0000     -11.357331      -309.0487
   3   2.0000     -11.309886      -307.7576
   4   2.0000     -11.298877      -307.4581
   5   2.0000     -11.294226      -307.3315
   6   2.0000     -11.292921      -307.2960
   7   2.0000     -11.251963      -306.1815
   8   2.0000     -11.245427      -306.0036
   9   2.0000      -1.415094       -38.5067
  10   2.0000      -1.354297       -36.8523
  11   2.0000      -1.087872       -29.6025
  12   2.0000      -1.024170       -27.8691
  13   2.0000      -1.009202       -27.4618
  14   2.0000      -0.898636       -24.4531
  15   2.0000      -0.816339       -22.2137
  16   2.0000      -0.793747       -21.5989
  17   2.0000      -0.718802       -19.5596
  18   2.0000      -0.708398       -19.2765
  19   2.0000      -0.679549       -18.4915
  20   2.0000      -0.640655       -17.4331
  21   2.0000      -0.626185       -17.0393
  22   2.0000      -0.618093       -16.8192
  23   2.0000      -0.563939       -15.3456
  24   2.0000      -0.523989       -14.2585
  25   2.0000      -0.491475       -13.3737
  26   2.0000      -0.485295       -13.2055
  27   2.0000      -0.440271       -11.9804
  28   2.0000      -0.430626       -11.7179
  29   2.0000      -0.397269       -10.8102
  30   2.0000      -0.370769       -10.0891
  31   0.0000       0.128132         3.4867
  32   0.0000       0.136715         3.7202
  33   0.0000       0.146084         3.9751
  34   0.0000       0.153936         4.1888
  35   0.0000       0.162982         4.4350

MULLIKEN ATOMIC CHARGES
-----------------------
   0 O :   -0.240563
   1 C :    0.153441
   2 C :   -0.087569
   3 C :   -0.098292
   4 N :   -0.203688
   5 C :   -0.088571
   6 C :   -0.155713
   7 C :    0.013170
   8 C :   -0.093732
   9 H :    0.158253
  10 H :    0.176833
  11 H :    0.135992
  12 H :    0.130833
  13 H :    0.199606
Sum of atomic charges:    0.0000000

LOEWDIN ATOMIC CHARGES
----------------------
   0 O :    0.181331
   1 C :   -0.271054
   2 C :   -0.157081
   3 C :   -0.112848
   4 N :    0.147889
   5 C :   -0.171706
   6 C :   -0.172844
   7 C :   -0.071595
   8 C :   -0.061983
   9 H :    0.145909
  10 H :    0.142521
  11 H :    0.140334
  12 H :    0.130813
  13 H :    0.130314

  Mayer bond orders larger than 0.1
B(  0-O ,  1-C ) :   2.0585 B(  1-C ,  2-C ) :   0.9061 B(  1-C ,  6-C ) :   0.8083
B(  2-C ,  3-C ) :   0.8456 B(  2-C ,  4-N ) :   0.8691 B(  2-C ,  9-H ) :   0.9201
B(  3-C ,  4-N ) :   0.9413 B(  3-C ,  6-C ) :   0.8455 B(  3-C , 10-H ) :   0.8767
B(  4-N ,  5-C ) :   0.9045 B(  5-C ,  6-C ) :   0.9234 B(  5-C , 11-H ) :   0.9216
B(  5-C , 12-H ) :   0.9155 B(  6-C ,  7-C ) :   1.1950 B(  6-C ,  8-C ) :  -0.1664
B(  7-C ,  8-C ) :   2.6311 B(  8-C , 13-H ) :   0.8629

MP2 TOTAL ENERGY:     -398.753548782 Eh
FINAL SINGLE POINT ENERGY      -398.753548782297

DIPOLE MOMENT
-------------
                                X             Y             Z
Electronic contribution:     -0.70770      -2.48987      -0.58690
Nuclear contribution   :      0.98134       3.25224       0.32440
                        -----------------------------------------
Total Dipole Moment    :      0.27364       0.76237      -0.26250
                        -----------------------------------------
Magnitude (a.u.)       :      0.85147
Magnitude (Debye)      :      2.16426

                             ****ORCA TERMINATED NORMALLY****
TOTAL RUN TIME: 0 days 0 hours 15 minutes 3 seconds 706 msec
