                         Program Version 3.0.3 - RELEASE   -
|  1> ! RI-MP2 RIJK def2-TZVP def2-TZVP/C def2-TZVP/JK TIGHTSCF
|  2> % maxcore 2000
|  3> % mp2 density relaxed end
|  4> *xyz 0 1
|  5>  N        0.0173332388     1.1831340174     0.4180999105
|  6>  C        0.0382710721     0.0239482527    -0.0684763848
|  7>  O        1.1069156532    -0.6024760617    -0.6418551557
|  8>  C        0.7529078694    -1.9291910566    -1.0416302569
|  9>  C        1.4974054660    -3.0243737618    -0.2578587883
| 10>  C        0.4057340123    -4.0634946868     0.0607810750
| 11>  C       -0.8342669980    -3.2027556976     0.3666605797
| 12>  C       -0.7438388411    -2.0465179121    -0.6448809337
| 13>  O       -1.0554336577    -0.7733581788    -0.0798586312
| 14>  H        0.9331269977     1.6152651009     0.3246907102
| 15>  H        0.9140292216    -2.0082395439    -2.1200268226
| 16>  H        2.3470778610    -3.4364033722    -0.8066699687
| 17>  H        1.8815248872    -2.5805626316     0.6667523030
| 18>  H        0.2204209640    -4.6988442832    -0.8139830577
| 19>  H        0.6776764877    -4.7258579133     0.8861278012
| 20>  H       -1.7757577282    -3.7521644884     0.3003601802
| 21>  H       -0.7659054266    -2.7794548049     1.3743081639
| 22>  H       -1.3998949794    -2.1988514780    -1.5060296541
| 23> *
| 24>
| 25>                          ****END OF INPUT****

CARTESIAN COORDINATES (ANGSTROEM)
---------------------------------
  N      0.017333    1.183134    0.418100
  C      0.038271    0.023948   -0.068476
  O      1.106916   -0.602476   -0.641855
  C      0.752908   -1.929191   -1.041630
  C      1.497405   -3.024374   -0.257859
  C      0.405734   -4.063495    0.060781
  C     -0.834267   -3.202756    0.366661
  C     -0.743839   -2.046518   -0.644881
  O     -1.055434   -0.773358   -0.079859
  H      0.933127    1.615265    0.324691
  H      0.914029   -2.008240   -2.120027
  H      2.347078   -3.436403   -0.806670
  H      1.881525   -2.580563    0.666752
  H      0.220421   -4.698844   -0.813983
  H      0.677676   -4.725858    0.886128
  H     -1.775758   -3.752164    0.300360
  H     -0.765905   -2.779455    1.374308
  H     -1.399895   -2.198851   -1.506030

 Total Charge           Charge          ....    0
 Multiplicity           Mult            ....    1
 Number of Electrons    NEL             ....   68
 Basis Dimension        Dim             ....  333

ORBITAL ENERGIES
----------------

  NO   OCC          E(Eh)            E(eV)
   0   2.0000     -20.607299      -560.7531
   1   2.0000     -20.602244      -560.6156
   2   2.0000     -15.519222      -422.2995
   3   2.0000     -11.387697      -309.8750
   4   2.0000     -11.310324      -307.7696
   5   2.0000     -11.308453      -307.7187
   6   2.0000     -11.244424      -305.9763
   7   2.0000     -11.242600      -305.9267
   8   2.0000     -11.240708      -305.8752
   9   2.0000      -1.493146       -40.6306
  10   2.0000      -1.380645       -37.5693
  11   2.0000      -1.201467       -32.6936
  12   2.0000      -1.131043       -30.7772
  13   2.0000      -0.990561       -26.9545
  14   2.0000      -0.980309       -26.6756
  15   2.0000      -0.838062       -22.8048
  16   2.0000      -0.823314       -22.4035
  17   2.0000      -0.817702       -22.2508
  18   2.0000      -0.732447       -19.9309
  19   2.0000      -0.691905       -18.8277
  20   2.0000      -0.674685       -18.3591
  21   2.0000      -0.647166       -17.6103
  22   2.0000      -0.640190       -17.4205
  23   2.0000      -0.607062       -16.5190
  24   2.0000      -0.597050       -16.2466
  25   2.0000      -0.555827       -15.1248
  26   2.0000      -0.543119       -14.7790
  27   2.0000      -0.512245       -13.9389
  28   2.0000      -0.501497       -13.6464
  29   2.0000      -0.496126       -13.5003
  30   2.0000      -0.492606       -13.4045
  31   2.0000      -0.458353       -12.4724
  32   2.0000      -0.440765       -11.9938
  33   2.0000      -0.386913       -10.5284
  34   0.0000       0.120163         3.2698
  35   0.0000       0.142794         3.8856
  36   0.0000       0.160088         4.3562
  37   0.0000       0.167110         4.5473
  38   0.0000       0.187878         5.1124

MULLIKEN ATOMIC CHARGES
-----------------------
   0 N :   -0.389984
   1 C :    0.259204
   2 O :   -0.275363
   3 C :    0.069648
   4 C :   -0.254830
   5 C :   -0.236500
   6 C :   -0.259418
   7 C :    0.067766
   8 O :   -0.242845
   9 H :    0.230966
  10 H :    0.115826
  11 H :    0.133459
  12 H :    0.135387
  13 H :    0.122210
  14 H :    0.132874
  15 H :    0.134616
  16 H :    0.140430
  17 H :    0.116556
Sum of atomic charges:    0.0000000

LOEWDIN ATOMIC CHARGES
----------------------
   0 N :   -0.083525
   1 C :   -0.537597
   2 O :    0.249803
   3 C :   -0.248980
   4 C :   -0.232309
   5 C :   -0.253911
   6 C :   -0.230951
   7 C :   -0.249210
   8 O :    0.278720
   9 H :    0.173009
  10 H :    0.142775
  11 H :    0.136717
  12 H :    0.148857
  13 H :    0.138401
  14 H :    0.137379
  15 H :    0.137207
  16 H :    0.150039
  17 H :    0.143576

  Mayer bond orders larger than 0.1
B(  0-N ,  1-C ) :   2.0151 B(  0-N ,  9-H ) :   0.8486 B(  1-C ,  2-O ) :   1.0712
B(  1-C ,  8-O ) :   1.0815 B(  2-O ,  3-C ) :   0.9176 B(  3-C ,  4-C ) :   0.8978
B(  3-C ,  7-C ) :   0.9190 B(  3-C , 10-H ) :   0.9343 B(  4-C ,  5-C ) :   0.9160
B(  4-C , 11-H ) :   0.9287 B(  4-C , 12-H ) :   0.9246 B(  5-C ,  6-C ) :   0.9142
B(  5-C , 13-H ) :   0.9301 B(  5-C , 14-H ) :   0.9278 B(  6-C ,  7-C ) :   0.8924
B(  6-C , 15-H ) :   0.9290 B(  6-C , 16-H ) :   0.9267 B(  7-C ,  8-O ) :   0.9227
B(  7-C , 17-H ) :   0.9330

MP2 TOTAL ENERGY:     -438.406376346 Eh
FINAL SINGLE POINT ENERGY      -438.406376345852

DIPOLE MOMENT
-------------
                                X             Y             Z
Electronic contribution:     -1.11564       7.91690      -0.77374
Nuclear contribution   :      1.67669      -9.63855       0.16514
                        -----------------------------------------
Total Dipole Moment    :      0.56105      -1.72164      -0.60859
                        -----------------------------------------
Magnitude (a.u.)       :      1.91029
Magnitude (Debye)      :      4.85558

                             ****ORCA TERMINATED NORMALLY****
TOTAL RUN TIME: 0 days 0 hours 17 minutes 12 seconds 892 msec
