                         Program Version 3.0.3 - RELEASE   -
|  1> ! RI-MP2 RIJK def2-TZVP def2-TZVP/C def2-TZVP/JK TIGHTSCF
|  2> % maxcore 2000
|  3> % mp2 density relaxed end
|  4> *xyz 0 1
|  5>  O       -0.0150378621     1.4310238769     0.0473658782
|  6>  C       -0.0631103629     0.0412640346     0.0089190589
|  7>  C       -1.3516161076    -0.7302418203     0.0156935276
|  8>  C       -2.6155001584     0.0418994938    -0.3552873214
|  9>  C       -2.3725445615     0.4876675369    -1.7961073222
| 10>  C       -1.2010424009     0.0071770129    -2.2622950653
| 11>  C       -0.4506691227    -0.7508921038    -1.2343062796
| 12>  C       -3.2934484496     1.3022144748    -2.4951900504
| 13>  C       -4.1107616500     1.9928068065    -3.0504329618
| 14>  H       -0.4746939429     1.7704074465    -0.7310042250
| 15>  H        0.7520624491    -0.3758400772     0.5919929679
| 16>  H       -1.4388801642    -1.5993921615     0.6572949369
| 17>  H       -3.5167574098    -0.5770964397    -0.2871015074
| 18>  H       -2.7703893082     0.9063845140     0.3019776155
| 19>  H       -0.8275843093     0.1783899167    -3.2648927673
| 20>  H        0.1530375390    -1.6039114825    -1.5237462290
| 21>  H       -4.8220986179     2.6000373216    -3.5530410756
| 22> *
| 23>
| 24>                          ****END OF INPUT****

CARTESIAN COORDINATES (ANGSTROEM)
---------------------------------
  O     -0.015038    1.431024    0.047366
  C     -0.063110    0.041264    0.008919
  C     -1.351616   -0.730242    0.015694
  C     -2.615500    0.041899   -0.355287
  C     -2.372545    0.487668   -1.796107
  C     -1.201042    0.007177   -2.262295
  C     -0.450669   -0.750892   -1.234306
  C     -3.293448    1.302214   -2.495190
  C     -4.110762    1.992807   -3.050433
  H     -0.474694    1.770407   -0.731004
  H      0.752062   -0.375840    0.591993
  H     -1.438880   -1.599392    0.657295
  H     -3.516757   -0.577096   -0.287102
  H     -2.770389    0.906385    0.301978
  H     -0.827584    0.178390   -3.264893
  H      0.153038   -1.603911   -1.523746
  H     -4.822099    2.600037   -3.553041

 Total Charge           Charge          ....    0
 Multiplicity           Mult            ....    1
 Number of Electrons    NEL             ....   64
 Basis Dimension        Dim             ....  327

ORBITAL ENERGIES
----------------

  NO   OCC          E(Eh)            E(eV)
   0   2.0000     -20.561187      -559.4984
   1   2.0000     -11.291712      -307.2631
   2   2.0000     -11.262768      -306.4755
   3   2.0000     -11.252927      -306.2077
   4   2.0000     -11.243353      -305.9472
   5   2.0000     -11.243067      -305.9394
   6   2.0000     -11.242610      -305.9270
   7   2.0000     -11.238678      -305.8200
   8   2.0000     -11.234103      -305.6955
   9   2.0000      -1.374636       -37.4057
  10   2.0000      -1.186948       -32.2985
  11   2.0000      -1.082520       -29.4569
  12   2.0000      -1.010441       -27.4955
  13   2.0000      -0.977771       -26.6065
  14   2.0000      -0.862810       -23.4783
  15   2.0000      -0.789819       -21.4921
  16   2.0000      -0.782594       -21.2955
  17   2.0000      -0.731380       -19.9018
  18   2.0000      -0.705192       -19.1892
  19   2.0000      -0.680395       -18.5145
  20   2.0000      -0.639952       -17.4140
  21   2.0000      -0.598489       -16.2857
  22   2.0000      -0.576582       -15.6896
  23   2.0000      -0.559630       -15.2283
  24   2.0000      -0.544696       -14.8219
  25   2.0000      -0.528566       -14.3830
  26   2.0000      -0.515341       -14.0231
  27   2.0000      -0.461798       -12.5662
  28   2.0000      -0.423983       -11.5372
  29   2.0000      -0.398898       -10.8546
  30   2.0000      -0.392422       -10.6784
  31   2.0000      -0.324263        -8.8236
  32   0.0000       0.098300         2.6749
  33   0.0000       0.139644         3.7999
  34   0.0000       0.152529         4.1505
  35   0.0000       0.161390         4.3916
  36   0.0000       0.169763         4.6195

MULLIKEN ATOMIC CHARGES
-----------------------
   0 O :   -0.450452
   1 C :    0.017265
   2 C :   -0.117938
   3 C :   -0.173928
   4 C :   -0.301740
   5 C :   -0.206837
   6 C :   -0.064745
   7 C :    0.047067
   8 C :   -0.098280
   9 H :    0.336197
  10 H :    0.124838
  11 H :    0.136205
  12 H :    0.135812
  13 H :    0.146897
  14 H :    0.139808
  15 H :    0.134915
  16 H :    0.194917
Sum of atomic charges:    0.0000000

LOEWDIN ATOMIC CHARGES
----------------------
   0 O :    0.011531
   1 C :   -0.288929
   2 C :   -0.167030
   3 C :   -0.174850
   4 C :   -0.160211
   5 C :   -0.093205
   6 C :   -0.174058
   7 C :   -0.076830
   8 C :   -0.073905
   9 H :    0.182786
  10 H :    0.144632
  11 H :    0.144704
  12 H :    0.149219
  13 H :    0.153981
  14 H :    0.147938
  15 H :    0.145765
  16 H :    0.128464

  Mayer bond orders larger than 0.1
B(  0-O ,  1-C ) :   1.0171 B(  0-O ,  9-H ) :   0.8188 B(  1-C ,  2-C ) :   0.8821
B(  1-C ,  6-C ) :   0.8556 B(  1-C , 10-H ) :   0.9467 B(  2-C ,  3-C ) :   0.9283
B(  2-C ,  6-C ) :   0.8324 B(  2-C , 11-H ) :   0.9139 B(  3-C ,  4-C ) :   0.9731
B(  3-C , 12-H ) :   0.9092 B(  3-C , 13-H ) :   0.8992 B(  4-C ,  5-C ) :   1.6544
B(  4-C ,  7-C ) :   1.1891 B(  4-C ,  8-C ) :  -0.1788 B(  5-C ,  6-C ) :   0.9449
B(  5-C , 14-H ) :   0.9398 B(  6-C , 15-H ) :   0.9128 B(  7-C ,  8-C ) :   2.5893
B(  8-C , 16-H ) :   0.8743

MP2 TOTAL ENERGY:     -383.964833764 Eh
FINAL SINGLE POINT ENERGY      -383.964833764277

DIPOLE MOMENT
-------------
                                X             Y             Z
Electronic contribution:     -0.53604       1.61095      -1.79793
Nuclear contribution   :      0.30786      -2.07324       1.51659
                        -----------------------------------------
Total Dipole Moment    :     -0.22818      -0.46230      -0.28133
                        -----------------------------------------
Magnitude (a.u.)       :      0.58731
Magnitude (Debye)      :      1.49282

                             ****ORCA TERMINATED NORMALLY****
TOTAL RUN TIME: 0 days 0 hours 17 minutes 26 seconds 258 msec
