                         Program Version 3.0.3 - RELEASE   -
|  1> ! RI-MP2 RIJK def2-TZVP def2-TZVP/C def2-TZVP/JK TIGHTSCF
|  2> % maxcore 2000
|  3> % mp2 density relaxed end
|  4> *xyz 0 1
|  5>  C       -0.0334287103     1.3813168619    -0.0170858592
|  6>  O        0.0035286868    -0.0258796685     0.0024812997
|  7>  C        0.6747295492    -0.5411147655     1.1280649355
|  8>  C        0.6418388554    -2.0697903184     1.0260886727
|  9>  C        1.3131346440    -2.7129833678     2.1471218347
| 10>  C        1.8728650248    -3.2177225702     3.0831923345
| 11>  H        0.9782192941     1.8163291523    -0.0423377931
| 12>  H       -0.5696771578     1.6816135632    -0.9204168347
| 13>  H       -0.5591285951     1.7885042295     0.8610617466
| 14>  H        1.7180390854    -0.1874471507     1.1618786924
| 15>  H        0.1884211038    -0.2145502525     2.0616457144
| 16>  H       -0.4042184920    -2.3937675852     0.9711951151
| 17>  H        1.1097566072    -2.3669524507     0.0800726205
| 18>  H        2.3640385945    -3.6768420575     3.9047277710
| 19> *
| 20>
| 21>                          ****END OF INPUT****

CARTESIAN COORDINATES (ANGSTROEM)
---------------------------------
  C     -0.033429    1.381317   -0.017086
  O      0.003529   -0.025880    0.002481
  C      0.674730   -0.541115    1.128065
  C      0.641839   -2.069790    1.026089
  C      1.313135   -2.712983    2.147122
  C      1.872865   -3.217723    3.083192
  H      0.978219    1.816329   -0.042338
  H     -0.569677    1.681614   -0.920417
  H     -0.559129    1.788504    0.861062
  H      1.718039   -0.187447    1.161879
  H      0.188421   -0.214550    2.061646
  H     -0.404218   -2.393768    0.971195
  H      1.109757   -2.366952    0.080073
  H      2.364039   -3.676842    3.904728

 Total Charge           Charge          ....    0
 Multiplicity           Mult            ....    1
 Number of Electrons    NEL             ....   46
 Basis Dimension        Dim             ....  234

ORBITAL ENERGIES
----------------

  NO   OCC          E(Eh)            E(eV)
   0   2.0000     -20.561666      -559.5114
   1   2.0000     -11.284968      -307.0796
   2   2.0000     -11.275038      -306.8094
   3   2.0000     -11.251378      -306.1656
   4   2.0000     -11.234790      -305.7142
   5   2.0000     -11.221284      -305.3467
   6   2.0000      -1.383689       -37.6521
   7   2.0000      -1.081143       -29.4194
   8   2.0000      -0.998997       -27.1841
   9   2.0000      -0.926023       -25.1984
  10   2.0000      -0.851736       -23.1769
  11   2.0000      -0.723130       -19.6774
  12   2.0000      -0.681283       -18.5386
  13   2.0000      -0.670218       -18.2376
  14   2.0000      -0.642229       -17.4760
  15   2.0000      -0.603039       -16.4095
  16   2.0000      -0.594724       -16.1833
  17   2.0000      -0.531324       -14.4581
  18   2.0000      -0.526115       -14.3163
  19   2.0000      -0.488185       -13.2842
  20   2.0000      -0.430090       -11.7033
  21   2.0000      -0.387882       -10.5548
  22   2.0000      -0.386631       -10.5208
  23   0.0000       0.139166         3.7869
  24   0.0000       0.159337         4.3358
  25   0.0000       0.169792         4.6203
  26   0.0000       0.181322         4.9340
  27   0.0000       0.185993         5.0611

MULLIKEN ATOMIC CHARGES
-----------------------
   0 C :   -0.213338
   1 O :   -0.300235
   2 C :   -0.041347
   3 C :   -0.248697
   4 C :   -0.062438
   5 C :   -0.176360
   6 H :    0.113062
   7 H :    0.139953
   8 H :    0.113072
   9 H :    0.099804
  10 H :    0.099783
  11 H :    0.143651
  12 H :    0.143661
  13 H :    0.189428
Sum of atomic charges:   -0.0000000

LOEWDIN ATOMIC CHARGES
----------------------
   0 C :   -0.359011
   1 O :    0.133969
   2 C :   -0.315999
   3 C :   -0.246888
   4 C :   -0.112884
   5 C :   -0.106613
   6 H :    0.101974
   7 H :    0.114006
   8 H :    0.101973
   9 H :    0.122530
  10 H :    0.122528
  11 H :    0.159133
  12 H :    0.159135
  13 H :    0.126147

  Mayer bond orders larger than 0.1
B(  0-C ,  1-O ) :   0.9137 B(  0-C ,  6-H ) :   0.9368 B(  0-C ,  7-H ) :   0.9396
B(  0-C ,  8-H ) :   0.9368 B(  1-O ,  2-C ) :   0.9620 B(  2-C ,  3-C ) :   0.9451
B(  2-C ,  9-H ) :   0.9245 B(  2-C , 10-H ) :   0.9244 B(  3-C ,  4-C ) :   1.0202
B(  3-C , 11-H ) :   0.9225 B(  3-C , 12-H ) :   0.9225 B(  4-C ,  5-C ) :   2.6355
B(  5-C , 13-H ) :   0.9073

MP2 TOTAL ENERGY:     -269.914022346 Eh
FINAL SINGLE POINT ENERGY      -269.914022345920

DIPOLE MOMENT
-------------
                                X             Y             Z
Electronic contribution:      0.78322      -4.27111       1.19981
Nuclear contribution   :     -0.71164       4.71204      -1.06405
                        -----------------------------------------
Total Dipole Moment    :      0.07158       0.44092       0.13576
                        -----------------------------------------
Magnitude (a.u.)       :      0.46687
Magnitude (Debye)      :      1.18669

                             ****ORCA TERMINATED NORMALLY****
TOTAL RUN TIME: 0 days 0 hours 4 minutes 28 seconds 283 msec
