                         Program Version 3.0.3 - RELEASE   -
|  1> ! RI-MP2 RIJK def2-TZVP def2-TZVP/C def2-TZVP/JK TIGHTSCF
|  2> % maxcore 2000
|  3> % mp2 density relaxed end
|  4> *xyz 0 1
|  5>  C        0.0646077590     1.5299333517     0.1894152580
|  6>  C        0.0210601064     0.0243695541    -0.0087945861
|  7>  C        0.8270329575    -0.6397108379    -1.2015486984
|  8>  C        1.1636559560    -1.8411953612    -0.2433934580
|  9>  O        2.4529566283    -2.3624175813    -0.0147048870
| 10>  C        2.9319352514    -1.8311103929     1.1866878730
| 11>  O        3.9983699594    -2.1418802715     1.6287054806
| 12>  C        1.9465751957    -0.8188784065     1.6688671030
| 13>  C        0.8953303504    -0.8648456430     0.8487554927
| 14>  H        1.0976166802     1.8903517337     0.2135334756
| 15>  H       -0.4583595435     2.0429019896    -0.6238201183
| 16>  H       -0.4171371382     1.8165146131     1.1296497307
| 17>  H       -1.0137923996    -0.3345735261    -0.0350018542
| 18>  H        0.2722970244    -0.8778843660    -2.1109594499
| 19>  H        1.7223267891    -0.0603564496    -1.4349451694
| 20>  H        0.4540314948    -2.6635146279    -0.3709804732
| 21>  H        2.2041075486    -0.1134317882     2.4449286110
| 22> *
| 23>
| 24>                          ****END OF INPUT****

CARTESIAN COORDINATES (ANGSTROEM)
---------------------------------
  C      0.064608    1.529933    0.189415
  C      0.021060    0.024370   -0.008795
  C      0.827033   -0.639711   -1.201549
  C      1.163656   -1.841195   -0.243393
  O      2.452957   -2.362418   -0.014705
  C      2.931935   -1.831110    1.186688
  O      3.998370   -2.141880    1.628705
  C      1.946575   -0.818878    1.668867
  C      0.895330   -0.864846    0.848755
  H      1.097617    1.890352    0.213533
  H     -0.458360    2.042902   -0.623820
  H     -0.417137    1.816515    1.129650
  H     -1.013792   -0.334574   -0.035002
  H      0.272297   -0.877884   -2.110959
  H      1.722327   -0.060356   -1.434945
  H      0.454031   -2.663515   -0.370980
  H      2.204108   -0.113432    2.444929

 Total Charge           Charge          ....    0
 Multiplicity           Mult            ....    1
 Number of Electrons    NEL             ....   66
 Basis Dimension        Dim             ....  327

ORBITAL ENERGIES
----------------

  NO   OCC          E(Eh)            E(eV)
   0   2.0000     -20.598254      -560.5070
   1   2.0000     -20.536366      -558.8229
   2   2.0000     -11.378034      -309.6120
   3   2.0000     -11.308169      -307.7109
   4   2.0000     -11.278911      -306.9148
   5   2.0000     -11.278278      -306.8975
   6   2.0000     -11.262801      -306.4764
   7   2.0000     -11.251600      -306.1716
   8   2.0000     -11.241824      -305.9056
   9   2.0000      -1.451787       -39.5051
  10   2.0000      -1.366183       -37.1757
  11   2.0000      -1.184039       -32.2193
  12   2.0000      -1.057733       -28.7824
  13   2.0000      -1.010465       -27.4962
  14   2.0000      -0.893048       -24.3011
  15   2.0000      -0.868312       -23.6280
  16   2.0000      -0.783946       -21.3323
  17   2.0000      -0.769815       -20.9477
  18   2.0000      -0.700815       -19.0702
  19   2.0000      -0.688967       -18.7477
  20   2.0000      -0.643760       -17.5176
  21   2.0000      -0.631323       -17.1792
  22   2.0000      -0.599767       -16.3205
  23   2.0000      -0.594712       -16.1829
  24   2.0000      -0.582606       -15.8535
  25   2.0000      -0.559952       -15.2371
  26   2.0000      -0.530288       -14.4299
  27   2.0000      -0.521426       -14.1887
  28   2.0000      -0.502413       -13.6713
  29   2.0000      -0.480064       -13.0632
  30   2.0000      -0.447812       -12.1856
  31   2.0000      -0.440564       -11.9884
  32   2.0000      -0.380506       -10.3541
  33   0.0000       0.087984         2.3942
  34   0.0000       0.119954         3.2641
  35   0.0000       0.143301         3.8994
  36   0.0000       0.162416         4.4196
  37   0.0000       0.171961         4.6793

MULLIKEN ATOMIC CHARGES
-----------------------
   0 C :   -0.418543
   1 C :    0.017092
   2 C :   -0.264822
   3 C :    0.113877
   4 O :   -0.243703
   5 C :    0.302820
   6 O :   -0.283178
   7 C :   -0.291741
   8 C :   -0.031108
   9 H :    0.136596
  10 H :    0.141711
  11 H :    0.142491
  12 H :    0.124595
  13 H :    0.137817
  14 H :    0.137797
  15 H :    0.123002
  16 H :    0.155298
Sum of atomic charges:   -0.0000000

LOEWDIN ATOMIC CHARGES
----------------------
   0 C :   -0.287353
   1 C :   -0.203807
   2 C :   -0.162493
   3 C :   -0.234705
   4 O :    0.260060
   5 C :   -0.427556
   6 O :    0.143139
   7 C :   -0.105175
   8 C :   -0.110059
   9 H :    0.128656
  10 H :    0.129065
  11 H :    0.130041
  12 H :    0.160892
  13 H :    0.130128
  14 H :    0.146691
  15 H :    0.152004
  16 H :    0.150473

  Mayer bond orders larger than 0.1
B(  0-C ,  1-C ) :   0.8907 B(  0-C ,  9-H ) :   0.9371 B(  0-C , 10-H ) :   0.9351
B(  0-C , 11-H ) :   0.9357 B(  1-C ,  2-C ) :   0.9052 B(  1-C ,  8-C ) :   0.9045
B(  1-C , 12-H ) :   0.9130 B(  2-C ,  3-C ) :   0.8667 B(  2-C , 13-H ) :   0.9181
B(  2-C , 14-H ) :   0.9102 B(  3-C ,  4-O ) :   0.9462 B(  3-C ,  8-C ) :   0.9346
B(  3-C , 15-H ) :   0.9232 B(  4-O ,  5-C ) :   1.0406 B(  5-C ,  6-O ) :   2.0127
B(  5-C ,  7-C ) :   0.9898 B(  7-C ,  8-C ) :   1.6904 B(  7-C , 16-H ) :   0.9318

MP2 TOTAL ENERGY:     -421.132546056 Eh
FINAL SINGLE POINT ENERGY      -421.132546056063

DIPOLE MOMENT
-------------
                                X             Y             Z
Electronic contribution:      6.76416      -7.93993       3.45750
Nuclear contribution   :     -8.50651       9.03644      -4.01307
                        -----------------------------------------
Total Dipole Moment    :     -1.74235       1.09651      -0.55557
                        -----------------------------------------
Magnitude (a.u.)       :      2.13232
Magnitude (Debye)      :      5.41993

                             ****ORCA TERMINATED NORMALLY****
TOTAL RUN TIME: 0 days 0 hours 16 minutes 36 seconds 905 msec
