                         Program Version 3.0.3 - RELEASE   -
|  1> ! RI-MP2 RIJK def2-TZVP def2-TZVP/C def2-TZVP/JK TIGHTSCF
|  2> % maxcore 2000
|  3> % mp2 density relaxed end
|  4> *xyz 0 1
|  5>  C        0.3391789519     1.3828226425     0.3050109338
|  6>  C       -0.4091260769     0.2158509826    -0.3650935903
|  7>  C        0.3279789894    -0.3828173656    -1.4724911146
|  8>  C        0.9585566202    -0.8670310470    -2.3784185917
|  9>  C        1.6862074264    -1.4380304159    -3.4718393626
| 10>  C        3.1417801654    -1.8212501701    -3.3233323306
| 11>  C        2.1099920192    -2.9201646263    -3.4592217311
| 12>  C        1.7930952594    -3.7688724546    -2.3513993252
| 13>  C        1.5250100951    -4.4997736060    -1.4348109771
| 14>  H        1.2992279968     1.0481324157     0.7072308598
| 15>  H        0.5360448383     2.1823454695    -0.4144200918
| 16>  H       -0.2540698961     1.7958966400     1.1264804390
| 17>  H       -0.6272299723    -0.5573924706     0.3828770889
| 18>  H       -1.3850108884     0.5658858082    -0.7260888086
| 19>  H        1.3951776672    -1.0791751195    -4.4553756701
| 20>  H        3.8037565840    -1.6439347609    -4.1632926035
| 21>  H        3.5861182415    -1.6860351576    -2.3452217493
| 22>  H        2.0594716327    -3.4034786761    -4.4306425198
| 23>  H        1.2869257162    -5.1389696282    -0.6215097353
| 24> *
| 25>
| 26>                          ****END OF INPUT****

CARTESIAN COORDINATES (ANGSTROEM)
---------------------------------
  C      0.339179    1.382823    0.305011
  C     -0.409126    0.215851   -0.365094
  C      0.327979   -0.382817   -1.472491
  C      0.958557   -0.867031   -2.378419
  C      1.686207   -1.438030   -3.471839
  C      3.141780   -1.821250   -3.323332
  C      2.109992   -2.920165   -3.459222
  C      1.793095   -3.768872   -2.351399
  C      1.525010   -4.499774   -1.434811
  H      1.299228    1.048132    0.707231
  H      0.536045    2.182345   -0.414420
  H     -0.254070    1.795897    1.126480
  H     -0.627230   -0.557392    0.382877
  H     -1.385011    0.565886   -0.726089
  H      1.395178   -1.079175   -4.455376
  H      3.803757   -1.643935   -4.163293
  H      3.586118   -1.686035   -2.345222
  H      2.059472   -3.403479   -4.430643
  H      1.286926   -5.138970   -0.621510

 Total Charge           Charge          ....    0
 Multiplicity           Mult            ....    1
 Number of Electrons    NEL             ....   64
 Basis Dimension        Dim             ....  339

ORBITAL ENERGIES
----------------

  NO   OCC          E(Eh)            E(eV)
   0   2.0000     -11.266733      -306.5834
   1   2.0000     -11.266143      -306.5673
   2   2.0000     -11.246764      -306.0400
   3   2.0000     -11.246537      -306.0338
   4   2.0000     -11.231663      -305.6291
   5   2.0000     -11.220944      -305.3374
   6   2.0000     -11.218796      -305.2790
   7   2.0000     -11.217876      -305.2539
   8   2.0000     -11.214776      -305.1696
   9   2.0000      -1.174137       -31.9499
  10   2.0000      -1.071474       -29.1563
  11   2.0000      -1.024814       -27.8866
  12   2.0000      -0.992359       -27.0035
  13   2.0000      -0.890721       -24.2377
  14   2.0000      -0.866410       -23.5762
  15   2.0000      -0.842045       -22.9132
  16   2.0000      -0.736943       -20.0532
  17   2.0000      -0.694444       -18.8968
  18   2.0000      -0.670720       -18.2512
  19   2.0000      -0.642908       -17.4944
  20   2.0000      -0.619512       -16.8578
  21   2.0000      -0.585145       -15.9226
  22   2.0000      -0.547854       -14.9079
  23   2.0000      -0.545415       -14.8415
  24   2.0000      -0.519032       -14.1236
  25   2.0000      -0.509167       -13.8552
  26   2.0000      -0.496496       -13.5104
  27   2.0000      -0.487467       -13.2646
  28   2.0000      -0.390882       -10.6364
  29   2.0000      -0.378903       -10.3105
  30   2.0000      -0.353859        -9.6290
  31   2.0000      -0.341253        -9.2860
  32   0.0000       0.135731         3.6934
  33   0.0000       0.138238         3.7617
  34   0.0000       0.166904         4.5417
  35   0.0000       0.169411         4.6099
  36   0.0000       0.173134         4.7112

MULLIKEN ATOMIC CHARGES
-----------------------
   0 C :   -0.360435
   1 C :   -0.307281
   2 C :    0.050212
   3 C :    0.013590
   4 C :   -0.232925
   5 C :   -0.223289
   6 C :   -0.226435
   7 C :    0.001305
   8 C :   -0.140802
   9 H :    0.129429
  10 H :    0.129089
  11 H :    0.130421
  12 H :    0.143586
  13 H :    0.140736
  14 H :    0.138099
  15 H :    0.139067
  16 H :    0.147404
  17 H :    0.139833
  18 H :    0.188398
Sum of atomic charges:    0.0000000

LOEWDIN ATOMIC CHARGES
----------------------
   0 C :   -0.300902
   1 C :   -0.278340
   2 C :   -0.065939
   3 C :   -0.061058
   4 C :   -0.178996
   5 C :   -0.163048
   6 C :   -0.179073
   7 C :   -0.089208
   8 C :   -0.093652
   9 H :    0.123731
  10 H :    0.123578
  11 H :    0.120238
  12 H :    0.153845
  13 H :    0.153024
  14 H :    0.164205
  15 H :    0.134997
  16 H :    0.145538
  17 H :    0.165005
  18 H :    0.126056

  Mayer bond orders larger than 0.1
B(  0-C ,  1-C ) :   0.9380 B(  0-C ,  9-H ) :   0.9358 B(  0-C , 10-H ) :   0.9356
B(  0-C , 11-H ) :   0.9393 B(  1-C ,  2-C ) :   0.9433 B(  1-C , 12-H ) :   0.9402
B(  1-C , 13-H ) :   0.9431 B(  2-C ,  3-C ) :   2.5854 B(  2-C ,  4-C ) :  -0.1457
B(  3-C ,  4-C ) :   1.1777 B(  4-C ,  5-C ) :   0.8460 B(  4-C ,  6-C ) :   0.8114
B(  4-C , 14-H ) :   0.9332 B(  5-C ,  6-C ) :   0.8370 B(  5-C , 15-H ) :   0.9252
B(  5-C , 16-H ) :   0.9302 B(  6-C ,  7-C ) :   1.2495 B(  6-C ,  8-C ) :  -0.1396
B(  6-C , 17-H ) :   0.9338 B(  7-C ,  8-C ) :   2.5492 B(  8-C , 18-H ) :   0.8953

MP2 TOTAL ENERGY:     -348.015511882 Eh
FINAL SINGLE POINT ENERGY      -348.015511881980

DIPOLE MOMENT
-------------
                                X             Y             Z
Electronic contribution:      0.96050      -6.41246      -4.33620
Nuclear contribution   :     -0.89849       6.64995       4.29614
                        -----------------------------------------
Total Dipole Moment    :      0.06201       0.23749      -0.04005
                        -----------------------------------------
Magnitude (a.u.)       :      0.24870
Magnitude (Debye)      :      0.63214

                             ****ORCA TERMINATED NORMALLY****
TOTAL RUN TIME: 0 days 0 hours 15 minutes 23 seconds 615 msec
