                         Program Version 3.0.3 - RELEASE   -
|  1> ! RI-MP2 RIJK def2-TZVP def2-TZVP/C def2-TZVP/JK TIGHTSCF
|  2> % maxcore 2000
|  3> % mp2 density relaxed end
|  4> *xyz 0 1
|  5>  C       -0.1950202810     1.5520349631     0.0920520198
|  6>  C       -0.0844460705     0.0418362190     0.1979134626
|  7>  O       -1.3318459506    -0.5150227961    -0.2292788538
|  8>  C       -1.4216981283    -1.8911192544    -0.1430166389
|  9>  C       -1.7023674350    -2.5255464987     1.2230684115
| 10>  C       -2.7952539956    -2.4294893040     0.2076114552
| 11>  C       -0.6171218573    -2.7020075694    -1.0939615677
| 12>  O        0.1573859469    -2.2572708487    -1.9036464990
| 13>  H        0.7386456020     2.0223136754     0.4147753222
| 14>  H       -0.3931638424     1.8488551905    -0.9415068251
| 15>  H       -1.0086205978     1.9273305585     0.7197120087
| 16>  H        0.7259045511    -0.3372041752    -0.4335567680
| 17>  H        0.1178626565    -0.2636138498     1.2359858586
| 18>  H       -1.2724788933    -3.4963121460     1.4449607088
| 19>  H       -1.7191402545    -1.8295130389     2.0532887431
| 20>  H       -3.5494852887    -1.6637487477     0.3420752278
| 21>  H       -3.1343334796    -3.3325310499    -0.2878913441
| 22>  H       -0.7899436319    -3.8002748379    -0.9945502918
| 23> *
| 24>
| 25>                          ****END OF INPUT****

CARTESIAN COORDINATES (ANGSTROEM)
---------------------------------
  C     -0.195020    1.552035    0.092052
  C     -0.084446    0.041836    0.197913
  O     -1.331846   -0.515023   -0.229279
  C     -1.421698   -1.891119   -0.143017
  C     -1.702367   -2.525546    1.223068
  C     -2.795254   -2.429489    0.207611
  C     -0.617122   -2.702008   -1.093962
  O      0.157386   -2.257271   -1.903646
  H      0.738646    2.022314    0.414775
  H     -0.393164    1.848855   -0.941507
  H     -1.008621    1.927331    0.719712
  H      0.725905   -0.337204   -0.433557
  H      0.117863   -0.263614    1.235986
  H     -1.272479   -3.496312    1.444961
  H     -1.719140   -1.829513    2.053289
  H     -3.549485   -1.663749    0.342075
  H     -3.134333   -3.332531   -0.287891
  H     -0.789944   -3.800275   -0.994550

 Total Charge           Charge          ....    0
 Multiplicity           Mult            ....    1
 Number of Electrons    NEL             ....   62
 Basis Dimension        Dim             ....  308

ORBITAL ENERGIES
----------------

  NO   OCC          E(Eh)            E(eV)
   0   2.0000     -20.566536      -559.6439
   1   2.0000     -20.554401      -559.3137
   2   2.0000     -11.334487      -308.4271
   3   2.0000     -11.304986      -307.6243
   4   2.0000     -11.273472      -306.7668
   5   2.0000     -11.252896      -306.2069
   6   2.0000     -11.250699      -306.1471
   7   2.0000     -11.213906      -305.1459
   8   2.0000      -1.406555       -38.2743
   9   2.0000      -1.380478       -37.5647
  10   2.0000      -1.158283       -31.5185
  11   2.0000      -1.015409       -27.6307
  12   2.0000      -0.916714       -24.9451
  13   2.0000      -0.860157       -23.4061
  14   2.0000      -0.836562       -22.7640
  15   2.0000      -0.772646       -21.0248
  16   2.0000      -0.705460       -19.1965
  17   2.0000      -0.688034       -18.7224
  18   2.0000      -0.646315       -17.5871
  19   2.0000      -0.636933       -17.3318
  20   2.0000      -0.614362       -16.7176
  21   2.0000      -0.600911       -16.3516
  22   2.0000      -0.549605       -14.9555
  23   2.0000      -0.538949       -14.6655
  24   2.0000      -0.534421       -14.5423
  25   2.0000      -0.525112       -14.2890
  26   2.0000      -0.500545       -13.6205
  27   2.0000      -0.471946       -12.8423
  28   2.0000      -0.463673       -12.6172
  29   2.0000      -0.411162       -11.1883
  30   2.0000      -0.399324       -10.8662
  31   0.0000       0.126639         3.4460
  32   0.0000       0.139712         3.8018
  33   0.0000       0.151690         4.1277
  34   0.0000       0.171853         4.6763
  35   0.0000       0.174402         4.7457

MULLIKEN ATOMIC CHARGES
-----------------------
   0 C :   -0.365196
   1 C :   -0.062876
   2 O :   -0.290141
   3 C :    0.252340
   4 C :   -0.319108
   5 C :   -0.269774
   6 C :    0.057194
   7 O :   -0.274945
   8 H :    0.123331
   9 H :    0.136906
  10 H :    0.124501
  11 H :    0.132294
  12 H :    0.089193
  13 H :    0.145645
  14 H :    0.150237
  15 H :    0.149974
  16 H :    0.145508
  17 H :    0.074917
Sum of atomic charges:   -0.0000000

LOEWDIN ATOMIC CHARGES
----------------------
   0 C :   -0.316216
   1 C :   -0.324185
   2 O :    0.226040
   3 C :   -0.353184
   4 C :   -0.200588
   5 C :   -0.188843
   6 C :   -0.276430
   7 O :    0.133744
   8 H :    0.125493
   9 H :    0.126562
  10 H :    0.122194
  11 H :    0.126135
  12 H :    0.116209
  13 H :    0.136108
  14 H :    0.142948
  15 H :    0.146159
  16 H :    0.137985
  17 H :    0.119870

  Mayer bond orders larger than 0.1
B(  0-C ,  1-C ) :   0.9545 B(  0-C ,  8-H ) :   0.9315 B(  0-C ,  9-H ) :   0.9356
B(  0-C , 10-H ) :   0.9366 B(  1-C ,  2-O ) :   0.8738 B(  1-C , 11-H ) :   0.9204
B(  1-C , 12-H ) :   0.9217 B(  2-O ,  3-C ) :   1.0187 B(  3-C ,  4-C ) :   0.8218
B(  3-C ,  5-C ) :   0.8329 B(  3-C ,  6-C ) :   0.8784 B(  4-C ,  5-C ) :   0.9158
B(  4-C , 13-H ) :   0.9152 B(  4-C , 14-H ) :   0.9182 B(  5-C , 15-H ) :   0.9188
B(  5-C , 16-H ) :   0.9259 B(  6-C ,  7-O ) :   1.9758 B(  6-C , 17-H ) :   0.9350

MP2 TOTAL ENERGY:     -384.287457088 Eh
FINAL SINGLE POINT ENERGY      -384.287457088264

DIPOLE MOMENT
-------------
                                X             Y             Z
Electronic contribution:      0.14123      -4.17539      -4.33984
Nuclear contribution   :     -0.51226       3.86218       5.34140
                        -----------------------------------------
Total Dipole Moment    :     -0.37104      -0.31321       1.00156
                        -----------------------------------------
Magnitude (a.u.)       :      1.11305
Magnitude (Debye)      :      2.82916

                             ****ORCA TERMINATED NORMALLY****
TOTAL RUN TIME: 0 days 0 hours 11 minutes 50 seconds 958 msec
