                         Program Version 3.0.3 - RELEASE   -
|  1> ! RI-MP2 RIJK def2-TZVP def2-TZVP/C def2-TZVP/JK TIGHTSCF
|  2> % maxcore 2000
|  3> % mp2 density relaxed end
|  4> *xyz 0 1
|  5>  C        0.0097740954     1.5526489304     0.0074416568
|  6>  C        0.0424674994     0.0136885203     0.0037503803
|  7>  C        0.7924845841    -0.5008618945     1.2456381590
|  8>  C       -1.3951003384    -0.5363891219     0.0011465903
|  9>  C        0.7260297647    -0.4939170728    -1.2712549247
| 10>  O        2.0763669202    -0.0019355514    -1.3053225151
| 11>  C        2.7940283661    -0.3566532915    -2.3986832157
| 12>  N        4.0378417169     0.2116591618    -2.3429779567
| 13>  O        2.3815171630    -1.0459582488    -3.3014808349
| 14>  H        1.0202898299     1.9681134970    -0.0243472327
| 15>  H       -0.5398537795     1.9372288429    -0.8589470505
| 16>  H       -0.4852888741     1.9263156540     0.9098860000
| 17>  H        0.3043145585    -0.1546544600     2.1626465671
| 18>  H        0.8106250987    -1.5962536117     1.2698392392
| 19>  H        1.8266114217    -0.1467546085     1.2560582449
| 20>  H       -1.9544054441    -0.1901178182    -0.8748801064
| 21>  H       -1.4046121343    -1.6318928414    -0.0042942692
| 22>  H       -1.9343094386    -0.2030420350     0.8936959704
| 23>  H        0.7453452266    -1.5888640875    -1.3000965847
| 24>  H        0.1991788948    -0.1481978413    -2.1669900909
| 25>  H        4.3669798682     0.5669556580    -1.4614480072
| 26>  H        4.7187330807    -0.1579801898    -2.9838029292
| 27> *
| 28>
| 29>                          ****END OF INPUT****

CARTESIAN COORDINATES (ANGSTROEM)
---------------------------------
  C      0.009774    1.552649    0.007442
  C      0.042467    0.013689    0.003750
  C      0.792485   -0.500862    1.245638
  C     -1.395100   -0.536389    0.001147
  C      0.726030   -0.493917   -1.271255
  O      2.076367   -0.001936   -1.305323
  C      2.794028   -0.356653   -2.398683
  N      4.037842    0.211659   -2.342978
  O      2.381517   -1.045958   -3.301481
  H      1.020290    1.968113   -0.024347
  H     -0.539854    1.937229   -0.858947
  H     -0.485289    1.926316    0.909886
  H      0.304315   -0.154654    2.162647
  H      0.810625   -1.596254    1.269839
  H      1.826611   -0.146755    1.256058
  H     -1.954405   -0.190118   -0.874880
  H     -1.404612   -1.631893   -0.004294
  H     -1.934309   -0.203042    0.893696
  H      0.745345   -1.588864   -1.300097
  H      0.199179   -0.148198   -2.166990
  H      4.366980    0.566956   -1.461448
  H      4.718733   -0.157980   -2.983803

 Total Charge           Charge          ....    0
 Multiplicity           Mult            ....    1
 Number of Electrons    NEL             ....   72
 Basis Dimension        Dim             ....  357

ORBITAL ENERGIES
----------------

  NO   OCC          E(Eh)            E(eV)
   0   2.0000     -20.595784      -560.4398
   1   2.0000     -20.523633      -558.4764
   2   2.0000     -15.584189      -424.0674
   3   2.0000     -11.399674      -310.2009
   4   2.0000     -11.280759      -306.9650
   5   2.0000     -11.241234      -305.8895
   6   2.0000     -11.217656      -305.2479
   7   2.0000     -11.213419      -305.1327
   8   2.0000     -11.212444      -305.1061
   9   2.0000      -1.459566       -39.7168
  10   2.0000      -1.353739       -36.8371
  11   2.0000      -1.215887       -33.0860
  12   2.0000      -1.107898       -30.1474
  13   2.0000      -0.947722       -25.7888
  14   2.0000      -0.935480       -25.4557
  15   2.0000      -0.933128       -25.3917
  16   2.0000      -0.810608       -22.0578
  17   2.0000      -0.749597       -20.3976
  18   2.0000      -0.743023       -20.2187
  19   2.0000      -0.698574       -19.0092
  20   2.0000      -0.679499       -18.4901
  21   2.0000      -0.642914       -17.4946
  22   2.0000      -0.623725       -16.9724
  23   2.0000      -0.610041       -16.6001
  24   2.0000      -0.588800       -16.0221
  25   2.0000      -0.564313       -15.3557
  26   2.0000      -0.556697       -15.1485
  27   2.0000      -0.536338       -14.5945
  28   2.0000      -0.526868       -14.3368
  29   2.0000      -0.516237       -14.0475
  30   2.0000      -0.473227       -12.8772
  31   2.0000      -0.469239       -12.7687
  32   2.0000      -0.462668       -12.5898
  33   2.0000      -0.455885       -12.4053
  34   2.0000      -0.453269       -12.3341
  35   2.0000      -0.428977       -11.6731
  36   0.0000       0.122232         3.3261
  37   0.0000       0.138973         3.7817
  38   0.0000       0.174256         4.7417
  39   0.0000       0.183920         5.0047
  40   0.0000       0.184786         5.0283

MULLIKEN ATOMIC CHARGES
-----------------------
   0 C :   -0.417954
   1 C :    0.124024
   2 C :   -0.418364
   3 C :   -0.416444
   4 C :   -0.084979
   5 O :   -0.290636
   6 C :    0.408956
   7 N :   -0.515255
   8 O :   -0.375922
   9 H :    0.140449
  10 H :    0.127129
  11 H :    0.129518
  12 H :    0.130248
  13 H :    0.126597
  14 H :    0.137212
  15 H :    0.133527
  16 H :    0.132893
  17 H :    0.136195
  18 H :    0.127947
  19 H :    0.130373
  20 H :    0.265877
  21 H :    0.268609
Sum of atomic charges:    0.0000000

LOEWDIN ATOMIC CHARGES
----------------------
   0 C :   -0.270813
   1 C :   -0.360312
   2 C :   -0.271436
   3 C :   -0.268603
   4 C :   -0.241538
   5 O :    0.234086
   6 C :   -0.614586
   7 N :   -0.039389
   8 O :    0.075573
   9 H :    0.126789
  10 H :    0.126005
  11 H :    0.125289
  12 H :    0.125493
  13 H :    0.125627
  14 H :    0.125765
  15 H :    0.126490
  16 H :    0.126258
  17 H :    0.127898
  18 H :    0.135004
  19 H :    0.135912
  20 H :    0.173409
  21 H :    0.177079

  Mayer bond orders larger than 0.1
B(  0-C ,  1-C ) :   0.9096 B(  0-C ,  9-H ) :   0.9326 B(  0-C , 10-H ) :   0.9330
B(  0-C , 11-H ) :   0.9357 B(  1-C ,  2-C ) :   0.9068 B(  1-C ,  3-C ) :   0.9122
B(  1-C ,  4-C ) :   0.9074 B(  2-C , 12-H ) :   0.9359 B(  2-C , 13-H ) :   0.9331
B(  2-C , 14-H ) :   0.9339 B(  3-C , 15-H ) :   0.9327 B(  3-C , 16-H ) :   0.9325
B(  3-C , 17-H ) :   0.9369 B(  4-C ,  5-O ) :   0.8383 B(  4-C , 18-H ) :   0.9341
B(  4-C , 19-H ) :   0.9331 B(  5-O ,  6-C ) :   1.0804 B(  6-C ,  7-N ) :   1.1539
B(  6-C ,  8-O ) :   1.9343 B(  7-N , 20-H ) :   0.8656 B(  7-N , 21-H ) :   0.8677

MP2 TOTAL ENERGY:     -440.831597366 Eh
FINAL SINGLE POINT ENERGY      -440.831597365902

DIPOLE MOMENT
-------------
                                X             Y             Z
Electronic contribution:      9.07085      -1.80184      -9.03709
Nuclear contribution   :     -8.68393       2.12290       9.86615
                        -----------------------------------------
Total Dipole Moment    :      0.38692       0.32106       0.82905
                        -----------------------------------------
Magnitude (a.u.)       :      0.96960
Magnitude (Debye)      :      2.46452

                             ****ORCA TERMINATED NORMALLY****
TOTAL RUN TIME: 0 days 0 hours 19 minutes 35 seconds 539 msec
