                         Program Version 3.0.3 - RELEASE   -
|  1> ! RI-MP2 RIJK def2-TZVP def2-TZVP/C def2-TZVP/JK TIGHTSCF
|  2> % maxcore 2000
|  3> % mp2 density relaxed end
|  4> *xyz 0 1
|  5>  C        0.4583368097     1.5799146059    -0.1671857527
|  6>  C        0.1184334802     0.1061524899     0.0092989216
|  7>  C        0.8576590200    -0.9248773302    -0.8919715221
|  8>  C        1.2222918038    -1.7736884256     0.3745806199
|  9>  C        0.6097925025    -0.6632949304     1.2828076714
| 10>  C        1.7845399872    -0.0734138817     2.1038912420
| 11>  C        3.0780321856    -0.4976441632     1.3857400028
| 12>  C        2.7159789384    -1.8001783170     0.6594703000
| 13>  O        3.4812074441    -2.6849461061     0.3708170773
| 14>  H        1.5371587234     1.7632374299    -0.1139731368
| 15>  H        0.1160649070     1.9382489992    -1.1444323119
| 16>  H       -0.0234556700     2.1982199532     0.5984490966
| 17>  H       -0.9650632744    -0.0163376818    -0.0893226523
| 18>  H        0.2416937001    -1.4463844908    -1.6270538288
| 19>  H        1.7297969272    -0.5176308096    -1.4134966392
| 20>  H        0.7908990859    -2.7742190280     0.3975891314
| 21>  H       -0.2052199220    -0.9697895429     1.9413229669
| 22>  H        1.7033660319     1.0091439564     2.2345243014
| 23>  H        1.7678846466    -0.5136694693     3.1067913524
| 24>  H        3.3742031630     0.2345720717     0.6225424975
| 25>  H        3.9399553897    -0.6438065995     2.0395600225
| 26> *
| 27>
| 28>                          ****END OF INPUT****

CARTESIAN COORDINATES (ANGSTROEM)
---------------------------------
  C      0.458337    1.579915   -0.167186
  C      0.118433    0.106152    0.009299
  C      0.857659   -0.924877   -0.891972
  C      1.222292   -1.773688    0.374581
  C      0.609793   -0.663295    1.282808
  C      1.784540   -0.073414    2.103891
  C      3.078032   -0.497644    1.385740
  C      2.715979   -1.800178    0.659470
  O      3.481207   -2.684946    0.370817
  H      1.537159    1.763237   -0.113973
  H      0.116065    1.938249   -1.144432
  H     -0.023456    2.198220    0.598449
  H     -0.965063   -0.016338   -0.089323
  H      0.241694   -1.446384   -1.627054
  H      1.729797   -0.517631   -1.413497
  H      0.790899   -2.774219    0.397589
  H     -0.205220   -0.969790    1.941323
  H      1.703366    1.009144    2.234524
  H      1.767885   -0.513669    3.106791
  H      3.374203    0.234572    0.622542
  H      3.939955   -0.643807    2.039560

 Total Charge           Charge          ....    0
 Multiplicity           Mult            ....    1
 Number of Electrons    NEL             ....   68
 Basis Dimension        Dim             ....  351

ORBITAL ENERGIES
----------------

  NO   OCC          E(Eh)            E(eV)
   0   2.0000     -20.539402      -558.9055
   1   2.0000     -11.321163      -308.0645
   2   2.0000     -11.236540      -305.7618
   3   2.0000     -11.235995      -305.7470
   4   2.0000     -11.234174      -305.6974
   5   2.0000     -11.233930      -305.6908
   6   2.0000     -11.233503      -305.6792
   7   2.0000     -11.233361      -305.6753
   8   2.0000     -11.222887      -305.3903
   9   2.0000      -1.382639       -37.6235
  10   2.0000      -1.163878       -31.6707
  11   2.0000      -1.056284       -28.7429
  12   2.0000      -0.994999       -27.0753
  13   2.0000      -0.939538       -25.5661
  14   2.0000      -0.888717       -24.1832
  15   2.0000      -0.838428       -22.8148
  16   2.0000      -0.736162       -20.0320
  17   2.0000      -0.721041       -19.6205
  18   2.0000      -0.687293       -18.7022
  19   2.0000      -0.649521       -17.6744
  20   2.0000      -0.632138       -17.2014
  21   2.0000      -0.601249       -16.3608
  22   2.0000      -0.578738       -15.7483
  23   2.0000      -0.576492       -15.6872
  24   2.0000      -0.571376       -15.5479
  25   2.0000      -0.544000       -14.8030
  26   2.0000      -0.528132       -14.3712
  27   2.0000      -0.510986       -13.9046
  28   2.0000      -0.493667       -13.4334
  29   2.0000      -0.464968       -12.6524
  30   2.0000      -0.460282       -12.5249
  31   2.0000      -0.445868       -12.1327
  32   2.0000      -0.427081       -11.6215
  33   2.0000      -0.384030       -10.4500
  34   0.0000       0.125847         3.4245
  35   0.0000       0.128928         3.5083
  36   0.0000       0.150799         4.1035
  37   0.0000       0.157650         4.2899
  38   0.0000       0.169683         4.6173

MULLIKEN ATOMIC CHARGES
-----------------------
   0 C :   -0.445026
   1 C :   -0.033718
   2 C :   -0.312138
   3 C :    0.031296
   4 C :   -0.047464
   5 C :   -0.281990
   6 C :   -0.237329
   7 C :    0.072253
   8 O :   -0.266096
   9 H :    0.125382
  10 H :    0.139129
  11 H :    0.135412
  12 H :    0.097454
  13 H :    0.129119
  14 H :    0.124713
  15 H :    0.125468
  16 H :    0.116471
  17 H :    0.130488
  18 H :    0.128265
  19 H :    0.129541
  20 H :    0.138769
Sum of atomic charges:    0.0000000

LOEWDIN ATOMIC CHARGES
----------------------
   0 C :   -0.301648
   1 C :   -0.234718
   2 C :   -0.180300
   3 C :   -0.161516
   4 C :   -0.170817
   5 C :   -0.231092
   6 C :   -0.223911
   7 C :   -0.301897
   8 O :    0.151202
   9 H :    0.121439
  10 H :    0.127107
  11 H :    0.125286
  12 H :    0.148929
  13 H :    0.131104
  14 H :    0.136374
  15 H :    0.150555
  16 H :    0.141561
  17 H :    0.136370
  18 H :    0.141562
  19 H :    0.149997
  20 H :    0.144416

  Mayer bond orders larger than 0.1
B(  0-C ,  1-C ) :   0.8748 B(  0-C ,  9-H ) :   0.9392 B(  0-C , 10-H ) :   0.9376
B(  0-C , 11-H ) :   0.9417 B(  1-C ,  2-C ) :   0.9219 B(  1-C ,  4-C ) :   0.9281
B(  1-C , 12-H ) :   0.9217 B(  2-C ,  3-C ) :   0.8730 B(  2-C , 13-H ) :   0.9211
B(  2-C , 14-H ) :   0.9164 B(  3-C ,  4-C ) :   0.8933 B(  3-C ,  6-C ) :  -0.1275
B(  3-C ,  7-C ) :   0.8452 B(  3-C , 15-H ) :   0.9057 B(  4-C ,  5-C ) :   0.8651
B(  4-C , 16-H ) :   0.9135 B(  5-C ,  6-C ) :   0.9357 B(  5-C , 17-H ) :   0.9279
B(  5-C , 18-H ) :   0.9296 B(  6-C ,  7-C ) :   0.9333 B(  6-C , 19-H ) :   0.9078
B(  6-C , 20-H ) :   0.9180 B(  7-C ,  8-O ) :   2.0610

MP2 TOTAL ENERGY:     -386.435847964 Eh
FINAL SINGLE POINT ENERGY      -386.435847964090

DIPOLE MOMENT
-------------
                                X             Y             Z
Electronic contribution:      4.12084      -7.60998       0.39222
Nuclear contribution   :     -4.96936       8.49375      -0.17147
                        -----------------------------------------
Total Dipole Moment    :     -0.84851       0.88378       0.22075
                        -----------------------------------------
Magnitude (a.u.)       :      1.24490
Magnitude (Debye)      :      3.16427

                             ****ORCA TERMINATED NORMALLY****
TOTAL RUN TIME: 0 days 0 hours 21 minutes 16 seconds 719 msec
