                         Program Version 3.0.3 - RELEASE   -
|  1> ! RI-MP2 RIJK def2-TZVP def2-TZVP/C def2-TZVP/JK TIGHTSCF
|  2> % maxcore 2000
|  3> % mp2 density relaxed end
|  4> *xyz 0 1
|  5>  C       -1.6405997440     1.3989566345    -2.5172158488
|  6>  C       -1.2286428171     0.2552602246    -1.5848436414
|  7>  C       -2.0886744529    -1.0198206981    -1.7038793550
|  8>  C       -1.9633215577    -1.6824373460    -3.0850686752
|  9>  C       -1.7151521765    -2.0035818711    -0.6062157921
| 10>  C       -2.2330058115    -1.8573591060     0.8076768770
| 11>  C       -2.6474150787    -3.0506024951    -0.0269324197
| 12>  C       -4.0918627064    -3.1455410917    -0.4831337715
| 13>  C       -2.0371442900    -4.3953026961     0.3260727390
| 14>  H       -1.0353636430     2.2919401583    -2.3310046683
| 15>  H       -1.5174470377     1.1363966156    -3.5724870523
| 16>  H       -2.6907735256     1.6741160964    -2.3650433270
| 17>  H       -0.1769694718    -0.0068394811    -1.7671533157
| 18>  H       -1.2767468599     0.6052770977    -0.5466062075
| 19>  H       -3.1354629447    -0.7180151770    -1.5633889199
| 20>  H       -2.5865914581    -2.5794268647    -3.1480782131
| 21>  H       -2.2672033058    -1.0092044810    -3.8920059521
| 22>  H       -0.9264836097    -1.9852502147    -3.2761585134
| 23>  H       -0.6779275418    -2.3305685144    -0.6799895064
| 24>  H       -1.5495445006    -2.0105080216     1.6369913013
| 25>  H       -2.9792375559    -1.0885960161     0.9889235662
| 26>  H       -4.7092101802    -3.6020949587     0.2999556843
| 27>  H       -4.5250107820    -2.1682823543    -0.7101175981
| 28>  H       -4.1883648204    -3.7705551526    -1.3791583788
| 29>  H       -2.6018077110    -4.8873166415     1.1275183899
| 30>  H       -2.0359187197    -5.0695517806    -0.5390309980
| 31>  H       -1.0022999572    -4.2881084148     0.6661749464
| 32> *
| 33>
| 34>                          ****END OF INPUT****

CARTESIAN COORDINATES (ANGSTROEM)
---------------------------------
  C     -1.640600    1.398957   -2.517216
  C     -1.228643    0.255260   -1.584844
  C     -2.088674   -1.019821   -1.703879
  C     -1.963322   -1.682437   -3.085069
  C     -1.715152   -2.003582   -0.606216
  C     -2.233006   -1.857359    0.807677
  C     -2.647415   -3.050602   -0.026932
  C     -4.091863   -3.145541   -0.483134
  C     -2.037144   -4.395303    0.326073
  H     -1.035364    2.291940   -2.331005
  H     -1.517447    1.136397   -3.572487
  H     -2.690774    1.674116   -2.365043
  H     -0.176969   -0.006839   -1.767153
  H     -1.276747    0.605277   -0.546606
  H     -3.135463   -0.718015   -1.563389
  H     -2.586591   -2.579427   -3.148078
  H     -2.267203   -1.009204   -3.892006
  H     -0.926484   -1.985250   -3.276159
  H     -0.677928   -2.330569   -0.679990
  H     -1.549545   -2.010508    1.636991
  H     -2.979238   -1.088596    0.988924
  H     -4.709210   -3.602095    0.299956
  H     -4.525011   -2.168282   -0.710118
  H     -4.188365   -3.770555   -1.379158
  H     -2.601808   -4.887317    1.127518
  H     -2.035919   -5.069552   -0.539031
  H     -1.002300   -4.288108    0.666175

 Total Charge           Charge          ....    0
 Multiplicity           Mult            ....    1
 Number of Electrons    NEL             ....   72
 Basis Dimension        Dim             ....  387

ORBITAL ENERGIES
----------------

  NO   OCC          E(Eh)            E(eV)
   0   2.0000     -11.231020      -305.6116
   1   2.0000     -11.222548      -305.3811
   2   2.0000     -11.218609      -305.2739
   3   2.0000     -11.212914      -305.1189
   4   2.0000     -11.212412      -305.1053
   5   2.0000     -11.212300      -305.1022
   6   2.0000     -11.211480      -305.0799
   7   2.0000     -11.208842      -305.0081
   8   2.0000     -11.206998      -304.9579
   9   2.0000      -1.154798       -31.4237
  10   2.0000      -1.068375       -29.0720
  11   2.0000      -0.983387       -26.7593
  12   2.0000      -0.965757       -26.2796
  13   2.0000      -0.931400       -25.3447
  14   2.0000      -0.876993       -23.8642
  15   2.0000      -0.813110       -22.1258
  16   2.0000      -0.764043       -20.7907
  17   2.0000      -0.724808       -19.7230
  18   2.0000      -0.640936       -17.4408
  19   2.0000      -0.628114       -17.0919
  20   2.0000      -0.609967       -16.5980
  21   2.0000      -0.586757       -15.9665
  22   2.0000      -0.581815       -15.8320
  23   2.0000      -0.559862       -15.2346
  24   2.0000      -0.540385       -14.7046
  25   2.0000      -0.534243       -14.5375
  26   2.0000      -0.530284       -14.4298
  27   2.0000      -0.525943       -14.3116
  28   2.0000      -0.513843       -13.9824
  29   2.0000      -0.500984       -13.6325
  30   2.0000      -0.480053       -13.0629
  31   2.0000      -0.462460       -12.5842
  32   2.0000      -0.461080       -12.5466
  33   2.0000      -0.448508       -12.2045
  34   2.0000      -0.391193       -10.6449
  35   2.0000      -0.376611       -10.2481
  36   0.0000       0.133225         3.6252
  37   0.0000       0.150954         4.1077
  38   0.0000       0.158298         4.3075
  39   0.0000       0.167817         4.5665
  40   0.0000       0.182593         4.9686

MULLIKEN ATOMIC CHARGES
-----------------------
   0 C :   -0.408388
   1 C :   -0.182252
   2 C :   -0.050437
   3 C :   -0.419006
   4 C :   -0.145494
   5 C :   -0.309680
   6 C :    0.142928
   7 C :   -0.395116
   8 C :   -0.403343
   9 H :    0.134757
  10 H :    0.126959
  11 H :    0.121190
  12 H :    0.101604
  13 H :    0.117162
  14 H :    0.066922
  15 H :    0.133316
  16 H :    0.133425
  17 H :    0.120016
  18 H :    0.103223
  19 H :    0.126876
  20 H :    0.120392
  21 H :    0.133504
  22 H :    0.127416
  23 H :    0.124996
  24 H :    0.126577
  25 H :    0.126581
  26 H :    0.125873
Sum of atomic charges:   -0.0000000

LOEWDIN ATOMIC CHARGES
----------------------
   0 C :   -0.320946
   1 C :   -0.268520
   2 C :   -0.268606
   3 C :   -0.287529
   4 C :   -0.174892
   5 C :   -0.193361
   6 C :   -0.278351
   7 C :   -0.268841
   8 C :   -0.268323
   9 H :    0.120978
  10 H :    0.118266
  11 H :    0.120185
  12 H :    0.136433
  13 H :    0.139868
  14 H :    0.151933
  15 H :    0.123553
  16 H :    0.120701
  17 H :    0.124002
  18 H :    0.152851
  19 H :    0.131172
  20 H :    0.135285
  21 H :    0.127656
  22 H :    0.124880
  23 H :    0.124793
  24 H :    0.124905
  25 H :    0.125347
  26 H :    0.126561

  Mayer bond orders larger than 0.1
B(  0-C ,  1-C ) :   0.9124 B(  0-C ,  9-H ) :   0.9434 B(  0-C , 10-H ) :   0.9424
B(  0-C , 11-H ) :   0.9387 B(  1-C ,  2-C ) :   0.9258 B(  1-C , 12-H ) :   0.9250
B(  1-C , 13-H ) :   0.9368 B(  2-C ,  3-C ) :   0.9047 B(  2-C ,  4-C ) :   0.9215
B(  2-C , 14-H ) :   0.9230 B(  3-C , 15-H ) :   0.9424 B(  3-C , 16-H ) :   0.9413
B(  3-C , 17-H ) :   0.9312 B(  4-C ,  5-C ) :   0.8930 B(  4-C ,  6-C ) :   0.8587
B(  4-C , 18-H ) :   0.9234 B(  5-C ,  6-C ) :   0.8933 B(  5-C , 19-H ) :   0.9251
B(  5-C , 20-H ) :   0.9189 B(  6-C ,  7-C ) :   0.9145 B(  6-C ,  8-C ) :   0.9011
B(  7-C , 21-H ) :   0.9364 B(  7-C , 22-H ) :   0.9335 B(  7-C , 23-H ) :   0.9379
B(  8-C , 24-H ) :   0.9392 B(  8-C , 25-H ) :   0.9402 B(  8-C , 26-H ) :   0.9314

MP2 TOTAL ENERGY:     -352.912729648 Eh
FINAL SINGLE POINT ENERGY      -352.912729647901

DIPOLE MOMENT
-------------
                                X             Y             Z
Electronic contribution:      0.45019      -0.97273       2.65799
Nuclear contribution   :     -0.47455       0.95940      -2.65389
                        -----------------------------------------
Total Dipole Moment    :     -0.02436      -0.01332       0.00410
                        -----------------------------------------
Magnitude (a.u.)       :      0.02807
Magnitude (Debye)      :      0.07134

                             ****ORCA TERMINATED NORMALLY****
TOTAL RUN TIME: 0 days 0 hours 22 minutes 43 seconds 100 msec
