                         Program Version 3.0.3 - RELEASE   -
|  1> ! RI-MP2 RIJK def2-TZVP def2-TZVP/C def2-TZVP/JK TIGHTSCF
|  2> % maxcore 2000
|  3> % mp2 density relaxed end
|  4> *xyz 0 1
|  5>  C        0.0447386065     1.5441784620     0.1278315652
|  6>  C       -0.0221169562     0.0195968958     0.0115932837
|  7>  C       -1.4634391237    -0.5079898094    -0.0463327901
|  8>  C       -1.5316734852    -2.0043204328    -0.1122403005
|  9>  C       -0.9843631835    -2.8656840213    -1.2906321438
| 10>  C       -1.8894417332    -3.9654243958    -0.7424764501
| 11>  C       -1.8701538423    -3.7462059780     0.7807293384
| 12>  O       -0.9674810129    -2.6816111799     1.0623723521
| 13>  C       -2.8016250905    -2.9490457624    -0.0593276282
| 14>  H        1.0808360518     1.8941603422     0.1690055884
| 15>  H       -0.4374544117     2.0304491507    -0.7278674580
| 16>  H       -0.4611793280     1.8946445793     1.0343205939
| 17>  H        0.5193753192    -0.3054744209    -0.8855296672
| 18>  H        0.4871450263    -0.4441841548     0.8634328553
| 19>  H       -2.0172232065    -0.1705925775     0.8388255906
| 20>  H       -1.9824863879    -0.0958662148    -0.9217879678
| 21>  H       -1.3413680286    -2.4972645275    -2.2562662253
| 22>  H        0.0979823442    -3.0276963316    -1.3143295653
| 23>  H       -2.1638877190    -4.9104003488    -1.1934767041
| 24>  H       -2.0293844282    -4.5162816669     1.5237321882
| 25>  H       -3.8705010905    -2.7863615877    -0.0620737455
| 26> *
| 27>
| 28>                          ****END OF INPUT****

CARTESIAN COORDINATES (ANGSTROEM)
---------------------------------
  C      0.044739    1.544178    0.127832
  C     -0.022117    0.019597    0.011593
  C     -1.463439   -0.507990   -0.046333
  C     -1.531673   -2.004320   -0.112240
  C     -0.984363   -2.865684   -1.290632
  C     -1.889442   -3.965424   -0.742476
  C     -1.870154   -3.746206    0.780729
  O     -0.967481   -2.681611    1.062372
  C     -2.801625   -2.949046   -0.059328
  H      1.080836    1.894160    0.169006
  H     -0.437454    2.030449   -0.727867
  H     -0.461179    1.894645    1.034321
  H      0.519375   -0.305474   -0.885530
  H      0.487145   -0.444184    0.863433
  H     -2.017223   -0.170593    0.838826
  H     -1.982486   -0.095866   -0.921788
  H     -1.341368   -2.497265   -2.256266
  H      0.097982   -3.027696   -1.314330
  H     -2.163888   -4.910400   -1.193477
  H     -2.029384   -4.516282    1.523732
  H     -3.870501   -2.786362   -0.062074

 Total Charge           Charge          ....    0
 Multiplicity           Mult            ....    1
 Number of Electrons    NEL             ....   68
 Basis Dimension        Dim             ....  351

ORBITAL ENERGIES
----------------

  NO   OCC          E(Eh)            E(eV)
   0   2.0000     -20.545513      -559.0718
   1   2.0000     -11.295062      -307.3543
   2   2.0000     -11.285141      -307.0843
   3   2.0000     -11.237997      -305.8015
   4   2.0000     -11.233672      -305.6838
   5   2.0000     -11.226833      -305.4977
   6   2.0000     -11.222938      -305.3917
   7   2.0000     -11.218034      -305.2582
   8   2.0000     -11.211759      -305.0875
   9   2.0000      -1.396925       -38.0123
  10   2.0000      -1.145815       -31.1792
  11   2.0000      -1.071460       -29.1559
  12   2.0000      -0.988704       -26.9040
  13   2.0000      -0.937583       -25.5129
  14   2.0000      -0.860766       -23.4226
  15   2.0000      -0.801482       -21.8094
  16   2.0000      -0.771109       -20.9830
  17   2.0000      -0.735384       -20.0108
  18   2.0000      -0.684364       -18.6225
  19   2.0000      -0.640688       -17.4340
  20   2.0000      -0.627522       -17.0757
  21   2.0000      -0.609971       -16.5982
  22   2.0000      -0.585479       -15.9317
  23   2.0000      -0.573546       -15.6070
  24   2.0000      -0.550761       -14.9870
  25   2.0000      -0.528901       -14.3921
  26   2.0000      -0.512220       -13.9382
  27   2.0000      -0.500057       -13.6072
  28   2.0000      -0.480750       -13.0819
  29   2.0000      -0.471321       -12.8253
  30   2.0000      -0.458076       -12.4649
  31   2.0000      -0.416139       -11.3237
  32   2.0000      -0.387845       -10.5538
  33   2.0000      -0.374461       -10.1896
  34   0.0000       0.137284         3.7357
  35   0.0000       0.162345         4.4176
  36   0.0000       0.167605         4.5608
  37   0.0000       0.169944         4.6244
  38   0.0000       0.188649         5.1334

MULLIKEN ATOMIC CHARGES
-----------------------
   0 C :   -0.391633
   1 C :   -0.212189
   2 C :   -0.277514
   3 C :    0.220659
   4 C :   -0.183060
   5 C :   -0.170370
   6 C :    0.025957
   7 O :   -0.325419
   8 C :   -0.198215
   9 H :    0.135409
  10 H :    0.119512
  11 H :    0.125621
  12 H :    0.110376
  13 H :    0.136972
  14 H :    0.118665
  15 H :    0.111893
  16 H :    0.111943
  17 H :    0.114966
  18 H :    0.135174
  19 H :    0.138701
  20 H :    0.152553
Sum of atomic charges:    0.0000000

LOEWDIN ATOMIC CHARGES
----------------------
   0 C :   -0.320444
   1 C :   -0.282916
   2 C :   -0.232819
   3 C :   -0.240322
   4 C :   -0.183505
   5 C :   -0.172121
   6 C :   -0.238603
   7 O :    0.182491
   8 C :   -0.119091
   9 H :    0.121235
  10 H :    0.119373
  11 H :    0.121049
  12 H :    0.136348
  13 H :    0.142824
  14 H :    0.148784
  15 H :    0.147137
  16 H :    0.141521
  17 H :    0.128262
  18 H :    0.134768
  19 H :    0.133364
  20 H :    0.132664

  Mayer bond orders larger than 0.1
B(  0-C ,  1-C ) :   0.9142 B(  0-C ,  9-H ) :   0.9449 B(  0-C , 10-H ) :   0.9374
B(  0-C , 11-H ) :   0.9409 B(  1-C ,  2-C ) :   0.9614 B(  1-C , 12-H ) :   0.9289
B(  1-C , 13-H ) :   0.9338 B(  2-C ,  3-C ) :   0.8961 B(  2-C , 14-H ) :   0.9181
B(  2-C , 15-H ) :   0.9160 B(  3-C ,  4-C ) :   0.9491 B(  3-C ,  7-O ) :   0.8647
B(  3-C ,  8-C ) :   0.8771 B(  4-C ,  5-C ) :   0.9492 B(  4-C , 16-H ) :   0.9278
B(  4-C , 17-H ) :   0.9199 B(  5-C ,  6-C ) :   0.8309 B(  5-C ,  8-C ) :   0.8456
B(  5-C , 18-H ) :   0.9227 B(  6-C ,  7-O ) :   0.9793 B(  6-C ,  8-C ) :   0.9348
B(  6-C , 19-H ) :   0.9244 B(  8-C , 20-H ) :   0.8913

MP2 TOTAL ENERGY:     -386.350713796 Eh
FINAL SINGLE POINT ENERGY      -386.350713796389

DIPOLE MOMENT
-------------
                                X             Y             Z
Electronic contribution:     -3.03918      -8.68375       2.10031
Nuclear contribution   :      2.59872       8.68555      -2.55861
                        -----------------------------------------
Total Dipole Moment    :     -0.44046       0.00180      -0.45831
                        -----------------------------------------
Magnitude (a.u.)       :      0.63565
Magnitude (Debye)      :      1.61569

                             ****ORCA TERMINATED NORMALLY****
TOTAL RUN TIME: 0 days 0 hours 19 minutes 13 seconds 329 msec
