                         Program Version 3.0.3 - RELEASE   -
|  1> ! RI-MP2 RIJK def2-TZVP def2-TZVP/C def2-TZVP/JK TIGHTSCF
|  2> % maxcore 2000
|  3> % mp2 density relaxed end
|  4> *xyz 0 1
|  5>  N        0.1303145031     1.3689081738     0.0577036476
|  6>  C       -0.0274824971    -0.0251928510    -0.0440688760
|  7>  C       -1.1509726506    -0.8295002689     0.0381698422
|  8>  C       -0.6452231675    -2.1499727306     0.1792734294
|  9>  C        0.7087044049    -2.1074011746     0.1669415597
| 10>  N        1.1254784693    -0.8177784961    -0.0439831422
| 11>  O        1.2588864062    -3.3317165647    -0.1505090452
| 12>  C        0.1398593218    -4.1890206646     0.1502315250
| 13>  O       -1.0688005987    -3.4468977096    -0.0518880306
| 14>  H        0.3917696779     1.7983808209    -0.8251877378
| 15>  H       -0.7193082275     1.8099979553     0.3852388434
| 16>  H       -2.1749724874    -0.4920923785     0.0179780835
| 17>  H        2.0173096784    -0.4347582176     0.2248858619
| 18>  H        0.1581333833    -5.0531276073    -0.5149463960
| 19>  H        0.2045539540    -4.4840685365     1.2104299750
| 20> *
| 21>
| 22>                          ****END OF INPUT****

CARTESIAN COORDINATES (ANGSTROEM)
---------------------------------
  N      0.130315    1.368908    0.057704
  C     -0.027482   -0.025193   -0.044069
  C     -1.150973   -0.829500    0.038170
  C     -0.645223   -2.149973    0.179273
  C      0.708704   -2.107401    0.166942
  N      1.125478   -0.817778   -0.043983
  O      1.258886   -3.331717   -0.150509
  C      0.139859   -4.189021    0.150232
  O     -1.068801   -3.446898   -0.051888
  H      0.391770    1.798381   -0.825188
  H     -0.719308    1.809998    0.385239
  H     -2.174972   -0.492092    0.017978
  H      2.017310   -0.434758    0.224886
  H      0.158133   -5.053128   -0.514946
  H      0.204554   -4.484069    1.210430

 Total Charge           Charge          ....    0
 Multiplicity           Mult            ....    1
 Number of Electrons    NEL             ....   66
 Basis Dimension        Dim             ....  315

ORBITAL ENERGIES
----------------

  NO   OCC          E(Eh)            E(eV)
   0   2.0000     -20.589641      -560.2726
   1   2.0000     -20.583158      -560.0962
   2   2.0000     -15.607447      -424.7002
   3   2.0000     -15.574267      -423.7973
   4   2.0000     -11.344232      -308.6923
   5   2.0000     -11.304505      -307.6112
   6   2.0000     -11.291667      -307.2619
   7   2.0000     -11.263768      -306.5027
   8   2.0000     -11.222034      -305.3671
   9   2.0000      -1.458484       -39.6874
  10   2.0000      -1.355142       -36.8753
  11   2.0000      -1.301171       -35.4067
  12   2.0000      -1.194684       -32.5090
  13   2.0000      -1.053425       -28.6652
  14   2.0000      -0.968574       -26.3562
  15   2.0000      -0.889128       -24.1944
  16   2.0000      -0.803311       -21.8592
  17   2.0000      -0.791232       -21.5305
  18   2.0000      -0.740827       -20.1589
  19   2.0000      -0.698063       -18.9952
  20   2.0000      -0.686643       -18.6845
  21   2.0000      -0.657545       -17.8927
  22   2.0000      -0.636970       -17.3328
  23   2.0000      -0.605998       -16.4901
  24   2.0000      -0.594656       -16.1814
  25   2.0000      -0.573028       -15.5929
  26   2.0000      -0.554170       -15.0797
  27   2.0000      -0.525722       -14.3056
  28   2.0000      -0.519606       -14.1392
  29   2.0000      -0.487897       -13.2764
  30   2.0000      -0.443911       -12.0794
  31   2.0000      -0.352055        -9.5799
  32   2.0000      -0.264994        -7.2109
  33   0.0000       0.126608         3.4452
  34   0.0000       0.157136         4.2759
  35   0.0000       0.159477         4.3396
  36   0.0000       0.176051         4.7906
  37   0.0000       0.187017         5.0890

MULLIKEN ATOMIC CHARGES
-----------------------
   0 N :   -0.538944
   1 C :    0.220576
   2 C :   -0.333465
   3 C :    0.155805
   4 C :    0.126509
   5 N :   -0.295080
   6 O :   -0.295128
   7 C :    0.130329
   8 O :   -0.298724
   9 H :    0.258020
  10 H :    0.254688
  11 H :    0.139385
  12 H :    0.256882
  13 H :    0.135254
  14 H :    0.083893
Sum of atomic charges:   -0.0000000

LOEWDIN ATOMIC CHARGES
----------------------
   0 N :   -0.110159
   1 C :   -0.318187
   2 C :   -0.167747
   3 C :   -0.274832
   4 C :   -0.344222
   5 N :    0.193136
   6 O :    0.202982
   7 C :   -0.297093
   8 O :    0.210805
   9 H :    0.168393
  10 H :    0.171237
  11 H :    0.140580
  12 H :    0.194147
  13 H :    0.120141
  14 H :    0.110819

  Mayer bond orders larger than 0.1
B(  0-N ,  1-C ) :   1.0202 B(  0-N ,  9-H ) :   0.8744 B(  0-N , 10-H ) :   0.8869
B(  1-C ,  2-C ) :   1.5005 B(  1-C ,  5-N ) :   1.0802 B(  2-C ,  3-C ) :   1.2116
B(  2-C , 11-H ) :   0.9165 B(  3-C ,  4-C ) :   1.4494 B(  3-C ,  8-O ) :   0.9826
B(  4-C ,  5-N ) :   1.0857 B(  4-C ,  6-O ) :   0.9980 B(  5-N , 12-H ) :   0.8563
B(  6-O ,  7-C ) :   0.9208 B(  7-C ,  8-O ) :   0.9450 B(  7-C , 13-H ) :   0.9206
B(  7-C , 14-H ) :   0.9244

MP2 TOTAL ENERGY:     -453.195995719 Eh
FINAL SINGLE POINT ENERGY      -453.195995718595

DIPOLE MOMENT
-------------
                                X             Y             Z
Electronic contribution:      0.68191      -2.61916      -0.41014
Nuclear contribution   :     -0.50062       3.33243       0.31414
                        -----------------------------------------
Total Dipole Moment    :      0.18129       0.71327      -0.09601
                        -----------------------------------------
Magnitude (a.u.)       :      0.74218
Magnitude (Debye)      :      1.88648

                             ****ORCA TERMINATED NORMALLY****
TOTAL RUN TIME: 0 days 0 hours 14 minutes 34 seconds 389 msec
