                         Program Version 3.0.3 - RELEASE   -
|  1> ! RI-MP2 RIJK def2-TZVP def2-TZVP/C def2-TZVP/JK TIGHTSCF
|  2> % maxcore 2000
|  3> % mp2 density relaxed end
|  4> *xyz 0 1
|  5>  C       -0.0922756973     1.5348786516     0.0474767914
|  6>  C        0.0221738607     0.0005708109     0.0021707396
|  7>  C        0.8169719971    -0.4928572688    -1.2024001854
|  8>  O        2.2009376280    -0.1061906186    -1.1164263826
|  9>  C        2.8621524283    -0.3587475887     0.0304185156
| 10>  O        4.0601532638    -0.3102107041     0.0978584664
| 11>  N        2.0665384778    -0.6719289255     1.1314465398
| 12>  C        0.6821805593    -0.5301731760     1.2564336912
| 13>  N        0.0041258812    -0.7828557024     2.3011627564
| 14>  H        0.8927726348     2.0098868848     0.0648950756
| 15>  H       -0.6263541321     1.9001035473    -0.8351426641
| 16>  H       -0.6420866641     1.8440059053     0.9389456488
| 17>  H       -0.9807799409    -0.4326772930    -0.0349080364
| 18>  H        0.7620152864    -1.5848413501    -1.2903612075
| 19>  H        0.4565623283    -0.0501394109    -2.1327594090
| 20>  H        2.6063486105    -0.8960778774     1.9557886457
| 21>  H        0.5918095981    -1.1032425642     3.0740857747
| 22> *
| 23>
| 24>                          ****END OF INPUT****

CARTESIAN COORDINATES (ANGSTROEM)
---------------------------------
  C     -0.092276    1.534879    0.047477
  C      0.022174    0.000571    0.002171
  C      0.816972   -0.492857   -1.202400
  O      2.200938   -0.106191   -1.116426
  C      2.862152   -0.358748    0.030419
  O      4.060153   -0.310211    0.097858
  N      2.066538   -0.671929    1.131447
  C      0.682181   -0.530173    1.256434
  N      0.004126   -0.782856    2.301163
  H      0.892773    2.009887    0.064895
  H     -0.626354    1.900104   -0.835143
  H     -0.642087    1.844006    0.938946
  H     -0.980780   -0.432677   -0.034908
  H      0.762015   -1.584841   -1.290361
  H      0.456562   -0.050139   -2.132759
  H      2.606349   -0.896078    1.955789
  H      0.591810   -1.103243    3.074086

 Total Charge           Charge          ....    0
 Multiplicity           Mult            ....    1
 Number of Electrons    NEL             ....   68
 Basis Dimension        Dim             ....  327

ORBITAL ENERGIES
----------------

  NO   OCC          E(Eh)            E(eV)
   0   2.0000     -20.617902      -561.0416
   1   2.0000     -20.541275      -558.9565
   2   2.0000     -15.625684      -425.1965
   3   2.0000     -15.552961      -423.2176
   4   2.0000     -11.424475      -310.8758
   5   2.0000     -11.345691      -308.7319
   6   2.0000     -11.317127      -307.9547
   7   2.0000     -11.267464      -306.6033
   8   2.0000     -11.240306      -305.8643
   9   2.0000      -1.482544       -40.3421
  10   2.0000      -1.379444       -37.5366
  11   2.0000      -1.301849       -35.4251
  12   2.0000      -1.189096       -32.3569
  13   2.0000      -1.099943       -29.9310
  14   2.0000      -0.974137       -26.5076
  15   2.0000      -0.910005       -24.7625
  16   2.0000      -0.869934       -23.6721
  17   2.0000      -0.778018       -21.1710
  18   2.0000      -0.756208       -20.5775
  19   2.0000      -0.726495       -19.7689
  20   2.0000      -0.693045       -18.8587
  21   2.0000      -0.656369       -17.8607
  22   2.0000      -0.643016       -17.4974
  23   2.0000      -0.626601       -17.0507
  24   2.0000      -0.599510       -16.3135
  25   2.0000      -0.587289       -15.9809
  26   2.0000      -0.560829       -15.2609
  27   2.0000      -0.532282       -14.4841
  28   2.0000      -0.512266       -13.9395
  29   2.0000      -0.499503       -13.5922
  30   2.0000      -0.479859       -13.0576
  31   2.0000      -0.471927       -12.8418
  32   2.0000      -0.444588       -12.0979
  33   2.0000      -0.398563       -10.8454
  34   0.0000       0.117941         3.2093
  35   0.0000       0.132253         3.5988
  36   0.0000       0.147587         4.0160
  37   0.0000       0.157723         4.2919
  38   0.0000       0.175792         4.7836

MULLIKEN ATOMIC CHARGES
-----------------------
   0 C :   -0.438574
   1 C :    0.016101
   2 C :   -0.069661
   3 O :   -0.233448
   4 C :    0.341347
   5 O :   -0.314197
   6 N :   -0.316972
   7 C :    0.058360
   8 N :   -0.338566
   9 H :    0.148258
  10 H :    0.136991
  11 H :    0.158529
  12 H :    0.123258
  13 H :    0.137462
  14 H :    0.141187
  15 H :    0.247325
  16 H :    0.202601
Sum of atomic charges:   -0.0000000

LOEWDIN ATOMIC CHARGES
----------------------
   0 C :   -0.271950
   1 C :   -0.246459
   2 C :   -0.245874
   3 O :    0.261522
   4 C :   -0.571855
   5 O :    0.112652
   6 N :    0.153422
   7 C :   -0.346393
   8 N :   -0.047776
   9 H :    0.130307
  10 H :    0.127824
  11 H :    0.133615
  12 H :    0.172897
  13 H :    0.135682
  14 H :    0.139710
  15 H :    0.203318
  16 H :    0.159359

  Mayer bond orders larger than 0.1
B(  0-C ,  1-C ) :   0.9115 B(  0-C ,  9-H ) :   0.9254 B(  0-C , 10-H ) :   0.9352
B(  0-C , 11-H ) :   0.9366 B(  1-C ,  2-C ) :   0.9149 B(  1-C ,  7-C ) :   0.8753
B(  1-C , 12-H ) :   0.9162 B(  2-C ,  3-O ) :   0.8387 B(  2-C , 13-H ) :   0.9301
B(  2-C , 14-H ) :   0.9297 B(  3-O ,  4-C ) :   1.1181 B(  4-C ,  5-O ) :   2.0151
B(  4-C ,  6-N ) :   1.0456 B(  6-N ,  7-C ) :   1.0422 B(  6-N , 15-H ) :   0.8589
B(  7-C ,  8-N ) :   2.0890 B(  8-N , 16-H ) :   0.8564

MP2 TOTAL ENERGY:     -454.475294302 Eh
FINAL SINGLE POINT ENERGY      -454.475294302395

DIPOLE MOMENT
-------------
                                X             Y             Z
Electronic contribution:      6.91839      -3.10793       0.47699
Nuclear contribution   :     -7.84950       2.95212      -0.43329
                        -----------------------------------------
Total Dipole Moment    :     -0.93111      -0.15582       0.04371
                        -----------------------------------------
Magnitude (a.u.)       :      0.94507
Magnitude (Debye)      :      2.40218

                             ****ORCA TERMINATED NORMALLY****
TOTAL RUN TIME: 0 days 0 hours 15 minutes 39 seconds 631 msec
