                         Program Version 3.0.3 - RELEASE   -
|  1> ! RI-MP2 RIJK def2-TZVP def2-TZVP/C def2-TZVP/JK TIGHTSCF
|  2> % maxcore 2000
|  3> % mp2 density relaxed end
|  4> *xyz 0 1
|  5>  C        0.1824233211     1.3949297866    -0.1503501734
|  6>  C       -0.0153278128    -0.0828557114     0.0718072850
|  7>  N       -0.1879921703    -0.7084563330     1.1629047240
|  8>  O        0.0115241139    -0.7364486795    -1.1094913984
|  9>  C       -0.1555528544    -2.1596859320    -1.0631725949
| 10>  C       -0.0893417902    -2.6640369605    -2.4882585591
| 11>  C        1.3038943612    -2.6496320159    -3.1544467581
| 12>  O        1.3495339601    -4.0918123882    -3.1977947481
| 13>  C        0.0251102711    -4.1975735745    -2.6396206950
| 14>  H        1.1429082756     1.5767165984    -0.6422244194
| 15>  H       -0.5975502199     1.7845332240    -0.8115553176
| 16>  H        0.1558925753     1.9396663709     0.7945348686
| 17>  H       -0.1811990240    -0.0640134100     1.9499635041
| 18>  H        0.6343023030    -2.5994875455    -0.4430501163
| 19>  H       -1.1130729375    -2.4010496876    -0.5880759549
| 20>  H       -0.8792386988    -2.2036904722    -3.0855699837
| 21>  H        1.3451263789    -2.2080521060    -4.1576725211
| 22>  H        2.1131500919    -2.2272811727    -2.5459111071
| 23>  H        0.0161308288    -4.7708929531    -1.7030143064
| 24>  H       -0.6829703530    -4.6560429777    -3.3410722384
| 25> *
| 26>
| 27>                          ****END OF INPUT****

CARTESIAN COORDINATES (ANGSTROEM)
---------------------------------
  C      0.182423    1.394930   -0.150350
  C     -0.015328   -0.082856    0.071807
  N     -0.187992   -0.708456    1.162905
  O      0.011524   -0.736449   -1.109491
  C     -0.155553   -2.159686   -1.063173
  C     -0.089342   -2.664037   -2.488259
  C      1.303894   -2.649632   -3.154447
  O      1.349534   -4.091812   -3.197795
  C      0.025110   -4.197574   -2.639621
  H      1.142908    1.576717   -0.642224
  H     -0.597550    1.784533   -0.811555
  H      0.155893    1.939666    0.794535
  H     -0.181199   -0.064013    1.949964
  H      0.634302   -2.599488   -0.443050
  H     -1.113073   -2.401050   -0.588076
  H     -0.879239   -2.203690   -3.085570
  H      1.345126   -2.208052   -4.157673
  H      2.113150   -2.227281   -2.545911
  H      0.016131   -4.770893   -1.703014
  H     -0.682970   -4.656043   -3.341072

 Total Charge           Charge          ....    0
 Multiplicity           Mult            ....    1
 Number of Electrons    NEL             ....   70
 Basis Dimension        Dim             ....  345

ORBITAL ENERGIES
----------------

  NO   OCC          E(Eh)            E(eV)
   0   2.0000     -20.590868      -560.3060
   1   2.0000     -20.545835      -559.0806
   2   2.0000     -15.534637      -422.7190
   3   2.0000     -11.341838      -308.6271
   4   2.0000     -11.283477      -307.0390
   5   2.0000     -11.279687      -306.9359
   6   2.0000     -11.276209      -306.8412
   7   2.0000     -11.243285      -305.9453
   8   2.0000     -11.236657      -305.7650
   9   2.0000      -1.427847       -38.8537
  10   2.0000      -1.375705       -37.4348
  11   2.0000      -1.196156       -32.5491
  12   2.0000      -1.060900       -28.8686
  13   2.0000      -1.003231       -27.2993
  14   2.0000      -0.934055       -25.4169
  15   2.0000      -0.910746       -24.7827
  16   2.0000      -0.785697       -21.3799
  17   2.0000      -0.762953       -20.7610
  18   2.0000      -0.702150       -19.1065
  19   2.0000      -0.685426       -18.6514
  20   2.0000      -0.668166       -18.1817
  21   2.0000      -0.653871       -17.7927
  22   2.0000      -0.632626       -17.2146
  23   2.0000      -0.597291       -16.2531
  24   2.0000      -0.583945       -15.8899
  25   2.0000      -0.577598       -15.7172
  26   2.0000      -0.562511       -15.3067
  27   2.0000      -0.545468       -14.8429
  28   2.0000      -0.516147       -14.0451
  29   2.0000      -0.497412       -13.5353
  30   2.0000      -0.465497       -12.6668
  31   2.0000      -0.449526       -12.2322
  32   2.0000      -0.432611       -11.7719
  33   2.0000      -0.413435       -11.2501
  34   2.0000      -0.405397       -11.0314
  35   0.0000       0.128618         3.4999
  36   0.0000       0.149242         4.0611
  37   0.0000       0.170150         4.6300
  38   0.0000       0.172722         4.7000
  39   0.0000       0.175418         4.7734

MULLIKEN ATOMIC CHARGES
-----------------------
   0 C :   -0.369803
   1 C :    0.193496
   2 N :   -0.417098
   3 O :   -0.257525
   4 C :   -0.152044
   5 C :   -0.007122
   6 C :   -0.026215
   7 O :   -0.330273
   8 C :   -0.040008
   9 H :    0.149362
  10 H :    0.148970
  11 H :    0.125160
  12 H :    0.215227
  13 H :    0.134912
  14 H :    0.127317
  15 H :    0.115844
  16 H :    0.093849
  17 H :    0.098974
  18 H :    0.100743
  19 H :    0.096233
Sum of atomic charges:   -0.0000000

LOEWDIN ATOMIC CHARGES
----------------------
   0 C :   -0.277060
   1 C :   -0.444102
   2 N :   -0.074984
   3 O :    0.250512
   4 C :   -0.272783
   5 C :   -0.245308
   6 C :   -0.249901
   7 O :    0.107269
   8 C :   -0.250822
   9 H :    0.137434
  10 H :    0.137317
  11 H :    0.127713
  12 H :    0.165676
  13 H :    0.136335
  14 H :    0.133446
  15 H :    0.147087
  16 H :    0.116619
  17 H :    0.119522
  18 H :    0.119266
  19 H :    0.116765

  Mayer bond orders larger than 0.1
B(  0-C ,  1-C ) :   0.9243 B(  0-C ,  9-H ) :   0.9205 B(  0-C , 10-H ) :   0.9208
B(  0-C , 11-H ) :   0.9408 B(  1-C ,  2-N ) :   1.9017 B(  1-C ,  3-O ) :   1.0724
B(  2-N , 12-H ) :   0.8597 B(  3-O ,  4-C ) :   0.8505 B(  4-C ,  5-C ) :   0.9132
B(  4-C , 13-H ) :   0.9279 B(  4-C , 14-H ) :   0.9361 B(  5-C ,  6-C ) :   0.9458
B(  5-C ,  8-C ) :   0.9419 B(  5-C , 15-H ) :   0.9180 B(  6-C ,  7-O ) :   0.9524
B(  6-C , 16-H ) :   0.9132 B(  6-C , 17-H ) :   0.9066 B(  7-O ,  8-C ) :   0.9577
B(  8-C , 18-H ) :   0.9075 B(  8-C , 19-H ) :   0.9132

MP2 TOTAL ENERGY:     -439.544993622 Eh
FINAL SINGLE POINT ENERGY      -439.544993622335

DIPOLE MOMENT
-------------
                                X             Y             Z
Electronic contribution:      0.59562      -2.31667      -0.62149
Nuclear contribution   :     -1.04562       3.31681       0.74169
                        -----------------------------------------
Total Dipole Moment    :     -0.44999       1.00014       0.12020
                        -----------------------------------------
Magnitude (a.u.)       :      1.10328
Magnitude (Debye)      :      2.80431

                             ****ORCA TERMINATED NORMALLY****
TOTAL RUN TIME: 0 days 0 hours 17 minutes 19 seconds 436 msec
