                         Program Version 3.0.3 - RELEASE   -
|  1> ! RI-MP2 RIJK def2-TZVP def2-TZVP/C def2-TZVP/JK TIGHTSCF
|  2> % maxcore 2000
|  3> % mp2 density relaxed end
|  4> *xyz 0 1
|  5>  O        0.0199120731     1.4276037330    -0.0450454738
|  6>  C        0.0508310093     0.0189637141    -0.0072713788
|  7>  C        0.1697250946    -0.5696194627     1.4361525928
|  8>  N       -1.3038481354    -0.6656258541     1.5042162981
|  9>  C       -1.4225877525    -0.5480685668     0.0282862070
| 10>  C       -2.5012752642     0.2804340710    -0.4739651220
| 11>  C       -3.4091031361     0.9371063853    -0.9078014024
| 12>  C        0.9417381197    -0.5329731794    -1.0156865738
| 13>  C        1.7047283607    -0.9663625045    -1.8380478821
| 14>  H        0.9235419678     1.7385294245    -0.1653817192
| 15>  H        0.7063494076    -1.5266078323     1.4513692059
| 16>  H        0.6092478583     0.1138766316     2.1692794260
| 17>  H       -1.6684554589    -1.5311491045     1.8853450704
| 18>  H       -1.4349621933    -1.5177664198    -0.4888525471
| 19>  H       -4.2038427335     1.5344356715    -1.2808228209
| 20>  H        2.3691867429    -1.3524694968    -2.5714851399
| 21> *
| 22>
| 23>                          ****END OF INPUT****

CARTESIAN COORDINATES (ANGSTROEM)
---------------------------------
  O      0.019912    1.427604   -0.045045
  C      0.050831    0.018964   -0.007271
  C      0.169725   -0.569619    1.436153
  N     -1.303848   -0.665626    1.504216
  C     -1.422588   -0.548069    0.028286
  C     -2.501275    0.280434   -0.473965
  C     -3.409103    0.937106   -0.907801
  C      0.941738   -0.532973   -1.015687
  C      1.704728   -0.966363   -1.838048
  H      0.923542    1.738529   -0.165382
  H      0.706349   -1.526608    1.451369
  H      0.609248    0.113877    2.169279
  H     -1.668455   -1.531149    1.885345
  H     -1.434962   -1.517766   -0.488853
  H     -4.203843    1.534436   -1.280823
  H      2.369187   -1.352469   -2.571485

 Total Charge           Charge          ....    0
 Multiplicity           Mult            ....    1
 Number of Electrons    NEL             ....   64
 Basis Dimension        Dim             ....  321

ORBITAL ENERGIES
----------------

  NO   OCC          E(Eh)            E(eV)
   0   2.0000     -20.572307      -559.8009
   1   2.0000     -15.556948      -423.3261
   2   2.0000     -11.329222      -308.2838
   3   2.0000     -11.294420      -307.3368
   4   2.0000     -11.266884      -306.5875
   5   2.0000     -11.247785      -306.0678
   6   2.0000     -11.243329      -305.9465
   7   2.0000     -11.226921      -305.5000
   8   2.0000     -11.219493      -305.2979
   9   2.0000      -1.388182       -37.7744
  10   2.0000      -1.245108       -33.8811
  11   2.0000      -1.061380       -28.8816
  12   2.0000      -1.038966       -28.2717
  13   2.0000      -0.973170       -26.4813
  14   2.0000      -0.939632       -25.5687
  15   2.0000      -0.828967       -22.5573
  16   2.0000      -0.769782       -20.9468
  17   2.0000      -0.730324       -19.8731
  18   2.0000      -0.713350       -19.4112
  19   2.0000      -0.690112       -18.7789
  20   2.0000      -0.655985       -17.8503
  21   2.0000      -0.617321       -16.7982
  22   2.0000      -0.593685       -16.1550
  23   2.0000      -0.566494       -15.4151
  24   2.0000      -0.549628       -14.9561
  25   2.0000      -0.511085       -13.9073
  26   2.0000      -0.463564       -12.6142
  27   2.0000      -0.418971       -11.4008
  28   2.0000      -0.408259       -11.1093
  29   2.0000      -0.393228       -10.7003
  30   2.0000      -0.383801       -10.4438
  31   2.0000      -0.371940       -10.1210
  32   0.0000       0.125026         3.4021
  33   0.0000       0.135588         3.6895
  34   0.0000       0.153550         4.1783
  35   0.0000       0.158376         4.3096
  36   0.0000       0.167816         4.5665

MULLIKEN ATOMIC CHARGES
-----------------------
   0 O :   -0.441841
   1 C :    0.274428
   2 C :   -0.148698
   3 N :   -0.317872
   4 C :   -0.196931
   5 C :    0.008921
   6 C :   -0.132538
   7 C :   -0.181139
   8 C :   -0.150977
   9 H :    0.324998
  10 H :    0.123182
  11 H :    0.104938
  12 H :    0.208868
  13 H :    0.134898
  14 H :    0.191001
  15 H :    0.198763
Sum of atomic charges:    0.0000000

LOEWDIN ATOMIC CHARGES
----------------------
   0 O :    0.051360
   1 C :   -0.324824
   2 C :   -0.222632
   3 N :    0.013318
   4 C :   -0.215247
   5 C :   -0.080109
   6 C :   -0.078670
   7 C :   -0.080634
   8 C :   -0.075870
   9 H :    0.185170
  10 H :    0.125361
  11 H :    0.125483
  12 H :    0.158636
  13 H :    0.161719
  14 H :    0.127076
  15 H :    0.129863

  Mayer bond orders larger than 0.1
B(  0-O ,  1-C ) :   0.9627 B(  0-O ,  4-C ) :  -0.1266 B(  0-O ,  9-H ) :   0.8314
B(  1-C ,  2-C ) :   0.8651 B(  1-C ,  4-C ) :   0.7729 B(  1-C ,  7-C ) :   1.1580
B(  2-C ,  3-N ) :   0.9637 B(  2-C , 10-H ) :   0.9179 B(  2-C , 11-H ) :   0.9050
B(  3-N ,  4-C ) :   0.9549 B(  3-N , 12-H ) :   0.8746 B(  4-C ,  5-C ) :   1.1679
B(  4-C ,  6-C ) :  -0.1087 B(  4-C , 13-H ) :   0.9267 B(  5-C ,  6-C ) :   2.5953
B(  6-C , 14-H ) :   0.8854 B(  7-C ,  8-C ) :   2.5710 B(  8-C , 15-H ) :   0.8869

MP2 TOTAL ENERGY:     -399.937207067 Eh
FINAL SINGLE POINT ENERGY      -399.937207067416

DIPOLE MOMENT
-------------
                                X             Y             Z
Electronic contribution:     -0.71415       1.36933      -1.76920
Nuclear contribution   :      1.50176      -2.06065       1.59861
                        -----------------------------------------
Total Dipole Moment    :      0.78761      -0.69133      -0.17058
                        -----------------------------------------
Magnitude (a.u.)       :      1.06178
Magnitude (Debye)      :      2.69882

                             ****ORCA TERMINATED NORMALLY****
TOTAL RUN TIME: 0 days 0 hours 15 minutes 34 seconds 148 msec
