                         Program Version 3.0.3 - RELEASE   -
|  1> ! RI-MP2 RIJK def2-TZVP def2-TZVP/C def2-TZVP/JK TIGHTSCF
|  2> % maxcore 2000
|  3> % mp2 density relaxed end
|  4> *xyz 0 1
|  5>  O       -0.0070319412     1.3929655755    -0.0051220525
|  6>  C       -0.0511530139     0.0139056509     0.0314547994
|  7>  C       -1.3298102033    -0.7895778705     0.0814565924
|  8>  C       -2.4137953184    -0.1042423119    -0.7518986346
|  9>  N       -1.4518608872     0.0913660256    -1.8925993315
| 10>  C       -0.4565725442    -0.7642240280    -1.1972039702
| 11>  C        0.3022001021    -1.7705007071    -1.8551440747
| 12>  N        0.9134177587    -2.5919168136    -2.3967853377
| 13>  H       -0.4117402626     1.6501022034    -0.8499183083
| 14>  H        0.7670312996    -0.4151018847     0.6015775057
| 15>  H       -1.4844756384    -1.5962540485     0.7860531923
| 16>  H       -3.2315921254    -0.7836310935    -1.0048713710
| 17>  H       -2.8200697987     0.8316872031    -0.3568461810
| 18>  H       -1.7827262170    -0.3257804506    -2.7549463481
| 19> *
| 20>
| 21>                          ****END OF INPUT****

CARTESIAN COORDINATES (ANGSTROEM)
---------------------------------
  O     -0.007032    1.392966   -0.005122
  C     -0.051153    0.013906    0.031455
  C     -1.329810   -0.789578    0.081457
  C     -2.413795   -0.104242   -0.751899
  N     -1.451861    0.091366   -1.892599
  C     -0.456573   -0.764224   -1.197204
  C      0.302200   -1.770501   -1.855144
  N      0.913418   -2.591917   -2.396785
  H     -0.411740    1.650102   -0.849918
  H      0.767031   -0.415102    0.601578
  H     -1.484476   -1.596254    0.786053
  H     -3.231592   -0.783631   -1.004871
  H     -2.820070    0.831687   -0.356846
  H     -1.782726   -0.325780   -2.754946

 Total Charge           Charge          ....    0
 Multiplicity           Mult            ....    1
 Number of Electrons    NEL             ....   58
 Basis Dimension        Dim             ....  284

ORBITAL ENERGIES
----------------

  NO   OCC          E(Eh)            E(eV)
   0   2.0000     -20.575937      -559.8997
   1   2.0000     -15.593055      -424.3086
   2   2.0000     -15.584023      -424.0628
   3   2.0000     -11.322992      -308.1143
   4   2.0000     -11.321497      -308.0736
   5   2.0000     -11.292259      -307.2780
   6   2.0000     -11.286840      -307.1305
   7   2.0000     -11.274616      -306.7979
   8   2.0000      -1.399420       -38.0802
   9   2.0000      -1.293182       -35.1893
  10   2.0000      -1.225127       -33.3374
  11   2.0000      -1.099757       -29.9259
  12   2.0000      -0.988301       -26.8930
  13   2.0000      -0.881580       -23.9890
  14   2.0000      -0.821708       -22.3598
  15   2.0000      -0.782857       -21.3026
  16   2.0000      -0.711238       -19.3538
  17   2.0000      -0.659485       -17.9455
  18   2.0000      -0.630636       -17.1605
  19   2.0000      -0.625188       -17.0122
  20   2.0000      -0.587931       -15.9984
  21   2.0000      -0.568058       -15.4577
  22   2.0000      -0.553682       -15.0664
  23   2.0000      -0.544695       -14.8219
  24   2.0000      -0.521944       -14.2028
  25   2.0000      -0.487786       -13.2733
  26   2.0000      -0.453492       -12.3402
  27   2.0000      -0.420121       -11.4321
  28   2.0000      -0.383895       -10.4463
  29   0.0000       0.114623         3.1191
  30   0.0000       0.128210         3.4888
  31   0.0000       0.144727         3.9382
  32   0.0000       0.163808         4.4574
  33   0.0000       0.180663         4.9161

MULLIKEN ATOMIC CHARGES
-----------------------
   0 O :   -0.454380
   1 C :    0.055766
   2 C :   -0.133376
   3 C :   -0.148631
   4 N :   -0.398684
   5 C :    0.216667
   6 C :   -0.244349
   7 N :   -0.045349
   8 H :    0.346898
   9 H :    0.143493
  10 H :    0.157943
  11 H :    0.140887
  12 H :    0.135812
  13 H :    0.227302
Sum of atomic charges:   -0.0000000

LOEWDIN ATOMIC CHARGES
----------------------
   0 O :    0.021478
   1 C :   -0.272372
   2 C :   -0.134985
   3 C :   -0.230525
   4 N :    0.017813
   5 C :   -0.243179
   6 C :   -0.162820
   7 N :    0.078406
   8 H :    0.191578
   9 H :    0.157583
  10 H :    0.143738
  11 H :    0.132805
  12 H :    0.128461
  13 H :    0.172020

  Mayer bond orders larger than 0.1
B(  0-O ,  1-C ) :   1.0275 B(  0-O ,  8-H ) :   0.7976 B(  1-C ,  2-C ) :   0.8394
B(  1-C ,  5-C ) :   0.9172 B(  1-C ,  9-H ) :   0.9539 B(  2-C ,  3-C ) :   0.9386
B(  2-C ,  5-C ) :   0.7837 B(  2-C , 10-H ) :   0.8957 B(  3-C ,  4-N ) :   0.9056
B(  3-C , 11-H ) :   0.9218 B(  3-C , 12-H ) :   0.9278 B(  4-N ,  5-C ) :   0.9864
B(  4-N , 13-H ) :   0.8798 B(  5-C ,  6-C ) :   0.8522 B(  6-C ,  7-N ) :   2.8567

MP2 TOTAL ENERGY:     -378.045236512 Eh
FINAL SINGLE POINT ENERGY      -378.045236511909

DIPOLE MOMENT
-------------
                                X             Y             Z
Electronic contribution:      3.72265      -2.02014      -1.80515
Nuclear contribution   :     -5.11954       2.20082       2.17034
                        -----------------------------------------
Total Dipole Moment    :     -1.39689       0.18068       0.36519
                        -----------------------------------------
Magnitude (a.u.)       :      1.45510
Magnitude (Debye)      :      3.69858

                             ****ORCA TERMINATED NORMALLY****
TOTAL RUN TIME: 0 days 0 hours 10 minutes 52 seconds 663 msec
