                         Program Version 3.0.3 - RELEASE   -
|  1> ! RI-MP2 RIJK def2-TZVP def2-TZVP/C def2-TZVP/JK TIGHTSCF
|  2> % maxcore 2000
|  3> % mp2 density relaxed end
|  4> *xyz 0 1
|  5>  C       -0.0380098761     1.4163110089     0.0887589079
|  6>  N       -0.0411441018    -0.0332822053     0.0370619837
|  7>  C        0.5024438509    -0.6057769767    -0.9560791016
|  8>  N        1.1584623181    -0.0315665025    -2.0614888158
|  9>  C        1.6928287761    -0.9597579434    -2.9281343143
| 10>  O        2.2893211904    -0.7387604986    -3.9518148882
| 11>  C        1.3669283131    -2.3167350805    -2.2990007901
| 12>  N        0.5535678333    -1.9713314388    -1.1567443758
| 13>  C        0.2037189286    -2.9209697949    -0.1282462539
| 14>  H        0.9613736791     1.8577489559    -0.0589798869
| 15>  H       -0.7134609401     1.8645854149    -0.6564921826
| 16>  H       -0.3877411988     1.7406771725     1.0722749513
| 17>  H        1.2126111184     0.9600632835    -2.2241499397
| 18>  H        0.8446260222    -2.9548639636    -3.0227730415
| 19>  H        2.3036843787    -2.8253310985    -2.0232885424
| 20>  H        1.0941223066    -3.3433821744     0.3600549716
| 21>  H       -0.3942279965    -2.3999168075     0.6198824110
| 22>  H       -0.3820996722    -3.7452021311    -0.5502066426
| 23> *
| 24>
| 25>                          ****END OF INPUT****

CARTESIAN COORDINATES (ANGSTROEM)
---------------------------------
  C     -0.038010    1.416311    0.088759
  N     -0.041144   -0.033282    0.037062
  C      0.502444   -0.605777   -0.956079
  N      1.158462   -0.031567   -2.061489
  C      1.692829   -0.959758   -2.928134
  O      2.289321   -0.738760   -3.951815
  C      1.366928   -2.316735   -2.299001
  N      0.553568   -1.971331   -1.156744
  C      0.203719   -2.920970   -0.128246
  H      0.961374    1.857749   -0.058980
  H     -0.713461    1.864585   -0.656492
  H     -0.387741    1.740677    1.072275
  H      1.212611    0.960063   -2.224150
  H      0.844626   -2.954864   -3.022773
  H      2.303684   -2.825331   -2.023289
  H      1.094122   -3.343382    0.360055
  H     -0.394228   -2.399917    0.619882
  H     -0.382100   -3.745202   -0.550207

 Total Charge           Charge          ....    0
 Multiplicity           Mult            ....    1
 Number of Electrons    NEL             ....   68
 Basis Dimension        Dim             ....  333

ORBITAL ENERGIES
----------------

  NO   OCC          E(Eh)            E(eV)
   0   2.0000     -20.546328      -559.0940
   1   2.0000     -15.617221      -424.9662
   2   2.0000     -15.589336      -424.2074
   3   2.0000     -15.527166      -422.5157
   4   2.0000     -11.376525      -309.5710
   5   2.0000     -11.358932      -309.0923
   6   2.0000     -11.292681      -307.2895
   7   2.0000     -11.264289      -306.5169
   8   2.0000     -11.249866      -306.1244
   9   2.0000      -1.415178       -38.5090
  10   2.0000      -1.345082       -36.6016
  11   2.0000      -1.219739       -33.1908
  12   2.0000      -1.201518       -32.6950
  13   2.0000      -1.017499       -27.6875
  14   2.0000      -0.971103       -26.4251
  15   2.0000      -0.904144       -24.6030
  16   2.0000      -0.840257       -22.8646
  17   2.0000      -0.801734       -21.8163
  18   2.0000      -0.713991       -19.4287
  19   2.0000      -0.692795       -18.8519
  20   2.0000      -0.659980       -17.9590
  21   2.0000      -0.643364       -17.5068
  22   2.0000      -0.620054       -16.8725
  23   2.0000      -0.614661       -16.7258
  24   2.0000      -0.599287       -16.3074
  25   2.0000      -0.597040       -16.2463
  26   2.0000      -0.563585       -15.3359
  27   2.0000      -0.555323       -15.1111
  28   2.0000      -0.541204       -14.7269
  29   2.0000      -0.510395       -13.8885
  30   2.0000      -0.451249       -12.2791
  31   2.0000      -0.411861       -11.2073
  32   2.0000      -0.407197       -11.0804
  33   2.0000      -0.345661        -9.4059
  34   0.0000       0.122850         3.3429
  35   0.0000       0.136754         3.7213
  36   0.0000       0.142048         3.8653
  37   0.0000       0.170528         4.6403
  38   0.0000       0.192209         5.2303

MULLIKEN ATOMIC CHARGES
-----------------------
   0 C :   -0.335514
   1 N :   -0.302964
   2 C :    0.235581
   3 N :   -0.308601
   4 C :    0.198301
   5 O :   -0.310681
   6 C :   -0.122382
   7 N :   -0.110533
   8 C :   -0.311045
   9 H :    0.114748
  10 H :    0.135172
  11 H :    0.149435
  12 H :    0.257249
  13 H :    0.141276
  14 H :    0.131348
  15 H :    0.125028
  16 H :    0.178525
  17 H :    0.135057
Sum of atomic charges:   -0.0000000

LOEWDIN ATOMIC CHARGES
----------------------
   0 C :   -0.351292
   1 N :    0.033243
   2 C :   -0.389495
   3 N :    0.172925
   4 C :   -0.417073
   5 O :    0.113162
   6 C :   -0.214424
   7 N :    0.158153
   8 C :   -0.294414
   9 H :    0.104990
  10 H :    0.110618
  11 H :    0.118182
  12 H :    0.196117
  13 H :    0.145772
  14 H :    0.144835
  15 H :    0.114128
  16 H :    0.136124
  17 H :    0.118449

  Mayer bond orders larger than 0.1
B(  0-C ,  1-N ) :   0.9006 B(  0-C ,  9-H ) :   0.9291 B(  0-C , 10-H ) :   0.9285
B(  0-C , 11-H ) :   0.9490 B(  1-N ,  2-C ) :   1.8623 B(  2-C ,  3-N ) :   0.9994
B(  2-C ,  7-N ) :   1.1189 B(  3-N ,  4-C ) :   1.1072 B(  3-N , 12-H ) :   0.8588
B(  4-C ,  5-O ) :   2.0367 B(  4-C ,  6-C ) :   0.9179 B(  6-C ,  7-N ) :   0.9198
B(  6-C , 13-H ) :   0.9092 B(  6-C , 14-H ) :   0.8975 B(  7-N ,  8-C ) :   0.8848
B(  8-C , 15-H ) :   0.9317 B(  8-C , 16-H ) :   0.9222 B(  8-C , 17-H ) :   0.9330

MP2 TOTAL ENERGY:     -434.589773613 Eh
FINAL SINGLE POINT ENERGY      -434.589773612896

DIPOLE MOMENT
-------------
                                X             Y             Z
Electronic contribution:      2.82172       0.51315      -5.99743
Nuclear contribution   :     -2.98945      -0.72503       6.44288
                        -----------------------------------------
Total Dipole Moment    :     -0.16773      -0.21188       0.44546
                        -----------------------------------------
Magnitude (a.u.)       :      0.52102
Magnitude (Debye)      :      1.32432

                             ****ORCA TERMINATED NORMALLY****
TOTAL RUN TIME: 0 days 0 hours 15 minutes 59 seconds 532 msec
