                         Program Version 3.0.3 - RELEASE   -
|  1> ! RI-MP2 RIJK def2-TZVP def2-TZVP/C def2-TZVP/JK TIGHTSCF
|  2> % maxcore 2000
|  3> % mp2 density relaxed end
|  4> *xyz 0 1
|  5>  C       -0.0512844805     1.5402872513     0.1638213296
|  6>  C       -0.0793927042     0.0234362166     0.0835926903
|  7>  O        0.6922404645    -0.4989389287     1.1463031459
|  8>  C        0.7415552973    -1.9096739775     1.1639009658
|  9>  C        1.5561095271    -2.3215210681     2.3762209692
| 10>  C        0.8284036469    -2.1632285388     3.7257807498
| 11>  O        0.7053935265    -3.5938209483     3.8769589876
| 12>  C        1.5817071487    -3.8300792570     2.7489983970
| 13>  C        1.0486882576    -4.8915719930     1.8061463173
| 14>  H        0.9749483575     1.9097824808     0.0832017679
| 15>  H       -0.6426569153     1.9763192693    -0.6468166551
| 16>  H       -0.4638420745     1.8816536570     1.1174892355
| 17>  H       -1.1159952830    -0.3491986997     0.1478002562
| 18>  H        0.3246510611    -0.3207241326    -0.8838582978
| 19>  H       -0.2786030644    -2.3254900370     1.2194763547
| 20>  H        1.1984488415    -2.2926888780     0.2349161030
| 21>  H        2.5382386152    -1.8470871468     2.3189227734
| 22>  H        1.4318435069    -1.7167809609     4.5267647301
| 23>  H       -0.1466184899    -1.6640838249     3.6928574416
| 24>  H        2.5788410283    -4.1320227347     3.1044591002
| 25>  H        0.0597066153    -4.6330767518     1.4189869885
| 26>  H        1.7321455061    -5.0392691378     0.9629764588
| 27>  H        0.9620595914    -5.8430929792     2.3403805307
| 28> *
| 29>
| 30>                          ****END OF INPUT****

CARTESIAN COORDINATES (ANGSTROEM)
---------------------------------
  C     -0.051284    1.540287    0.163821
  C     -0.079393    0.023436    0.083593
  O      0.692240   -0.498939    1.146303
  C      0.741555   -1.909674    1.163901
  C      1.556110   -2.321521    2.376221
  C      0.828404   -2.163229    3.725781
  O      0.705394   -3.593821    3.876959
  C      1.581707   -3.830079    2.748998
  C      1.048688   -4.891572    1.806146
  H      0.974948    1.909782    0.083202
  H     -0.642657    1.976319   -0.646817
  H     -0.463842    1.881654    1.117489
  H     -1.115995   -0.349199    0.147800
  H      0.324651   -0.320724   -0.883858
  H     -0.278603   -2.325490    1.219476
  H      1.198449   -2.292689    0.234916
  H      2.538239   -1.847087    2.318923
  H      1.431844   -1.716781    4.526765
  H     -0.146618   -1.664084    3.692857
  H      2.578841   -4.132023    3.104459
  H      0.059707   -4.633077    1.418987
  H      1.732146   -5.039269    0.962976
  H      0.962060   -5.843093    2.340381

 Total Charge           Charge          ....    0
 Multiplicity           Mult            ....    1
 Number of Electrons    NEL             ....   72
 Basis Dimension        Dim             ....  363

ORBITAL ENERGIES
----------------

  NO   OCC          E(Eh)            E(eV)
   0   2.0000     -20.556715      -559.3767
   1   2.0000     -20.540257      -558.9288
   2   2.0000     -11.281888      -306.9958
   3   2.0000     -11.278223      -306.8961
   4   2.0000     -11.277460      -306.8753
   5   2.0000     -11.270208      -306.6780
   6   2.0000     -11.229940      -305.5822
   7   2.0000     -11.217974      -305.2566
   8   2.0000     -11.216576      -305.2186
   9   2.0000      -1.380773       -37.5728
  10   2.0000      -1.370390       -37.2902
  11   2.0000      -1.061365       -28.8812
  12   2.0000      -1.017225       -27.6801
  13   2.0000      -0.993457       -27.0333
  14   2.0000      -0.897486       -24.4218
  15   2.0000      -0.865771       -23.5588
  16   2.0000      -0.834631       -22.7115
  17   2.0000      -0.736280       -20.0352
  18   2.0000      -0.700378       -19.0583
  19   2.0000      -0.674015       -18.3409
  20   2.0000      -0.653536       -17.7836
  21   2.0000      -0.647366       -17.6157
  22   2.0000      -0.610439       -16.6109
  23   2.0000      -0.591166       -16.0864
  24   2.0000      -0.579565       -15.7708
  25   2.0000      -0.569305       -15.4916
  26   2.0000      -0.537776       -14.6336
  27   2.0000      -0.530748       -14.4424
  28   2.0000      -0.524558       -14.2739
  29   2.0000      -0.509845       -13.8736
  30   2.0000      -0.497851       -13.5472
  31   2.0000      -0.478474       -13.0199
  32   2.0000      -0.448894       -12.2150
  33   2.0000      -0.446724       -12.1560
  34   2.0000      -0.422714       -11.5026
  35   2.0000      -0.405497       -11.0341
  36   0.0000       0.132788         3.6133
  37   0.0000       0.145648         3.9633
  38   0.0000       0.159107         4.3295
  39   0.0000       0.174682         4.7533
  40   0.0000       0.182645         4.9700

MULLIKEN ATOMIC CHARGES
-----------------------
   0 C :   -0.361355
   1 C :   -0.049223
   2 O :   -0.292806
   3 C :   -0.163281
   4 C :    0.017631
   5 C :   -0.044785
   6 O :   -0.328961
   7 C :    0.049742
   8 C :   -0.380860
   9 H :    0.128945
  10 H :    0.122183
  11 H :    0.129698
  12 H :    0.090943
  13 H :    0.090766
  14 H :    0.111620
  15 H :    0.098626
  16 H :    0.115877
  17 H :    0.092210
  18 H :    0.103074
  19 H :    0.076611
  20 H :    0.121754
  21 H :    0.127481
  22 H :    0.144110
Sum of atomic charges:    0.0000000

LOEWDIN ATOMIC CHARGES
----------------------
   0 C :   -0.317001
   1 C :   -0.354976
   2 O :    0.161906
   3 C :   -0.313036
   4 C :   -0.222726
   5 C :   -0.250646
   6 O :    0.127824
   7 C :   -0.286769
   8 C :   -0.297364
   9 H :    0.123880
  10 H :    0.124408
  11 H :    0.123994
  12 H :    0.116016
  13 H :    0.115951
  14 H :    0.124504
  15 H :    0.122032
  16 H :    0.147700
  17 H :    0.117020
  18 H :    0.120100
  19 H :    0.135041
  20 H :    0.123567
  21 H :    0.127592
  22 H :    0.130982

  Mayer bond orders larger than 0.1
B(  0-C ,  1-C ) :   0.9527 B(  0-C ,  9-H ) :   0.9359 B(  0-C , 10-H ) :   0.9328
B(  0-C , 11-H ) :   0.9365 B(  1-C ,  2-O ) :   0.9209 B(  1-C , 12-H ) :   0.9242
B(  1-C , 13-H ) :   0.9252 B(  2-O ,  3-C ) :   0.9533 B(  3-C ,  4-C ) :   0.9187
B(  3-C , 14-H ) :   0.9307 B(  3-C , 15-H ) :   0.9192 B(  4-C ,  5-C ) :   0.9482
B(  4-C ,  7-C ) :   0.9187 B(  4-C , 16-H ) :   0.9190 B(  5-C ,  6-O ) :   0.9444
B(  5-C , 17-H ) :   0.9170 B(  5-C , 18-H ) :   0.9084 B(  6-O ,  7-C ) :   0.9668
B(  7-C ,  8-C ) :   0.9070 B(  7-C , 19-H ) :   0.9244 B(  8-C , 20-H ) :   0.9334
B(  8-C , 21-H ) :   0.9314 B(  8-C , 22-H ) :   0.9322

MP2 TOTAL ENERGY:     -424.693543961 Eh
FINAL SINGLE POINT ENERGY      -424.693543961298

DIPOLE MOMENT
-------------
                                X             Y             Z
Electronic contribution:      1.54092      -2.43053       5.45488
Nuclear contribution   :     -1.41860       2.61907      -6.28749
                        -----------------------------------------
Total Dipole Moment    :      0.12233       0.18854      -0.83261
                        -----------------------------------------
Magnitude (a.u.)       :      0.86240
Magnitude (Debye)      :      2.19206

                             ****ORCA TERMINATED NORMALLY****
TOTAL RUN TIME: 0 days 0 hours 17 minutes 8 seconds 809 msec
