                         Program Version 3.0.3 - RELEASE   -
|  1> ! RI-MP2 RIJK def2-TZVP def2-TZVP/C def2-TZVP/JK TIGHTSCF
|  2> % maxcore 2000
|  3> % mp2 density relaxed end
|  4> *xyz 0 1
|  5>  O        0.1967854274     1.2679992858    -0.2670290098
|  6>  C        0.1642911613    -0.1142921865    -0.0357466154
|  7>  C        0.1316463194    -0.5639325183     1.4125738651
|  8>  N        0.8850061460    -0.3683520406     2.3932971995
|  9>  O       -1.0757132290    -1.2169569606     1.2892346433
| 10>  C       -1.2389143391    -0.7550266451    -0.0885192220
| 11>  C       -2.4966999922     0.0402865834    -0.4446933678
| 12>  O       -2.8147369200    -0.8928657461    -1.5031196437
| 13>  C       -1.7240443385    -1.7607381146    -1.1343296741
| 14>  H        0.8367601782     1.6488366715     0.3455523606
| 15>  H        0.9052528685    -0.6531535697    -0.6427889306
| 16>  H        0.5159921109    -0.7778337235     3.2529575473
| 17>  H       -3.2510116943     0.0466833576     0.3513085694
| 18>  H       -2.3251993444     1.0556658015    -0.8137447632
| 19>  H       -1.0452127366    -1.9606371686    -1.9719138604
| 20>  H       -2.0663502576    -2.7090176561    -0.7013501883
| 21> *
| 22>
| 23>                          ****END OF INPUT****

CARTESIAN COORDINATES (ANGSTROEM)
---------------------------------
  O      0.196785    1.267999   -0.267029
  C      0.164291   -0.114292   -0.035747
  C      0.131646   -0.563933    1.412574
  N      0.885006   -0.368352    2.393297
  O     -1.075713   -1.216957    1.289235
  C     -1.238914   -0.755027   -0.088519
  C     -2.496700    0.040287   -0.444693
  O     -2.814737   -0.892866   -1.503120
  C     -1.724044   -1.760738   -1.134330
  H      0.836760    1.648837    0.345552
  H      0.905253   -0.653154   -0.642789
  H      0.515992   -0.777834    3.252958
  H     -3.251012    0.046683    0.351309
  H     -2.325199    1.055666   -0.813745
  H     -1.045213   -1.960637   -1.971914
  H     -2.066350   -2.709018   -0.701350

 Total Charge           Charge          ....    0
 Multiplicity           Mult            ....    1
 Number of Electrons    NEL             ....   68
 Basis Dimension        Dim             ....  321

ORBITAL ENERGIES
----------------

  NO   OCC          E(Eh)            E(eV)
   0   2.0000     -20.611442      -560.8659
   1   2.0000     -20.590150      -560.2865
   2   2.0000     -20.564635      -559.5922
   3   2.0000     -15.558554      -423.3698
   4   2.0000     -11.355456      -308.9977
   5   2.0000     -11.321557      -308.0752
   6   2.0000     -11.320955      -308.0589
   7   2.0000     -11.297394      -307.4177
   8   2.0000     -11.291965      -307.2700
   9   2.0000      -1.460370       -39.7387
  10   2.0000      -1.394918       -37.9576
  11   2.0000      -1.392390       -37.8889
  12   2.0000      -1.216852       -33.1122
  13   2.0000      -1.048836       -28.5403
  14   2.0000      -0.975536       -26.5457
  15   2.0000      -0.956993       -26.0411
  16   2.0000      -0.801976       -21.8229
  17   2.0000      -0.772962       -21.0334
  18   2.0000      -0.738825       -20.1045
  19   2.0000      -0.719426       -19.5766
  20   2.0000      -0.713022       -19.4023
  21   2.0000      -0.675290       -18.3756
  22   2.0000      -0.656038       -17.8517
  23   2.0000      -0.621952       -16.9242
  24   2.0000      -0.592297       -16.1172
  25   2.0000      -0.576026       -15.6745
  26   2.0000      -0.569198       -15.4887
  27   2.0000      -0.556288       -15.1374
  28   2.0000      -0.495205       -13.4752
  29   2.0000      -0.484305       -13.1786
  30   2.0000      -0.478156       -13.0113
  31   2.0000      -0.450350       -12.2546
  32   2.0000      -0.432205       -11.7609
  33   2.0000      -0.418882       -11.3984
  34   0.0000       0.127688         3.4746
  35   0.0000       0.151625         4.1259
  36   0.0000       0.154562         4.2059
  37   0.0000       0.159130         4.3301
  38   0.0000       0.179204         4.8764

MULLIKEN ATOMIC CHARGES
-----------------------
   0 O :   -0.473518
   1 C :    0.082216
   2 C :    0.079289
   3 N :   -0.360560
   4 O :   -0.255424
   5 C :    0.165869
   6 C :   -0.042197
   7 O :   -0.323372
   8 C :   -0.031793
   9 H :    0.343186
  10 H :    0.116375
  11 H :    0.237233
  12 H :    0.107508
  13 H :    0.134057
  14 H :    0.108780
  15 H :    0.112352
Sum of atomic charges:   -0.0000000

LOEWDIN ATOMIC CHARGES
----------------------
   0 O :    0.004906
   1 C :   -0.260914
   2 C :   -0.391117
   3 N :   -0.046338
   4 O :    0.257450
   5 C :   -0.253010
   6 C :   -0.222045
   7 O :    0.117542
   8 C :   -0.232087
   9 H :    0.192643
  10 H :    0.145425
  11 H :    0.176721
  12 H :    0.127817
  13 H :    0.130229
  14 H :    0.124415
  15 H :    0.128365

  Mayer bond orders larger than 0.1
B(  0-O ,  1-C ) :   1.0383 B(  0-O ,  9-H ) :   0.8252 B(  1-C ,  2-C ) :   0.9077
B(  1-C ,  5-C ) :   0.8675 B(  1-C , 10-H ) :   0.9295 B(  2-C ,  3-N ) :   2.1039
B(  2-C ,  4-O ) :   1.0719 B(  3-N , 11-H ) :   0.8469 B(  4-O ,  5-C ) :   0.9286
B(  5-C ,  6-C ) :   0.9714 B(  5-C ,  8-C ) :   0.9645 B(  6-C ,  7-O ) :   0.9569
B(  6-C , 12-H ) :   0.8977 B(  6-C , 13-H ) :   0.9020 B(  7-O ,  8-C ) :   0.9721
B(  8-C , 14-H ) :   0.9093 B(  8-C , 15-H ) :   0.8979

MP2 TOTAL ENERGY:     -474.233675433 Eh
FINAL SINGLE POINT ENERGY      -474.233675433005

DIPOLE MOMENT
-------------
                                X             Y             Z
Electronic contribution:      0.47652      -0.08117       1.48321
Nuclear contribution   :     -0.17797      -0.08786      -1.29825
                        -----------------------------------------
Total Dipole Moment    :      0.29855      -0.16903       0.18496
                        -----------------------------------------
Magnitude (a.u.)       :      0.38976
Magnitude (Debye)      :      0.99068

                             ****ORCA TERMINATED NORMALLY****
TOTAL RUN TIME: 0 days 0 hours 14 minutes 13 seconds 703 msec
