                         Program Version 3.0.3 - RELEASE   -
|  1> ! RI-MP2 RIJK def2-TZVP def2-TZVP/C def2-TZVP/JK TIGHTSCF
|  2> % maxcore 2000
|  3> % mp2 density relaxed end
|  4> *xyz 0 1
|  5>  C       -0.1462206828     1.5674288751     0.0117642070
|  6>  C       -0.0042946649     0.0548816724    -0.0043197062
|  7>  O       -1.2865498954    -0.4529289703    -0.2287786256
|  8>  C        1.1569876965    -0.5777853098    -0.8329513622
|  9>  C        2.1280078585    -0.2210496603     0.3060801429
| 10>  C        0.8749642728    -0.5782503716     1.1760629148
| 11>  C        0.7454569520    -2.0370610611     0.7865901382
| 12>  O        0.5258857501    -3.0358240387     1.3977413557
| 13>  O        0.9209410733    -2.0029312072    -0.5930227919
| 14>  H        0.7755679448     2.0904197547     0.2666611257
| 15>  H       -0.4874887963     1.9126405213    -0.9685937776
| 16>  H       -0.9118119870     1.8391710796     0.7437457699
| 17>  H       -1.2086623783    -1.3762300841    -0.5004683853
| 18>  H        1.3325460467    -0.4141611230    -1.8944914368
| 19>  H        3.0015724811    -0.8668044796     0.4061505403
| 20>  H        2.4180005227     0.8264451725     0.3506465262
| 21>  H        0.7596269360    -0.3329361398     2.2280181549
| 22> *
| 23>
| 24>                          ****END OF INPUT****

CARTESIAN COORDINATES (ANGSTROEM)
---------------------------------
  C     -0.146221    1.567429    0.011764
  C     -0.004295    0.054882   -0.004320
  O     -1.286550   -0.452929   -0.228779
  C      1.156988   -0.577785   -0.832951
  C      2.128008   -0.221050    0.306080
  C      0.874964   -0.578250    1.176063
  C      0.745457   -2.037061    0.786590
  O      0.525886   -3.035824    1.397741
  O      0.920941   -2.002931   -0.593023
  H      0.775568    2.090420    0.266661
  H     -0.487489    1.912641   -0.968594
  H     -0.911812    1.839171    0.743746
  H     -1.208662   -1.376230   -0.500468
  H      1.332546   -0.414161   -1.894491
  H      3.001572   -0.866804    0.406151
  H      2.418001    0.826445    0.350647
  H      0.759627   -0.332936    2.228018

 Total Charge           Charge          ....    0
 Multiplicity           Mult            ....    1
 Number of Electrons    NEL             ....   68
 Basis Dimension        Dim             ....  327

ORBITAL ENERGIES
----------------

  NO   OCC          E(Eh)            E(eV)
   0   2.0000     -20.606697      -560.7367
   1   2.0000     -20.576682      -559.9200
   2   2.0000     -20.555689      -559.3487
   3   2.0000     -11.386350      -309.8383
   4   2.0000     -11.326243      -308.2027
   5   2.0000     -11.319447      -308.0178
   6   2.0000     -11.272310      -306.7351
   7   2.0000     -11.264905      -306.5336
   8   2.0000     -11.238965      -305.8278
   9   2.0000      -1.470437       -40.0126
  10   2.0000      -1.396550       -38.0021
  11   2.0000      -1.373739       -37.3813
  12   2.0000      -1.158931       -31.5361
  13   2.0000      -1.011080       -27.5129
  14   2.0000      -0.967851       -26.3366
  15   2.0000      -0.896322       -24.3902
  16   2.0000      -0.799246       -21.7486
  17   2.0000      -0.775460       -21.1013
  18   2.0000      -0.748969       -20.3805
  19   2.0000      -0.710430       -19.3318
  20   2.0000      -0.671430       -18.2705
  21   2.0000      -0.638645       -17.3784
  22   2.0000      -0.630243       -17.1498
  23   2.0000      -0.600271       -16.3342
  24   2.0000      -0.586579       -15.9616
  25   2.0000      -0.574569       -15.6348
  26   2.0000      -0.562639       -15.3102
  27   2.0000      -0.553797       -15.0696
  28   2.0000      -0.540584       -14.7100
  29   2.0000      -0.523555       -14.2467
  30   2.0000      -0.490789       -13.3550
  31   2.0000      -0.471688       -12.8353
  32   2.0000      -0.443283       -12.0623
  33   2.0000      -0.418265       -11.3816
  34   0.0000       0.128440         3.4950
  35   0.0000       0.153923         4.1885
  36   0.0000       0.161545         4.3959
  37   0.0000       0.170303         4.6342
  38   0.0000       0.172138         4.6841

MULLIKEN ATOMIC CHARGES
-----------------------
   0 C :   -0.417176
   1 C :    0.122778
   2 O :   -0.440094
   3 C :    0.085198
   4 C :   -0.303818
   5 C :   -0.031248
   6 C :    0.149701
   7 O :   -0.249054
   8 O :   -0.263198
   9 H :    0.129425
  10 H :    0.144252
  11 H :    0.152169
  12 H :    0.335140
  13 H :    0.146078
  14 H :    0.142764
  15 H :    0.140501
  16 H :    0.156582
Sum of atomic charges:   -0.0000000

LOEWDIN ATOMIC CHARGES
----------------------
   0 C :   -0.258821
   1 C :   -0.344498
   2 O :    0.042044
   3 C :   -0.206671
   4 C :   -0.185301
   5 C :   -0.141929
   6 C :   -0.444451
   7 O :    0.160943
   8 O :    0.231238
   9 H :    0.126813
  10 H :    0.134654
  11 H :    0.138030
  12 H :    0.185937
  13 H :    0.135747
  14 H :    0.140180
  15 H :    0.139105
  16 H :    0.146981

  Mayer bond orders larger than 0.1
B(  0-C ,  1-C ) :   0.9180 B(  0-C ,  9-H ) :   0.9381 B(  0-C , 10-H ) :   0.9321
B(  0-C , 11-H ) :   0.9331 B(  1-C ,  2-O ) :   1.0468 B(  1-C ,  3-C ) :   0.9156
B(  1-C ,  5-C ) :   0.8018 B(  2-O , 12-H ) :   0.8148 B(  3-C ,  4-C ) :   0.9351
B(  3-C ,  8-O ) :   0.8103 B(  3-C , 13-H ) :   0.9071 B(  4-C ,  5-C ) :   0.8866
B(  4-C , 14-H ) :   0.9038 B(  4-C , 15-H ) :   0.9281 B(  5-C ,  6-C ) :   0.8702
B(  5-C , 16-H ) :   0.8871 B(  6-C ,  7-O ) :   2.0765 B(  6-C ,  8-O ) :   1.0474

MP2 TOTAL ENERGY:     -458.253697121 Eh
FINAL SINGLE POINT ENERGY      -458.253697120999

DIPOLE MOMENT
-------------
                                X             Y             Z
Electronic contribution:     -0.77825      -8.13946       0.63413
Nuclear contribution   :      1.47695       9.59673      -1.00077
                        -----------------------------------------
Total Dipole Moment    :      0.69870       1.45727      -0.36664
                        -----------------------------------------
Magnitude (a.u.)       :      1.65718
Magnitude (Debye)      :      4.21220

                             ****ORCA TERMINATED NORMALLY****
TOTAL RUN TIME: 0 days 0 hours 18 minutes 36 seconds 319 msec
