                         Program Version 3.0.3 - RELEASE   -
|  1> ! RI-MP2 RIJK def2-TZVP def2-TZVP/C def2-TZVP/JK TIGHTSCF
|  2> % maxcore 2000
|  3> % mp2 density relaxed end
|  4> *xyz 0 1
|  5>  N        0.0130168127     1.4310665949     0.1843907528
|  6>  C        0.0178806673     0.0329669029     0.0459693170
|  7>  C       -1.0631637208    -0.8109094511    -0.0086944474
|  8>  N       -0.6269341468    -2.1558800082    -0.1229282435
|  9>  C        0.7336324830    -2.1126963375    -0.0618058660
| 10>  C        1.1923598565    -0.8011194982     0.0107818173
| 11>  C        2.6044097711    -0.9405270210     0.0122921789
| 12>  N        2.9715350950    -2.2155560808    -0.0482168929
| 13>  N        1.8051094237    -2.9369319629    -0.1026762180
| 14>  H        0.7270008822     1.8750465625    -0.3800661820
| 15>  H       -0.8842940240     1.8403376488    -0.0435315839
| 16>  H       -2.1180911896    -0.5880684185    -0.0219615819
| 17>  H       -1.1994294044    -2.9435970787     0.1258905503
| 18>  H        3.3710238598    -0.1810271868     0.0604894005
| 19>  H        1.8557984942    -3.9389803454    -0.1261790613
| 20> *
| 21>
| 22>                          ****END OF INPUT****

CARTESIAN COORDINATES (ANGSTROEM)
---------------------------------
  N      0.013017    1.431067    0.184391
  C      0.017881    0.032967    0.045969
  C     -1.063164   -0.810909   -0.008694
  N     -0.626934   -2.155880   -0.122928
  C      0.733632   -2.112696   -0.061806
  C      1.192360   -0.801119    0.010782
  C      2.604410   -0.940527    0.012292
  N      2.971535   -2.215556   -0.048217
  N      1.805109   -2.936932   -0.102676
  H      0.727001    1.875047   -0.380066
  H     -0.884294    1.840338   -0.043532
  H     -2.118091   -0.588068   -0.021962
  H     -1.199429   -2.943597    0.125891
  H      3.371024   -0.181027    0.060489
  H      1.855798   -3.938980   -0.126179

 Total Charge           Charge          ....    0
 Multiplicity           Mult            ....    1
 Number of Electrons    NEL             ....   64
 Basis Dimension        Dim             ....  315

ORBITAL ENERGIES
----------------

  NO   OCC          E(Eh)            E(eV)
   0   2.0000     -15.625347      -425.1873
   1   2.0000     -15.602379      -424.5623
   2   2.0000     -15.576917      -423.8695
   3   2.0000     -15.560155      -423.4133
   4   2.0000     -11.301321      -307.5246
   5   2.0000     -11.268839      -306.6407
   6   2.0000     -11.256440      -306.3033
   7   2.0000     -11.243376      -305.9478
   8   2.0000     -11.205569      -304.9190
   9   2.0000      -1.363819       -37.1114
  10   2.0000      -1.278425       -34.7877
  11   2.0000      -1.201317       -32.6895
  12   2.0000      -1.093599       -29.7583
  13   2.0000      -1.039410       -28.2838
  14   2.0000      -0.975218       -26.5370
  15   2.0000      -0.826159       -22.4809
  16   2.0000      -0.815767       -22.1982
  17   2.0000      -0.772443       -21.0192
  18   2.0000      -0.757287       -20.6068
  19   2.0000      -0.677397       -18.4329
  20   2.0000      -0.635784       -17.3006
  21   2.0000      -0.624675       -16.9983
  22   2.0000      -0.613495       -16.6941
  23   2.0000      -0.602868       -16.4049
  24   2.0000      -0.571720       -15.5573
  25   2.0000      -0.538429       -14.6514
  26   2.0000      -0.522821       -14.2267
  27   2.0000      -0.479253       -13.0411
  28   2.0000      -0.448624       -12.2077
  29   2.0000      -0.381324       -10.3763
  30   2.0000      -0.312563        -8.5053
  31   2.0000      -0.277142        -7.5414
  32   0.0000       0.123696         3.3659
  33   0.0000       0.133792         3.6407
  34   0.0000       0.152012         4.1364
  35   0.0000       0.161435         4.3929
  36   0.0000       0.175868         4.7856

MULLIKEN ATOMIC CHARGES
-----------------------
   0 N :   -0.528124
   1 C :    0.069750
   2 C :   -0.126446
   3 N :   -0.319336
   4 C :    0.139899
   5 C :    0.027043
   6 C :   -0.152421
   7 N :   -0.189325
   8 N :   -0.164459
   9 H :    0.249289
  10 H :    0.235834
  11 H :    0.134860
  12 H :    0.245945
  13 H :    0.127066
  14 H :    0.250424
Sum of atomic charges:   -0.0000000

LOEWDIN ATOMIC CHARGES
----------------------
   0 N :   -0.094509
   1 C :   -0.258475
   2 C :   -0.218744
   3 N :    0.151429
   4 C :   -0.283641
   5 C :   -0.149421
   6 C :   -0.257657
   7 N :    0.021737
   8 N :    0.123763
   9 H :    0.167774
  10 H :    0.165054
  11 H :    0.129750
  12 H :    0.186743
  13 H :    0.133237
  14 H :    0.182962

  Mayer bond orders larger than 0.1
B(  0-N ,  1-C ) :   0.9847 B(  0-N ,  9-H ) :   0.8767 B(  0-N , 10-H ) :   0.8865
B(  1-C ,  2-C ) :   1.5917 B(  1-C ,  5-C ) :   1.1616 B(  2-C ,  3-N ) :   1.0103
B(  2-C , 11-H ) :   0.9163 B(  3-N ,  4-C ) :   1.1393 B(  3-N , 12-H ) :   0.8656
B(  4-C ,  5-C ) :   1.2742 B(  4-C ,  8-N ) :   1.1840 B(  5-C ,  6-C ) :   1.1760
B(  6-C ,  7-N ) :   1.5956 B(  6-C , 13-H ) :   0.9452 B(  7-N ,  8-N ) :   1.0074
B(  8-N , 14-H ) :   0.8696

MP2 TOTAL ENERGY:     -412.294589262 Eh
FINAL SINGLE POINT ENERGY      -412.294589261699

DIPOLE MOMENT
-------------
                                X             Y             Z
Electronic contribution:      1.73137      -3.27666      -0.02901
Nuclear contribution   :     -3.04990       2.84188      -0.28528
                        -----------------------------------------
Total Dipole Moment    :     -1.31853      -0.43478      -0.31429
                        -----------------------------------------
Magnitude (a.u.)       :      1.42349
Magnitude (Debye)      :      3.61822

                             ****ORCA TERMINATED NORMALLY****
TOTAL RUN TIME: 0 days 0 hours 16 minutes 26 seconds 556 msec
