                         Program Version 3.0.3 - RELEASE   -
|  1> ! RI-MP2 RIJK def2-TZVP def2-TZVP/C def2-TZVP/JK TIGHTSCF
|  2> % maxcore 2000
|  3> % mp2 density relaxed end
|  4> *xyz 0 1
|  5>  C        0.0696382090     1.3766267130    -0.1531322201
|  6>  N        0.0490145823    -0.0548458675     0.1031390611
|  7>  C        0.7438697795    -0.3896927959     1.3365670880
|  8>  C       -1.2931742534    -0.5764552577     0.0938347858
|  9>  C       -2.0030531764    -0.7622894908    -1.2752723556
| 10>  O       -1.1090233757    -1.8901005929    -1.5918892889
| 11>  C       -1.4906410141    -2.0957092393    -0.1804098867
| 12>  C       -2.9485395832    -1.8203139178    -0.6116427824
| 13>  O       -3.8708574414    -1.4819781221     0.3834746888
| 14>  H        1.1058126923     1.7266015849    -0.1941449197
| 15>  H       -0.3963237995     1.5917156400    -1.1191949822
| 16>  H       -0.4580131179     1.9676149320     0.6213653867
| 17>  H        0.2763465602     0.0553628753     2.2369457314
| 18>  H        0.7687361273    -1.4749873957     1.4703598507
| 19>  H        1.7772239802    -0.0330056531     1.2833805534
| 20>  H       -1.9371376588    -0.1696035487     0.8905916851
| 21>  H       -2.2012770261    -0.0379643943    -2.0663787461
| 22>  H       -1.0750309510    -2.9606725214     0.3368058903
| 23>  H       -3.3207923317    -2.5547714013    -1.3324539938
| 24>  H       -4.7126212714    -1.2826790965    -0.0375893456
| 25> *
| 26>
| 27>                          ****END OF INPUT****

CARTESIAN COORDINATES (ANGSTROEM)
---------------------------------
  C      0.069638    1.376627   -0.153132
  N      0.049015   -0.054846    0.103139
  C      0.743870   -0.389693    1.336567
  C     -1.293174   -0.576455    0.093835
  C     -2.003053   -0.762289   -1.275272
  O     -1.109023   -1.890101   -1.591889
  C     -1.490641   -2.095709   -0.180410
  C     -2.948540   -1.820314   -0.611643
  O     -3.870857   -1.481978    0.383475
  H      1.105813    1.726602   -0.194145
  H     -0.396324    1.591716   -1.119195
  H     -0.458013    1.967615    0.621365
  H      0.276347    0.055363    2.236946
  H      0.768736   -1.474987    1.470360
  H      1.777224   -0.033006    1.283381
  H     -1.937138   -0.169604    0.890592
  H     -2.201277   -0.037964   -2.066379
  H     -1.075031   -2.960673    0.336806
  H     -3.320792   -2.554771   -1.332454
  H     -4.712621   -1.282679   -0.037589

 Total Charge           Charge          ....    0
 Multiplicity           Mult            ....    1
 Number of Electrons    NEL             ....   70
 Basis Dimension        Dim             ....  345

ORBITAL ENERGIES
----------------

  NO   OCC          E(Eh)            E(eV)
   0   2.0000     -20.574272      -559.8544
   1   2.0000     -20.548523      -559.1537
   2   2.0000     -15.545366      -423.0109
   3   2.0000     -11.297671      -307.4252
   4   2.0000     -11.296348      -307.3893
   5   2.0000     -11.296268      -307.3871
   6   2.0000     -11.263339      -306.4910
   7   2.0000     -11.243330      -305.9466
   8   2.0000     -11.242625      -305.9274
   9   2.0000      -1.409199       -38.3463
  10   2.0000      -1.372999       -37.3612
  11   2.0000      -1.226304       -33.3694
  12   2.0000      -1.056741       -28.7554
  13   2.0000      -0.951825       -25.9005
  14   2.0000      -0.928491       -25.2655
  15   2.0000      -0.887376       -24.1467
  16   2.0000      -0.830515       -22.5995
  17   2.0000      -0.744545       -20.2601
  18   2.0000      -0.708236       -19.2721
  19   2.0000      -0.704622       -19.1737
  20   2.0000      -0.666142       -18.1267
  21   2.0000      -0.621798       -16.9200
  22   2.0000      -0.612285       -16.6611
  23   2.0000      -0.600237       -16.3333
  24   2.0000      -0.593304       -16.1446
  25   2.0000      -0.545083       -14.8325
  26   2.0000      -0.537084       -14.6148
  27   2.0000      -0.520302       -14.1581
  28   2.0000      -0.512638       -13.9496
  29   2.0000      -0.498223       -13.5573
  30   2.0000      -0.490997       -13.3607
  31   2.0000      -0.449141       -12.2217
  32   2.0000      -0.438158       -11.9229
  33   2.0000      -0.407788       -11.0965
  34   2.0000      -0.355706        -9.6793
  35   0.0000       0.130265         3.5447
  36   0.0000       0.142429         3.8757
  37   0.0000       0.164461         4.4752
  38   0.0000       0.170445         4.6381
  39   0.0000       0.194380         5.2893

MULLIKEN ATOMIC CHARGES
-----------------------
   0 C :   -0.314665
   1 N :   -0.154393
   2 C :   -0.315857
   3 C :   -0.005929
   4 C :   -0.047641
   5 O :   -0.311141
   6 C :   -0.029892
   7 C :    0.057206
   8 O :   -0.460304
   9 H :    0.135290
  10 H :    0.130432
  11 H :    0.103805
  12 H :    0.105048
  13 H :    0.131661
  14 H :    0.134831
  15 H :    0.114012
  16 H :    0.145786
  17 H :    0.144975
  18 H :    0.109205
  19 H :    0.327570
Sum of atomic charges:   -0.0000000

LOEWDIN ATOMIC CHARGES
----------------------
   0 C :   -0.323973
   1 N :    0.059870
   2 C :   -0.323382
   3 C :   -0.235133
   4 C :   -0.206407
   5 O :    0.150184
   6 C :   -0.193970
   7 C :   -0.303569
   8 O :   -0.006316
   9 H :    0.119283
  10 H :    0.118059
  11 H :    0.101664
  12 H :    0.102085
  13 H :    0.118553
  14 H :    0.119083
  15 H :    0.139998
  16 H :    0.122444
  17 H :    0.125657
  18 H :    0.134741
  19 H :    0.181128

  Mayer bond orders larger than 0.1
B(  0-C ,  1-N ) :   0.9147 B(  0-C ,  9-H ) :   0.9389 B(  0-C , 10-H ) :   0.9396
B(  0-C , 11-H ) :   0.9277 B(  1-N ,  2-C ) :   0.9146 B(  1-N ,  3-C ) :   0.9149
B(  2-C , 12-H ) :   0.9282 B(  2-C , 13-H ) :   0.9393 B(  2-C , 14-H ) :   0.9386
B(  3-C ,  4-C ) :   0.9299 B(  3-C ,  6-C ) :   0.9358 B(  3-C , 15-H ) :   0.8987
B(  4-C ,  5-O ) :   0.9276 B(  4-C ,  7-C ) :   0.8894 B(  4-C , 16-H ) :   0.8742
B(  5-O ,  6-C ) :   0.9285 B(  6-C ,  7-C ) :   0.9347 B(  6-C , 17-H ) :   0.8712
B(  7-C ,  8-O ) :   1.0896 B(  7-C , 18-H ) :   0.9423 B(  8-O , 19-H ) :   0.8383

MP2 TOTAL ENERGY:     -439.468379719 Eh
FINAL SINGLE POINT ENERGY      -439.468379718613

DIPOLE MOMENT
-------------
                                X             Y             Z
Electronic contribution:     -4.88963      -5.27768      -3.76649
Nuclear contribution   :      4.20265       5.72657       3.96929
                        -----------------------------------------
Total Dipole Moment    :     -0.68698       0.44889       0.20280
                        -----------------------------------------
Magnitude (a.u.)       :      0.84532
Magnitude (Debye)      :      2.14864

                             ****ORCA TERMINATED NORMALLY****
TOTAL RUN TIME: 0 days 0 hours 19 minutes 42 seconds 699 msec
