                         Program Version 3.0.3 - RELEASE   -
|  1> ! RI-MP2 RIJK def2-TZVP def2-TZVP/C def2-TZVP/JK TIGHTSCF
|  2> % maxcore 2000
|  3> % mp2 density relaxed end
|  4> *xyz 0 1
|  5>  C       -0.0470342497     1.6479650177     0.0831654511
|  6>  C       -0.0512186123     0.1267075181    -0.0081896537
|  7>  C        1.1246489294    -0.4812817005    -0.8233125919
|  8>  O        1.7835479357    -0.9013177075     0.3877036550
|  9>  C        0.6202424139    -0.5905963387     1.1810673608
| 10>  O       -1.3293072721    -0.4181515594    -0.2626424246
| 11>  C       -1.9408443254    -0.0700415806    -1.4972117227
| 12>  C       -3.2500193429    -0.8433185223    -1.5532933409
| 13>  O       -4.0978710351    -0.5005013676    -0.4759443637
| 14>  H        0.9393982824     1.9968159237     0.4019372361
| 15>  H       -0.2685430664     2.1163932714    -0.8804266827
| 16>  H       -0.7891122100     1.9879034415     0.8125778343
| 17>  H        0.8237635237    -1.3337847305    -1.4465866696
| 18>  H        1.7421774685     0.2075244614    -1.4108015903
| 19>  H        0.8667793634     0.0172534022     2.0587110946
| 20>  H        0.0724384896    -1.4894402874     1.4898494052
| 21>  H       -2.1484661823     1.0076066471    -1.5444559899
| 22>  H       -1.2956358428    -0.3397733455    -2.3480698479
| 23>  H       -3.7841658150    -0.5974229776    -2.4769303671
| 24>  H       -3.0279210497    -1.9222242975    -1.5659164507
| 25>  H       -3.5593708629    -0.5875844780     0.3192622985
| 26> *
| 27>
| 28>                          ****END OF INPUT****

CARTESIAN COORDINATES (ANGSTROEM)
---------------------------------
  C     -0.047034    1.647965    0.083165
  C     -0.051219    0.126708   -0.008190
  C      1.124649   -0.481282   -0.823313
  O      1.783548   -0.901318    0.387704
  C      0.620242   -0.590596    1.181067
  O     -1.329307   -0.418152   -0.262642
  C     -1.940844   -0.070042   -1.497212
  C     -3.250019   -0.843319   -1.553293
  O     -4.097871   -0.500501   -0.475944
  H      0.939398    1.996816    0.401937
  H     -0.268543    2.116393   -0.880427
  H     -0.789112    1.987903    0.812578
  H      0.823764   -1.333785   -1.446587
  H      1.742177    0.207524   -1.410802
  H      0.866779    0.017253    2.058711
  H      0.072438   -1.489440    1.489849
  H     -2.148466    1.007607   -1.544456
  H     -1.295636   -0.339773   -2.348070
  H     -3.784166   -0.597423   -2.476930
  H     -3.027921   -1.922224   -1.565916
  H     -3.559371   -0.587584    0.319262

 Total Charge           Charge          ....    0
 Multiplicity           Mult            ....    1
 Number of Electrons    NEL             ....   72
 Basis Dimension        Dim             ....  351

ORBITAL ENERGIES
----------------

  NO   OCC          E(Eh)            E(eV)
   0   2.0000     -20.572632      -559.8098
   1   2.0000     -20.554678      -559.3212
   2   2.0000     -20.552635      -559.2656
   3   2.0000     -11.301110      -307.5188
   4   2.0000     -11.286746      -307.1280
   5   2.0000     -11.282642      -307.0163
   6   2.0000     -11.279860      -306.9406
   7   2.0000     -11.278444      -306.9021
   8   2.0000     -11.231090      -305.6135
   9   2.0000      -1.406870       -38.2829
  10   2.0000      -1.376640       -37.4603
  11   2.0000      -1.354602       -36.8606
  12   2.0000      -1.061448       -28.8835
  13   2.0000      -0.996376       -27.1128
  14   2.0000      -0.943479       -25.6734
  15   2.0000      -0.925029       -25.1713
  16   2.0000      -0.845214       -22.9994
  17   2.0000      -0.761254       -20.7148
  18   2.0000      -0.713726       -19.4215
  19   2.0000      -0.693098       -18.8602
  20   2.0000      -0.675418       -18.3791
  21   2.0000      -0.670224       -18.2377
  22   2.0000      -0.632864       -17.2211
  23   2.0000      -0.607990       -16.5442
  24   2.0000      -0.592221       -16.1151
  25   2.0000      -0.585342       -15.9280
  26   2.0000      -0.575532       -15.6610
  27   2.0000      -0.556590       -15.1456
  28   2.0000      -0.551742       -15.0137
  29   2.0000      -0.532300       -14.4846
  30   2.0000      -0.499676       -13.5969
  31   2.0000      -0.489341       -13.3156
  32   2.0000      -0.452873       -12.3233
  33   2.0000      -0.442345       -12.0368
  34   2.0000      -0.431781       -11.7494
  35   2.0000      -0.416983       -11.3467
  36   0.0000       0.126259         3.4357
  37   0.0000       0.151333         4.1180
  38   0.0000       0.162842         4.4312
  39   0.0000       0.168244         4.5782
  40   0.0000       0.179903         4.8954

MULLIKEN ATOMIC CHARGES
-----------------------
   0 C :   -0.462841
   1 C :    0.212576
   2 C :   -0.066654
   3 O :   -0.327102
   4 C :   -0.036628
   5 O :   -0.327849
   6 C :   -0.100497
   7 C :    0.009589
   8 O :   -0.484044
   9 H :    0.153915
  10 H :    0.138378
  11 H :    0.142347
  12 H :    0.094342
  13 H :    0.105505
  14 H :    0.105037
  15 H :    0.097712
  16 H :    0.111207
  17 H :    0.099934
  18 H :    0.108592
  19 H :    0.100128
  20 H :    0.326352
Sum of atomic charges:   -0.0000000

LOEWDIN ATOMIC CHARGES
----------------------
   0 C :   -0.275503
   1 C :   -0.378310
   2 C :   -0.241853
   3 O :    0.115197
   4 C :   -0.230709
   5 O :    0.190739
   6 C :   -0.329265
   7 C :   -0.353454
   8 O :   -0.047431
   9 H :    0.136999
  10 H :    0.125979
  11 H :    0.131243
  12 H :    0.121192
  13 H :    0.118979
  14 H :    0.119816
  15 H :    0.123319
  16 H :    0.123938
  17 H :    0.123506
  18 H :    0.129995
  19 H :    0.119277
  20 H :    0.176345

  Mayer bond orders larger than 0.1
B(  0-C ,  1-C ) :   0.9035 B(  0-C ,  9-H ) :   0.9251 B(  0-C , 10-H ) :   0.9284
B(  0-C , 11-H ) :   0.9316 B(  1-C ,  2-C ) :   0.9593 B(  1-C ,  4-C ) :   0.9514
B(  1-C ,  5-O ) :   0.9826 B(  2-C ,  3-O ) :   0.9597 B(  2-C , 12-H ) :   0.8966
B(  2-C , 13-H ) :   0.9081 B(  3-O ,  4-C ) :   0.9528 B(  4-C , 14-H ) :   0.9135
B(  4-C , 15-H ) :   0.9006 B(  5-O ,  6-C ) :   0.8811 B(  6-C ,  7-C ) :   0.9641
B(  6-C , 16-H ) :   0.9167 B(  6-C , 17-H ) :   0.9126 B(  7-C ,  8-O ) :   0.9341
B(  7-C , 18-H ) :   0.9245 B(  7-C , 19-H ) :   0.9329 B(  8-O , 20-H ) :   0.8325

MP2 TOTAL ENERGY:     -460.594415845 Eh
FINAL SINGLE POINT ENERGY      -460.594415844501

DIPOLE MOMENT
-------------
                                X             Y             Z
Electronic contribution:      0.53652      -3.11021       2.04980
Nuclear contribution   :     -0.31271       3.58545      -2.45131
                        -----------------------------------------
Total Dipole Moment    :      0.22382       0.47524      -0.40151
                        -----------------------------------------
Magnitude (a.u.)       :      0.66118
Magnitude (Debye)      :      1.68060

                             ****ORCA TERMINATED NORMALLY****
TOTAL RUN TIME: 0 days 0 hours 16 minutes 0 seconds 252 msec
