                         Program Version 3.0.3 - RELEASE   -
|  1> ! RI-MP2 RIJK def2-TZVP def2-TZVP/C def2-TZVP/JK TIGHTSCF
|  2> % maxcore 2000
|  3> % mp2 density relaxed end
|  4> *xyz 0 1
|  5>  C       -0.0702109034     1.3999495256    -0.2395368457
|  6>  C       -0.0665961196    -0.0473899729    -0.0872431896
|  7>  C       -0.0691094343    -1.2440969748     0.0371132899
|  8>  C       -0.0431842001    -2.6920318775     0.1918804740
|  9>  O       -1.3513332762    -3.2213750035     0.0852726334
| 10>  C       -1.3753290381    -4.6277120383     0.2431071266
| 11>  C       -2.7994245889    -5.1034862874     0.1836516970
| 12>  C       -3.4558515951    -5.3474344446    -1.1496181803
| 13>  C       -3.0930049502    -6.5134143434    -0.2651178054
| 14>  H        0.9497244721     1.7884997131    -0.3355419836
| 15>  H       -0.6249283828     1.7038012477    -1.1340067127
| 16>  H       -0.5326472649     1.8923398507     0.6229036547
| 17>  H        0.6139778774    -3.1391376313    -0.5753141800
| 18>  H        0.3980075207    -2.9569475080     1.1694012251
| 19>  H       -0.7807012629    -5.1144699267    -0.5507310199
| 20>  H       -0.9131441726    -4.9072865304     1.2063969732
| 21>  H       -3.4312756300    -4.6996023335     0.9690526678
| 22>  H       -4.5027467194    -5.0887813835    -1.2601899466
| 23>  H       -2.8607034413    -5.1803195694    -2.0411718681
| 24>  H       -2.2567394911    -7.1373775732    -0.5640691521
| 25>  H       -3.8887899692    -7.0533727184     0.2353729622
| 26> *
| 27>
| 28>                          ****END OF INPUT****

CARTESIAN COORDINATES (ANGSTROEM)
---------------------------------
  C     -0.070211    1.399950   -0.239537
  C     -0.066596   -0.047390   -0.087243
  C     -0.069109   -1.244097    0.037113
  C     -0.043184   -2.692032    0.191880
  O     -1.351333   -3.221375    0.085273
  C     -1.375329   -4.627712    0.243107
  C     -2.799425   -5.103486    0.183652
  C     -3.455852   -5.347434   -1.149618
  C     -3.093005   -6.513414   -0.265118
  H      0.949724    1.788500   -0.335542
  H     -0.624928    1.703801   -1.134007
  H     -0.532647    1.892340    0.622904
  H      0.613978   -3.139138   -0.575314
  H      0.398008   -2.956948    1.169401
  H     -0.780701   -5.114470   -0.550731
  H     -0.913144   -4.907287    1.206397
  H     -3.431276   -4.699602    0.969053
  H     -4.502747   -5.088781   -1.260190
  H     -2.860703   -5.180320   -2.041172
  H     -2.256739   -7.137378   -0.564069
  H     -3.888790   -7.053373    0.235373

 Total Charge           Charge          ....    0
 Multiplicity           Mult            ....    1
 Number of Electrons    NEL             ....   68
 Basis Dimension        Dim             ....  351

ORBITAL ENERGIES
----------------

  NO   OCC          E(Eh)            E(eV)
   0   2.0000     -20.557098      -559.3871
   1   2.0000     -11.299214      -307.4672
   2   2.0000     -11.278165      -306.8945
   3   2.0000     -11.244500      -305.9784
   4   2.0000     -11.228637      -305.5467
   5   2.0000     -11.225556      -305.4629
   6   2.0000     -11.223394      -305.4041
   7   2.0000     -11.222259      -305.3732
   8   2.0000     -11.214013      -305.1488
   9   2.0000      -1.379139       -37.5283
  10   2.0000      -1.143209       -31.1083
  11   2.0000      -1.062392       -28.9092
  12   2.0000      -1.004459       -27.3327
  13   2.0000      -0.942164       -25.6376
  14   2.0000      -0.891616       -24.2621
  15   2.0000      -0.821364       -22.3505
  16   2.0000      -0.785280       -21.3686
  17   2.0000      -0.692982       -18.8570
  18   2.0000      -0.677732       -18.4420
  19   2.0000      -0.662620       -18.0308
  20   2.0000      -0.643768       -17.5178
  21   2.0000      -0.627811       -17.0836
  22   2.0000      -0.602001       -16.3813
  23   2.0000      -0.585085       -15.9210
  24   2.0000      -0.583395       -15.8750
  25   2.0000      -0.560355       -15.2480
  26   2.0000      -0.521396       -14.1879
  27   2.0000      -0.513276       -13.9669
  28   2.0000      -0.482727       -13.1357
  29   2.0000      -0.437103       -11.8942
  30   2.0000      -0.421450       -11.4682
  31   2.0000      -0.409816       -11.1517
  32   2.0000      -0.373747       -10.1702
  33   2.0000      -0.364343        -9.9143
  34   0.0000       0.139740         3.8025
  35   0.0000       0.146279         3.9805
  36   0.0000       0.164237         4.4691
  37   0.0000       0.167774         4.5654
  38   0.0000       0.178425         4.8552

MULLIKEN ATOMIC CHARGES
-----------------------
   0 C :   -0.472055
   1 C :    0.101035
   2 C :   -0.012992
   3 C :   -0.223310
   4 O :   -0.266296
   5 C :   -0.095532
   6 C :   -0.031669
   7 C :   -0.266051
   8 C :   -0.286427
   9 H :    0.160379
  10 H :    0.162997
  11 H :    0.161673
  12 H :    0.117856
  13 H :    0.120606
  14 H :    0.090437
  15 H :    0.097425
  16 H :    0.122753
  17 H :    0.130521
  18 H :    0.129619
  19 H :    0.128156
  20 H :    0.130874
Sum of atomic charges:   -0.0000000

LOEWDIN ATOMIC CHARGES
----------------------
   0 C :   -0.293577
   1 C :   -0.096515
   2 C :   -0.082470
   3 C :   -0.317118
   4 O :    0.169581
   5 C :   -0.311462
   6 C :   -0.232064
   7 C :   -0.224811
   8 C :   -0.229792
   9 H :    0.141381
  10 H :    0.141691
  11 H :    0.140875
  12 H :    0.134884
  13 H :    0.134955
  14 H :    0.123804
  15 H :    0.122773
  16 H :    0.149438
  17 H :    0.131795
  18 H :    0.134165
  19 H :    0.131561
  20 H :    0.130906

  Mayer bond orders larger than 0.1
B(  0-C ,  1-C ) :   0.8670 B(  0-C ,  9-H ) :   0.9463 B(  0-C , 10-H ) :   0.9438
B(  0-C , 11-H ) :   0.9445 B(  1-C ,  2-C ) :   2.7230 B(  2-C ,  3-C ) :   1.0581
B(  3-C ,  4-O ) :   1.0254 B(  3-C , 12-H ) :   0.9300 B(  3-C , 13-H ) :   0.9335
B(  4-O ,  5-C ) :   0.9373 B(  5-C ,  6-C ) :   0.9614 B(  5-C , 14-H ) :   0.9117
B(  5-C , 15-H ) :   0.9230 B(  6-C ,  7-C ) :   0.8803 B(  6-C ,  8-C ) :   0.8701
B(  6-C , 16-H ) :   0.9285 B(  7-C ,  8-C ) :   0.9038 B(  7-C , 17-H ) :   0.9305
B(  7-C , 18-H ) :   0.9305 B(  8-C , 19-H ) :   0.9286 B(  8-C , 20-H ) :   0.9296

MP2 TOTAL ENERGY:     -386.344539283 Eh
FINAL SINGLE POINT ENERGY      -386.344539282910

DIPOLE MOMENT
-------------
                                X             Y             Z
Electronic contribution:      1.48789       2.69795       0.90873
Nuclear contribution   :     -1.18982      -2.78609      -0.85046
                        -----------------------------------------
Total Dipole Moment    :      0.29806      -0.08814       0.05827
                        -----------------------------------------
Magnitude (a.u.)       :      0.31624
Magnitude (Debye)      :      0.80381

                             ****ORCA TERMINATED NORMALLY****
TOTAL RUN TIME: 0 days 0 hours 16 minutes 54 seconds 406 msec
