                         Program Version 3.0.3 - RELEASE   -
|  1> ! RI-MP2 RIJK def2-TZVP def2-TZVP/C def2-TZVP/JK TIGHTSCF
|  2> % maxcore 2000
|  3> % mp2 density relaxed end
|  4> *xyz 0 1
|  5>  C       -0.3946670543     1.4379417144    -0.0509169341
|  6>  N       -0.1110190957     0.0129429419     0.0437684080
|  7>  C        1.2271903559    -0.4206832406    -0.3190102476
|  8>  C        0.8029499123    -0.4518033738     1.1130517322
|  9>  C        1.3791681790     0.4418184104     2.1368176666
| 10>  C        1.0209694058     0.6437848982     3.4495601211
| 11>  N        1.8365893253     1.5687148449     4.0551378103
| 12>  C        2.6904648516     1.9319121331     3.1263730505
| 13>  N        2.4592486893     1.2867984314     1.9479754079
| 14>  H        0.4673024846     2.0887522332     0.1646623929
| 15>  H       -0.7447447975     1.6557639804    -1.0646360944
| 16>  H       -1.1937778337     1.6932977510     0.6511310099
| 17>  H        1.3040940520    -1.3435179668    -0.8884516828
| 18>  H        1.9419953150     0.3456067650    -0.6227307237
| 19>  H        0.4865825790    -1.4092806887     1.5196389340
| 20>  H        0.2147121166     0.1669580903     3.9870837068
| 21>  H        3.4894954650     2.6491007769     3.2423028643
| 22>  H        3.0103823498     1.3592383989     1.1097594182
| 23> *
| 24>
| 25>                          ****END OF INPUT****

CARTESIAN COORDINATES (ANGSTROEM)
---------------------------------
  C     -0.394667    1.437942   -0.050917
  N     -0.111019    0.012943    0.043768
  C      1.227190   -0.420683   -0.319010
  C      0.802950   -0.451803    1.113052
  C      1.379168    0.441818    2.136818
  C      1.020969    0.643785    3.449560
  N      1.836589    1.568715    4.055138
  C      2.690465    1.931912    3.126373
  N      2.459249    1.286798    1.947975
  H      0.467302    2.088752    0.164662
  H     -0.744745    1.655764   -1.064636
  H     -1.193778    1.693298    0.651131
  H      1.304094   -1.343518   -0.888452
  H      1.941995    0.345607   -0.622731
  H      0.486583   -1.409281    1.519639
  H      0.214712    0.166958    3.987084
  H      3.489495    2.649101    3.242303
  H      3.010382    1.359238    1.109759

 Total Charge           Charge          ....    0
 Multiplicity           Mult            ....    1
 Number of Electrons    NEL             ....   66
 Basis Dimension        Dim             ....  333

ORBITAL ENERGIES
----------------

  NO   OCC          E(Eh)            E(eV)
   0   2.0000     -15.622118      -425.0994
   1   2.0000     -15.567558      -423.6148
   2   2.0000     -15.545537      -423.0156
   3   2.0000     -11.297060      -307.4086
   4   2.0000     -11.277313      -306.8713
   5   2.0000     -11.268542      -306.6326
   6   2.0000     -11.267379      -306.6010
   7   2.0000     -11.249559      -306.1161
   8   2.0000     -11.242144      -305.9143
   9   2.0000      -1.343745       -36.5652
  10   2.0000      -1.279891       -34.8276
  11   2.0000      -1.168870       -31.8066
  12   2.0000      -1.033408       -28.1205
  13   2.0000      -0.991520       -26.9806
  14   2.0000      -0.873908       -23.7803
  15   2.0000      -0.838466       -22.8158
  16   2.0000      -0.822511       -22.3817
  17   2.0000      -0.794157       -21.6101
  18   2.0000      -0.729276       -19.8446
  19   2.0000      -0.675130       -18.3712
  20   2.0000      -0.644721       -17.5437
  21   2.0000      -0.613509       -16.6944
  22   2.0000      -0.608874       -16.5683
  23   2.0000      -0.589673       -16.0458
  24   2.0000      -0.571067       -15.5395
  25   2.0000      -0.558209       -15.1896
  26   2.0000      -0.546634       -14.8747
  27   2.0000      -0.486169       -13.2293
  28   2.0000      -0.464530       -12.6405
  29   2.0000      -0.435796       -11.8586
  30   2.0000      -0.402340       -10.9482
  31   2.0000      -0.385626       -10.4934
  32   2.0000      -0.312274        -8.4974
  33   0.0000       0.120487         3.2786
  34   0.0000       0.151515         4.1229
  35   0.0000       0.159066         4.3284
  36   0.0000       0.168855         4.5948
  37   0.0000       0.173892         4.7318

MULLIKEN ATOMIC CHARGES
-----------------------
   0 C :   -0.282880
   1 N :   -0.196455
   2 C :   -0.153065
   3 C :   -0.125953
   4 C :    0.146124
   5 C :   -0.163061
   6 N :   -0.284818
   7 C :    0.048993
   8 N :   -0.274418
   9 H :    0.098898
  10 H :    0.144148
  11 H :    0.140811
  12 H :    0.135096
  13 H :    0.099277
  14 H :    0.135231
  15 H :    0.138477
  16 H :    0.148928
  17 H :    0.244668
Sum of atomic charges:   -0.0000000

LOEWDIN ATOMIC CHARGES
----------------------
   0 C :   -0.328956
   1 N :    0.092218
   2 C :   -0.245514
   3 C :   -0.225270
   4 C :   -0.231610
   5 C :   -0.230486
   6 N :    0.086049
   7 C :   -0.317763
   8 N :    0.196235
   9 H :    0.104780
  10 H :    0.119839
  11 H :    0.122396
  12 H :    0.127029
  13 H :    0.117551
  14 H :    0.156632
  15 H :    0.136454
  16 H :    0.129984
  17 H :    0.190433

  Mayer bond orders larger than 0.1
B(  0-C ,  1-N ) :   0.8828 B(  0-C ,  9-H ) :   0.9252 B(  0-C , 10-H ) :   0.9345
B(  0-C , 11-H ) :   0.9381 B(  1-N ,  2-C ) :   0.9064 B(  1-N ,  3-C ) :   0.8800
B(  2-C ,  3-C ) :   0.9396 B(  2-C , 12-H ) :   0.9185 B(  2-C , 13-H ) :   0.9238
B(  3-C ,  4-C ) :   0.9115 B(  3-C , 14-H ) :   0.9388 B(  4-C ,  5-C ) :   1.5001
B(  4-C ,  8-N ) :   1.0463 B(  5-C ,  6-N ) :   1.3050 B(  5-C , 15-H ) :   0.9435
B(  6-N ,  7-C ) :   1.5442 B(  7-C ,  8-N ) :   1.1649 B(  7-C , 16-H ) :   0.9250
B(  8-N , 17-H ) :   0.8654

MP2 TOTAL ENERGY:     -397.436202387 Eh
FINAL SINGLE POINT ENERGY      -397.436202386868

DIPOLE MOMENT
-------------
                                X             Y             Z
Electronic contribution:      2.49972      -0.48454       5.25928
Nuclear contribution   :     -1.75336       0.56112      -6.54931
                        -----------------------------------------
Total Dipole Moment    :      0.74636       0.07658      -1.29002
                        -----------------------------------------
Magnitude (a.u.)       :      1.49234
Magnitude (Debye)      :      3.79322

                             ****ORCA TERMINATED NORMALLY****
TOTAL RUN TIME: 0 days 0 hours 17 minutes 24 seconds 490 msec
