                         Program Version 3.0.3 - RELEASE   -
|  1> ! RI-MP2 RIJK def2-TZVP def2-TZVP/C def2-TZVP/JK TIGHTSCF
|  2> % maxcore 2000
|  3> % mp2 density relaxed end
|  4> *xyz 0 1
|  5>  C        0.0720320706     1.5698747347     0.0919043290
|  6>  C        1.3614616650     0.7833641971     0.0366910099
|  7>  C        0.0329835385     0.0653272214    -0.0198568620
|  8>  C       -0.3699541739    -0.7279560055     1.2139886347
|  9>  C       -1.8794718242    -0.8335609979     1.4779992777
| 10>  C       -2.6671263309    -1.6522751252     0.4388750774
| 11>  C       -2.8245283603    -1.0009636573    -0.9155890866
| 12>  C       -1.8461402859    -0.5204005713    -1.6823381514
| 13>  C       -0.3654575507    -0.5296692011    -1.3677442058
| 14>  H       -0.2076701255     2.0241775900     1.0371764606
| 15>  H       -0.2073398387     2.1570623266    -0.7766639106
| 16>  H        1.9559079452     0.8390883344    -0.8695248813
| 17>  H        1.9496749728     0.7027876459     0.9452987499
| 18>  H        0.0503767027    -1.7420288573     1.1384896128
| 19>  H        0.1030413486    -0.2695709461     2.0911693234
| 20>  H       -2.0197014034    -1.3022525711     2.4599009506
| 21>  H       -2.3107155966     0.1726189826     1.5459705543
| 22>  H       -2.1795867580    -2.6327494843     0.3227712162
| 23>  H       -3.6621074519    -1.8650009811     0.8438850886
| 24>  H       -3.8421237097    -0.9352438096    -1.2950971862
| 25>  H       -2.1203157319    -0.0924447919    -2.6442325887
| 26>  H        0.1624669381     0.0139996768    -2.1582308205
| 27>  H        0.0129708100    -1.5629304399    -1.4170135320
| 28> *
| 29>
| 30>                          ****END OF INPUT****

CARTESIAN COORDINATES (ANGSTROEM)
---------------------------------
  C      0.072032    1.569875    0.091904
  C      1.361462    0.783364    0.036691
  C      0.032984    0.065327   -0.019857
  C     -0.369954   -0.727956    1.213989
  C     -1.879472   -0.833561    1.477999
  C     -2.667126   -1.652275    0.438875
  C     -2.824528   -1.000964   -0.915589
  C     -1.846140   -0.520401   -1.682338
  C     -0.365458   -0.529669   -1.367744
  H     -0.207670    2.024178    1.037176
  H     -0.207340    2.157062   -0.776664
  H      1.955908    0.839088   -0.869525
  H      1.949675    0.702788    0.945299
  H      0.050377   -1.742029    1.138490
  H      0.103041   -0.269571    2.091169
  H     -2.019701   -1.302253    2.459901
  H     -2.310716    0.172619    1.545971
  H     -2.179587   -2.632749    0.322771
  H     -3.662107   -1.865001    0.843885
  H     -3.842124   -0.935244   -1.295097
  H     -2.120316   -0.092445   -2.644233
  H      0.162467    0.014000   -2.158231
  H      0.012971   -1.562930   -1.417014

 Total Charge           Charge          ....    0
 Multiplicity           Mult            ....    1
 Number of Electrons    NEL             ....   68
 Basis Dimension        Dim             ....  363

ORBITAL ENERGIES
----------------

  NO   OCC          E(Eh)            E(eV)
   0   2.0000     -11.231759      -305.6317
   1   2.0000     -11.223447      -305.4055
   2   2.0000     -11.220691      -305.3305
   3   2.0000     -11.218438      -305.2692
   4   2.0000     -11.218286      -305.2651
   5   2.0000     -11.217364      -305.2400
   6   2.0000     -11.216823      -305.2253
   7   2.0000     -11.216715      -305.2223
   8   2.0000     -11.216673      -305.2212
   9   2.0000      -1.155778       -31.4503
  10   2.0000      -1.082902       -29.4673
  11   2.0000      -1.029018       -28.0010
  12   2.0000      -0.973441       -26.4887
  13   2.0000      -0.895868       -24.3778
  14   2.0000      -0.837067       -22.7778
  15   2.0000      -0.815847       -22.2003
  16   2.0000      -0.736356       -20.0373
  17   2.0000      -0.700770       -19.0689
  18   2.0000      -0.660956       -17.9855
  19   2.0000      -0.652105       -17.7447
  20   2.0000      -0.609765       -16.5925
  21   2.0000      -0.603244       -16.4151
  22   2.0000      -0.568929       -15.4813
  23   2.0000      -0.553344       -15.0573
  24   2.0000      -0.545991       -14.8572
  25   2.0000      -0.532042       -14.4776
  26   2.0000      -0.508071       -13.8253
  27   2.0000      -0.489310       -13.3148
  28   2.0000      -0.472977       -12.8704
  29   2.0000      -0.461824       -12.5669
  30   2.0000      -0.452144       -12.3035
  31   2.0000      -0.404822       -11.0158
  32   2.0000      -0.386375       -10.5138
  33   2.0000      -0.340000        -9.2519
  34   0.0000       0.134627         3.6634
  35   0.0000       0.146044         3.9741
  36   0.0000       0.162652         4.4260
  37   0.0000       0.165046         4.4911
  38   0.0000       0.170645         4.6435

MULLIKEN ATOMIC CHARGES
-----------------------
   0 C :   -0.305436
   1 C :   -0.282145
   2 C :    0.140643
   3 C :   -0.249047
   4 C :   -0.195945
   5 C :   -0.183948
   6 C :   -0.196761
   7 C :   -0.184647
   8 C :   -0.204980
   9 H :    0.125030
  10 H :    0.125651
  11 H :    0.124029
  12 H :    0.123508
  13 H :    0.110109
  14 H :    0.114114
  15 H :    0.117372
  16 H :    0.111052
  17 H :    0.111621
  18 H :    0.126924
  19 H :    0.115802
  20 H :    0.114769
  21 H :    0.122318
  22 H :    0.119968
Sum of atomic charges:    0.0000000

LOEWDIN ATOMIC CHARGES
----------------------
   0 C :   -0.209677
   1 C :   -0.211821
   2 C :   -0.248119
   3 C :   -0.224095
   4 C :   -0.255965
   5 C :   -0.255978
   6 C :   -0.178909
   7 C :   -0.172790
   8 C :   -0.208166
   9 H :    0.132840
  10 H :    0.133665
  11 H :    0.130756
  12 H :    0.131140
  13 H :    0.142358
  14 H :    0.145127
  15 H :    0.137259
  16 H :    0.140301
  17 H :    0.146158
  18 H :    0.141413
  19 H :    0.142115
  20 H :    0.142000
  21 H :    0.148475
  22 H :    0.151913

  Mayer bond orders larger than 0.1
B(  0-C ,  1-C ) :   0.9173 B(  0-C ,  2-C ) :   0.8623 B(  0-C ,  9-H ) :   0.9253
B(  0-C , 10-H ) :   0.9264 B(  1-C ,  2-C ) :   0.8603 B(  1-C , 11-H ) :   0.9256
B(  1-C , 12-H ) :   0.9237 B(  2-C ,  3-C ) :   0.9249 B(  2-C ,  8-C ) :   0.9030
B(  3-C ,  4-C ) :   0.9321 B(  3-C , 13-H ) :   0.9326 B(  3-C , 14-H ) :   0.9198
B(  4-C ,  5-C ) :   0.9126 B(  4-C , 15-H ) :   0.9313 B(  4-C , 16-H ) :   0.9289
B(  5-C ,  6-C ) :   0.9380 B(  5-C , 17-H ) :   0.9200 B(  5-C , 18-H ) :   0.9354
B(  6-C ,  7-C ) :   1.8189 B(  6-C , 19-H ) :   0.9302 B(  7-C ,  8-C ) :   0.9395
B(  7-C , 20-H ) :   0.9278 B(  8-C , 21-H ) :   0.9289 B(  8-C , 22-H ) :   0.9094

MP2 TOTAL ENERGY:     -350.504055090 Eh
FINAL SINGLE POINT ENERGY      -350.504055089562

DIPOLE MOMENT
-------------
                                X             Y             Z
Electronic contribution:     -0.71661      -0.01382      -1.85293
Nuclear contribution   :      0.73494      -0.05392       1.95290
                        -----------------------------------------
Total Dipole Moment    :      0.01833      -0.06773       0.09998
                        -----------------------------------------
Magnitude (a.u.)       :      0.12214
Magnitude (Debye)      :      0.31047

                             ****ORCA TERMINATED NORMALLY****
TOTAL RUN TIME: 0 days 0 hours 21 minutes 21 seconds 984 msec
