                         Program Version 3.0.3 - RELEASE   -
|  1> ! RI-MP2 RIJK def2-TZVP def2-TZVP/C def2-TZVP/JK TIGHTSCF
|  2> % maxcore 2000
|  3> % mp2 density relaxed end
|  4> *xyz 0 1
|  5>  C       -0.7860206653     1.1607657560    -0.0511455278
|  6>  C        0.1421830548    -0.0451989873    -0.0350396025
|  7>  C        1.5430891055     0.0879315879    -0.7142294426
|  8>  C        2.1253150094    -0.6811335097     0.4684661628
|  9>  C        3.0577717543    -1.8081413740     0.4757746683
| 10>  O        3.4414968104    -0.5185364012     0.9763092708
| 11>  C        0.8480603644    -0.4891792025     1.2980192936
| 12>  C        1.0027046134     0.5611441372     2.3863874257
| 13>  O       -0.2596489213     0.7244351502     3.0188729733
| 14>  H       -0.2890725614     2.0607198256     0.3247581772
| 15>  H       -1.1178606559     1.3716297785    -1.0740438683
| 16>  H       -1.6690048924     0.9892692483     0.5701274902
| 17>  H       -0.3841703447    -0.9100761508    -0.4513476534
| 18>  H        1.6713405340    -0.3383168315    -1.7122742192
| 19>  H        1.8969485700     1.1242870625    -0.7269883165
| 20>  H        2.9602372901    -2.5908271795     1.2276737755
| 21>  H        3.5482239075    -2.1108565013    -0.4489507854
| 22>  H        0.4357167264    -1.3940118871     1.7546509227
| 23>  H        1.7695193107     0.2192217222     3.0974447572
| 24>  H        1.3643222403     1.5101159095     1.9602538065
| 25>  H       -0.1693218405     1.3984535770     3.6988377519
| 26> *
| 27>
| 28>                          ****END OF INPUT****

CARTESIAN COORDINATES (ANGSTROEM)
---------------------------------
  C     -0.786021    1.160766   -0.051146
  C      0.142183   -0.045199   -0.035040
  C      1.543089    0.087932   -0.714229
  C      2.125315   -0.681134    0.468466
  C      3.057772   -1.808141    0.475775
  O      3.441497   -0.518536    0.976309
  C      0.848060   -0.489179    1.298019
  C      1.002705    0.561144    2.386387
  O     -0.259649    0.724435    3.018873
  H     -0.289073    2.060720    0.324758
  H     -1.117861    1.371630   -1.074044
  H     -1.669005    0.989269    0.570127
  H     -0.384170   -0.910076   -0.451348
  H      1.671341   -0.338317   -1.712274
  H      1.896949    1.124287   -0.726988
  H      2.960237   -2.590827    1.227674
  H      3.548224   -2.110857   -0.448951
  H      0.435717   -1.394012    1.754651
  H      1.769519    0.219222    3.097445
  H      1.364322    1.510116    1.960254
  H     -0.169322    1.398454    3.698838

 Total Charge           Charge          ....    0
 Multiplicity           Mult            ....    1
 Number of Electrons    NEL             ....   70
 Basis Dimension        Dim             ....  351

ORBITAL ENERGIES
----------------

  NO   OCC          E(Eh)            E(eV)
   0   2.0000     -20.564575      -559.5905
   1   2.0000     -20.555203      -559.3355
   2   2.0000     -11.287048      -307.1362
   3   2.0000     -11.279678      -306.9356
   4   2.0000     -11.274394      -306.7919
   5   2.0000     -11.231781      -305.6323
   6   2.0000     -11.228048      -305.5307
   7   2.0000     -11.223928      -305.4186
   8   2.0000     -11.209314      -305.0209
   9   2.0000      -1.408980       -38.3403
  10   2.0000      -1.359203       -36.9858
  11   2.0000      -1.134203       -30.8632
  12   2.0000      -0.983501       -26.7624
  13   2.0000      -0.964647       -26.2494
  14   2.0000      -0.908760       -24.7286
  15   2.0000      -0.851566       -23.1723
  16   2.0000      -0.807243       -21.9662
  17   2.0000      -0.726541       -19.7702
  18   2.0000      -0.705037       -19.1850
  19   2.0000      -0.678385       -18.4598
  20   2.0000      -0.658526       -17.9194
  21   2.0000      -0.631852       -17.1936
  22   2.0000      -0.607995       -16.5444
  23   2.0000      -0.587961       -15.9992
  24   2.0000      -0.564506       -15.3610
  25   2.0000      -0.558178       -15.1888
  26   2.0000      -0.539186       -14.6720
  27   2.0000      -0.512518       -13.9463
  28   2.0000      -0.493708       -13.4345
  29   2.0000      -0.484921       -13.1954
  30   2.0000      -0.460600       -12.5336
  31   2.0000      -0.445745       -12.1294
  32   2.0000      -0.430210       -11.7066
  33   2.0000      -0.421630       -11.4731
  34   2.0000      -0.415864       -11.3162
  35   0.0000       0.131585         3.5806
  36   0.0000       0.145995         3.9727
  37   0.0000       0.164530         4.4771
  38   0.0000       0.166630         4.5342
  39   0.0000       0.183765         5.0005

MULLIKEN ATOMIC CHARGES
-----------------------
   0 C :   -0.383977
   1 C :   -0.052798
   2 C :   -0.230917
   3 C :    0.084131
   4 C :   -0.102850
   5 O :   -0.342970
   6 C :    0.031594
   7 C :   -0.135334
   8 O :   -0.468593
   9 H :    0.110413
  10 H :    0.129614
  11 H :    0.142407
  12 H :    0.097944
  13 H :    0.125755
  14 H :    0.115444
  15 H :    0.115152
  16 H :    0.115095
  17 H :    0.110473
  18 H :    0.117292
  19 H :    0.105814
  20 H :    0.316311
Sum of atomic charges:    0.0000000

LOEWDIN ATOMIC CHARGES
----------------------
   0 C :   -0.299094
   1 C :   -0.218277
   2 C :   -0.176555
   3 C :   -0.295459
   4 C :   -0.237103
   5 O :    0.162695
   6 C :   -0.174715
   7 C :   -0.322824
   8 O :   -0.044584
   9 H :    0.121751
  10 H :    0.123333
  11 H :    0.128533
  12 H :    0.150402
  13 H :    0.129921
  14 H :    0.143701
  15 H :    0.120819
  16 H :    0.121110
  17 H :    0.149771
  18 H :    0.123996
  19 H :    0.120401
  20 H :    0.172178

  Mayer bond orders larger than 0.1
B(  0-C ,  1-C ) :   0.9058 B(  0-C ,  9-H ) :   0.9356 B(  0-C , 10-H ) :   0.9364
B(  0-C , 11-H ) :   0.9387 B(  1-C ,  2-C ) :   0.9511 B(  1-C ,  6-C ) :   0.9364
B(  1-C , 12-H ) :   0.9231 B(  2-C ,  3-C ) :   0.8982 B(  2-C , 13-H ) :   0.9207
B(  2-C , 14-H ) :   0.8992 B(  3-C ,  4-C ) :   0.9989 B(  3-C ,  5-O ) :   0.8863
B(  3-C ,  6-C ) :   0.8604 B(  4-C ,  5-O ) :   0.9084 B(  4-C , 15-H ) :   0.9137
B(  4-C , 16-H ) :   0.9166 B(  6-C ,  7-C ) :   0.8896 B(  6-C , 17-H ) :   0.9158
B(  7-C ,  8-O ) :   1.0056 B(  7-C , 18-H ) :   0.9249 B(  7-C , 19-H ) :   0.9265
B(  8-O , 20-H ) :   0.8472

MP2 TOTAL ENERGY:     -423.485576118 Eh
FINAL SINGLE POINT ENERGY      -423.485576117798

DIPOLE MOMENT
-------------
                                X             Y             Z
Electronic contribution:      4.17598      -2.17908       2.53298
Nuclear contribution   :     -4.31922       2.12625      -2.63729
                        -----------------------------------------
Total Dipole Moment    :     -0.14324      -0.05283      -0.10431
                        -----------------------------------------
Magnitude (a.u.)       :      0.18490
Magnitude (Debye)      :      0.46999

                             ****ORCA TERMINATED NORMALLY****
TOTAL RUN TIME: 0 days 0 hours 17 minutes 38 seconds 604 msec
