                         Program Version 3.0.3 - RELEASE   -
|  1> ! RI-MP2 RIJK def2-TZVP def2-TZVP/C def2-TZVP/JK TIGHTSCF
|  2> % maxcore 2000
|  3> % mp2 density relaxed end
|  4> *xyz 0 1
|  5>  O       -0.0299993104     0.0585071134     0.4485832455
|  6>  C       -0.0218823501     1.1925595196     0.0471126503
|  7>  O       -1.1996169993     1.8319011961    -0.1858766724
|  8>  C       -1.2019365973     3.0474801450    -0.9410988710
|  9>  C       -0.0665927276     3.9831756429    -0.5985869043
| 10>  C       -0.1188995832     5.3764945917    -1.0690458827
| 11>  O       -0.3469332029     5.0748840454     0.3028223646
| 12>  C        1.2169877672     3.2902326869    -0.3694942630
| 13>  C        1.2243834294     1.9766798759    -0.1283902160
| 14>  H       -1.1503258850     2.7944312269    -2.0087296802
| 15>  H       -2.1612327769     3.5280590143    -0.7392417174
| 16>  H        0.8077855872     5.9035685299    -1.2932207981
| 17>  H       -0.9906318328     5.7152188296    -1.6290443951
| 18>  H        2.1301407217     3.8780446566    -0.3759098738
| 19>  H        2.1349402900     1.4173777957     0.0497496637
| 20> *
| 21>
| 22>                          ****END OF INPUT****

CARTESIAN COORDINATES (ANGSTROEM)
---------------------------------
  O     -0.029999    0.058507    0.448583
  C     -0.021882    1.192560    0.047113
  O     -1.199617    1.831901   -0.185877
  C     -1.201937    3.047480   -0.941099
  C     -0.066593    3.983176   -0.598587
  C     -0.118900    5.376495   -1.069046
  O     -0.346933    5.074884    0.302822
  C      1.216988    3.290233   -0.369494
  C      1.224383    1.976680   -0.128390
  H     -1.150326    2.794431   -2.008730
  H     -2.161233    3.528059   -0.739242
  H      0.807786    5.903569   -1.293221
  H     -0.990632    5.715219   -1.629044
  H      2.130141    3.878045   -0.375910
  H      2.134940    1.417378    0.049750

 Total Charge           Charge          ....    0
 Multiplicity           Mult            ....    1
 Number of Electrons    NEL             ....   66
 Basis Dimension        Dim             ....  315

ORBITAL ENERGIES
----------------

  NO   OCC          E(Eh)            E(eV)
   0   2.0000     -20.606818      -560.7400
   1   2.0000     -20.598173      -560.5048
   2   2.0000     -20.543704      -559.0226
   3   2.0000     -11.387740      -309.8762
   4   2.0000     -11.327902      -308.2479
   5   2.0000     -11.317216      -307.9571
   6   2.0000     -11.314923      -307.8947
   7   2.0000     -11.285455      -307.0928
   8   2.0000     -11.269257      -306.6521
   9   2.0000      -1.462589       -39.7991
  10   2.0000      -1.440797       -39.2061
  11   2.0000      -1.366536       -37.1853
  12   2.0000      -1.123569       -30.5739
  13   2.0000      -1.035966       -28.1901
  14   2.0000      -0.941825       -25.6284
  15   2.0000      -0.906565       -24.6689
  16   2.0000      -0.856471       -23.3058
  17   2.0000      -0.747963       -20.3531
  18   2.0000      -0.739088       -20.1116
  19   2.0000      -0.716607       -19.4999
  20   2.0000      -0.682642       -18.5756
  21   2.0000      -0.648920       -17.6580
  22   2.0000      -0.636277       -17.3140
  23   2.0000      -0.633598       -17.2411
  24   2.0000      -0.599258       -16.3066
  25   2.0000      -0.589938       -16.0530
  26   2.0000      -0.563159       -15.3243
  27   2.0000      -0.529961       -14.4210
  28   2.0000      -0.488076       -13.2812
  29   2.0000      -0.481457       -13.1011
  30   2.0000      -0.457872       -12.4593
  31   2.0000      -0.450071       -12.2471
  32   2.0000      -0.399679       -10.8758
  33   0.0000       0.073663         2.0045
  34   0.0000       0.132362         3.6018
  35   0.0000       0.150267         4.0890
  36   0.0000       0.158480         4.3125
  37   0.0000       0.175773         4.7830

MULLIKEN ATOMIC CHARGES
-----------------------
   0 O :   -0.282890
   1 C :    0.291945
   2 O :   -0.217727
   3 C :   -0.056814
   4 C :    0.193312
   5 C :   -0.079468
   6 O :   -0.312911
   7 C :   -0.156485
   8 C :   -0.208695
   9 H :    0.125312
  10 H :    0.147356
  11 H :    0.125208
  12 H :    0.127322
  13 H :    0.147685
  14 H :    0.156852
Sum of atomic charges:   -0.0000000

LOEWDIN ATOMIC CHARGES
----------------------
   0 O :    0.147172
   1 C :   -0.463514
   2 O :    0.262564
   3 C :   -0.230754
   4 C :   -0.317624
   5 C :   -0.232416
   6 O :    0.179283
   7 C :   -0.087976
   8 C :   -0.112272
   9 H :    0.140728
  10 H :    0.147588
  11 H :    0.125296
  12 H :    0.126622
  13 H :    0.155375
  14 H :    0.159928

  Mayer bond orders larger than 0.1
B(  0-O ,  1-C ) :   1.9886 B(  1-C ,  2-O ) :   1.1103 B(  1-C ,  8-C ) :   0.9906
B(  2-O ,  3-C ) :   0.8749 B(  3-C ,  4-C ) :   0.9093 B(  3-C ,  9-H ) :   0.9278
B(  3-C , 10-H ) :   0.9227 B(  4-C ,  5-C ) :   0.9384 B(  4-C ,  6-O ) :   0.8482
B(  4-C ,  7-C ) :   0.9637 B(  5-C ,  6-O ) :   0.8972 B(  5-C , 11-H ) :   0.9065
B(  5-C , 12-H ) :   0.9118 B(  7-C ,  8-C ) :   1.6794 B(  7-C , 13-H ) :   0.9114
B(  8-C , 14-H ) :   0.9248

MP2 TOTAL ENERGY:     -457.032445901 Eh
FINAL SINGLE POINT ENERGY      -457.032445901129

DIPOLE MOMENT
-------------
                                X             Y             Z
Electronic contribution:     -0.66574      -4.17794       2.79628
Nuclear contribution   :      1.24183       5.64160      -4.09925
                        -----------------------------------------
Total Dipole Moment    :      0.57609       1.46366      -1.30296
                        -----------------------------------------
Magnitude (a.u.)       :      2.04252
Magnitude (Debye)      :      5.19168

                             ****ORCA TERMINATED NORMALLY****
TOTAL RUN TIME: 0 days 0 hours 14 minutes 47 seconds 737 msec
