                         Program Version 3.0.3 - RELEASE   -
|  1> ! RI-MP2 RIJK def2-TZVP def2-TZVP/C def2-TZVP/JK TIGHTSCF
|  2> % maxcore 2000
|  3> % mp2 density relaxed end
|  4> *xyz 0 1
|  5>  C        1.0534618361     0.8971115783     0.0666267301
|  6>  O        0.1333649925    -0.1310325432    -0.2188690600
|  7>  C        0.6964289268    -1.1690500584    -0.9594599443
|  8>  C       -0.3346345053    -2.2689576025    -1.1997268642
|  9>  O       -1.4487668536    -2.2180616243    -0.7452482192
| 10>  C        0.1328029758    -3.4464172551    -2.0626865602
| 11>  C        1.3379616202    -4.1736319091    -1.4983826607
| 12>  C        2.2367355517    -4.9568741308    -2.3790279947
| 13>  N        2.7117557163    -3.7045427793    -1.7590494794
| 14>  H        1.9098437418     0.5288166092     0.6531452258
| 15>  H        1.4427682321     1.3652975766    -0.8516459618
| 16>  H        0.5220788714     1.6520910762     0.6501670417
| 17>  H        1.0642372761    -0.8186060895    -1.9438432616
| 18>  H        1.5714943783    -1.6136251078    -0.4521496715
| 19>  H       -0.7207351800    -4.1257191319    -2.1478553653
| 20>  H        0.3708027065    -3.0795998665    -3.0712230250
| 21>  H        1.2045994310    -4.5282557797    -0.4777147553
| 22>  H        2.7116395152    -5.8607233321    -2.0090644278
| 23>  H        2.0259612869    -4.9608611490    -3.4456366147
| 24>  H        2.6967184804    -2.9616215409    -2.4547741021
| 25> *
| 26>
| 27>                          ****END OF INPUT****

CARTESIAN COORDINATES (ANGSTROEM)
---------------------------------
  C      1.053462    0.897112    0.066627
  O      0.133365   -0.131033   -0.218869
  C      0.696429   -1.169050   -0.959460
  C     -0.334635   -2.268958   -1.199727
  O     -1.448767   -2.218062   -0.745248
  C      0.132803   -3.446417   -2.062687
  C      1.337962   -4.173632   -1.498383
  C      2.236736   -4.956874   -2.379028
  N      2.711756   -3.704543   -1.759049
  H      1.909844    0.528817    0.653145
  H      1.442768    1.365298   -0.851646
  H      0.522079    1.652091    0.650167
  H      1.064237   -0.818606   -1.943843
  H      1.571494   -1.613625   -0.452150
  H     -0.720735   -4.125719   -2.147855
  H      0.370803   -3.079600   -3.071223
  H      1.204599   -4.528256   -0.477715
  H      2.711640   -5.860723   -2.009064
  H      2.025961   -4.960861   -3.445637
  H      2.696718   -2.961622   -2.454774

 Total Charge           Charge          ....    0
 Multiplicity           Mult            ....    1
 Number of Electrons    NEL             ....   70
 Basis Dimension        Dim             ....  345

ORBITAL ENERGIES
----------------

  NO   OCC          E(Eh)            E(eV)
   0   2.0000     -20.564931      -559.6002
   1   2.0000     -20.549036      -559.1677
   2   2.0000     -15.572904      -423.7602
   3   2.0000     -11.333029      -308.3874
   4   2.0000     -11.294952      -307.3513
   5   2.0000     -11.279752      -306.9376
   6   2.0000     -11.277479      -306.8758
   7   2.0000     -11.269019      -306.6456
   8   2.0000     -11.252743      -306.2027
   9   2.0000      -1.404462       -38.2174
  10   2.0000      -1.378360       -37.5071
  11   2.0000      -1.276062       -34.7234
  12   2.0000      -1.054608       -28.6973
  13   2.0000      -0.992379       -27.0040
  14   2.0000      -0.912602       -24.8332
  15   2.0000      -0.890205       -24.2237
  16   2.0000      -0.829900       -22.5827
  17   2.0000      -0.758462       -20.6388
  18   2.0000      -0.700204       -19.0535
  19   2.0000      -0.686212       -18.6728
  20   2.0000      -0.672812       -18.3081
  21   2.0000      -0.666043       -18.1240
  22   2.0000      -0.648905       -17.6576
  23   2.0000      -0.607513       -16.5313
  24   2.0000      -0.595397       -16.2016
  25   2.0000      -0.578830       -15.7508
  26   2.0000      -0.557898       -15.1812
  27   2.0000      -0.536577       -14.6010
  28   2.0000      -0.505369       -13.7518
  29   2.0000      -0.497047       -13.5253
  30   2.0000      -0.488859       -13.3025
  31   2.0000      -0.480827       -13.0840
  32   2.0000      -0.434360       -11.8195
  33   2.0000      -0.422666       -11.5013
  34   2.0000      -0.396374       -10.7859
  35   0.0000       0.114374         3.1123
  36   0.0000       0.140511         3.8235
  37   0.0000       0.152665         4.1542
  38   0.0000       0.159908         4.3513
  39   0.0000       0.172296         4.6884

MULLIKEN ATOMIC CHARGES
-----------------------
   0 C :   -0.215390
   1 O :   -0.271473
   2 C :   -0.130039
   3 C :    0.232540
   4 O :   -0.249112
   5 C :   -0.269972
   6 C :   -0.062248
   7 C :   -0.183796
   8 N :   -0.371122
   9 H :    0.114943
  10 H :    0.109290
  11 H :    0.145771
  12 H :    0.098175
  13 H :    0.153596
  14 H :    0.139402
  15 H :    0.140514
  16 H :    0.141170
  17 H :    0.130261
  18 H :    0.130857
  19 H :    0.216633
Sum of atomic charges:    0.0000000

LOEWDIN ATOMIC CHARGES
----------------------
   0 C :   -0.354453
   1 O :    0.159771
   2 C :   -0.320177
   3 C :   -0.323686
   4 O :    0.175207
   5 C :   -0.224846
   6 C :   -0.282682
   7 C :   -0.262106
   8 N :   -0.026721
   9 H :    0.102944
  10 H :    0.101223
  11 H :    0.116012
  12 H :    0.130112
  13 H :    0.141631
  14 H :    0.156781
  15 H :    0.151777
  16 H :    0.148120
  17 H :    0.126769
  18 H :    0.122671
  19 H :    0.161652

  Mayer bond orders larger than 0.1
B(  0-C ,  1-O ) :   0.9093 B(  0-C ,  9-H ) :   0.9351 B(  0-C , 10-H ) :   0.9357
B(  0-C , 11-H ) :   0.9392 B(  1-O ,  2-C ) :   0.9786 B(  2-C ,  3-C ) :   0.8991
B(  2-C , 12-H ) :   0.9008 B(  2-C , 13-H ) :   0.9035 B(  3-C ,  4-O ) :   2.0493
B(  3-C ,  5-C ) :   0.8939 B(  5-C ,  6-C ) :   0.8866 B(  5-C , 14-H ) :   0.9115
B(  5-C , 15-H ) :   0.9158 B(  6-C ,  7-C ) :   0.9242 B(  6-C ,  8-N ) :   0.9119
B(  6-C , 16-H ) :   0.9193 B(  7-C ,  8-N ) :   0.9204 B(  7-C , 17-H ) :   0.9249
B(  7-C , 18-H ) :   0.9196 B(  8-N , 19-H ) :   0.8709

MP2 TOTAL ENERGY:     -439.523859573 Eh
FINAL SINGLE POINT ENERGY      -439.523859573495

DIPOLE MOMENT
-------------
                                X             Y             Z
Electronic contribution:     -5.46252      -0.84641       1.50173
Nuclear contribution   :      6.39295       0.75385      -2.40932
                        -----------------------------------------
Total Dipole Moment    :      0.93043      -0.09256      -0.90760
                        -----------------------------------------
Magnitude (a.u.)       :      1.30308
Magnitude (Debye)      :      3.31216

                             ****ORCA TERMINATED NORMALLY****
TOTAL RUN TIME: 0 days 0 hours 15 minutes 18 seconds 697 msec
