                         Program Version 3.0.3 - RELEASE   -
|  1> ! RI-MP2 RIJK def2-TZVP def2-TZVP/C def2-TZVP/JK TIGHTSCF
|  2> % maxcore 2000
|  3> % mp2 density relaxed end
|  4> *xyz 0 1
|  5>  C       -0.0220324396    -1.1546689757    -0.0213082799
|  6>  C       -0.0031913519     0.0476537769    -0.0034635448
|  7>  C       -0.0008586032     1.4937547357     0.0158294976
|  8>  C       -0.6783570402     2.1456513728     1.2614653128
|  9>  C       -0.1833170545     3.6243794882     1.1931885739
| 10>  C        0.7086486320     3.6049538013    -0.0622496386
| 11>  C        1.3704617667     2.2248416812     0.0062768657
| 12>  O       -0.1426497744     3.5013330243    -1.2142239053
| 13>  C       -0.6338279113     2.1539720008    -1.2369767727
| 14>  H       -0.0332086045    -2.2162687037    -0.0357771454
| 15>  H       -1.7660037688     2.0520894049     1.2138374363
| 16>  H       -0.3429614719     1.6440658811     2.1724920183
| 17>  H       -0.9977848781     4.3412361729     1.0697325081
| 18>  H        0.3846792305     3.9051051216     2.0854241979
| 19>  H        1.3564875833     4.4715037385    -0.1970718583
| 20>  H        1.9485924752     2.0499663133     0.9165108929
| 21>  H        1.9761233127     1.9926202379    -0.8721853578
| 22>  H       -0.3164083208     1.6557722838    -2.1610742458
| 23>  H       -1.7293582910     2.1468784243    -1.1927445049
| 24> *
| 25>
| 26>                          ****END OF INPUT****

CARTESIAN COORDINATES (ANGSTROEM)
---------------------------------
  C     -0.022032   -1.154669   -0.021308
  C     -0.003191    0.047654   -0.003464
  C     -0.000859    1.493755    0.015829
  C     -0.678357    2.145651    1.261465
  C     -0.183317    3.624379    1.193189
  C      0.708649    3.604954   -0.062250
  C      1.370462    2.224842    0.006277
  O     -0.142650    3.501333   -1.214224
  C     -0.633828    2.153972   -1.236977
  H     -0.033209   -2.216269   -0.035777
  H     -1.766004    2.052089    1.213837
  H     -0.342961    1.644066    2.172492
  H     -0.997785    4.341236    1.069733
  H      0.384679    3.905105    2.085424
  H      1.356488    4.471504   -0.197072
  H      1.948592    2.049966    0.916511
  H      1.976123    1.992620   -0.872185
  H     -0.316408    1.655772   -2.161074
  H     -1.729358    2.146878   -1.192745

 Total Charge           Charge          ....    0
 Multiplicity           Mult            ....    1
 Number of Electrons    NEL             ....   66
 Basis Dimension        Dim             ....  339

ORBITAL ENERGIES
----------------

  NO   OCC          E(Eh)            E(eV)
   0   2.0000     -20.551200      -559.2266
   1   2.0000     -11.281908      -306.9963
   2   2.0000     -11.278426      -306.9016
   3   2.0000     -11.264955      -306.5350
   4   2.0000     -11.236054      -305.7486
   5   2.0000     -11.233781      -305.6867
   6   2.0000     -11.232267      -305.6455
   7   2.0000     -11.225703      -305.4669
   8   2.0000     -11.225415      -305.4591
   9   2.0000      -1.379321       -37.5332
  10   2.0000      -1.137030       -30.9402
  11   2.0000      -1.049085       -28.5471
  12   2.0000      -0.994836       -27.0709
  13   2.0000      -0.973868       -26.5003
  14   2.0000      -0.873308       -23.7639
  15   2.0000      -0.820409       -22.3245
  16   2.0000      -0.772801       -21.0290
  17   2.0000      -0.730673       -19.8826
  18   2.0000      -0.696858       -18.9625
  19   2.0000      -0.669851       -18.2276
  20   2.0000      -0.653296       -17.7771
  21   2.0000      -0.582084       -15.8393
  22   2.0000      -0.567568       -15.4443
  23   2.0000      -0.556120       -15.1328
  24   2.0000      -0.535044       -14.5593
  25   2.0000      -0.526148       -14.3172
  26   2.0000      -0.512180       -13.9371
  27   2.0000      -0.496224       -13.5029
  28   2.0000      -0.485278       -13.2051
  29   2.0000      -0.462719       -12.5912
  30   2.0000      -0.408956       -11.1283
  31   2.0000      -0.383374       -10.4321
  32   2.0000      -0.379271       -10.3205
  33   0.0000       0.129388         3.5208
  34   0.0000       0.151769         4.1298
  35   0.0000       0.165967         4.5162
  36   0.0000       0.171916         4.6781
  37   0.0000       0.175579         4.7778

MULLIKEN ATOMIC CHARGES
-----------------------
   0 C :   -0.122981
   1 C :    0.051618
   2 C :   -0.107725
   3 C :   -0.270180
   4 C :   -0.238410
   5 C :    0.075716
   6 C :   -0.280720
   7 O :   -0.324767
   8 C :   -0.060906
   9 H :    0.191134
  10 H :    0.123975
  11 H :    0.129510
  12 H :    0.121972
  13 H :    0.115810
  14 H :    0.125188
  15 H :    0.130085
  16 H :    0.129847
  17 H :    0.106014
  18 H :    0.104820
Sum of atomic charges:   -0.0000000

LOEWDIN ATOMIC CHARGES
----------------------
   0 C :   -0.090990
   1 C :   -0.067836
   2 C :   -0.261088
   3 C :   -0.184874
   4 C :   -0.226695
   5 C :   -0.294125
   6 C :   -0.171603
   7 O :    0.160172
   8 C :   -0.230093
   9 H :    0.127149
  10 H :    0.138532
  11 H :    0.140963
  12 H :    0.138971
  13 H :    0.136000
  14 H :    0.139008
  15 H :    0.145810
  16 H :    0.144974
  17 H :    0.127838
  18 H :    0.127885

  Mayer bond orders larger than 0.1
B(  0-C ,  1-C ) :   2.6265 B(  0-C ,  2-C ) :  -0.1491 B(  0-C ,  9-H ) :   0.8721
B(  1-C ,  2-C ) :   1.1445 B(  2-C ,  3-C ) :   0.9210 B(  2-C ,  6-C ) :   0.8889
B(  2-C ,  8-C ) :   0.9578 B(  3-C ,  4-C ) :   0.9671 B(  3-C , 10-H ) :   0.9217
B(  3-C , 11-H ) :   0.9194 B(  4-C ,  5-C ) :   0.9239 B(  4-C , 12-H ) :   0.9193
B(  4-C , 13-H ) :   0.9166 B(  5-C ,  6-C ) :   0.9651 B(  5-C ,  7-O ) :   0.9357
B(  5-C , 14-H ) :   0.9188 B(  6-C , 15-H ) :   0.9208 B(  6-C , 16-H ) :   0.9120
B(  7-O ,  8-C ) :   0.9540 B(  8-C , 17-H ) :   0.9179 B(  8-C , 18-H ) :   0.9113

MP2 TOTAL ENERGY:     -385.194755184 Eh
FINAL SINGLE POINT ENERGY      -385.194755184052

DIPOLE MOMENT
-------------
                                X             Y             Z
Electronic contribution:      0.10386      -1.83383      -2.51052
Nuclear contribution   :      0.07162       1.65081       2.99247
                        -----------------------------------------
Total Dipole Moment    :      0.17547      -0.18302       0.48195
                        -----------------------------------------
Magnitude (a.u.)       :      0.54458
Magnitude (Debye)      :      1.38421

                             ****ORCA TERMINATED NORMALLY****
TOTAL RUN TIME: 0 days 0 hours 21 minutes 1 seconds 646 msec
