                         Program Version 3.0.3 - RELEASE   -
|  1> ! RI-MP2 RIJK def2-TZVP def2-TZVP/C def2-TZVP/JK TIGHTSCF
|  2> % maxcore 2000
|  3> % mp2 density relaxed end
|  4> *xyz 0 1
|  5>  C       -0.0719311935     1.5563850052     0.0166216195
|  6>  C        0.0486496123     0.0273344288     0.0063395938
|  7>  C        0.6694092889    -0.4940606100    -1.3015675952
|  8>  C        0.8661066601    -2.0127971676    -1.2546917343
|  9>  C        1.8867676263    -2.4229010195    -0.1796939859
| 10>  C        1.6760621898    -1.7103092363     1.1579700442
| 11>  C        2.2791909652    -0.3423826661     1.3850993802
| 12>  C        0.7853776115    -0.4859889498     1.2370579491
| 13>  H        0.9162565913     2.0272292579    -0.0298261442
| 14>  H       -0.6552103413     1.9128348585    -0.8396630136
| 15>  H       -0.5645813830     1.9103605195     0.9286292046
| 16>  H       -0.9693866738    -0.3883057057     0.0543792011
| 17>  H        0.0178925088    -0.2184096674    -2.1390243114
| 18>  H        1.6321637154     0.0019524620    -1.4897669149
| 19>  H       -0.1018386323    -2.4853184049    -1.0395544395
| 20>  H        1.1870521317    -2.3910065803    -2.2318154796
| 21>  H        1.8350669723    -3.5058610325    -0.0250523006
| 22>  H        2.9000200107    -2.2199162334    -0.5501531445
| 23>  H        1.6593553162    -2.3632673136     2.0253145602
| 24>  H        2.6804118910    -0.1023828539     2.3639704033
| 25>  H        2.8395163586     0.0925875135     0.5626124006
| 26>  H        0.2183252239    -0.3720581942     2.1580440269
| 27> *
| 28>
| 29>                          ****END OF INPUT****

CARTESIAN COORDINATES (ANGSTROEM)
---------------------------------
  C     -0.071931    1.556385    0.016622
  C      0.048650    0.027334    0.006340
  C      0.669409   -0.494061   -1.301568
  C      0.866107   -2.012797   -1.254692
  C      1.886768   -2.422901   -0.179694
  C      1.676062   -1.710309    1.157970
  C      2.279191   -0.342383    1.385099
  C      0.785378   -0.485989    1.237058
  H      0.916257    2.027229   -0.029826
  H     -0.655210    1.912835   -0.839663
  H     -0.564581    1.910361    0.928629
  H     -0.969387   -0.388306    0.054379
  H      0.017893   -0.218410   -2.139024
  H      1.632164    0.001952   -1.489767
  H     -0.101839   -2.485318   -1.039554
  H      1.187052   -2.391007   -2.231815
  H      1.835067   -3.505861   -0.025052
  H      2.900020   -2.219916   -0.550153
  H      1.659355   -2.363267    2.025315
  H      2.680412   -0.102383    2.363970
  H      2.839516    0.092588    0.562612
  H      0.218325   -0.372058    2.158044

 Total Charge           Charge          ....    0
 Multiplicity           Mult            ....    1
 Number of Electrons    NEL             ....   62
 Basis Dimension        Dim             ....  332

ORBITAL ENERGIES
----------------

  NO   OCC          E(Eh)            E(eV)
   0   2.0000     -11.222542      -305.3809
   1   2.0000     -11.221448      -305.3511
   2   2.0000     -11.220385      -305.3222
   3   2.0000     -11.215762      -305.1964
   4   2.0000     -11.213515      -305.1353
   5   2.0000     -11.213350      -305.1308
   6   2.0000     -11.212600      -305.1104
   7   2.0000     -11.206542      -304.9455
   8   2.0000      -1.154734       -31.4219
   9   2.0000      -1.056847       -28.7583
  10   2.0000      -1.024200       -27.8699
  11   2.0000      -0.924042       -25.1445
  12   2.0000      -0.851702       -23.1760
  13   2.0000      -0.823481       -22.4081
  14   2.0000      -0.776300       -21.1242
  15   2.0000      -0.713289       -19.4096
  16   2.0000      -0.673229       -18.3195
  17   2.0000      -0.611501       -16.6398
  18   2.0000      -0.601916       -16.3790
  19   2.0000      -0.594429       -16.1752
  20   2.0000      -0.573713       -15.6115
  21   2.0000      -0.540261       -14.7013
  22   2.0000      -0.538269       -14.6470
  23   2.0000      -0.511505       -13.9188
  24   2.0000      -0.489926       -13.3316
  25   2.0000      -0.484698       -13.1893
  26   2.0000      -0.466340       -12.6898
  27   2.0000      -0.454581       -12.3698
  28   2.0000      -0.431550       -11.7431
  29   2.0000      -0.391891       -10.6639
  30   2.0000      -0.382948       -10.4205
  31   0.0000       0.135857         3.6968
  32   0.0000       0.154220         4.1965
  33   0.0000       0.157140         4.2760
  34   0.0000       0.168629         4.5886
  35   0.0000       0.192436         5.2365

MULLIKEN ATOMIC CHARGES
-----------------------
   0 C :   -0.390097
   1 C :   -0.041569
   2 C :   -0.259178
   3 C :   -0.200570
   4 C :   -0.248816
   5 C :   -0.065130
   6 C :   -0.335153
   7 C :   -0.090481
   8 H :    0.122070
   9 H :    0.127554
  10 H :    0.127172
  11 H :    0.081650
  12 H :    0.122670
  13 H :    0.108141
  14 H :    0.104286
  15 H :    0.118977
  16 H :    0.120425
  17 H :    0.116141
  18 H :    0.116726
  19 H :    0.127355
  20 H :    0.124687
  21 H :    0.113141
Sum of atomic charges:    0.0000000

LOEWDIN ATOMIC CHARGES
----------------------
   0 C :   -0.289621
   1 C :   -0.267187
   2 C :   -0.241718
   3 C :   -0.260049
   4 C :   -0.246032
   5 C :   -0.198867
   6 C :   -0.211647
   7 C :   -0.187196
   8 H :    0.122977
   9 H :    0.121255
  10 H :    0.122726
  11 H :    0.155431
  12 H :    0.138287
  13 H :    0.137573
  14 H :    0.138110
  15 H :    0.134347
  16 H :    0.139026
  17 H :    0.138892
  18 H :    0.143973
  19 H :    0.129451
  20 H :    0.132618
  21 H :    0.147649

  Mayer bond orders larger than 0.1
B(  0-C ,  1-C ) :   0.9062 B(  0-C ,  8-H ) :   0.9330 B(  0-C ,  9-H ) :   0.9407
B(  0-C , 10-H ) :   0.9416 B(  1-C ,  2-C ) :   0.9220 B(  1-C ,  7-C ) :   0.9278
B(  1-C , 11-H ) :   0.9273 B(  2-C ,  3-C ) :   0.9182 B(  2-C , 12-H ) :   0.9314
B(  2-C , 13-H ) :   0.9316 B(  3-C ,  4-C ) :   0.9484 B(  3-C , 14-H ) :   0.9303
B(  3-C , 15-H ) :   0.9351 B(  4-C ,  5-C ) :   0.8981 B(  4-C , 16-H ) :   0.9355
B(  4-C , 17-H ) :   0.9371 B(  5-C ,  6-C ) :   0.8809 B(  5-C ,  7-C ) :   0.8738
B(  5-C , 18-H ) :   0.9319 B(  6-C ,  7-C ) :   0.8844 B(  6-C , 19-H ) :   0.9290
B(  6-C , 20-H ) :   0.9291 B(  7-C , 21-H ) :   0.9275

MP2 TOTAL ENERGY:     -312.505586426 Eh
FINAL SINGLE POINT ENERGY      -312.505586425963

DIPOLE MOMENT
-------------
                                X             Y             Z
Electronic contribution:      0.47227      -1.86821       1.71595
Nuclear contribution   :     -0.53116       1.79698      -1.73374
                        -----------------------------------------
Total Dipole Moment    :     -0.05889      -0.07123      -0.01779
                        -----------------------------------------
Magnitude (a.u.)       :      0.09412
Magnitude (Debye)      :      0.23923

                             ****ORCA TERMINATED NORMALLY****
TOTAL RUN TIME: 0 days 0 hours 15 minutes 47 seconds 507 msec
