                         Program Version 3.0.3 - RELEASE   -
|  1> ! RI-MP2 RIJK def2-TZVP def2-TZVP/C def2-TZVP/JK TIGHTSCF
|  2> % maxcore 2000
|  3> % mp2 density relaxed end
|  4> *xyz 0 1
|  5>  C       -0.0915978451     1.5080001826     0.0506486299
|  6>  C        0.1147296387     0.0034769766    -0.0373872462
|  7>  O        1.2290087209    -0.4744676197    -0.1072214010
|  8>  C       -1.1394743557    -0.8102197534    -0.0305021204
|  9>  C       -1.3855952638    -2.0726318410    -0.8470797237
| 10>  C       -0.1354821128    -2.9558889643    -0.9675168478
| 11>  C       -0.0732340983    -3.0385190680     0.5920465781
| 12>  C       -1.3252665519    -2.1527726106     0.6652118644
| 13>  H        0.8733440595     2.0157448818     0.0393235907
| 14>  H       -0.7042049233     1.8576737220    -0.7885557622
| 15>  H       -0.6346161879     1.7645113072     0.9677879328
| 16>  H       -2.0398704974    -0.2044740518     0.0375142865
| 17>  H       -2.2487271802    -2.1069478539    -1.5021230534
| 18>  H       -0.3705340718    -3.9211254631    -1.4220623673
| 19>  H        0.7276214381    -2.5177227338    -1.4684132852
| 20>  H       -0.2754852939    -4.0473033244     0.9594545062
| 21>  H        0.8287827347    -2.6520083400     1.0661861097
| 22>  H       -2.1337197098    -2.2597614161     1.3795030588
| 23> *
| 24>
| 25>                          ****END OF INPUT****

CARTESIAN COORDINATES (ANGSTROEM)
---------------------------------
  C     -0.091598    1.508000    0.050649
  C      0.114730    0.003477   -0.037387
  O      1.229009   -0.474468   -0.107221
  C     -1.139474   -0.810220   -0.030502
  C     -1.385595   -2.072632   -0.847080
  C     -0.135482   -2.955889   -0.967517
  C     -0.073234   -3.038519    0.592047
  C     -1.325267   -2.152773    0.665212
  H      0.873344    2.015745    0.039324
  H     -0.704205    1.857674   -0.788556
  H     -0.634616    1.764511    0.967788
  H     -2.039870   -0.204474    0.037514
  H     -2.248727   -2.106948   -1.502123
  H     -0.370534   -3.921125   -1.422062
  H      0.727621   -2.517723   -1.468413
  H     -0.275485   -4.047303    0.959455
  H      0.828783   -2.652008    1.066186
  H     -2.133720   -2.259761    1.379503

 Total Charge           Charge          ....    0
 Multiplicity           Mult            ....    1
 Number of Electrons    NEL             ....   60
 Basis Dimension        Dim             ....  308

ORBITAL ENERGIES
----------------

  NO   OCC          E(Eh)            E(eV)
   0   2.0000     -20.533439      -558.7433
   1   2.0000     -11.327046      -308.2246
   2   2.0000     -11.244655      -305.9826
   3   2.0000     -11.243916      -305.9625
   4   2.0000     -11.242236      -305.9168
   5   2.0000     -11.231112      -305.6141
   6   2.0000     -11.220040      -305.3128
   7   2.0000     -11.219516      -305.2985
   8   2.0000      -1.378837       -37.5201
   9   2.0000      -1.191689       -32.4275
  10   2.0000      -1.027613       -27.9628
  11   2.0000      -0.978536       -26.6273
  12   2.0000      -0.890552       -24.2332
  13   2.0000      -0.856463       -23.3055
  14   2.0000      -0.733392       -19.9566
  15   2.0000      -0.720587       -19.6082
  16   2.0000      -0.698274       -19.0010
  17   2.0000      -0.640388       -17.4258
  18   2.0000      -0.623962       -16.9789
  19   2.0000      -0.598751       -16.2928
  20   2.0000      -0.597604       -16.2616
  21   2.0000      -0.554670       -15.0933
  22   2.0000      -0.538559       -14.6549
  23   2.0000      -0.531071       -14.4512
  24   2.0000      -0.485369       -13.2076
  25   2.0000      -0.484687       -13.1890
  26   2.0000      -0.464088       -12.6285
  27   2.0000      -0.425881       -11.5888
  28   2.0000      -0.407124       -11.0784
  29   2.0000      -0.373183       -10.1548
  30   0.0000       0.132235         3.5983
  31   0.0000       0.143831         3.9138
  32   0.0000       0.157570         4.2877
  33   0.0000       0.170710         4.6453
  34   0.0000       0.174587         4.7508

MULLIKEN ATOMIC CHARGES
-----------------------
   0 C :   -0.423446
   1 C :    0.249729
   2 O :   -0.320976
   3 C :   -0.167288
   4 C :   -0.122301
   5 C :   -0.214263
   6 C :   -0.214260
   7 C :   -0.122305
   8 H :    0.151756
   9 H :    0.145345
  10 H :    0.145344
  11 H :    0.128519
  12 H :    0.132553
  13 H :    0.119480
  14 H :    0.130038
  15 H :    0.119478
  16 H :    0.130042
  17 H :    0.132555
Sum of atomic charges:   -0.0000000

LOEWDIN ATOMIC CHARGES
----------------------
   0 C :   -0.279488
   1 C :   -0.333589
   2 O :    0.142132
   3 C :   -0.169015
   4 C :   -0.153790
   5 C :   -0.211187
   6 C :   -0.211180
   7 C :   -0.153792
   8 H :    0.131328
   9 H :    0.135871
  10 H :    0.135861
  11 H :    0.163563
  12 H :    0.135693
  13 H :    0.133705
  14 H :    0.132247
  15 H :    0.133704
  16 H :    0.132246
  17 H :    0.135692

  Mayer bond orders larger than 0.1
B(  0-C ,  1-C ) :   0.9162 B(  0-C ,  8-H ) :   0.9409 B(  0-C ,  9-H ) :   0.9178
B(  0-C , 10-H ) :   0.9179 B(  1-C ,  2-O ) :   1.9351 B(  1-C ,  3-C ) :   0.9182
B(  3-C ,  4-C ) :   0.8421 B(  3-C ,  7-C ) :   0.8421 B(  3-C , 11-H ) :   0.9194
B(  4-C ,  5-C ) :   0.9668 B(  4-C ,  7-C ) :   0.8442 B(  4-C , 12-H ) :   0.9228
B(  5-C ,  6-C ) :   0.9877 B(  5-C , 13-H ) :   0.9264 B(  5-C , 14-H ) :   0.9100
B(  6-C ,  7-C ) :   0.9668 B(  6-C , 15-H ) :   0.9264 B(  6-C , 16-H ) :   0.9100
B(  7-C , 17-H ) :   0.9228

MP2 TOTAL ENERGY:     -347.180409130 Eh
FINAL SINGLE POINT ENERGY      -347.180409129900

DIPOLE MOMENT
-------------
                                X             Y             Z
Electronic contribution:      1.60802       0.03965      -0.06213
Nuclear contribution   :     -2.61795       0.10573       0.11016
                        -----------------------------------------
Total Dipole Moment    :     -1.00993       0.14538       0.04802
                        -----------------------------------------
Magnitude (a.u.)       :      1.02147
Magnitude (Debye)      :      2.59638

                             ****ORCA TERMINATED NORMALLY****
TOTAL RUN TIME: 0 days 0 hours 13 minutes 20 seconds 163 msec
