                         Program Version 3.0.3 - RELEASE   -
|  1> ! RI-MP2 RIJK def2-TZVP def2-TZVP/C def2-TZVP/JK TIGHTSCF
|  2> % maxcore 2000
|  3> % mp2 density relaxed end
|  4> *xyz 0 1
|  5>  C        0.0579974954     1.5021539516     0.0619215649
|  6>  N       -0.1689206927     0.0767340328    -0.1021036546
|  7>  C        0.5077337091    -0.6383851110    -1.0495253779
|  8>  C        0.6658204448    -2.0025719401    -1.1598720616
|  9>  O        1.3724433886    -2.2970471963    -2.2917758896
| 10>  N        1.6896293714    -1.1297348230    -2.9272088351
| 11>  C        1.1895234036    -0.1544134582    -2.2082795949
| 12>  C        0.2331846495    -3.0414961737    -0.3198742299
| 13>  N       -0.1484068171    -3.8523328964     0.4171482386
| 14>  H        1.0973461021     1.7489435568     0.3223629065
| 15>  H       -0.2048980859     2.0358417688    -0.8570919450
| 16>  H       -0.5956563080     1.8707734387     0.8542675465
| 17>  H       -0.3982928263    -0.4320363336     0.7377956425
| 18>  H        1.3273782357     0.8663925436    -2.5318930803
| 19> *
| 20>
| 21>                          ****END OF INPUT****

CARTESIAN COORDINATES (ANGSTROEM)
---------------------------------
  C      0.057997    1.502154    0.061922
  N     -0.168921    0.076734   -0.102104
  C      0.507734   -0.638385   -1.049525
  C      0.665820   -2.002572   -1.159872
  O      1.372443   -2.297047   -2.291776
  N      1.689629   -1.129735   -2.927209
  C      1.189523   -0.154413   -2.208280
  C      0.233185   -3.041496   -0.319874
  N     -0.148407   -3.852333    0.417148
  H      1.097346    1.748944    0.322363
  H     -0.204898    2.035842   -0.857092
  H     -0.595656    1.870773    0.854268
  H     -0.398293   -0.432036    0.737796
  H      1.327378    0.866393   -2.531893

 Total Charge           Charge          ....    0
 Multiplicity           Mult            ....    1
 Number of Electrons    NEL             ....   64
 Basis Dimension        Dim             ....  309

ORBITAL ENERGIES
----------------

  NO   OCC          E(Eh)            E(eV)
   0   2.0000     -20.668589      -562.4209
   1   2.0000     -15.663406      -426.2229
   2   2.0000     -15.606730      -424.6807
   3   2.0000     -15.592337      -424.2891
   4   2.0000     -11.336512      -308.4822
   5   2.0000     -11.326730      -308.2160
   6   2.0000     -11.303877      -307.5941
   7   2.0000     -11.294449      -307.3376
   8   2.0000     -11.290962      -307.2427
   9   2.0000      -1.522953       -41.4417
  10   2.0000      -1.282792       -34.9065
  11   2.0000      -1.235363       -33.6159
  12   2.0000      -1.184913       -32.2431
  13   2.0000      -1.096723       -29.8434
  14   2.0000      -0.965011       -26.2593
  15   2.0000      -0.911056       -24.7911
  16   2.0000      -0.846107       -23.0237
  17   2.0000      -0.800638       -21.7865
  18   2.0000      -0.709884       -19.3169
  19   2.0000      -0.692690       -18.8491
  20   2.0000      -0.686580       -18.6828
  21   2.0000      -0.640350       -17.4248
  22   2.0000      -0.615536       -16.7496
  23   2.0000      -0.605958       -16.4889
  24   2.0000      -0.574608       -15.6359
  25   2.0000      -0.573160       -15.5965
  26   2.0000      -0.523889       -14.2558
  27   2.0000      -0.518429       -14.1072
  28   2.0000      -0.498865       -13.5748
  29   2.0000      -0.478329       -13.0160
  30   2.0000      -0.426730       -11.6119
  31   2.0000      -0.336619        -9.1599
  32   0.0000       0.063510         1.7282
  33   0.0000       0.115225         3.1354
  34   0.0000       0.130411         3.5487
  35   0.0000       0.155583         4.2336
  36   0.0000       0.169496         4.6122

MULLIKEN ATOMIC CHARGES
-----------------------
   0 C :   -0.292334
   1 N :   -0.350014
   2 C :    0.126645
   3 C :    0.263008
   4 O :   -0.092533
   5 N :   -0.100866
   6 C :   -0.128543
   7 C :   -0.230151
   8 N :   -0.041004
   9 H :    0.142751
  10 H :    0.143854
  11 H :    0.152570
  12 H :    0.247318
  13 H :    0.159300
Sum of atomic charges:   -0.0000000

LOEWDIN ATOMIC CHARGES
----------------------
   0 C :   -0.314360
   1 N :    0.067022
   2 C :   -0.231667
   3 C :   -0.257160
   4 O :    0.302879
   5 N :    0.038536
   6 C :   -0.231258
   7 C :   -0.163916
   8 N :    0.091829
   9 H :    0.112728
  10 H :    0.121239
  11 H :    0.125009
  12 H :    0.191816
  13 H :    0.147302

  Mayer bond orders larger than 0.1
B(  0-C ,  1-N ) :   0.8956 B(  0-C ,  9-H ) :   0.9323 B(  0-C , 10-H ) :   0.9330
B(  0-C , 11-H ) :   0.9337 B(  1-N ,  2-C ) :   1.1337 B(  1-N , 12-H ) :   0.8684
B(  2-C ,  3-C ) :   1.3409 B(  2-C ,  6-C ) :   1.2152 B(  3-C ,  4-O ) :   1.0684
B(  3-C ,  5-N ) :   0.1052 B(  3-C ,  7-C ) :   0.9167 B(  4-O ,  5-N ) :   0.9161
B(  5-N ,  6-C ) :   1.5600 B(  6-C , 13-H ) :   0.9244 B(  7-C ,  8-N ) :   2.8246

MP2 TOTAL ENERGY:     -432.127514198 Eh
FINAL SINGLE POINT ENERGY      -432.127514197942

DIPOLE MOMENT
-------------
                                X             Y             Z
Electronic contribution:      1.47642      -9.40718      -3.03047
Nuclear contribution   :     -1.67173      11.45895       3.58912
                        -----------------------------------------
Total Dipole Moment    :     -0.19532       2.05176       0.55865
                        -----------------------------------------
Magnitude (a.u.)       :      2.13541
Magnitude (Debye)      :      5.42778

                             ****ORCA TERMINATED NORMALLY****
TOTAL RUN TIME: 0 days 0 hours 16 minutes 0 seconds 946 msec
