                         Program Version 3.0.3 - RELEASE   -
|  1> ! RI-MP2 RIJK def2-TZVP def2-TZVP/C def2-TZVP/JK TIGHTSCF
|  2> % maxcore 2000
|  3> % mp2 density relaxed end
|  4> *xyz 0 1
|  5>  O        0.4585158568     1.1914320391     0.4678532253
|  6>  C        0.0808385287    -0.1186646516     0.1311425794
|  7>  C       -0.8832199495    -0.8307261035     1.0699742095
|  8>  C       -1.3754311165    -0.2578961453    -0.2334778176
|  9>  C        1.0722439362    -0.8942252982    -0.5658925242
| 10>  C        1.9398272891    -1.5252862410    -1.1179562599
| 11>  C        2.9372181370    -2.2891967827    -1.8128637757
| 12>  C        4.3725195656    -1.9516675852    -1.7315925766
| 13>  O        3.8564555240    -3.0715663595    -1.0268766597
| 14>  H        1.2135345797     1.1318996002     1.0643264984
| 15>  H       -0.7986694611    -1.9062628349     1.1697660556
| 16>  H       -1.1294039015    -0.2920465545     1.9779004666
| 17>  H       -1.9465575351     0.6623487230    -0.1954022301
| 18>  H       -1.6341100814    -0.9353359667    -1.0378121648
| 19>  H        2.5932692060    -2.7992923559    -2.7121351664
| 20>  H        5.0181405199    -2.1786343123    -2.5792331962
| 21>  H        4.6797883722    -1.1079468209    -1.1165465234
| 22> *
| 23>
| 24>                          ****END OF INPUT****

CARTESIAN COORDINATES (ANGSTROEM)
---------------------------------
  O      0.458516    1.191432    0.467853
  C      0.080839   -0.118665    0.131143
  C     -0.883220   -0.830726    1.069974
  C     -1.375431   -0.257896   -0.233478
  C      1.072244   -0.894225   -0.565893
  C      1.939827   -1.525286   -1.117956
  C      2.937218   -2.289197   -1.812864
  C      4.372520   -1.951668   -1.731593
  O      3.856456   -3.071566   -1.026877
  H      1.213535    1.131900    1.064326
  H     -0.798669   -1.906263    1.169766
  H     -1.129404   -0.292047    1.977900
  H     -1.946558    0.662349   -0.195402
  H     -1.634110   -0.935336   -1.037812
  H      2.593269   -2.799292   -2.712135
  H      5.018141   -2.178634   -2.579233
  H      4.679788   -1.107947   -1.116547

 Total Charge           Charge          ....    0
 Multiplicity           Mult            ....    1
 Number of Electrons    NEL             ....   66
 Basis Dimension        Dim             ....  327

ORBITAL ENERGIES
----------------

  NO   OCC          E(Eh)            E(eV)
   0   2.0000     -20.581191      -560.0427
   1   2.0000     -20.573031      -559.8206
   2   2.0000     -11.316960      -307.9501
   3   2.0000     -11.316612      -307.9407
   4   2.0000     -11.297430      -307.4187
   5   2.0000     -11.241079      -305.8853
   6   2.0000     -11.240473      -305.8688
   7   2.0000     -11.239675      -305.8471
   8   2.0000     -11.235873      -305.7436
   9   2.0000      -1.423410       -38.7330
  10   2.0000      -1.384675       -37.6789
  11   2.0000      -1.147725       -31.2312
  12   2.0000      -1.053830       -28.6762
  13   2.0000      -0.954249       -25.9664
  14   2.0000      -0.897686       -24.4273
  15   2.0000      -0.847727       -23.0678
  16   2.0000      -0.840120       -22.8608
  17   2.0000      -0.749944       -20.4070
  18   2.0000      -0.727199       -19.7881
  19   2.0000      -0.684703       -18.6317
  20   2.0000      -0.669188       -18.2095
  21   2.0000      -0.634668       -17.2702
  22   2.0000      -0.588034       -16.0012
  23   2.0000      -0.578941       -15.7538
  24   2.0000      -0.568003       -15.4561
  25   2.0000      -0.537667       -14.6306
  26   2.0000      -0.530776       -14.4431
  27   2.0000      -0.490993       -13.3606
  28   2.0000      -0.467784       -12.7291
  29   2.0000      -0.463614       -12.6156
  30   2.0000      -0.437560       -11.9066
  31   2.0000      -0.382264       -10.4019
  32   2.0000      -0.359876        -9.7927
  33   0.0000       0.140118         3.8128
  34   0.0000       0.146924         3.9980
  35   0.0000       0.153746         4.1836
  36   0.0000       0.168710         4.5908
  37   0.0000       0.174000         4.7348

MULLIKEN ATOMIC CHARGES
-----------------------
   0 O :   -0.462897
   1 C :    0.165005
   2 C :   -0.276313
   3 C :   -0.253267
   4 C :   -0.008903
   5 C :    0.039324
   6 C :   -0.144515
   7 C :   -0.028819
   8 O :   -0.308148
   9 H :    0.326147
  10 H :    0.140695
  11 H :    0.137029
  12 H :    0.142431
  13 H :    0.143088
  14 H :    0.145034
  15 H :    0.119280
  16 H :    0.124828
Sum of atomic charges:   -0.0000000

LOEWDIN ATOMIC CHARGES
----------------------
   0 O :    0.033133
   1 C :   -0.358972
   2 C :   -0.193630
   3 C :   -0.184104
   4 C :   -0.019965
   5 C :   -0.044942
   6 C :   -0.277466
   7 C :   -0.250362
   8 O :    0.156174
   9 H :    0.185343
  10 H :    0.137722
  11 H :    0.138101
  12 H :    0.142896
  13 H :    0.138825
  14 H :    0.152694
  15 H :    0.120342
  16 H :    0.124210

  Mayer bond orders larger than 0.1
B(  0-O ,  1-C ) :   0.9281 B(  0-O ,  9-H ) :   0.8371 B(  1-C ,  2-C ) :   0.8620
B(  1-C ,  3-C ) :   0.8575 B(  1-C ,  4-C ) :   1.0605 B(  2-C ,  3-C ) :   0.9210
B(  2-C , 10-H ) :   0.9177 B(  2-C , 11-H ) :   0.9235 B(  3-C , 12-H ) :   0.9224
B(  3-C , 13-H ) :   0.9303 B(  4-C ,  5-C ) :   2.6107 B(  4-C ,  6-C ) :  -0.1297
B(  5-C ,  6-C ) :   1.0456 B(  6-C ,  7-C ) :   0.9796 B(  6-C ,  8-O ) :   0.9704
B(  6-C , 14-H ) :   0.9338 B(  7-C ,  8-O ) :   0.9044 B(  7-C , 15-H ) :   0.9162
B(  7-C , 16-H ) :   0.9183

MP2 TOTAL ENERGY:     -421.030675965 Eh
FINAL SINGLE POINT ENERGY      -421.030675965085

DIPOLE MOMENT
-------------
                                X             Y             Z
Electronic contribution:      3.09223      -0.87754      -0.75093
Nuclear contribution   :     -3.05139       1.02197       0.63349
                        -----------------------------------------
Total Dipole Moment    :      0.04084       0.14442      -0.11744
                        -----------------------------------------
Magnitude (a.u.)       :      0.19057
Magnitude (Debye)      :      0.48440

                             ****ORCA TERMINATED NORMALLY****
TOTAL RUN TIME: 0 days 0 hours 13 minutes 26 seconds 46 msec
