                         Program Version 3.0.3 - RELEASE   -
|  1> ! RI-MP2 RIJK def2-TZVP def2-TZVP/C def2-TZVP/JK TIGHTSCF
|  2> % maxcore 2000
|  3> % mp2 density relaxed end
|  4> *xyz 0 1
|  5>  C        0.0077325193     1.2916895865     0.0946634422
|  6>  N       -0.0743334402    -0.1247551902    -0.1668060814
|  7>  C        0.5135608976    -0.6982570731    -1.2528504780
|  8>  C        0.3748344820    -2.2028372660    -1.2282335192
|  9>  O       -0.1525303650    -2.7875670198    -0.3103488258
| 10>  N        1.1047948451     0.0147407442    -2.1410917807
| 11>  C        1.7183727705    -0.5183159506    -3.3456382651
| 12>  C        1.1361073736     0.2322666944    -4.5521074190
| 13>  C        3.2382695531    -0.3162024005    -3.2524025430
| 14>  H        1.0450765143     1.6211884249     0.2382978952
| 15>  H       -0.3985928024     1.8615787348    -0.7475164421
| 16>  H       -0.5684275985     1.5215338074     0.9930928924
| 17>  H       -0.4184110080    -0.7619264489     0.5325134210
| 18>  H        0.7947248490    -2.7534289508    -2.0862146476
| 19>  H        1.5307443446    -1.5909128686    -3.5042208148
| 20>  H        1.3100433161     1.3074133545    -4.4454606823
| 21>  H        1.6008079915    -0.1093083305    -5.4828810805
| 22>  H        0.0565256053     0.0709818688    -4.6257818842
| 23>  H        3.6563725435    -0.8806483056    -2.4132069481
| 24>  H        3.7315313654    -0.6482735040    -4.1717919672
| 25>  H        3.4670931632     0.7422552631    -3.0941818719
| 26> *
| 27>
| 28>                          ****END OF INPUT****

CARTESIAN COORDINATES (ANGSTROEM)
---------------------------------
  C      0.007733    1.291690    0.094663
  N     -0.074333   -0.124755   -0.166806
  C      0.513561   -0.698257   -1.252850
  C      0.374834   -2.202837   -1.228234
  O     -0.152530   -2.787567   -0.310349
  N      1.104795    0.014741   -2.141092
  C      1.718373   -0.518316   -3.345638
  C      1.136107    0.232267   -4.552107
  C      3.238270   -0.316202   -3.252403
  H      1.045077    1.621188    0.238298
  H     -0.398593    1.861579   -0.747516
  H     -0.568428    1.521534    0.993093
  H     -0.418411   -0.761926    0.532513
  H      0.794725   -2.753429   -2.086215
  H      1.530744   -1.590913   -3.504221
  H      1.310043    1.307413   -4.445461
  H      1.600808   -0.109308   -5.482881
  H      0.056526    0.070982   -4.625782
  H      3.656373   -0.880648   -2.413207
  H      3.731531   -0.648274   -4.171792
  H      3.467093    0.742255   -3.094182

 Total Charge           Charge          ....    0
 Multiplicity           Mult            ....    1
 Number of Electrons    NEL             ....   70
 Basis Dimension        Dim             ....  351

ORBITAL ENERGIES
----------------

  NO   OCC          E(Eh)            E(eV)
   0   2.0000     -20.584268      -560.1264
   1   2.0000     -15.569171      -423.6587
   2   2.0000     -15.542887      -422.9435
   3   2.0000     -11.353388      -308.9414
   4   2.0000     -11.321396      -308.0708
   5   2.0000     -11.262252      -306.4615
   6   2.0000     -11.253645      -306.2272
   7   2.0000     -11.213330      -305.1302
   8   2.0000     -11.211354      -305.0764
   9   2.0000      -1.421267       -38.6746
  10   2.0000      -1.278194       -34.7814
  11   2.0000      -1.185797       -32.2672
  12   2.0000      -1.044233       -28.4150
  13   2.0000      -0.962420       -26.1888
  14   2.0000      -0.930526       -25.3209
  15   2.0000      -0.891416       -24.2567
  16   2.0000      -0.827684       -22.5224
  17   2.0000      -0.744452       -20.2576
  18   2.0000      -0.726171       -19.7601
  19   2.0000      -0.695133       -18.9155
  20   2.0000      -0.651741       -17.7348
  21   2.0000      -0.620457       -16.8835
  22   2.0000      -0.602675       -16.3996
  23   2.0000      -0.599968       -16.3260
  24   2.0000      -0.573941       -15.6177
  25   2.0000      -0.556502       -15.1432
  26   2.0000      -0.551219       -14.9994
  27   2.0000      -0.536186       -14.5904
  28   2.0000      -0.523532       -14.2460
  29   2.0000      -0.496079       -13.4990
  30   2.0000      -0.492923       -13.4131
  31   2.0000      -0.478760       -13.0277
  32   2.0000      -0.461083       -12.5467
  33   2.0000      -0.390829       -10.6350
  34   2.0000      -0.341781        -9.3003
  35   0.0000       0.073349         1.9959
  36   0.0000       0.135857         3.6969
  37   0.0000       0.150491         4.0951
  38   0.0000       0.169993         4.6258
  39   0.0000       0.180206         4.9036

MULLIKEN ATOMIC CHARGES
-----------------------
   0 C :   -0.259060
   1 N :   -0.324551
   2 C :    0.168981
   3 C :    0.108802
   4 O :   -0.282480
   5 N :   -0.279358
   6 C :    0.031827
   7 C :   -0.360975
   8 C :   -0.362241
   9 H :    0.132254
  10 H :    0.140635
  11 H :    0.133833
  12 H :    0.255424
  13 H :    0.111085
  14 H :    0.047401
  15 H :    0.127445
  16 H :    0.118183
  17 H :    0.122924
  18 H :    0.120282
  19 H :    0.120865
  20 H :    0.128725
Sum of atomic charges:    0.0000000

LOEWDIN ATOMIC CHARGES
----------------------
   0 C :   -0.321195
   1 N :    0.085606
   2 C :   -0.368077
   3 C :   -0.246297
   4 O :    0.134372
   5 N :    0.132288
   6 C :   -0.356090
   7 C :   -0.294609
   8 C :   -0.294290
   9 H :    0.115782
  10 H :    0.120731
  11 H :    0.117890
  12 H :    0.188066
  13 H :    0.120248
  14 H :    0.129729
  15 H :    0.125347
  16 H :    0.121436
  17 H :    0.120889
  18 H :    0.119867
  19 H :    0.122307
  20 H :    0.125999

  Mayer bond orders larger than 0.1
B(  0-C ,  1-N ) :   0.8811 B(  0-C ,  9-H ) :   0.9360 B(  0-C , 10-H ) :   0.9332
B(  0-C , 11-H ) :   0.9298 B(  1-N ,  2-C ) :   1.1675 B(  1-N , 12-H ) :   0.8567
B(  2-C ,  3-C ) :   0.8757 B(  2-C ,  5-N ) :   1.6824 B(  3-C ,  4-O ) :   1.9156
B(  3-C , 13-H ) :   0.9542 B(  5-N ,  6-C ) :   0.9041 B(  6-C ,  7-C ) :   0.9175
B(  6-C ,  8-C ) :   0.9129 B(  6-C , 14-H ) :   0.9208 B(  7-C , 15-H ) :   0.9352
B(  7-C , 16-H ) :   0.9320 B(  7-C , 17-H ) :   0.9352 B(  8-C , 18-H ) :   0.9333
B(  8-C , 19-H ) :   0.9319 B(  8-C , 20-H ) :   0.9344

MP2 TOTAL ENERGY:     -419.706804399 Eh
FINAL SINGLE POINT ENERGY      -419.706804399099

DIPOLE MOMENT
-------------
                                X             Y             Z
Electronic contribution:     -4.88493      -6.53957       6.81801
Nuclear contribution   :      4.98507       6.68181      -6.89086
                        -----------------------------------------
Total Dipole Moment    :      0.10013       0.14224      -0.07285
                        -----------------------------------------
Magnitude (a.u.)       :      0.18859
Magnitude (Debye)      :      0.47935

                             ****ORCA TERMINATED NORMALLY****
TOTAL RUN TIME: 0 days 0 hours 18 minutes 12 seconds 93 msec
