                         Program Version 3.0.3 - RELEASE   -
|  1> ! RI-MP2 RIJK def2-TZVP def2-TZVP/C def2-TZVP/JK TIGHTSCF
|  2> % maxcore 2000
|  3> % mp2 density relaxed end
|  4> *xyz 0 1
|  5>  C        0.2830511197     1.6462606592    -0.2200796263
|  6>  C        0.1145144021     0.2054153391    -0.0975490787
|  7>  C       -0.0470342558    -0.9840167685     0.0188510805
|  8>  C       -0.1250089312    -2.4192331428     0.0835654448
|  9>  C       -0.4228499824    -3.3296887460     1.2617075448
| 10>  C       -1.6896422220    -2.9672721651     2.0577443550
| 11>  C       -2.4639223753    -1.8121993535     1.5593163622
| 12>  N       -2.5662993206    -3.1003886721     0.8389916968
| 13>  C       -1.3105219074    -3.3763307973     0.0429601029
| 14>  H        1.3221330261     1.9429014422    -0.0382694256
| 15>  H        0.0096871302     1.9962699520    -1.2218511507
| 16>  H       -0.3441653164     2.1834074450     0.5003115084
| 17>  H        0.6685652730    -2.8788432096    -0.5080722841
| 18>  H        0.3024229345    -4.0499339548     1.6176275171
| 19>  H       -1.9467755581    -3.4919911529     2.9722804356
| 20>  H       -3.3839448981    -1.5895877747     2.0939599865
| 21>  H       -1.9859788131    -0.9600899167     1.0979719022
| 22>  H       -1.3971424149    -4.1125343136    -0.7467308914
| 23> *
| 24>
| 25>                          ****END OF INPUT****

CARTESIAN COORDINATES (ANGSTROEM)
---------------------------------
  C      0.283051    1.646261   -0.220080
  C      0.114514    0.205415   -0.097549
  C     -0.047034   -0.984017    0.018851
  C     -0.125009   -2.419233    0.083565
  C     -0.422850   -3.329689    1.261708
  C     -1.689642   -2.967272    2.057744
  C     -2.463922   -1.812199    1.559316
  N     -2.566299   -3.100389    0.838992
  C     -1.310522   -3.376331    0.042960
  H      1.322133    1.942901   -0.038269
  H      0.009687    1.996270   -1.221851
  H     -0.344165    2.183407    0.500312
  H      0.668565   -2.878843   -0.508072
  H      0.302423   -4.049934    1.617628
  H     -1.946776   -3.491991    2.972280
  H     -3.383945   -1.589588    2.093960
  H     -1.985979   -0.960090    1.097972
  H     -1.397142   -4.112534   -0.746731

 Total Charge           Charge          ....    0
 Multiplicity           Mult            ....    1
 Number of Electrons    NEL             ....   64
 Basis Dimension        Dim             ....  333

ORBITAL ENERGIES
----------------

  NO   OCC          E(Eh)            E(eV)
   0   2.0000     -15.560214      -423.4149
   1   2.0000     -11.273459      -306.7664
   2   2.0000     -11.267545      -306.6055
   3   2.0000     -11.267006      -306.5908
   4   2.0000     -11.254163      -306.2413
   5   2.0000     -11.249150      -306.1049
   6   2.0000     -11.248302      -306.0818
   7   2.0000     -11.226128      -305.4785
   8   2.0000     -11.222008      -305.3664
   9   2.0000      -1.301836       -35.4248
  10   2.0000      -1.125658       -30.6307
  11   2.0000      -1.055781       -28.7293
  12   2.0000      -0.972057       -26.4510
  13   2.0000      -0.919096       -25.0099
  14   2.0000      -0.889815       -24.2131
  15   2.0000      -0.804245       -21.8846
  16   2.0000      -0.741498       -20.1772
  17   2.0000      -0.717878       -19.5345
  18   2.0000      -0.689047       -18.7499
  19   2.0000      -0.628529       -17.1032
  20   2.0000      -0.603062       -16.4102
  21   2.0000      -0.588519       -16.0144
  22   2.0000      -0.588091       -16.0028
  23   2.0000      -0.572303       -15.5732
  24   2.0000      -0.555746       -15.1226
  25   2.0000      -0.501367       -13.6429
  26   2.0000      -0.490526       -13.3479
  27   2.0000      -0.465467       -12.6660
  28   2.0000      -0.410271       -11.1640
  29   2.0000      -0.375660       -10.2222
  30   2.0000      -0.346123        -9.4185
  31   2.0000      -0.339988        -9.2516
  32   0.0000       0.137324         3.7368
  33   0.0000       0.146732         3.9928
  34   0.0000       0.168025         4.5722
  35   0.0000       0.174927         4.7600
  36   0.0000       0.184351         5.0165

MULLIKEN ATOMIC CHARGES
-----------------------
   0 C :   -0.482517
   1 C :    0.038513
   2 C :    0.091551
   3 C :   -0.378281
   4 C :   -0.118584
   5 C :   -0.060105
   6 C :   -0.165948
   7 N :   -0.247299
   8 C :   -0.000527
   9 H :    0.162956
  10 H :    0.163897
  11 H :    0.160473
  12 H :    0.132720
  13 H :    0.143536
  14 H :    0.136948
  15 H :    0.126391
  16 H :    0.157955
  17 H :    0.138321
Sum of atomic charges:    0.0000000

LOEWDIN ATOMIC CHARGES
----------------------
   0 C :   -0.296203
   1 C :   -0.101440
   2 C :   -0.083062
   3 C :   -0.182514
   4 C :   -0.148304
   5 C :   -0.196168
   6 C :   -0.232318
   7 N :    0.118014
   8 C :   -0.172505
   9 H :    0.141239
  10 H :    0.141165
  11 H :    0.140702
  12 H :    0.184484
  13 H :    0.140501
  14 H :    0.136306
  15 H :    0.134781
  16 H :    0.138928
  17 H :    0.136393

  Mayer bond orders larger than 0.1
B(  0-C ,  1-C ) :   0.8663 B(  0-C ,  9-H ) :   0.9478 B(  0-C , 10-H ) :   0.9475
B(  0-C , 11-H ) :   0.9449 B(  1-C ,  2-C ) :   2.6807 B(  1-C ,  3-C ) :  -0.1327
B(  2-C ,  3-C ) :   1.0151 B(  3-C ,  4-C ) :   0.8793 B(  3-C ,  8-C ) :   0.9040
B(  3-C , 12-H ) :   0.9327 B(  4-C ,  5-C ) :   0.9440 B(  4-C ,  8-C ) :   0.8794
B(  4-C , 13-H ) :   0.9141 B(  5-C ,  6-C ) :   0.9690 B(  5-C ,  7-N ) :   0.8682
B(  5-C , 14-H ) :   0.9018 B(  6-C ,  7-N ) :   0.8892 B(  6-C , 15-H ) :   0.9259
B(  6-C , 16-H ) :   0.8876 B(  7-N ,  8-C ) :   0.9342 B(  8-C , 17-H ) :   0.9269

MP2 TOTAL ENERGY:     -364.011301341 Eh
FINAL SINGLE POINT ENERGY      -364.011301340591

DIPOLE MOMENT
-------------
                                X             Y             Z
Electronic contribution:     -0.93282      -4.31130      -0.01886
Nuclear contribution   :      1.50095       4.66481       0.16186
                        -----------------------------------------
Total Dipole Moment    :      0.56813       0.35351       0.14300
                        -----------------------------------------
Magnitude (a.u.)       :      0.68424
Magnitude (Debye)      :      1.73920

                             ****ORCA TERMINATED NORMALLY****
TOTAL RUN TIME: 0 days 0 hours 19 minutes 34 seconds 498 msec
