                         Program Version 3.0.3 - RELEASE   -
|  1> ! RI-MP2 RIJK def2-TZVP def2-TZVP/C def2-TZVP/JK TIGHTSCF
|  2> % maxcore 2000
|  3> % mp2 density relaxed end
|  4> *xyz 0 1
|  5>  C        0.0900250902     1.4903570237    -0.0420469395
|  6>  C        1.3526732628     0.6930966518     0.0104171922
|  7>  N        0.0055775389     0.0295558522    -0.0334400425
|  8>  C       -0.1888635441    -0.6210129590    -1.3737404618
|  9>  C        1.0828672628    -0.3044749131    -2.1076882734
| 10>  C        1.9185645676     0.3864074755    -1.3103388724
| 11>  O        3.0557544305     0.6684206137    -1.9950167793
| 12>  C        2.8169306576     0.1016589411    -3.2209966198
| 13>  N        1.6641700609    -0.4793256034    -3.3525720888
| 14>  H       -0.2882168859     1.9660509330     0.8594934690
| 15>  H       -0.1155162503     2.0254506175    -0.9673084597
| 16>  H        1.9285306973     0.5941308905     0.9251406091
| 17>  H       -0.3449247576    -1.6947150378    -1.2212285038
| 18>  H       -1.0906706665    -0.2202397049    -1.8485943220
| 19>  H        3.6130016656     0.1848861491    -3.9438559674
| 20> *
| 21>
| 22>                          ****END OF INPUT****

CARTESIAN COORDINATES (ANGSTROEM)
---------------------------------
  C      0.090025    1.490357   -0.042047
  C      1.352673    0.693097    0.010417
  N      0.005578    0.029556   -0.033440
  C     -0.188864   -0.621013   -1.373740
  C      1.082867   -0.304475   -2.107688
  C      1.918565    0.386407   -1.310339
  O      3.055754    0.668421   -1.995017
  C      2.816931    0.101659   -3.220997
  N      1.664170   -0.479326   -3.352572
  H     -0.288217    1.966051    0.859493
  H     -0.115516    2.025451   -0.967308
  H      1.928531    0.594131    0.925141
  H     -0.344925   -1.694715   -1.221229
  H     -1.090671   -0.220240   -1.848594
  H      3.613002    0.184886   -3.943856

 Total Charge           Charge          ....    0
 Multiplicity           Mult            ....    1
 Number of Electrons    NEL             ....   64
 Basis Dimension        Dim             ....  315

ORBITAL ENERGIES
----------------

  NO   OCC          E(Eh)            E(eV)
   0   2.0000     -20.647518      -561.8475
   1   2.0000     -15.577100      -423.8745
   2   2.0000     -15.576662      -423.8625
   3   2.0000     -11.341086      -308.6067
   4   2.0000     -11.289468      -307.2020
   5   2.0000     -11.284629      -307.0704
   6   2.0000     -11.272532      -306.7412
   7   2.0000     -11.269261      -306.6522
   8   2.0000     -11.254160      -306.2413
   9   2.0000      -1.490295       -40.5530
  10   2.0000      -1.294965       -35.2378
  11   2.0000      -1.240070       -33.7440
  12   2.0000      -1.058230       -28.7959
  13   2.0000      -1.006735       -27.3946
  14   2.0000      -0.880685       -23.9647
  15   2.0000      -0.849489       -23.1158
  16   2.0000      -0.820527       -22.3277
  17   2.0000      -0.786213       -21.3939
  18   2.0000      -0.721186       -19.6245
  19   2.0000      -0.681202       -18.5365
  20   2.0000      -0.657971       -17.9043
  21   2.0000      -0.637976       -17.3602
  22   2.0000      -0.616623       -16.7792
  23   2.0000      -0.593475       -16.1493
  24   2.0000      -0.570735       -15.5305
  25   2.0000      -0.539001       -14.6670
  26   2.0000      -0.491734       -13.3808
  27   2.0000      -0.472008       -12.8440
  28   2.0000      -0.460301       -12.5254
  29   2.0000      -0.452279       -12.3071
  30   2.0000      -0.407138       -11.0788
  31   2.0000      -0.320011        -8.7080
  32   0.0000       0.129958         3.5364
  33   0.0000       0.153262         4.1705
  34   0.0000       0.169613         4.6154
  35   0.0000       0.175403         4.7730
  36   0.0000       0.180127         4.9015

MULLIKEN ATOMIC CHARGES
-----------------------
   0 C :   -0.155193
   1 C :   -0.096689
   2 N :   -0.200257
   3 C :   -0.131068
   4 C :   -0.020279
   5 C :    0.120454
   6 O :   -0.212676
   7 C :    0.106512
   8 N :   -0.264717
   9 H :    0.134697
  10 H :    0.131533
  11 H :    0.149917
  12 H :    0.138601
  13 H :    0.141998
  14 H :    0.157168
Sum of atomic charges:   -0.0000000

LOEWDIN ATOMIC CHARGES
----------------------
   0 C :   -0.234076
   1 C :   -0.197361
   2 N :    0.127457
   3 C :   -0.215356
   4 C :   -0.231860
   5 C :   -0.233015
   6 O :    0.348667
   7 C :   -0.303680
   8 N :    0.121963
   9 H :    0.128718
  10 H :    0.131676
  11 H :    0.145644
  12 H :    0.138779
  13 H :    0.140028
  14 H :    0.132417

  Mayer bond orders larger than 0.1
B(  0-C ,  1-C ) :   0.9240 B(  0-C ,  2-N ) :   0.8764 B(  0-C ,  9-H ) :   0.9243
B(  0-C , 10-H ) :   0.9060 B(  1-C ,  2-N ) :   0.9319 B(  1-C ,  5-C ) :   1.0020
B(  1-C , 11-H ) :   0.8930 B(  2-N ,  3-C ) :   0.9220 B(  3-C ,  4-C ) :   0.9552
B(  3-C , 12-H ) :   0.9087 B(  3-C , 13-H ) :   0.9377 B(  4-C ,  5-C ) :   1.5019
B(  4-C ,  8-N ) :   1.2180 B(  5-C ,  6-O ) :   1.0443 B(  6-O ,  7-C ) :   1.0623
B(  7-C ,  8-N ) :   1.6350 B(  7-C , 14-H ) :   0.9294

MP2 TOTAL ENERGY:     -416.085634453 Eh
FINAL SINGLE POINT ENERGY      -416.085634452576

DIPOLE MOMENT
-------------
                                X             Y             Z
Electronic contribution:      4.10488      -0.82987      -2.37573
Nuclear contribution   :     -3.92493       1.37864       2.57562
                        -----------------------------------------
Total Dipole Moment    :      0.17996       0.54877       0.19989
                        -----------------------------------------
Magnitude (a.u.)       :      0.61114
Magnitude (Debye)      :      1.55339

                             ****ORCA TERMINATED NORMALLY****
TOTAL RUN TIME: 0 days 0 hours 16 minutes 1 seconds 866 msec
