                         Program Version 3.0.3 - RELEASE   -
|  1> ! RI-MP2 RIJK def2-TZVP def2-TZVP/C def2-TZVP/JK TIGHTSCF
|  2> % maxcore 2000
|  3> % mp2 density relaxed end
|  4> *xyz 0 1
|  5>  C       -0.1666587853     1.4547510893     0.0099803365
|  6>  N       -0.0029607692     0.0097042192     0.0906434902
|  7>  C        1.3207107159    -0.5311230160    -0.2185227861
|  8>  C        0.7942209626    -0.5527074462     1.1746100555
|  9>  C        1.4090169539     0.3079331208     2.2939573390
| 10>  O        1.7454707968    -0.5817688515     3.3538271470
| 11>  C        0.9899149870    -1.7607231879     3.2132665434
| 12>  C       -0.5059854816    -1.6528034745     3.1009331479
| 13>  C        0.3560186054    -1.8191074122     1.8561396502
| 14>  H        0.7307802977     2.0314349819     0.2881999523
| 15>  H       -0.4312175367     1.7211552083    -1.0181107014
| 16>  H       -0.9902186614     1.7672286170     0.6599594394
| 17>  H        1.3367813746    -1.4345524540    -0.8242177247
| 18>  H        2.1233362224     0.1741800128    -0.4360054571
| 19>  H        2.3189867514     0.8360386267     1.9967844070
| 20>  H        0.6832842199     1.0579578383     2.6430355444
| 21>  H        1.4591681930    -2.6025280857     3.7079421277
| 22>  H       -1.0903352446    -2.5129016603     3.4096966182
| 23>  H       -0.9848253965    -0.6968866522     3.2852656572
| 24>  H        0.2901717149    -2.7288947038     1.2726431935
| 25> *
| 26>
| 27>                          ****END OF INPUT****

CARTESIAN COORDINATES (ANGSTROEM)
---------------------------------
  C     -0.166659    1.454751    0.009980
  N     -0.002961    0.009704    0.090643
  C      1.320711   -0.531123   -0.218523
  C      0.794221   -0.552707    1.174610
  C      1.409017    0.307933    2.293957
  O      1.745471   -0.581769    3.353827
  C      0.989915   -1.760723    3.213267
  C     -0.505985   -1.652803    3.100933
  C      0.356019   -1.819107    1.856140
  H      0.730780    2.031435    0.288200
  H     -0.431218    1.721155   -1.018111
  H     -0.990219    1.767229    0.659959
  H      1.336781   -1.434552   -0.824218
  H      2.123336    0.174180   -0.436005
  H      2.318987    0.836039    1.996784
  H      0.683284    1.057958    2.643036
  H      1.459168   -2.602528    3.707942
  H     -1.090335   -2.512902    3.409697
  H     -0.984825   -0.696887    3.285266
  H      0.290172   -2.728895    1.272643

 Total Charge           Charge          ....    0
 Multiplicity           Mult            ....    1
 Number of Electrons    NEL             ....   68
 Basis Dimension        Dim             ....  345

ORBITAL ENERGIES
----------------

  NO   OCC          E(Eh)            E(eV)
   0   2.0000     -20.559467      -559.4515
   1   2.0000     -15.559693      -423.4008
   2   2.0000     -11.282375      -307.0090
   3   2.0000     -11.281663      -306.9897
   4   2.0000     -11.270581      -306.6881
   5   2.0000     -11.253815      -306.2319
   6   2.0000     -11.250285      -306.1358
   7   2.0000     -11.231664      -305.6291
   8   2.0000     -11.227438      -305.5141
   9   2.0000      -1.389038       -37.7976
  10   2.0000      -1.276454       -34.7341
  11   2.0000      -1.131500       -30.7897
  12   2.0000      -1.010481       -27.4966
  13   2.0000      -0.961367       -26.1601
  14   2.0000      -0.861489       -23.4423
  15   2.0000      -0.834242       -22.7009
  16   2.0000      -0.797282       -21.6951
  17   2.0000      -0.752665       -20.4810
  18   2.0000      -0.706298       -19.2193
  19   2.0000      -0.661264       -17.9939
  20   2.0000      -0.646107       -17.5815
  21   2.0000      -0.635137       -17.2830
  22   2.0000      -0.598209       -16.2781
  23   2.0000      -0.587071       -15.9750
  24   2.0000      -0.564536       -15.3618
  25   2.0000      -0.556247       -15.1363
  26   2.0000      -0.543365       -14.7857
  27   2.0000      -0.516220       -14.0471
  28   2.0000      -0.491022       -13.3614
  29   2.0000      -0.474912       -12.9230
  30   2.0000      -0.446361       -12.1461
  31   2.0000      -0.407447       -11.0872
  32   2.0000      -0.376942       -10.2571
  33   2.0000      -0.365523        -9.9464
  34   0.0000       0.137166         3.7325
  35   0.0000       0.157350         4.2817
  36   0.0000       0.165916         4.5148
  37   0.0000       0.180224         4.9041
  38   0.0000       0.188617         5.1325

MULLIKEN ATOMIC CHARGES
-----------------------
   0 C :   -0.317504
   1 N :   -0.244258
   2 C :   -0.212588
   3 C :    0.065693
   4 C :   -0.027722
   5 O :   -0.310343
   6 C :    0.051134
   7 C :   -0.293130
   8 C :   -0.099610
   9 H :    0.110610
  10 H :    0.144557
  11 H :    0.141237
  12 H :    0.122708
  13 H :    0.116155
  14 H :    0.120299
  15 H :    0.111180
  16 H :    0.126574
  17 H :    0.130367
  18 H :    0.133545
  19 H :    0.131096
Sum of atomic charges:    0.0000000

LOEWDIN ATOMIC CHARGES
----------------------
   0 C :   -0.330482
   1 N :    0.110607
   2 C :   -0.219871
   3 C :   -0.265233
   4 C :   -0.253656
   5 O :    0.182637
   6 C :   -0.271448
   7 C :   -0.200503
   8 C :   -0.165612
   9 H :    0.106826
  10 H :    0.120120
  11 H :    0.118430
  12 H :    0.126007
  13 H :    0.124794
  14 H :    0.129465
  15 H :    0.126448
  16 H :    0.137534
  17 H :    0.136914
  18 H :    0.138005
  19 H :    0.149019

  Mayer bond orders larger than 0.1
B(  0-C ,  1-N ) :   0.8782 B(  0-C ,  9-H ) :   0.9255 B(  0-C , 10-H ) :   0.9369
B(  0-C , 11-H ) :   0.9388 B(  1-N ,  2-C ) :   0.9469 B(  1-N ,  3-C ) :   0.8126
B(  2-C ,  3-C ) :   0.9208 B(  2-C , 12-H ) :   0.9060 B(  2-C , 13-H ) :   0.9186
B(  3-C ,  4-C ) :   0.9373 B(  3-C ,  8-C ) :   0.9112 B(  4-C ,  5-O ) :   0.9387
B(  4-C , 14-H ) :   0.9151 B(  4-C , 15-H ) :   0.9278 B(  5-O ,  6-C ) :   0.9642
B(  6-C ,  7-C ) :   0.8804 B(  6-C ,  8-C ) :   0.8901 B(  6-C , 16-H ) :   0.9396
B(  7-C ,  8-C ) :   0.8587 B(  7-C , 17-H ) :   0.9210 B(  7-C , 18-H ) :   0.9116
B(  8-C , 19-H ) :   0.9204

MP2 TOTAL ENERGY:     -402.400545819 Eh
FINAL SINGLE POINT ENERGY      -402.400545818696

DIPOLE MOMENT
-------------
                                X             Y             Z
Electronic contribution:      1.80934      -3.10311       2.71005
Nuclear contribution   :     -1.78651       3.22613      -3.01784
                        -----------------------------------------
Total Dipole Moment    :      0.02283       0.12302      -0.30779
                        -----------------------------------------
Magnitude (a.u.)       :      0.33225
Magnitude (Debye)      :      0.84451

                             ****ORCA TERMINATED NORMALLY****
TOTAL RUN TIME: 0 days 0 hours 17 minutes 19 seconds 849 msec
