                         Program Version 3.0.3 - RELEASE   -
|  1> ! RI-MP2 RIJK def2-TZVP def2-TZVP/C def2-TZVP/JK TIGHTSCF
|  2> % maxcore 2000
|  3> % mp2 density relaxed end
|  4> *xyz 0 1
|  5>  C       -0.0855033767     1.5015756727     0.0515021198
|  6>  C       -0.0107343163    -0.0221277576    -0.0530610629
|  7>  C        0.8628609444    -0.5650884986    -1.1887332642
|  8>  N        1.9411790164    -1.0631437273    -0.1996436471
|  9>  C        1.0552173251    -0.6440080118     0.8685971318
| 10>  O        1.2323387503    -0.6892392379     2.0473067716
| 11>  C        1.1723425034    -2.0040517579    -1.1006575802
| 12>  C        0.2324148671    -3.0363147928    -0.5092413639
| 13>  C        2.0786877601    -2.5639138641    -2.1800720950
| 14>  H        0.9051805961     1.9554253173    -0.0516471581
| 15>  H       -0.7330158967     1.9139415923    -0.7285176815
| 16>  H       -0.4912064464     1.7927476292     1.0240415820
| 17>  H       -1.0112026171    -0.4570238861     0.0327484662
| 18>  H        1.1707819423     0.0332871875    -2.0403337178
| 19>  H       -0.4340553901    -2.6341658790     0.2552068664
| 20>  H       -0.3851038853    -3.4712253216    -1.3022387553
| 21>  H        0.8103630627    -3.8467472486    -0.0535090472
| 22>  H        2.6689263428    -3.3974950888    -1.7873197487
| 23>  H        1.4830720316    -2.9336688049    -3.0218206403
| 24>  H        2.7704468664    -1.8018354019    -2.5453306356
| 25> *
| 26>
| 27>                          ****END OF INPUT****

CARTESIAN COORDINATES (ANGSTROEM)
---------------------------------
  C     -0.085503    1.501576    0.051502
  C     -0.010734   -0.022128   -0.053061
  C      0.862861   -0.565088   -1.188733
  N      1.941179   -1.063144   -0.199644
  C      1.055217   -0.644008    0.868597
  O      1.232339   -0.689239    2.047307
  C      1.172343   -2.004052   -1.100658
  C      0.232415   -3.036315   -0.509241
  C      2.078688   -2.563914   -2.180072
  H      0.905181    1.955425   -0.051647
  H     -0.733016    1.913942   -0.728518
  H     -0.491206    1.792748    1.024042
  H     -1.011203   -0.457024    0.032748
  H      1.170782    0.033287   -2.040334
  H     -0.434055   -2.634166    0.255207
  H     -0.385104   -3.471225   -1.302239
  H      0.810363   -3.846747   -0.053509
  H      2.668926   -3.397495   -1.787320
  H      1.483072   -2.933669   -3.021821
  H      2.770447   -1.801835   -2.545331

 Total Charge           Charge          ....    0
 Multiplicity           Mult            ....    1
 Number of Electrons    NEL             ....   68
 Basis Dimension        Dim             ....  345

ORBITAL ENERGIES
----------------

  NO   OCC          E(Eh)            E(eV)
   0   2.0000     -20.548007      -559.1397
   1   2.0000     -15.575065      -423.8191
   2   2.0000     -11.352256      -308.9106
   3   2.0000     -11.298464      -307.4468
   4   2.0000     -11.280120      -306.9477
   5   2.0000     -11.260170      -306.4048
   6   2.0000     -11.237174      -305.7791
   7   2.0000     -11.237026      -305.7750
   8   2.0000     -11.231716      -305.6305
   9   2.0000      -1.404582       -38.2206
  10   2.0000      -1.302752       -35.4497
  11   2.0000      -1.078296       -29.3419
  12   2.0000      -1.033053       -28.1108
  13   2.0000      -0.963112       -26.2076
  14   2.0000      -0.909634       -24.7524
  15   2.0000      -0.892960       -24.2987
  16   2.0000      -0.770435       -20.9646
  17   2.0000      -0.707022       -19.2391
  18   2.0000      -0.672738       -18.3061
  19   2.0000      -0.666732       -18.1427
  20   2.0000      -0.655279       -17.8311
  21   2.0000      -0.617083       -16.7917
  22   2.0000      -0.580800       -15.8044
  23   2.0000      -0.575027       -15.6473
  24   2.0000      -0.559076       -15.2132
  25   2.0000      -0.552768       -15.0416
  26   2.0000      -0.550508       -14.9801
  27   2.0000      -0.541899       -14.7458
  28   2.0000      -0.521003       -14.1772
  29   2.0000      -0.510788       -13.8992
  30   2.0000      -0.482692       -13.1347
  31   2.0000      -0.437950       -11.9172
  32   2.0000      -0.419670       -11.4198
  33   2.0000      -0.383351       -10.4315
  34   0.0000       0.123109         3.3500
  35   0.0000       0.138549         3.7701
  36   0.0000       0.154444         4.2026
  37   0.0000       0.161898         4.4055
  38   0.0000       0.184816         5.0291

MULLIKEN ATOMIC CHARGES
-----------------------
   0 C :   -0.446485
   1 C :   -0.023047
   2 C :   -0.180346
   3 N :   -0.237249
   4 C :    0.134925
   5 O :   -0.241641
   6 C :    0.232771
   7 C :   -0.368761
   8 C :   -0.422976
   9 H :    0.146900
  10 H :    0.138790
  11 H :    0.154871
  12 H :    0.125127
  13 H :    0.138905
  14 H :    0.146276
  15 H :    0.137940
  16 H :    0.146647
  17 H :    0.140582
  18 H :    0.130873
  19 H :    0.145899
Sum of atomic charges:   -0.0000000

LOEWDIN ATOMIC CHARGES
----------------------
   0 C :   -0.278901
   1 C :   -0.218861
   2 C :   -0.144935
   3 N :    0.176480
   4 C :   -0.378629
   5 O :    0.168598
   6 C :   -0.297149
   7 C :   -0.256586
   8 C :   -0.255922
   9 H :    0.132122
  10 H :    0.126571
  11 H :    0.133444
  12 H :    0.153084
  13 H :    0.141768
  14 H :    0.132721
  15 H :    0.134308
  16 H :    0.136638
  17 H :    0.132427
  18 H :    0.129242
  19 H :    0.133579

  Mayer bond orders larger than 0.1
B(  0-C ,  1-C ) :   0.8737 B(  0-C ,  9-H ) :   0.9341 B(  0-C , 10-H ) :   0.9348
B(  0-C , 11-H ) :   0.9377 B(  1-C ,  2-C ) :   0.8957 B(  1-C ,  4-C ) :   0.8985
B(  1-C , 12-H ) :   0.8990 B(  2-C ,  3-N ) :   0.8435 B(  2-C ,  6-C ) :   0.9214
B(  2-C , 13-H ) :   0.8972 B(  3-N ,  4-C ) :   0.9850 B(  3-N ,  6-C ) :   0.7658
B(  4-C ,  5-O ) :   2.0746 B(  6-C ,  7-C ) :   0.9172 B(  6-C ,  8-C ) :   0.8850
B(  7-C , 14-H ) :   0.9253 B(  7-C , 15-H ) :   0.9267 B(  7-C , 16-H ) :   0.9345
B(  8-C , 17-H ) :   0.9386 B(  8-C , 18-H ) :   0.9344 B(  8-C , 19-H ) :   0.9335

MP2 TOTAL ENERGY:     -402.450954171 Eh
FINAL SINGLE POINT ENERGY      -402.450954170750

DIPOLE MOMENT
-------------
                                X             Y             Z
Electronic contribution:      2.45913       1.49030       5.78090
Nuclear contribution   :     -3.33575      -1.58089      -7.10205
                        -----------------------------------------
Total Dipole Moment    :     -0.87662      -0.09059      -1.32115
                        -----------------------------------------
Magnitude (a.u.)       :      1.58812
Magnitude (Debye)      :      4.03668

                             ****ORCA TERMINATED NORMALLY****
TOTAL RUN TIME: 0 days 0 hours 18 minutes 38 seconds 835 msec
