                         Program Version 3.0.3 - RELEASE   -
|  1> ! RI-MP2 RIJK def2-TZVP def2-TZVP/C def2-TZVP/JK TIGHTSCF
|  2> % maxcore 2000
|  3> % mp2 density relaxed end
|  4> *xyz 0 1
|  5>  O        0.2709437450     0.1498027000    -0.4550504317
|  6>  C        0.3341687108     1.3422136148    -0.4521391793
|  7>  O        0.8307779025     2.0437466170     0.5828966527
|  8>  C        0.8937716518     3.4709845388     0.4637029058
|  9>  C        2.3439140598     3.9331660321     0.3630444649
| 10>  C        2.4376087448     5.4467221963     0.2730658344
| 11>  C        3.7818371917     6.0745160953    -0.1571190108
| 12>  C        2.9644429714     6.6773345769    -1.3175795060
| 13>  O        1.7766289821     5.9639809807    -0.9093448971
| 14>  H       -0.0080114722     1.9902375497    -1.2834110086
| 15>  H        0.3296401260     3.8068798363    -0.4140857694
| 16>  H        0.4112186816     3.8811606869     1.3565871617
| 17>  H        2.9030019508     3.5822917809     1.2388040094
| 18>  H        2.8052994369     3.4852951167    -0.5250268126
| 19>  H        2.0107653023     5.9051273503     1.1779792821
| 20>  H        4.2262765334     6.7843219450     0.5413121376
| 21>  H        4.5370415599     5.3464575464    -0.4601188869
| 22>  H        2.8214279640     7.7639528135    -1.2697224856
| 23>  H        3.2766517174     6.4056797824    -2.3321345206
| 24> *
| 25>
| 26>                          ****END OF INPUT****

CARTESIAN COORDINATES (ANGSTROEM)
---------------------------------
  O      0.270944    0.149803   -0.455050
  C      0.334169    1.342214   -0.452139
  O      0.830778    2.043747    0.582897
  C      0.893772    3.470985    0.463703
  C      2.343914    3.933166    0.363044
  C      2.437609    5.446722    0.273066
  C      3.781837    6.074516   -0.157119
  C      2.964443    6.677335   -1.317580
  O      1.776629    5.963981   -0.909345
  H     -0.008011    1.990238   -1.283411
  H      0.329640    3.806880   -0.414086
  H      0.411219    3.881161    1.356587
  H      2.903002    3.582292    1.238804
  H      2.805299    3.485295   -0.525027
  H      2.010765    5.905127    1.177979
  H      4.226277    6.784322    0.541312
  H      4.537042    5.346458   -0.460119
  H      2.821428    7.763953   -1.269722
  H      3.276652    6.405680   -2.332135

 Total Charge           Charge          ....    0
 Multiplicity           Mult            ....    1
 Number of Electrons    NEL             ....   70
 Basis Dimension        Dim             ....  339

ORBITAL ENERGIES
----------------

  NO   OCC          E(Eh)            E(eV)
   0   2.0000     -20.605932      -560.7159
   1   2.0000     -20.559484      -559.4520
   2   2.0000     -20.546501      -559.0987
   3   2.0000     -11.379891      -309.6626
   4   2.0000     -11.303569      -307.5858
   5   2.0000     -11.299804      -307.4833
   6   2.0000     -11.290966      -307.2428
   7   2.0000     -11.243506      -305.9514
   8   2.0000     -11.242282      -305.9181
   9   2.0000      -1.459252       -39.7083
  10   2.0000      -1.390481       -37.8369
  11   2.0000      -1.369673       -37.2707
  12   2.0000      -1.077340       -29.3159
  13   2.0000      -1.022031       -27.8109
  14   2.0000      -0.948278       -25.8040
  15   2.0000      -0.869406       -23.6577
  16   2.0000      -0.840344       -22.8669
  17   2.0000      -0.775952       -21.1147
  18   2.0000      -0.725506       -19.7420
  19   2.0000      -0.700159       -19.0523
  20   2.0000      -0.682156       -18.5624
  21   2.0000      -0.672770       -18.3070
  22   2.0000      -0.651566       -17.7300
  23   2.0000      -0.623138       -16.9565
  24   2.0000      -0.603987       -16.4353
  25   2.0000      -0.567463       -15.4415
  26   2.0000      -0.559944       -15.2368
  27   2.0000      -0.545811       -14.8523
  28   2.0000      -0.534133       -14.5345
  29   2.0000      -0.514254       -13.9936
  30   2.0000      -0.484546       -13.1852
  31   2.0000      -0.473360       -12.8808
  32   2.0000      -0.455027       -12.3819
  33   2.0000      -0.446446       -12.1484
  34   2.0000      -0.425221       -11.5709
  35   0.0000       0.131619         3.5815
  36   0.0000       0.144040         3.9195
  37   0.0000       0.150161         4.0861
  38   0.0000       0.156217         4.2509
  39   0.0000       0.166119         4.5203

MULLIKEN ATOMIC CHARGES
-----------------------
   0 O :   -0.274682
   1 C :    0.197941
   2 O :   -0.205832
   3 C :   -0.102287
   4 C :   -0.211507
   5 C :    0.096480
   6 C :   -0.291914
   7 C :   -0.011222
   8 O :   -0.344061
   9 H :    0.074609
  10 H :    0.141078
  11 H :    0.127025
  12 H :    0.131849
  13 H :    0.115467
  14 H :    0.088972
  15 H :    0.134430
  16 H :    0.128825
  17 H :    0.100111
  18 H :    0.104720
Sum of atomic charges:    0.0000000

LOEWDIN ATOMIC CHARGES
----------------------
   0 O :    0.116685
   1 C :   -0.455564
   2 O :    0.244487
   3 C :   -0.288196
   4 C :   -0.255170
   5 C :   -0.283082
   6 C :   -0.226458
   7 C :   -0.270588
   8 O :    0.123933
   9 H :    0.102029
  10 H :    0.130051
  11 H :    0.132354
  12 H :    0.149160
  13 H :    0.144630
  14 H :    0.136714
  15 H :    0.130794
  16 H :    0.134388
  17 H :    0.117211
  18 H :    0.116620

  Mayer bond orders larger than 0.1
B(  0-O ,  1-C ) :   2.0194 B(  1-C ,  2-O ) :   1.0750 B(  1-C ,  9-H ) :   0.9147
B(  2-O ,  3-C ) :   0.8600 B(  3-C ,  4-C ) :   0.9280 B(  3-C , 10-H ) :   0.9464
B(  3-C , 11-H ) :   0.9271 B(  4-C ,  5-C ) :   0.9279 B(  4-C , 12-H ) :   0.9235
B(  4-C , 13-H ) :   0.9158 B(  5-C ,  6-C ) :   0.9111 B(  5-C ,  8-O ) :   0.9220
B(  5-C , 14-H ) :   0.9104 B(  6-C ,  7-C ) :   0.9745 B(  6-C , 15-H ) :   0.9298
B(  6-C , 16-H ) :   0.9302 B(  7-C ,  8-O ) :   0.9375 B(  7-C , 17-H ) :   0.9196
B(  7-C , 18-H ) :   0.9188

MP2 TOTAL ENERGY:     -459.423099859 Eh
FINAL SINGLE POINT ENERGY      -459.423099859186

DIPOLE MOMENT
-------------
                                X             Y             Z
Electronic contribution:     -4.95724      -7.81685       0.13802
Nuclear contribution   :      5.78029       9.57833      -0.09072
                        -----------------------------------------
Total Dipole Moment    :      0.82306       1.76148       0.04730
                        -----------------------------------------
Magnitude (a.u.)       :      1.94486
Magnitude (Debye)      :      4.94344

                             ****ORCA TERMINATED NORMALLY****
TOTAL RUN TIME: 0 days 0 hours 13 minutes 44 seconds 861 msec
