                         Program Version 3.0.3 - RELEASE   -
|  1> ! RI-MP2 RIJK def2-TZVP def2-TZVP/C def2-TZVP/JK TIGHTSCF
|  2> % maxcore 2000
|  3> % mp2 density relaxed end
|  4> *xyz 0 1
|  5>  C       -0.0612478322     1.5141738449     0.0144197430
|  6>  C        0.0752553172     0.0042208243    -0.0027269181
|  7>  O        1.1498455653    -0.5580488798    -0.0221052158
|  8>  C       -1.1737344576    -0.7333498594     0.0056126801
|  9>  C       -2.2170502230    -1.3415226905     0.0126298327
| 10>  C       -3.4552896567    -2.1066130310     0.0205568661
| 11>  C       -3.2323923367    -3.6307113638     0.0143448347
| 12>  C       -4.5476950919    -4.3992844383     0.0225614000
| 13>  O       -4.2369946098    -5.7814304517     0.0162917528
| 14>  H        0.9293117499     1.9713288368     0.0063564083
| 15>  H       -0.6370387330     1.8495403454    -0.8549765230
| 16>  H       -0.6143971264     1.8315673945     0.9050075634
| 17>  H       -4.0447320602    -1.8179510227     0.9017729183
| 18>  H       -4.0586411404    -1.8129612833    -0.8495406256
| 19>  H       -2.6549995502    -3.9172899835    -0.8700899316
| 20>  H       -2.6410750601    -3.9224305299     0.8878360775
| 21>  H       -5.1344781171    -4.1233086261     0.9150000711
| 22>  H       -5.1484208037    -4.1183851343    -0.8589967675
| 23>  H       -5.0605734834    -6.2776456217     0.0213370536
| 24> *
| 25>
| 26>                          ****END OF INPUT****

CARTESIAN COORDINATES (ANGSTROEM)
---------------------------------
  C     -0.061248    1.514174    0.014420
  C      0.075255    0.004221   -0.002727
  O      1.149846   -0.558049   -0.022105
  C     -1.173734   -0.733350    0.005613
  C     -2.217050   -1.341523    0.012630
  C     -3.455290   -2.106613    0.020557
  C     -3.232392   -3.630711    0.014345
  C     -4.547695   -4.399284    0.022561
  O     -4.236995   -5.781430    0.016292
  H      0.929312    1.971329    0.006356
  H     -0.637039    1.849540   -0.854977
  H     -0.614397    1.831567    0.905008
  H     -4.044732   -1.817951    0.901773
  H     -4.058641   -1.812961   -0.849541
  H     -2.655000   -3.917290   -0.870090
  H     -2.641075   -3.922431    0.887836
  H     -5.134478   -4.123309    0.915000
  H     -5.148421   -4.118385   -0.858997
  H     -5.060573   -6.277646    0.021337

 Total Charge           Charge          ....    0
 Multiplicity           Mult            ....    1
 Number of Electrons    NEL             ....   68
 Basis Dimension        Dim             ....  339

ORBITAL ENERGIES
----------------

  NO   OCC          E(Eh)            E(eV)
   0   2.0000     -20.564476      -559.5878
   1   2.0000     -20.551198      -559.2265
   2   2.0000     -11.352793      -308.9252
   3   2.0000     -11.287838      -307.1577
   4   2.0000     -11.268055      -306.6194
   5   2.0000     -11.258319      -306.3544
   6   2.0000     -11.238874      -305.8253
   7   2.0000     -11.236686      -305.7658
   8   2.0000     -11.234311      -305.7012
   9   2.0000      -1.392658       -37.8961
  10   2.0000      -1.369462       -37.2649
  11   2.0000      -1.106618       -30.1126
  12   2.0000      -1.051361       -28.6090
  13   2.0000      -1.007651       -27.4196
  14   2.0000      -0.947876       -25.7930
  15   2.0000      -0.844659       -22.9843
  16   2.0000      -0.824414       -22.4334
  17   2.0000      -0.710288       -19.3279
  18   2.0000      -0.685435       -18.6516
  19   2.0000      -0.674612       -18.3571
  20   2.0000      -0.656266       -17.8579
  21   2.0000      -0.629959       -17.1421
  22   2.0000      -0.612170       -16.6580
  23   2.0000      -0.603124       -16.4119
  24   2.0000      -0.572040       -15.5660
  25   2.0000      -0.564044       -15.3484
  26   2.0000      -0.547671       -14.9029
  27   2.0000      -0.517954       -14.0942
  28   2.0000      -0.509077       -13.8527
  29   2.0000      -0.496065       -13.4986
  30   2.0000      -0.454120       -12.3572
  31   2.0000      -0.437755       -11.9119
  32   2.0000      -0.396067       -10.7775
  33   2.0000      -0.394921       -10.7463
  34   0.0000       0.098625         2.6837
  35   0.0000       0.121443         3.3046
  36   0.0000       0.135671         3.6918
  37   0.0000       0.149994         4.0815
  38   0.0000       0.175384         4.7724

MULLIKEN ATOMIC CHARGES
-----------------------
   0 C :   -0.388764
   1 C :    0.123667
   2 O :   -0.273096
   3 C :    0.141189
   4 C :   -0.000074
   5 C :   -0.435641
   6 C :   -0.122218
   7 C :   -0.079971
   8 O :   -0.461082
   9 H :    0.151830
  10 H :    0.144177
  11 H :    0.144183
  12 H :    0.148613
  13 H :    0.148612
  14 H :    0.127415
  15 H :    0.127325
  16 H :    0.092958
  17 H :    0.092986
  18 H :    0.317892
Sum of atomic charges:   -0.0000000

LOEWDIN ATOMIC CHARGES
----------------------
   0 C :   -0.266130
   1 C :   -0.355161
   2 O :    0.164063
   3 C :   -0.035712
   4 C :   -0.035666
   5 C :   -0.246646
   6 C :   -0.249650
   7 C :   -0.354917
   8 O :   -0.045788
   9 H :    0.133276
  10 H :    0.139182
  11 H :    0.139187
  12 H :    0.159649
  13 H :    0.159710
  14 H :    0.146017
  15 H :    0.145995
  16 H :    0.114524
  17 H :    0.114530
  18 H :    0.173537

  Mayer bond orders larger than 0.1
B(  0-C ,  1-C ) :   1.0110 B(  0-C ,  3-C ) :  -0.1391 B(  0-C ,  9-H ) :   0.9380
B(  0-C , 10-H ) :   0.9098 B(  0-C , 11-H ) :   0.9098 B(  1-C ,  2-O ) :   2.0250
B(  1-C ,  3-C ) :   0.8530 B(  3-C ,  4-C ) :   2.7051 B(  3-C ,  5-C ) :  -0.1620
B(  4-C ,  5-C ) :   1.0750 B(  5-C ,  6-C ) :   0.9395 B(  5-C , 12-H ) :   0.9164
B(  5-C , 13-H ) :   0.9164 B(  6-C ,  7-C ) :   0.9310 B(  6-C , 14-H ) :   0.9215
B(  6-C , 15-H ) :   0.9215 B(  7-C ,  8-O ) :   1.0380 B(  7-C , 16-H ) :   0.9309
B(  7-C , 17-H ) :   0.9309 B(  8-O , 18-H ) :   0.8479

MP2 TOTAL ENERGY:     -422.295557401 Eh
FINAL SINGLE POINT ENERGY      -422.295557401104

DIPOLE MOMENT
-------------
                                X             Y             Z
Electronic contribution:      6.44547       0.90961      -0.07973
Nuclear contribution   :     -8.35045      -0.49672       0.10433
                        -----------------------------------------
Total Dipole Moment    :     -1.90499       0.41289       0.02460
                        -----------------------------------------
Magnitude (a.u.)       :      1.94938
Magnitude (Debye)      :      4.95492

                             ****ORCA TERMINATED NORMALLY****
TOTAL RUN TIME: 0 days 0 hours 13 minutes 14 seconds 801 msec
