                         Program Version 3.0.3 - RELEASE   -
|  1> ! RI-MP2 RIJK def2-TZVP def2-TZVP/C def2-TZVP/JK TIGHTSCF
|  2> % maxcore 2000
|  3> % mp2 density relaxed end
|  4> *xyz 0 1
|  5>  C       -0.0063909502    -1.2032336395    -0.0701579730
|  6>  C        0.0053665643    -0.0036393098     0.0182029432
|  7>  C        0.0332664722     1.4451368982     0.0868315351
|  8>  C       -0.3583932068     2.0865956813     1.4482384695
|  9>  C        0.6680445828     1.4545947926     2.4222938394
| 10>  C        1.6969780752     2.2841877209     1.6373454831
| 11>  C        0.6267429760     3.3533389314     1.3416600919
| 12>  O        1.0471631831     3.5218561430    -0.0160312545
| 13>  C        1.4377997155     2.1240372383     0.0860729270
| 14>  H       -0.0230974050    -2.2620091686    -0.1488242907
| 15>  H       -0.5417793918     1.8710603274    -0.7405224242
| 16>  H       -1.4169133068     2.1681986772     1.6854629375
| 17>  H        0.5637346697     1.8418255030     3.4398315586
| 18>  H        0.7453022004     0.3664310322     2.4416400580
| 19>  H        2.7099642932     2.5103891516     1.9638271718
| 20>  H        0.4196641625     4.2658552532     1.8979252518
| 21>  H        2.1843603856     1.8079763675    -0.6397016944
| 22> *
| 23>
| 24>                          ****END OF INPUT****

CARTESIAN COORDINATES (ANGSTROEM)
---------------------------------
  C     -0.006391   -1.203234   -0.070158
  C      0.005367   -0.003639    0.018203
  C      0.033266    1.445137    0.086832
  C     -0.358393    2.086596    1.448238
  C      0.668045    1.454595    2.422294
  C      1.696978    2.284188    1.637345
  C      0.626743    3.353339    1.341660
  O      1.047163    3.521856   -0.016031
  C      1.437800    2.124037    0.086073
  H     -0.023097   -2.262009   -0.148824
  H     -0.541779    1.871060   -0.740522
  H     -1.416913    2.168199    1.685463
  H      0.563735    1.841826    3.439832
  H      0.745302    0.366431    2.441640
  H      2.709964    2.510389    1.963827
  H      0.419664    4.265855    1.897925
  H      2.184360    1.807976   -0.639702

 Total Charge           Charge          ....    0
 Multiplicity           Mult            ....    1
 Number of Electrons    NEL             ....   64
 Basis Dimension        Dim             ....  327

ORBITAL ENERGIES
----------------

  NO   OCC          E(Eh)            E(eV)
   0   2.0000     -20.556138      -559.3610
   1   2.0000     -11.300059      -307.4902
   2   2.0000     -11.293946      -307.3239
   3   2.0000     -11.259160      -306.3773
   4   2.0000     -11.249277      -306.1084
   5   2.0000     -11.242700      -305.9294
   6   2.0000     -11.236781      -305.7683
   7   2.0000     -11.231879      -305.6350
   8   2.0000     -11.224744      -305.4408
   9   2.0000      -1.404252       -38.2117
  10   2.0000      -1.162225       -31.6257
  11   2.0000      -1.056274       -28.7427
  12   2.0000      -0.980987       -26.6940
  13   2.0000      -0.939537       -25.5661
  14   2.0000      -0.887953       -24.1624
  15   2.0000      -0.811452       -22.0807
  16   2.0000      -0.734100       -19.9759
  17   2.0000      -0.724036       -19.7020
  18   2.0000      -0.711500       -19.3609
  19   2.0000      -0.667756       -18.1706
  20   2.0000      -0.639130       -17.3916
  21   2.0000      -0.629987       -17.1428
  22   2.0000      -0.563095       -15.3226
  23   2.0000      -0.544809       -14.8250
  24   2.0000      -0.517854       -14.0915
  25   2.0000      -0.503657       -13.7052
  26   2.0000      -0.471951       -12.8424
  27   2.0000      -0.453742       -12.3470
  28   2.0000      -0.444339       -12.0911
  29   2.0000      -0.419490       -11.4149
  30   2.0000      -0.385778       -10.4976
  31   2.0000      -0.373286       -10.1576
  32   0.0000       0.145322         3.9544
  33   0.0000       0.160038         4.3549
  34   0.0000       0.163240         4.4420
  35   0.0000       0.168658         4.5894
  36   0.0000       0.174423         4.7463

MULLIKEN ATOMIC CHARGES
-----------------------
   0 C :   -0.163897
   1 C :   -0.052834
   2 C :   -0.199239
   3 C :   -0.031899
   4 C :   -0.267042
   5 C :   -0.139313
   6 C :   -0.021898
   7 O :   -0.312789
   8 C :    0.061923
   9 H :    0.189977
  10 H :    0.130795
  11 H :    0.139999
  12 H :    0.122350
  13 H :    0.139892
  14 H :    0.131383
  15 H :    0.130212
  16 H :    0.142382
Sum of atomic charges:   -0.0000000

LOEWDIN ATOMIC CHARGES
----------------------
   0 C :   -0.098438
   1 C :   -0.088318
   2 C :   -0.192265
   3 C :   -0.147654
   4 C :   -0.201998
   5 C :   -0.160645
   6 C :   -0.213482
   7 O :    0.168800
   8 C :   -0.182054
   9 H :    0.126855
  10 H :    0.174845
  11 H :    0.135123
  12 H :    0.141783
  13 H :    0.134799
  14 H :    0.135797
  15 H :    0.131386
  16 H :    0.135465

  Mayer bond orders larger than 0.1
B(  0-C ,  1-C ) :   2.6048 B(  0-C ,  9-H ) :   0.8921 B(  1-C ,  2-C ) :   1.1086
B(  2-C ,  3-C ) :   0.8784 B(  2-C ,  8-C ) :   0.8992 B(  2-C , 10-H ) :   0.9408
B(  3-C ,  4-C ) :   0.9202 B(  3-C ,  6-C ) :   0.8490 B(  3-C , 11-H ) :   0.9109
B(  4-C ,  5-C ) :   0.9387 B(  4-C , 12-H ) :   0.9251 B(  4-C , 13-H ) :   0.9109
B(  5-C ,  6-C ) :   0.9205 B(  5-C ,  8-C ) :   0.8933 B(  5-C , 14-H ) :   0.9195
B(  6-C ,  7-O ) :   0.9618 B(  6-C , 15-H ) :   0.9153 B(  7-O ,  8-C ) :   0.8986
B(  8-C , 16-H ) :   0.9071

MP2 TOTAL ENERGY:     -383.929719680 Eh
FINAL SINGLE POINT ENERGY      -383.929719679870

DIPOLE MOMENT
-------------
                                X             Y             Z
Electronic contribution:      0.08307       0.87098      -2.87502
Nuclear contribution   :     -0.05643      -1.15112       3.43869
                        -----------------------------------------
Total Dipole Moment    :      0.02664      -0.28014       0.56368
                        -----------------------------------------
Magnitude (a.u.)       :      0.63002
Magnitude (Debye)      :      1.60138

                             ****ORCA TERMINATED NORMALLY****
TOTAL RUN TIME: 0 days 0 hours 19 minutes 5 seconds 695 msec
