                         Program Version 3.0.3 - RELEASE   -
|  1> ! RI-MP2 RIJK def2-TZVP def2-TZVP/C def2-TZVP/JK TIGHTSCF
|  2> % maxcore 2000
|  3> % mp2 density relaxed end
|  4> *xyz 0 1
|  5>  O        0.0376738136     1.2719271883     0.0074397265
|  6>  C       -0.0555924696    -0.0557907790     0.0005930956
|  7>  N       -1.1443003228    -0.7548944602     0.0031530076
|  8>  C       -0.6541996143    -2.0557167604    -0.0067709813
|  9>  C        0.6956736487    -2.0542721313    -0.0146138850
| 10>  O        1.1294895826    -0.7488447977    -0.0100111566
| 11>  C        1.2535909191    -3.3889082649    -0.0253097761
| 12>  C        0.1948192951    -4.2334399815    -0.0239041314
| 13>  C       -1.1313753550    -3.4733004557    -0.0118930792
| 14>  H        0.9720548340     1.5125189467     0.0021862737
| 15>  H        2.3002188821    -3.6573677139    -0.0328758106
| 16>  H        0.2481067492    -5.3132807151    -0.0302012132
| 17>  H       -1.7317664999    -3.7322148866     0.8693961352
| 18>  H       -1.7420704928    -3.7223758385    -0.8889250054
| 19> *
| 20>
| 21>                          ****END OF INPUT****

CARTESIAN COORDINATES (ANGSTROEM)
---------------------------------
  O      0.037674    1.271927    0.007440
  C     -0.055592   -0.055791    0.000593
  N     -1.144300   -0.754894    0.003153
  C     -0.654200   -2.055717   -0.006771
  C      0.695674   -2.054272   -0.014614
  O      1.129490   -0.748845   -0.010011
  C      1.253591   -3.388908   -0.025310
  C      0.194819   -4.233440   -0.023904
  C     -1.131375   -3.473300   -0.011893
  H      0.972055    1.512519    0.002186
  H      2.300219   -3.657368   -0.032876
  H      0.248107   -5.313281   -0.030201
  H     -1.731766   -3.732215    0.869396
  H     -1.742070   -3.722376   -0.888925

 Total Charge           Charge          ....    0
 Multiplicity           Mult            ....    1
 Number of Electrons    NEL             ....   64
 Basis Dimension        Dim             ....  309

ORBITAL ENERGIES
----------------

  NO   OCC          E(Eh)            E(eV)
   0   2.0000     -20.647514      -561.8474
   1   2.0000     -20.627660      -561.3072
   2   2.0000     -15.560408      -423.4202
   3   2.0000     -11.403958      -310.3175
   4   2.0000     -11.279259      -306.9242
   5   2.0000     -11.253965      -306.2360
   6   2.0000     -11.252716      -306.2020
   7   2.0000     -11.247671      -306.0647
   8   2.0000     -11.241747      -305.9035
   9   2.0000      -1.511948       -41.1422
  10   2.0000      -1.428149       -38.8619
  11   2.0000      -1.242765       -33.8173
  12   2.0000      -1.151243       -31.3269
  13   2.0000      -0.971735       -26.4423
  14   2.0000      -0.969770       -26.3888
  15   2.0000      -0.845528       -23.0080
  16   2.0000      -0.823999       -22.4221
  17   2.0000      -0.778961       -21.1966
  18   2.0000      -0.729321       -19.8458
  19   2.0000      -0.695395       -18.9227
  20   2.0000      -0.691237       -18.8095
  21   2.0000      -0.640042       -17.4164
  22   2.0000      -0.606711       -16.5094
  23   2.0000      -0.586011       -15.9462
  24   2.0000      -0.583071       -15.8662
  25   2.0000      -0.577316       -15.7096
  26   2.0000      -0.534000       -14.5309
  27   2.0000      -0.518953       -14.1214
  28   2.0000      -0.455332       -12.3902
  29   2.0000      -0.451567       -12.2877
  30   2.0000      -0.416674       -11.3383
  31   2.0000      -0.284058        -7.7296
  32   0.0000       0.112639         3.0651
  33   0.0000       0.130847         3.5605
  34   0.0000       0.150669         4.0999
  35   0.0000       0.173604         4.7240
  36   0.0000       0.182222         4.9585

MULLIKEN ATOMIC CHARGES
-----------------------
   0 O :   -0.392501
   1 C :    0.376216
   2 N :   -0.271481
   3 C :   -0.010067
   4 C :    0.203450
   5 O :   -0.262652
   6 C :   -0.246765
   7 C :   -0.138746
   8 C :   -0.184595
   9 H :    0.350214
  10 H :    0.143731
  11 H :    0.140742
  12 H :    0.146230
  13 H :    0.146224
Sum of atomic charges:   -0.0000000

LOEWDIN ATOMIC CHARGES
----------------------
   0 O :    0.110917
   1 C :   -0.478364
   2 N :    0.128908
   3 C :   -0.215666
   4 C :   -0.225473
   5 O :    0.321528
   6 C :   -0.127934
   7 C :   -0.134195
   8 C :   -0.191891
   9 H :    0.208202
  10 H :    0.143698
  11 H :    0.136809
  12 H :    0.161732
  13 H :    0.161729

  Mayer bond orders larger than 0.1
B(  0-O ,  1-C ) :   1.1469 B(  0-O ,  9-H ) :   0.8131 B(  1-C ,  2-N ) :   1.6553
B(  1-C ,  5-O ) :   1.0650 B(  2-N ,  3-C ) :   1.1987 B(  3-C ,  4-C ) :   1.4703
B(  3-C ,  8-C ) :   1.0187 B(  4-C ,  5-O ) :   1.0013 B(  4-C ,  6-C ) :   1.0483
B(  6-C ,  7-C ) :   1.6744 B(  6-C , 10-H ) :   0.9230 B(  7-C ,  8-C ) :   0.9720
B(  7-C , 11-H ) :   0.9253 B(  8-C , 12-H ) :   0.8854 B(  8-C , 13-H ) :   0.8854

MP2 TOTAL ENERGY:     -435.986986793 Eh
FINAL SINGLE POINT ENERGY      -435.986986793482

DIPOLE MOMENT
-------------
                                X             Y             Z
Electronic contribution:      1.14880       5.84207       0.02587
Nuclear contribution   :     -0.18839      -6.28880      -0.03471
                        -----------------------------------------
Total Dipole Moment    :      0.96042      -0.44673      -0.00884
                        -----------------------------------------
Magnitude (a.u.)       :      1.05927
Magnitude (Debye)      :      2.69244

                             ****ORCA TERMINATED NORMALLY****
TOTAL RUN TIME: 0 days 0 hours 15 minutes 22 seconds 934 msec
