                         Program Version 3.0.3 - RELEASE   -
|  1> ! RI-MP2 RIJK def2-TZVP def2-TZVP/C def2-TZVP/JK TIGHTSCF
|  2> % maxcore 2000
|  3> % mp2 density relaxed end
|  4> *xyz 0 1
|  5>  N        0.0436301556     1.3330429776    -0.1036145927
|  6>  H        0.2333468283     0.3780619982    -0.4235899141
|  7>  H        0.9229613576     1.8448416939    -0.0023811104
|  8>  H       -0.5110292650     1.8288809363    -0.8049753558
|  9>  C       -0.7512039749     1.4382452305     1.3143746419
| 10>  C       -0.9393553673     2.7996342163     1.6234908428
| 11>  C       -0.9245762132     4.0280903027     1.5729563030
| 12>  C       -0.9088971654     5.3567962441     1.5187048383
| 13>  C       -0.8347548975     6.5749707956     1.3622415205
| 14>  C       -0.6963975077     8.0498106961     1.0859829786
| 15>  O       -1.1819329135     8.7931505144     1.9384962479
| 16>  O       -0.0970081977     8.2196266718     0.0119878118
| 17>  H       -1.6619271401     0.8600836913     1.1249633181
| 18>  H       -0.1038709392     0.8774348213     1.9970259803
| 19> *
| 20>
| 21>                          ****END OF INPUT****

CARTESIAN COORDINATES (ANGSTROEM)
---------------------------------
  N      0.043630    1.333043   -0.103615
  H      0.233347    0.378062   -0.423590
  H      0.922961    1.844842   -0.002381
  H     -0.511029    1.828881   -0.804975
  C     -0.751204    1.438245    1.314375
  C     -0.939355    2.799634    1.623491
  C     -0.924576    4.028090    1.572956
  C     -0.908897    5.356796    1.518705
  C     -0.834755    6.574971    1.362242
  C     -0.696398    8.049811    1.085983
  O     -1.181933    8.793151    1.938496
  O     -0.097008    8.219627    0.011988
  H     -1.661927    0.860084    1.124963
  H     -0.103871    0.877435    1.997026

 Total Charge           Charge          ....    0
 Multiplicity           Mult            ....    1
 Number of Electrons    NEL             ....   64
 Basis Dimension        Dim             ....  309

ORBITAL ENERGIES
----------------

  NO   OCC          E(Eh)            E(eV)
   0   2.0000     -20.430273      -555.9360
   1   2.0000     -20.430218      -555.9345
   2   2.0000     -15.786040      -429.5600
   3   2.0000     -11.416155      -310.6494
   4   2.0000     -11.320650      -308.0505
   5   2.0000     -11.293856      -307.3215
   6   2.0000     -11.276403      -306.8465
   7   2.0000     -11.266155      -306.5677
   8   2.0000     -11.227158      -305.5065
   9   2.0000      -1.390697       -37.8428
  10   2.0000      -1.319423       -35.9033
  11   2.0000      -1.223518       -33.2936
  12   2.0000      -1.144814       -31.1520
  13   2.0000      -1.076034       -29.2804
  14   2.0000      -1.001688       -27.2573
  15   2.0000      -0.877670       -23.8826
  16   2.0000      -0.859588       -23.3906
  17   2.0000      -0.851289       -23.1648
  18   2.0000      -0.764056       -20.7910
  19   2.0000      -0.741937       -20.1891
  20   2.0000      -0.712673       -19.3928
  21   2.0000      -0.700141       -19.0518
  22   2.0000      -0.588194       -16.0056
  23   2.0000      -0.545147       -14.8342
  24   2.0000      -0.524272       -14.2662
  25   2.0000      -0.504866       -13.7381
  26   2.0000      -0.489309       -13.3148
  27   2.0000      -0.386303       -10.5118
  28   2.0000      -0.355688        -9.6788
  29   2.0000      -0.354587        -9.6488
  30   2.0000      -0.333482        -9.0745
  31   2.0000      -0.329896        -8.9769
  32   0.0000       0.007796         0.2121
  33   0.0000       0.057660         1.5690
  34   0.0000       0.076594         2.0842
  35   0.0000       0.082456         2.2437
  36   0.0000       0.094331         2.5669

MULLIKEN ATOMIC CHARGES
-----------------------
   0 N :   -0.367692
   1 H :    0.312375
   2 H :    0.335047
   3 H :    0.335044
   4 C :   -0.219767
   5 C :   -0.164287
   6 C :    0.062443
   7 C :   -0.175135
   8 C :    0.048979
   9 C :    0.290503
  10 O :   -0.420151
  11 O :   -0.435748
  12 H :    0.199198
  13 H :    0.199193
Sum of atomic charges:   -0.0000000

LOEWDIN ATOMIC CHARGES
----------------------
   0 N :    0.123732
   1 H :    0.198293
   2 H :    0.212004
   3 H :    0.212003
   4 C :   -0.212788
   5 C :   -0.133070
   6 C :   -0.036984
   7 C :   -0.096092
   8 C :    0.119053
   9 C :   -0.719342
  10 O :    0.017470
  11 O :    0.004340
  12 H :    0.155690
  13 H :    0.155691

  Mayer bond orders larger than 0.1
B(  0-N ,  1-H ) :   0.8420 B(  0-N ,  2-H ) :   0.8405 B(  0-N ,  3-H ) :   0.8405
B(  0-N ,  4-C ) :   0.7290 B(  4-C ,  5-C ) :   1.0395 B(  4-C , 12-H ) :   0.9196
B(  4-C , 13-H ) :   0.9196 B(  5-C ,  6-C ) :   2.3169 B(  5-C ,  8-C ) :   0.1324
B(  6-C ,  7-C ) :   1.3787 B(  7-C ,  8-C ) :   2.4917 B(  8-C ,  9-C ) :   0.7746
B(  8-C , 11-O ) :   0.1037 B(  9-C , 10-O ) :   1.8068 B(  9-C , 11-O ) :   1.7265

MP2 TOTAL ENERGY:     -435.822990988 Eh
FINAL SINGLE POINT ENERGY      -435.822990988384

DIPOLE MOMENT
-------------
                                X             Y             Z
Electronic contribution:     -1.06659       8.92666       1.72927
Nuclear contribution   :      2.06629     -18.72343      -3.32187
                        -----------------------------------------
Total Dipole Moment    :      0.99970      -9.79677      -1.59260
                        -----------------------------------------
Magnitude (a.u.)       :      9.97559
Magnitude (Debye)      :     25.35594

                             ****ORCA TERMINATED NORMALLY****
TOTAL RUN TIME: 0 days 0 hours 10 minutes 43 seconds 725 msec
