                         Program Version 3.0.3 - RELEASE   -
|  1> ! RI-MP2 RIJK def2-TZVP def2-TZVP/C def2-TZVP/JK TIGHTSCF
|  2> % maxcore 2000
|  3> % mp2 density relaxed end
|  4> *xyz 0 1
|  5>  N        0.4698881213     0.7545467055    -0.8869913280
|  6>  C       -0.3519246475     0.7212369637     0.1902496079
|  7>  O       -0.2109928389     1.4238742856     1.1790680061
|  8>  C       -1.5142787832    -0.2905361478     0.0486990069
|  9>  O       -1.0785843273    -1.4541718472    -0.6507679801
| 10>  C       -2.0748852940    -0.6252295483     1.4116917712
| 11>  O       -1.0835318246    -1.1040601557     2.2843019947
| 12>  C       -3.2316770033     0.1470023348     1.9789499326
| 13>  C       -3.4128072715    -1.2878092938     1.5229920950
| 14>  H        1.3066463687     1.3127288712    -0.8372473215
| 15>  H        0.4060828209     0.0091572432    -1.5614340682
| 16>  H       -2.2877341282     0.1686033341    -0.5782119580
| 17>  H       -0.6227101741    -1.9971642044     0.0062500846
| 18>  H       -0.5447389845    -0.3284441605     2.5005686065
| 19>  H       -3.2063698621     0.3319023589     3.0465586497
| 20>  H       -3.6692536449     0.9450681215     1.3892379012
| 21>  H       -3.9680635180    -1.4845504055     0.6126508801
| 22>  H       -3.5080129889    -2.0463062054     2.2909366392
| 23> *
| 24>
| 25>                          ****END OF INPUT****

CARTESIAN COORDINATES (ANGSTROEM)
---------------------------------
  N      0.469888    0.754547   -0.886991
  C     -0.351925    0.721237    0.190250
  O     -0.210993    1.423874    1.179068
  C     -1.514279   -0.290536    0.048699
  O     -1.078584   -1.454172   -0.650768
  C     -2.074885   -0.625230    1.411692
  O     -1.083532   -1.104060    2.284302
  C     -3.231677    0.147002    1.978950
  C     -3.412807   -1.287809    1.522992
  H      1.306646    1.312729   -0.837247
  H      0.406083    0.009157   -1.561434
  H     -2.287734    0.168603   -0.578212
  H     -0.622710   -1.997164    0.006250
  H     -0.544739   -0.328444    2.500569
  H     -3.206370    0.331902    3.046559
  H     -3.669254    0.945068    1.389238
  H     -3.968064   -1.484550    0.612651
  H     -3.508013   -2.046306    2.290937

 Total Charge           Charge          ....    0
 Multiplicity           Mult            ....    1
 Number of Electrons    NEL             ....   70
 Basis Dimension        Dim             ....  333

ORBITAL ENERGIES
----------------

  NO   OCC          E(Eh)            E(eV)
   0   2.0000     -20.578341      -559.9651
   1   2.0000     -20.564590      -559.5909
   2   2.0000     -20.532541      -558.7188
   3   2.0000     -15.589400      -424.2092
   4   2.0000     -11.361049      -309.1499
   5   2.0000     -11.307675      -307.6975
   6   2.0000     -11.293476      -307.3111
   7   2.0000     -11.231317      -305.6197
   8   2.0000     -11.229977      -305.5832
   9   2.0000      -1.407482       -38.2995
  10   2.0000      -1.380698       -37.5707
  11   2.0000      -1.368793       -37.2468
  12   2.0000      -1.220604       -33.2143
  13   2.0000      -1.138470       -30.9794
  14   2.0000      -0.991352       -26.9761
  15   2.0000      -0.841315       -22.8933
  16   2.0000      -0.827869       -22.5275
  17   2.0000      -0.790003       -21.4971
  18   2.0000      -0.743879       -20.2420
  19   2.0000      -0.727085       -19.7850
  20   2.0000      -0.685096       -18.6424
  21   2.0000      -0.667166       -18.1545
  22   2.0000      -0.648813       -17.6551
  23   2.0000      -0.630292       -17.1511
  24   2.0000      -0.611346       -16.6356
  25   2.0000      -0.596652       -16.2357
  26   2.0000      -0.560749       -15.2587
  27   2.0000      -0.538518       -14.6538
  28   2.0000      -0.524650       -14.2764
  29   2.0000      -0.517922       -14.0934
  30   2.0000      -0.498567       -13.5667
  31   2.0000      -0.443407       -12.0657
  32   2.0000      -0.426622       -11.6090
  33   2.0000      -0.412612       -11.2277
  34   2.0000      -0.406229       -11.0540
  35   0.0000       0.129377         3.5205
  36   0.0000       0.146316         3.9815
  37   0.0000       0.158338         4.3086
  38   0.0000       0.173812         4.7297
  39   0.0000       0.182901         4.9770

MULLIKEN ATOMIC CHARGES
-----------------------
   0 N :   -0.455444
   1 C :    0.203275
   2 O :   -0.375700
   3 C :    0.098645
   4 O :   -0.490669
   5 C :    0.207158
   6 O :   -0.492143
   7 C :   -0.300615
   8 C :   -0.267833
   9 H :    0.260146
  10 H :    0.281420
  11 H :    0.114552
  12 H :    0.336715
  13 H :    0.344743
  14 H :    0.133093
  15 H :    0.128308
  16 H :    0.135873
  17 H :    0.138476
Sum of atomic charges:    0.0000000

LOEWDIN ATOMIC CHARGES
----------------------
   0 N :   -0.002136
   1 C :   -0.462083
   2 O :    0.071312
   3 C :   -0.280095
   4 O :   -0.019130
   5 C :   -0.371062
   6 O :    0.020293
   7 C :   -0.201321
   8 C :   -0.199753
   9 H :    0.174877
  10 H :    0.179551
  11 H :    0.161749
  12 H :    0.187013
  13 H :    0.189317
  14 H :    0.139301
  15 H :    0.134584
  16 H :    0.136720
  17 H :    0.140862

  Mayer bond orders larger than 0.1
B(  0-N ,  1-C ) :   1.2275 B(  0-N ,  9-H ) :   0.8576 B(  0-N , 10-H ) :   0.8482
B(  1-C ,  2-O ) :   1.9037 B(  1-C ,  3-C ) :   0.8689 B(  3-C ,  4-O ) :   0.8971
B(  3-C ,  5-C ) :   0.9487 B(  3-C , 11-H ) :   0.8857 B(  4-O , 12-H ) :   0.8248
B(  5-C ,  6-O ) :   0.9329 B(  5-C ,  7-C ) :   0.8707 B(  5-C ,  8-C ) :   0.8706
B(  6-O , 13-H ) :   0.8159 B(  7-C ,  8-C ) :   0.9334 B(  7-C , 14-H ) :   0.9207
B(  7-C , 15-H ) :   0.9180 B(  8-C , 16-H ) :   0.9268 B(  8-C , 17-H ) :   0.9209

MP2 TOTAL ENERGY:     -475.500016699 Eh
FINAL SINGLE POINT ENERGY      -475.500016699329

DIPOLE MOMENT
-------------
                                X             Y             Z
Electronic contribution:      4.06615       1.11205      -0.64089
Nuclear contribution   :     -3.81284      -1.17919      -0.08556
                        -----------------------------------------
Total Dipole Moment    :      0.25331      -0.06715      -0.72645
                        -----------------------------------------
Magnitude (a.u.)       :      0.77227
Magnitude (Debye)      :      1.96296

                             ****ORCA TERMINATED NORMALLY****
TOTAL RUN TIME: 0 days 0 hours 17 minutes 16 seconds 435 msec
