                         Program Version 3.0.3 - RELEASE   -
|  1> ! RI-MP2 RIJK def2-TZVP def2-TZVP/C def2-TZVP/JK TIGHTSCF
|  2> % maxcore 2000
|  3> % mp2 density relaxed end
|  4> *xyz 0 1
|  5>  C        0.0079090187     1.5104198916     0.0930820501
|  6>  C       -0.0389048423     0.0174503871    -0.0274941730
|  7>  C        0.2874296241    -0.7994419968    -1.3142222824
|  8>  C       -0.4003166044    -1.9429502977    -0.4974072357
|  9>  C        0.5585981620    -2.0361831962     0.6966242164
| 10>  O        0.7767623816    -0.6302223784     0.9726743006
| 11>  C       -1.3256834444    -0.8291190119     0.0281485135
| 12>  C       -2.5479034724    -0.7749789431     0.8137050614
| 13>  O       -2.5292873342    -0.4491346828    -0.5985233505
| 14>  H        1.0120410068     1.8873210993    -0.1221981217
| 15>  H       -0.6976008778     1.9639498386    -0.6083301980
| 16>  H       -0.2604222576     1.8186466602     1.1083851801
| 17>  H       -0.3026909924    -0.4890146343    -2.1775491749
| 18>  H        1.3441977354    -0.9144288205    -1.5669747639
| 19>  H       -0.7724055494    -2.8625275678    -0.9448808811
| 20>  H        0.1169052762    -2.5264945522     1.5721289422
| 21>  H        1.5108608127    -2.5236898879     0.4564867733
| 22>  H       -3.0790405910    -1.6918535241     1.0650918669
| 23>  H       -2.7338255913     0.0673373270     1.4779987167
| 24> *
| 25>
| 26>                          ****END OF INPUT****

CARTESIAN COORDINATES (ANGSTROEM)
---------------------------------
  C      0.007909    1.510420    0.093082
  C     -0.038905    0.017450   -0.027494
  C      0.287430   -0.799442   -1.314222
  C     -0.400317   -1.942950   -0.497407
  C      0.558598   -2.036183    0.696624
  O      0.776762   -0.630222    0.972674
  C     -1.325683   -0.829119    0.028149
  C     -2.547903   -0.774979    0.813705
  O     -2.529287   -0.449135   -0.598523
  H      1.012041    1.887321   -0.122198
  H     -0.697601    1.963950   -0.608330
  H     -0.260422    1.818647    1.108385
  H     -0.302691   -0.489015   -2.177549
  H      1.344198   -0.914429   -1.566975
  H     -0.772406   -2.862528   -0.944881
  H      0.116905   -2.526495    1.572129
  H      1.510861   -2.523690    0.456487
  H     -3.079041   -1.691854    1.065092
  H     -2.733826    0.067337    1.477999

 Total Charge           Charge          ....    0
 Multiplicity           Mult            ....    1
 Number of Electrons    NEL             ....   68
 Basis Dimension        Dim             ....  339

ORBITAL ENERGIES
----------------

  NO   OCC          E(Eh)            E(eV)
   0   2.0000     -20.571554      -559.7804
   1   2.0000     -20.554125      -559.3062
   2   2.0000     -11.293743      -307.3184
   3   2.0000     -11.293029      -307.2989
   4   2.0000     -11.285353      -307.0901
   5   2.0000     -11.280475      -306.9573
   6   2.0000     -11.246605      -306.0357
   7   2.0000     -11.231367      -305.6210
   8   2.0000     -11.219051      -305.2859
   9   2.0000      -1.418916       -38.6107
  10   2.0000      -1.381332       -37.5880
  11   2.0000      -1.119451       -30.4618
  12   2.0000      -1.027551       -27.9611
  13   2.0000      -0.933313       -25.3967
  14   2.0000      -0.923113       -25.1192
  15   2.0000      -0.864251       -23.5175
  16   2.0000      -0.791955       -21.5502
  17   2.0000      -0.748646       -20.3717
  18   2.0000      -0.692295       -18.8383
  19   2.0000      -0.674174       -18.3452
  20   2.0000      -0.666119       -18.1260
  21   2.0000      -0.636195       -17.3118
  22   2.0000      -0.587443       -15.9851
  23   2.0000      -0.576326       -15.6826
  24   2.0000      -0.559260       -15.2182
  25   2.0000      -0.527693       -14.3593
  26   2.0000      -0.523829       -14.2541
  27   2.0000      -0.512239       -13.9387
  28   2.0000      -0.504384       -13.7250
  29   2.0000      -0.496248       -13.5036
  30   2.0000      -0.482809       -13.1379
  31   2.0000      -0.432279       -11.7629
  32   2.0000      -0.426113       -11.5951
  33   2.0000      -0.387974       -10.5573
  34   0.0000       0.145085         3.9480
  35   0.0000       0.152682         4.1547
  36   0.0000       0.164182         4.4676
  37   0.0000       0.176371         4.7993
  38   0.0000       0.197119         5.3639

MULLIKEN ATOMIC CHARGES
-----------------------
   0 C :   -0.436890
   1 C :    0.232194
   2 C :   -0.263680
   3 C :   -0.054612
   4 C :   -0.068805
   5 O :   -0.321481
   6 C :    0.055724
   7 C :   -0.089018
   8 O :   -0.343382
   9 H :    0.144644
  10 H :    0.147662
  11 H :    0.136589
  12 H :    0.135413
  13 H :    0.123426
  14 H :    0.142157
  15 H :    0.106150
  16 H :    0.108884
  17 H :    0.121187
  18 H :    0.123838
Sum of atomic charges:   -0.0000000

LOEWDIN ATOMIC CHARGES
----------------------
   0 C :   -0.264297
   1 C :   -0.305874
   2 C :   -0.166337
   3 C :   -0.177464
   4 C :   -0.252409
   5 O :    0.171535
   6 C :   -0.275061
   7 C :   -0.221442
   8 O :    0.171309
   9 H :    0.134225
  10 H :    0.137275
  11 H :    0.134136
  12 H :    0.145905
  13 H :    0.132389
  14 H :    0.140919
  15 H :    0.123660
  16 H :    0.122681
  17 H :    0.123797
  18 H :    0.125055

  Mayer bond orders larger than 0.1
B(  0-C ,  1-C ) :   0.8503 B(  0-C ,  9-H ) :   0.9404 B(  0-C , 10-H ) :   0.9438
B(  0-C , 11-H ) :   0.9371 B(  1-C ,  2-C ) :   0.9283 B(  1-C ,  5-O ) :   0.9563
B(  1-C ,  6-C ) :   0.8656 B(  2-C ,  3-C ) :   0.9184 B(  2-C , 12-H ) :   0.9154
B(  2-C , 13-H ) :   0.9163 B(  3-C ,  4-C ) :   0.9323 B(  3-C ,  6-C ) :   0.8682
B(  3-C , 14-H ) :   0.9003 B(  4-C ,  5-O ) :   0.9306 B(  4-C , 15-H ) :   0.9260
B(  4-C , 16-H ) :   0.9221 B(  6-C ,  7-C ) :   0.9663 B(  6-C ,  8-O ) :   0.8936
B(  7-C ,  8-O ) :   0.8975 B(  7-C , 17-H ) :   0.9151 B(  7-C , 18-H ) :   0.9135

MP2 TOTAL ENERGY:     -422.277158824 Eh
FINAL SINGLE POINT ENERGY      -422.277158824161

DIPOLE MOMENT
-------------
                                X             Y             Z
Electronic contribution:     -1.81943      -1.45692       0.11308
Nuclear contribution   :      1.83228       1.07384      -0.03054
                        -----------------------------------------
Total Dipole Moment    :      0.01285      -0.38308       0.08254
                        -----------------------------------------
Magnitude (a.u.)       :      0.39208
Magnitude (Debye)      :      0.99659

                             ****ORCA TERMINATED NORMALLY****
TOTAL RUN TIME: 0 days 0 hours 17 minutes 35 seconds 110 msec
