                         Program Version 3.0.3 - RELEASE   -
|  1> ! RI-MP2 RIJK def2-TZVP def2-TZVP/C def2-TZVP/JK TIGHTSCF
|  2> % maxcore 2000
|  3> % mp2 density relaxed end
|  4> *xyz 0 1
|  5>  C        0.0877954111     1.5255939826     0.0120436696
|  6>  C       -0.0070686191    -0.0051035890     0.0018207849
|  7>  C       -1.4717618438    -0.4745199502    -0.0004830569
|  8>  C        0.7027496724    -0.6293155619    -1.2180033651
|  9>  N        2.1304867227    -0.3018186784    -1.3735491357
| 10>  C        1.7428328578    -1.5928539246    -0.7676184148
| 11>  C        1.7437106478    -1.6030301352     0.7478408710
| 12>  N        2.1320769659    -0.3202451724     1.3706042880
| 13>  C        0.7041577931    -0.6456345106     1.2123293564
| 14>  H        1.1354974662     1.8307791394     0.0134963834
| 15>  H       -0.4017795339     1.9545403765    -0.8695766350
| 16>  H       -0.4007735156     1.9426609882     0.8998999266
| 17>  H       -2.0021798976    -0.0981890300    -0.8817276182
| 18>  H       -1.5403743278    -1.5681666737    -0.0077901414
| 19>  H       -2.0011548254    -0.1100668815     0.8863524677
| 20>  H        0.1103740009    -0.7980427117    -2.1141035273
| 21>  H        2.4006492515    -0.4609887680    -2.3417529553
| 22>  H        1.9536194893    -2.5150789169    -1.2985095362
| 23>  H        1.9551053721    -2.5322996905     1.2660547771
| 24>  H        2.4033593110    -0.4924014227     2.3362697619
| 25>  H        0.1128196213    -0.8263839595     2.1067688892
| 26> *
| 27>
| 28>                          ****END OF INPUT****

CARTESIAN COORDINATES (ANGSTROEM)
---------------------------------
  C      0.087795    1.525594    0.012044
  C     -0.007069   -0.005104    0.001821
  C     -1.471762   -0.474520   -0.000483
  C      0.702750   -0.629316   -1.218003
  N      2.130487   -0.301819   -1.373549
  C      1.742833   -1.592854   -0.767618
  C      1.743711   -1.603030    0.747841
  N      2.132077   -0.320245    1.370604
  C      0.704158   -0.645635    1.212329
  H      1.135497    1.830779    0.013496
  H     -0.401780    1.954540   -0.869577
  H     -0.400774    1.942661    0.899900
  H     -2.002180   -0.098189   -0.881728
  H     -1.540374   -1.568167   -0.007790
  H     -2.001155   -0.110067    0.886352
  H      0.110374   -0.798043   -2.114104
  H      2.400649   -0.460989   -2.341753
  H      1.953619   -2.515079   -1.298510
  H      1.955105   -2.532300    1.266055
  H      2.403359   -0.492401    2.336270
  H      0.112820   -0.826384    2.106769

 Total Charge           Charge          ....    0
 Multiplicity           Mult            ....    1
 Number of Electrons    NEL             ....   68
 Basis Dimension        Dim             ....  351

ORBITAL ENERGIES
----------------

  NO   OCC          E(Eh)            E(eV)
   0   2.0000     -15.549974      -423.1363
   1   2.0000     -15.549968      -423.1361
   2   2.0000     -11.255053      -306.2656
   3   2.0000     -11.254425      -306.2485
   4   2.0000     -11.249595      -306.1171
   5   2.0000     -11.249595      -306.1170
   6   2.0000     -11.234683      -305.7113
   7   2.0000     -11.215104      -305.1785
   8   2.0000     -11.198275      -304.7205
   9   2.0000      -1.286386       -35.0044
  10   2.0000      -1.228763       -33.4363
  11   2.0000      -1.072907       -29.1953
  12   2.0000      -0.948099       -25.7991
  13   2.0000      -0.923165       -25.1206
  14   2.0000      -0.873308       -23.7639
  15   2.0000      -0.855985       -23.2925
  16   2.0000      -0.767920       -20.8962
  17   2.0000      -0.736184       -20.0326
  18   2.0000      -0.716808       -19.5053
  19   2.0000      -0.666222       -18.1288
  20   2.0000      -0.602557       -16.3964
  21   2.0000      -0.589109       -16.0305
  22   2.0000      -0.575652       -15.6643
  23   2.0000      -0.554615       -15.0918
  24   2.0000      -0.537098       -14.6152
  25   2.0000      -0.533759       -14.5243
  26   2.0000      -0.492747       -13.4083
  27   2.0000      -0.486325       -13.2336
  28   2.0000      -0.466982       -12.7072
  29   2.0000      -0.455379       -12.3915
  30   2.0000      -0.450523       -12.2594
  31   2.0000      -0.428984       -11.6732
  32   2.0000      -0.380006       -10.3405
  33   2.0000      -0.355219        -9.6660
  34   0.0000       0.131608         3.5812
  35   0.0000       0.150694         4.1006
  36   0.0000       0.151312         4.1174
  37   0.0000       0.169036         4.5997
  38   0.0000       0.194293         5.2870

MULLIKEN ATOMIC CHARGES
-----------------------
   0 C :   -0.444457
   1 C :    0.208071
   2 C :   -0.459196
   3 C :   -0.055731
   4 N :   -0.353169
   5 C :   -0.114184
   6 C :   -0.114184
   7 N :   -0.353169
   8 C :   -0.055731
   9 H :    0.176061
  10 H :    0.119763
  11 H :    0.119763
  12 H :    0.134243
  13 H :    0.140144
  14 H :    0.134243
  15 H :    0.120814
  16 H :    0.212980
  17 H :    0.124972
  18 H :    0.124972
  19 H :    0.212980
  20 H :    0.120814
Sum of atomic charges:    0.0000000

LOEWDIN ATOMIC CHARGES
----------------------
   0 C :   -0.264860
   1 C :   -0.280284
   2 C :   -0.266434
   3 C :   -0.206348
   4 N :    0.021445
   5 C :   -0.230223
   6 C :   -0.230223
   7 N :    0.021445
   8 C :   -0.206348
   9 H :    0.137634
  10 H :    0.123390
  11 H :    0.123390
  12 H :    0.126058
  13 H :    0.128382
  14 H :    0.126058
  15 H :    0.136150
  16 H :    0.167389
  17 H :    0.134919
  18 H :    0.134919
  19 H :    0.167389
  20 H :    0.136150

  Mayer bond orders larger than 0.1
B(  0-C ,  1-C ) :   0.8791 B(  0-C ,  9-H ) :   0.9341 B(  0-C , 10-H ) :   0.9342
B(  0-C , 11-H ) :   0.9342 B(  1-C ,  2-C ) :   0.8611 B(  1-C ,  3-C ) :   0.9075
B(  1-C ,  8-C ) :   0.9075 B(  2-C , 12-H ) :   0.9377 B(  2-C , 13-H ) :   0.9380
B(  2-C , 14-H ) :   0.9377 B(  3-C ,  4-N ) :   0.9494 B(  3-C ,  5-C ) :   0.9243
B(  3-C , 15-H ) :   0.9256 B(  4-N ,  5-C ) :   0.9949 B(  4-N , 16-H ) :   0.8660
B(  5-C ,  6-C ) :   0.9374 B(  5-C , 17-H ) :   0.9253 B(  6-C ,  7-N ) :   0.9949
B(  6-C ,  8-C ) :   0.9243 B(  6-C , 18-H ) :   0.9253 B(  7-N ,  8-C ) :   0.9494
B(  7-N , 19-H ) :   0.8660 B(  8-C , 20-H ) :   0.9256

MP2 TOTAL ENERGY:     -382.555800631 Eh
FINAL SINGLE POINT ENERGY      -382.555800630814

DIPOLE MOMENT
-------------
                                X             Y             Z
Electronic contribution:      5.54085      -2.26215      -0.01840
Nuclear contribution   :     -6.05764       1.40956       0.01297
                        -----------------------------------------
Total Dipole Moment    :     -0.51679      -0.85258      -0.00543
                        -----------------------------------------
Magnitude (a.u.)       :      0.99700
Magnitude (Debye)      :      2.53416

                             ****ORCA TERMINATED NORMALLY****
TOTAL RUN TIME: 0 days 0 hours 25 minutes 49 seconds 534 msec
