                         Program Version 3.0.3 - RELEASE   -
|  1> ! RI-MP2 RIJK def2-TZVP def2-TZVP/C def2-TZVP/JK TIGHTSCF
|  2> % maxcore 2000
|  3> % mp2 density relaxed end
|  4> *xyz 0 1
|  5>  N       -0.0412348550     1.1803687627     0.3444372031
|  6>  C       -0.0256544954    -0.0527179847     0.0697771316
|  7>  O        1.1130075938    -0.7902016264    -0.2052323564
|  8>  C        0.7241288357    -2.1092265726    -0.5791526065
|  9>  O        1.2822342590    -3.1499011266     0.1836390401
| 10>  C        0.2280686683    -3.9683262286     0.7345181176
| 11>  C       -1.0788184840    -3.6019138223    -0.0291436093
| 12>  C       -0.7527249294    -2.1759694654    -0.3001980426
| 13>  C       -1.1847445268    -0.9673834726     0.0523243281
| 14>  H        0.9072342127     1.5587485938     0.3537457891
| 15>  H        1.0292045323    -2.2374731433    -1.6270029360
| 16>  H        0.5185163473    -5.0149987709     0.6134782285
| 17>  H        0.1152938254    -3.7534312115     1.8041407536
| 18>  H       -1.1644660306    -4.1929221649    -0.9480018956
| 19>  H       -1.9758487714    -3.7532027124     0.5728358180
| 20>  H       -2.1594175817    -0.6611742443     0.4028701368
| 21> *
| 22>
| 23>                          ****END OF INPUT****

CARTESIAN COORDINATES (ANGSTROEM)
---------------------------------
  N     -0.041235    1.180369    0.344437
  C     -0.025654   -0.052718    0.069777
  O      1.113008   -0.790202   -0.205232
  C      0.724129   -2.109227   -0.579153
  O      1.282234   -3.149901    0.183639
  C      0.228069   -3.968326    0.734518
  C     -1.078818   -3.601914   -0.029144
  C     -0.752725   -2.175969   -0.300198
  C     -1.184745   -0.967383    0.052324
  H      0.907234    1.558749    0.353746
  H      1.029205   -2.237473   -1.627003
  H      0.518516   -5.014999    0.613478
  H      0.115294   -3.753431    1.804141
  H     -1.164466   -4.192922   -0.948002
  H     -1.975849   -3.753203    0.572836
  H     -2.159418   -0.661174    0.402870

 Total Charge           Charge          ....    0
 Multiplicity           Mult            ....    1
 Number of Electrons    NEL             ....   66
 Basis Dimension        Dim             ....  321

ORBITAL ENERGIES
----------------

  NO   OCC          E(Eh)            E(eV)
   0   2.0000     -20.595923      -560.4436
   1   2.0000     -20.578927      -559.9811
   2   2.0000     -15.535963      -422.7551
   3   2.0000     -11.354049      -308.9594
   4   2.0000     -11.342990      -308.6585
   5   2.0000     -11.304326      -307.6063
   6   2.0000     -11.271504      -306.7132
   7   2.0000     -11.265808      -306.5582
   8   2.0000     -11.258019      -306.3463
   9   2.0000      -1.451496       -39.4972
  10   2.0000      -1.386603       -37.7314
  11   2.0000      -1.197218       -32.5780
  12   2.0000      -1.129716       -30.7411
  13   2.0000      -1.036459       -28.2035
  14   2.0000      -0.969260       -26.3749
  15   2.0000      -0.849168       -23.1070
  16   2.0000      -0.799448       -21.7541
  17   2.0000      -0.792548       -21.5663
  18   2.0000      -0.721088       -19.6218
  19   2.0000      -0.696027       -18.9399
  20   2.0000      -0.672934       -18.3115
  21   2.0000      -0.663446       -18.0533
  22   2.0000      -0.634745       -17.2723
  23   2.0000      -0.586326       -15.9547
  24   2.0000      -0.573122       -15.5954
  25   2.0000      -0.559302       -15.2194
  26   2.0000      -0.552390       -15.0313
  27   2.0000      -0.518126       -14.0989
  28   2.0000      -0.490751       -13.3540
  29   2.0000      -0.461489       -12.5577
  30   2.0000      -0.436842       -11.8871
  31   2.0000      -0.434641       -11.8272
  32   2.0000      -0.369449       -10.0532
  33   0.0000       0.092910         2.5282
  34   0.0000       0.126679         3.4471
  35   0.0000       0.163265         4.4427
  36   0.0000       0.166562         4.5324
  37   0.0000       0.176642         4.8067

MULLIKEN ATOMIC CHARGES
-----------------------
   0 N :   -0.359080
   1 C :    0.180973
   2 O :   -0.251966
   3 C :    0.168677
   4 O :   -0.282447
   5 C :   -0.028071
   6 C :   -0.216782
   7 C :   -0.004717
   8 C :   -0.207747
   9 H :    0.230949
  10 H :    0.102913
  11 H :    0.120795
  12 H :    0.110573
  13 H :    0.137937
  14 H :    0.144036
  15 H :    0.153959
Sum of atomic charges:   -0.0000000

LOEWDIN ATOMIC CHARGES
----------------------
   0 N :   -0.045970
   1 C :   -0.381717
   2 O :    0.249882
   3 C :   -0.322501
   4 O :    0.177253
   5 C :   -0.258833
   6 C :   -0.213794
   7 C :   -0.142625
   8 C :   -0.074708
   9 H :    0.171611
  10 H :    0.138022
  11 H :    0.125866
  12 H :    0.125776
  13 H :    0.150125
  14 H :    0.147948
  15 H :    0.153665

  Mayer bond orders larger than 0.1
B(  0-N ,  1-C ) :   2.0259 B(  0-N ,  9-H ) :   0.8550 B(  1-C ,  2-O ) :   1.0495
B(  1-C ,  8-C ) :   0.9902 B(  2-O ,  3-C ) :   0.9305 B(  3-C ,  4-O ) :   1.0402
B(  3-C ,  7-C ) :   0.9436 B(  3-C , 10-H ) :   0.9479 B(  4-O ,  5-C ) :   0.9111
B(  5-C ,  6-C ) :   0.9344 B(  5-C , 11-H ) :   0.9231 B(  5-C , 12-H ) :   0.9255
B(  6-C ,  7-C ) :   0.9290 B(  6-C , 13-H ) :   0.9146 B(  6-C , 14-H ) :   0.9197
B(  7-C ,  8-C ) :   1.7182 B(  8-C , 15-H ) :   0.9293

MP2 TOTAL ENERGY:     -437.175957957 Eh
FINAL SINGLE POINT ENERGY      -437.175957956862

DIPOLE MOMENT
-------------
                                X             Y             Z
Electronic contribution:      2.38137       4.09992      -0.97642
Nuclear contribution   :     -3.04753      -5.41598       0.83538
                        -----------------------------------------
Total Dipole Moment    :     -0.66615      -1.31606      -0.14104
                        -----------------------------------------
Magnitude (a.u.)       :      1.48178
Magnitude (Debye)      :      3.76638

                             ****ORCA TERMINATED NORMALLY****
TOTAL RUN TIME: 0 days 0 hours 16 minutes 0 seconds 51 msec
