                         Program Version 3.0.3 - RELEASE   -
|  1> ! RI-MP2 RIJK def2-TZVP def2-TZVP/C def2-TZVP/JK TIGHTSCF
|  2> % maxcore 2000
|  3> % mp2 density relaxed end
|  4> *xyz 0 1
|  5>  C        0.0576320116     1.4794255377     0.0313054108
|  6>  C       -0.0773455176    -0.0007654909     0.0077874470
|  7>  C       -1.1210435502    -0.8452209389    -0.2154661926
|  8>  C       -0.6040937178    -2.1783669651    -0.0981147490
|  9>  C        0.7147947951    -2.0423264804     0.1876191485
| 10>  O        1.0530631596    -0.7250748692     0.2559100062
| 11>  H        0.7774743646     1.8305686536    -0.7168748625
| 12>  H       -0.9085383323     1.9424110137    -0.1809804332
| 13>  H        0.4016949846     1.8374616365     1.0083881514
| 14>  H       -2.1363092026    -0.5547835590    -0.4369136994
| 15>  H       -1.1450627285    -3.1046303310    -0.2119008245
| 16>  H        1.5165154234    -2.7399851870     0.3643811874
| 17> *
| 18>
| 19>                          ****END OF INPUT****

CARTESIAN COORDINATES (ANGSTROEM)
---------------------------------
  C      0.057632    1.479426    0.031305
  C     -0.077346   -0.000765    0.007787
  C     -1.121044   -0.845221   -0.215466
  C     -0.604094   -2.178367   -0.098115
  C      0.714795   -2.042326    0.187619
  O      1.053063   -0.725075    0.255910
  H      0.777474    1.830569   -0.716875
  H     -0.908538    1.942411   -0.180980
  H      0.401695    1.837462    1.008388
  H     -2.136309   -0.554784   -0.436914
  H     -1.145063   -3.104630   -0.211901
  H      1.516515   -2.739985    0.364381

 Total Charge           Charge          ....    0
 Multiplicity           Mult            ....    1
 Number of Electrons    NEL             ....   44
 Basis Dimension        Dim             ....  222

ORBITAL ENERGIES
----------------

  NO   OCC          E(Eh)            E(eV)
   0   2.0000     -20.613400      -560.9191
   1   2.0000     -11.288506      -307.1759
   2   2.0000     -11.278934      -306.9154
   3   2.0000     -11.233455      -305.6779
   4   2.0000     -11.224020      -305.4211
   5   2.0000     -11.219076      -305.2866
   6   2.0000      -1.451355       -39.4934
   7   2.0000      -1.078580       -29.3496
   8   2.0000      -1.044393       -28.4194
   9   2.0000      -0.929871       -25.3031
  10   2.0000      -0.803210       -21.8565
  11   2.0000      -0.757731       -20.6189
  12   2.0000      -0.706979       -19.2379
  13   2.0000      -0.639667       -17.4062
  14   2.0000      -0.604807       -16.4576
  15   2.0000      -0.562980       -15.3195
  16   2.0000      -0.560363       -15.2482
  17   2.0000      -0.557916       -15.1817
  18   2.0000      -0.553636       -15.0652
  19   2.0000      -0.520613       -14.1666
  20   2.0000      -0.392724       -10.6866
  21   2.0000      -0.306423        -8.3382
  22   0.0000       0.146664         3.9909
  23   0.0000       0.149181         4.0594
  24   0.0000       0.177410         4.8276
  25   0.0000       0.188433         5.1275
  26   0.0000       0.196656         5.3513

MULLIKEN ATOMIC CHARGES
-----------------------
   0 C :   -0.424050
   1 C :    0.222257
   2 C :   -0.246158
   3 C :   -0.152590
   4 C :   -0.028517
   5 O :   -0.226413
   6 H :    0.147209
   7 H :    0.144738
   8 H :    0.147199
   9 H :    0.133823
  10 H :    0.137878
  11 H :    0.144624
Sum of atomic charges:   -0.0000000

LOEWDIN ATOMIC CHARGES
----------------------
   0 C :   -0.275468
   1 C :   -0.277721
   2 C :   -0.174358
   3 C :   -0.195323
   4 C :   -0.248951
   5 O :    0.350254
   6 H :    0.134132
   7 H :    0.137401
   8 H :    0.134125
   9 H :    0.142838
  10 H :    0.142124
  11 H :    0.130948

  Mayer bond orders larger than 0.1
B(  0-C ,  1-C ) :   0.8763 B(  0-C ,  6-H ) :   0.9319 B(  0-C ,  7-H ) :   0.9520
B(  0-C ,  8-H ) :   0.9319 B(  1-C ,  2-C ) :   1.5295 B(  1-C ,  5-O ) :   1.0174
B(  2-C ,  3-C ) :   1.1916 B(  2-C ,  9-H ) :   0.9255 B(  3-C ,  4-C ) :   1.5574
B(  3-C , 10-H ) :   0.9234 B(  4-C ,  5-O ) :   1.0404 B(  4-C , 11-H ) :   0.9361

MP2 TOTAL ENERGY:     -268.793672960 Eh
FINAL SINGLE POINT ENERGY      -268.793672959967

DIPOLE MOMENT
-------------
                                X             Y             Z
Electronic contribution:      1.39927      -2.95400       0.31516
Nuclear contribution   :     -1.59042       3.06305      -0.35704
                        -----------------------------------------
Total Dipole Moment    :     -0.19116       0.10905      -0.04189
                        -----------------------------------------
Magnitude (a.u.)       :      0.22403
Magnitude (Debye)      :      0.56943

                             ****ORCA TERMINATED NORMALLY****
TOTAL RUN TIME: 0 days 0 hours 4 minutes 48 seconds 338 msec
