                         Program Version 3.0.3 - RELEASE   -
|  1> ! RI-MP2 RIJK def2-TZVP def2-TZVP/C def2-TZVP/JK TIGHTSCF
|  2> % maxcore 2000
|  3> % mp2 density relaxed end
|  4> *xyz 0 1
|  5>  C       -0.1760869441     1.5604169561    -0.0083360991
|  6>  C        0.0279407400     0.0451189164    -0.0144192684
|  7>  C        0.9456090274    -0.4734997154    -1.1237692741
|  8>  C        1.3674549233    -1.9378691155    -0.7816514923
|  9>  C        2.7326169921    -1.6902650539    -1.4655534340
| 10>  C        2.4405673255    -0.3994043468    -0.6639146252
| 11>  C        1.9204144245    -1.2776362333     0.5206744981
| 12>  C        0.8030400240    -0.5261699806     1.2279511050
| 13>  O        1.3959001977     0.4541078704     2.0700965769
| 14>  H        0.7741785867     2.0915295006     0.0889961598
| 15>  H       -0.6582309638     1.8864592594    -0.9358161080
| 16>  H       -0.8218462049     1.8781777598     0.8188799931
| 17>  H       -0.9528242372    -0.4421530516    -0.0909397018
| 18>  H        0.7019246438    -0.2244103806    -2.1597134029
| 19>  H        0.7357937176    -2.8271266149    -0.8435438057
| 20>  H        3.5727571111    -2.3019539548    -1.1237527449
| 21>  H        2.7275956205    -1.6067679982    -2.5565682171
| 22>  H        3.0616289460     0.4929906668    -0.5826986802
| 23>  H        2.6383027057    -1.8203123958     1.1380680040
| 24>  H        0.1677666156    -1.1982995946     1.8236209127
| 25>  H        0.6928620284     0.9220582864     2.5308448541
| 26> *
| 27>
| 28>                          ****END OF INPUT****

CARTESIAN COORDINATES (ANGSTROEM)
---------------------------------
  C     -0.176087    1.560417   -0.008336
  C      0.027941    0.045119   -0.014419
  C      0.945609   -0.473500   -1.123769
  C      1.367455   -1.937869   -0.781651
  C      2.732617   -1.690265   -1.465553
  C      2.440567   -0.399404   -0.663915
  C      1.920414   -1.277636    0.520674
  C      0.803040   -0.526170    1.227951
  O      1.395900    0.454108    2.070097
  H      0.774179    2.091530    0.088996
  H     -0.658231    1.886459   -0.935816
  H     -0.821846    1.878178    0.818880
  H     -0.952824   -0.442153   -0.090940
  H      0.701925   -0.224410   -2.159713
  H      0.735794   -2.827127   -0.843544
  H      3.572757   -2.301954   -1.123753
  H      2.727596   -1.606768   -2.556568
  H      3.061629    0.492991   -0.582699
  H      2.638303   -1.820312    1.138068
  H      0.167767   -1.198300    1.823621
  H      0.692862    0.922058    2.530845

 Total Charge           Charge          ....    0
 Multiplicity           Mult            ....    1
 Number of Electrons    NEL             ....   68
 Basis Dimension        Dim             ....  351

ORBITAL ENERGIES
----------------

  NO   OCC          E(Eh)            E(eV)
   0   2.0000     -20.550667      -559.2121
   1   2.0000     -11.272226      -306.7329
   2   2.0000     -11.236463      -305.7597
   3   2.0000     -11.234036      -305.6937
   4   2.0000     -11.228917      -305.5544
   5   2.0000     -11.226151      -305.4791
   6   2.0000     -11.222907      -305.3908
   7   2.0000     -11.221936      -305.3644
   8   2.0000     -11.212772      -305.1150
   9   2.0000      -1.357337       -36.9350
  10   2.0000      -1.220600       -33.2142
  11   2.0000      -1.050641       -28.5894
  12   2.0000      -0.964875       -26.2556
  13   2.0000      -0.904050       -24.6004
  14   2.0000      -0.855699       -23.2847
  15   2.0000      -0.844123       -22.9698
  16   2.0000      -0.759134       -20.6571
  17   2.0000      -0.716988       -19.5102
  18   2.0000      -0.679771       -18.4975
  19   2.0000      -0.673193       -18.3185
  20   2.0000      -0.647128       -17.6092
  21   2.0000      -0.605034       -16.4638
  22   2.0000      -0.586122       -15.9492
  23   2.0000      -0.555531       -15.1168
  24   2.0000      -0.539380       -14.6773
  25   2.0000      -0.517218       -14.0742
  26   2.0000      -0.509464       -13.8632
  27   2.0000      -0.461651       -12.5622
  28   2.0000      -0.455833       -12.4038
  29   2.0000      -0.446056       -12.1378
  30   2.0000      -0.431389       -11.7387
  31   2.0000      -0.427436       -11.6311
  32   2.0000      -0.418930       -11.3997
  33   2.0000      -0.412814       -11.2332
  34   0.0000       0.128352         3.4926
  35   0.0000       0.154980         4.2172
  36   0.0000       0.161589         4.3971
  37   0.0000       0.169439         4.6107
  38   0.0000       0.189479         5.1560

MULLIKEN ATOMIC CHARGES
-----------------------
   0 C :   -0.484450
   1 C :    0.002736
   2 C :   -0.104769
   3 C :   -0.145726
   4 C :   -0.198880
   5 C :   -0.165809
   6 C :   -0.044659
   7 C :   -0.004872
   8 O :   -0.456508
   9 H :    0.157594
  10 H :    0.132176
  11 H :    0.122418
  12 H :    0.089185
  13 H :    0.109653
  14 H :    0.121922
  15 H :    0.111112
  16 H :    0.109130
  17 H :    0.130961
  18 H :    0.114435
  19 H :    0.090770
  20 H :    0.313582
Sum of atomic charges:   -0.0000000

LOEWDIN ATOMIC CHARGES
----------------------
   0 C :   -0.301361
   1 C :   -0.234092
   2 C :   -0.148570
   3 C :   -0.142068
   4 C :   -0.198999
   5 C :   -0.135746
   6 C :   -0.147199
   7 C :   -0.289630
   8 O :   -0.011597
   9 H :    0.128109
  10 H :    0.125069
  11 H :    0.118307
  12 H :    0.148930
  13 H :    0.139761
  14 H :    0.124336
  15 H :    0.126960
  16 H :    0.126204
  17 H :    0.127600
  18 H :    0.141891
  19 H :    0.129981
  20 H :    0.172113

  Mayer bond orders larger than 0.1
B(  0-C ,  1-C ) :   0.8541 B(  0-C ,  9-H ) :   0.9350 B(  0-C , 10-H ) :   0.9384
B(  0-C , 11-H ) :   0.9450 B(  1-C ,  2-C ) :   0.8836 B(  1-C ,  7-C ) :   0.9430
B(  1-C , 12-H ) :   0.9147 B(  2-C ,  3-C ) :   0.8749 B(  2-C ,  5-C ) :   0.9004
B(  2-C , 13-H ) :   0.9203 B(  3-C ,  4-C ) :   0.9072 B(  3-C ,  6-C ) :   0.8754
B(  3-C , 14-H ) :   0.8968 B(  4-C ,  5-C ) :   0.9110 B(  4-C , 15-H ) :   0.9290
B(  4-C , 16-H ) :   0.9287 B(  5-C ,  6-C ) :   0.8808 B(  5-C , 17-H ) :   0.8917
B(  6-C ,  7-C ) :   0.9019 B(  6-C ,  8-O ) :  -0.1042 B(  6-C , 18-H ) :   0.9236
B(  7-C ,  8-O ) :   1.0940 B(  7-C , 19-H ) :   0.9681 B(  8-O , 20-H ) :   0.8464

MP2 TOTAL ENERGY:     -386.388311984 Eh
FINAL SINGLE POINT ENERGY      -386.388311984193

DIPOLE MOMENT
-------------
                                X             Y             Z
Electronic contribution:      1.69080      -1.84061       1.99825
Nuclear contribution   :     -2.27508       1.80408      -2.06073
                        -----------------------------------------
Total Dipole Moment    :     -0.58429      -0.03654      -0.06248
                        -----------------------------------------
Magnitude (a.u.)       :      0.58875
Magnitude (Debye)      :      1.49649

                             ****ORCA TERMINATED NORMALLY****
TOTAL RUN TIME: 0 days 0 hours 20 minutes 14 seconds 424 msec
