                         Program Version 3.0.3 - RELEASE   -
|  1> ! RI-MP2 RIJK def2-TZVP def2-TZVP/C def2-TZVP/JK TIGHTSCF
|  2> % maxcore 2000
|  3> % mp2 density relaxed end
|  4> *xyz 0 1
|  5>  O       -0.1863388202    -0.7561832186    -0.1769365548
|  6>  C       -0.1168916866     0.4472647373    -0.1817373430
|  7>  C        0.7010217299     1.2301347983     0.8609808539
|  8>  C        1.9857654860     1.6195511190     0.2944157053
|  9>  C        3.0417170547     1.9114226163    -0.1982071168
| 10>  C       -0.8335970262     1.2448564792    -1.2360740253
| 11>  C       -1.8494595557     2.2463753420    -0.8475235386
| 12>  O       -0.5724962450     2.6429525543    -1.3226581394
| 13>  H        0.1548500863     2.1237374157     1.1830023704
| 14>  H        0.8392154935     0.5713681301     1.7234005610
| 15>  H        3.9760364181     2.1819147271    -0.6240546397
| 16>  H       -0.9622668290     0.7195513779    -2.1806832183
| 17>  H       -2.6862407858     2.4245886032    -1.5202967788
| 18>  H       -2.0453232901     2.4418001082     0.2058538441
| 19> *
| 20>
| 21>                          ****END OF INPUT****

CARTESIAN COORDINATES (ANGSTROEM)
---------------------------------
  O     -0.186339   -0.756183   -0.176937
  C     -0.116892    0.447265   -0.181737
  C      0.701022    1.230135    0.860981
  C      1.985765    1.619551    0.294416
  C      3.041717    1.911423   -0.198207
  C     -0.833597    1.244856   -1.236074
  C     -1.849460    2.246375   -0.847524
  O     -0.572496    2.642953   -1.322658
  H      0.154850    2.123737    1.183002
  H      0.839215    0.571368    1.723401
  H      3.976036    2.181915   -0.624055
  H     -0.962267    0.719551   -2.180683
  H     -2.686241    2.424589   -1.520297
  H     -2.045323    2.441800    0.205854

 Total Charge           Charge          ....    0
 Multiplicity           Mult            ....    1
 Number of Electrons    NEL             ....   58
 Basis Dimension        Dim             ....  284

ORBITAL ENERGIES
----------------

  NO   OCC          E(Eh)            E(eV)
   0   2.0000     -20.599193      -560.5325
   1   2.0000     -20.566375      -559.6395
   2   2.0000     -11.354345      -308.9674
   3   2.0000     -11.313966      -307.8687
   4   2.0000     -11.312736      -307.8352
   5   2.0000     -11.275703      -306.8275
   6   2.0000     -11.244906      -305.9894
   7   2.0000     -11.231092      -305.6135
   8   2.0000      -1.446654       -39.3655
   9   2.0000      -1.409754       -38.3614
  10   2.0000      -1.090884       -29.6845
  11   2.0000      -1.003254       -27.2999
  12   2.0000      -0.966296       -26.2942
  13   2.0000      -0.910991       -24.7893
  14   2.0000      -0.787262       -21.4225
  15   2.0000      -0.732563       -19.9341
  16   2.0000      -0.718526       -19.5521
  17   2.0000      -0.698237       -19.0000
  18   2.0000      -0.651511       -17.7285
  19   2.0000      -0.646745       -17.5988
  20   2.0000      -0.617254       -16.7963
  21   2.0000      -0.589808       -16.0495
  22   2.0000      -0.567479       -15.4419
  23   2.0000      -0.544876       -14.8268
  24   2.0000      -0.493592       -13.4313
  25   2.0000      -0.460079       -12.5194
  26   2.0000      -0.447153       -12.1677
  27   2.0000      -0.395845       -10.7715
  28   2.0000      -0.388723       -10.5777
  29   0.0000       0.113190         3.0800
  30   0.0000       0.134778         3.6675
  31   0.0000       0.161769         4.4020
  32   0.0000       0.167970         4.5707
  33   0.0000       0.174008         4.7350

MULLIKEN ATOMIC CHARGES
-----------------------
   0 O :   -0.266835
   1 C :    0.214220
   2 C :   -0.239003
   3 C :   -0.077979
   4 C :   -0.159926
   5 C :    0.001446
   6 C :   -0.079607
   7 O :   -0.307026
   8 H :    0.151035
   9 H :    0.156675
  10 H :    0.192682
  11 H :    0.153445
  12 H :    0.135049
  13 H :    0.125824
Sum of atomic charges:    0.0000000

LOEWDIN ATOMIC CHARGES
----------------------
   0 O :    0.176322
   1 C :   -0.301020
   2 C :   -0.209330
   3 C :   -0.105964
   4 C :   -0.088926
   5 C :   -0.253355
   6 C :   -0.253021
   7 O :    0.176980
   8 H :    0.165811
   9 H :    0.165912
  10 H :    0.128192
  11 H :    0.150453
  12 H :    0.125902
  13 H :    0.122043

  Mayer bond orders larger than 0.1
B(  0-O ,  1-C ) :   1.9903 B(  1-C ,  2-C ) :   0.8584 B(  1-C ,  5-C ) :   0.9237
B(  2-C ,  3-C ) :   1.0499 B(  2-C ,  8-H ) :   0.9228 B(  2-C ,  9-H ) :   0.9002
B(  3-C ,  4-C ) :   2.6315 B(  4-C , 10-H ) :   0.9026 B(  5-C ,  6-C ) :   0.9335
B(  5-C ,  7-O ) :   0.8873 B(  5-C , 11-H ) :   0.9175 B(  6-C ,  7-O ) :   0.9123
B(  6-C , 12-H ) :   0.9234 B(  6-C , 13-H ) :   0.9078

MP2 TOTAL ENERGY:     -381.841270046 Eh
FINAL SINGLE POINT ENERGY      -381.841270045667

DIPOLE MOMENT
-------------
                                X             Y             Z
Electronic contribution:      1.23371      -1.80897      -0.78796
Nuclear contribution   :     -1.83645       2.38097       0.94324
                        -----------------------------------------
Total Dipole Moment    :     -0.60274       0.57200       0.15527
                        -----------------------------------------
Magnitude (a.u.)       :      0.84533
Magnitude (Debye)      :      2.14866

                             ****ORCA TERMINATED NORMALLY****
TOTAL RUN TIME: 0 days 0 hours 9 minutes 55 seconds 853 msec
