                         Program Version 3.0.3 - RELEASE   -
|  1> ! RI-MP2 RIJK def2-TZVP def2-TZVP/C def2-TZVP/JK TIGHTSCF
|  2> % maxcore 2000
|  3> % mp2 density relaxed end
|  4> *xyz 0 1
|  5>  C       -1.8007848006     1.1908460704    -1.3426338160
|  6>  C       -1.1145087141     0.5834996007    -0.0993654286
|  7>  C       -1.0042428503     1.6108176429     1.0311096385
|  8>  C       -1.8497680757    -0.6650445418     0.3884263069
|  9>  O       -2.5361506172    -0.6677257865     1.3867969733
| 10>  C       -1.6678372783    -1.9727349450    -0.3712454380
| 11>  C       -1.3876279961    -3.1719574370     0.5070469899
| 12>  C       -2.3471738318    -2.1494532060    -1.6692776986
| 13>  O       -0.9429718812    -1.9013268057    -1.6059627299
| 14>  H       -1.3008183870     2.1257586905    -1.6138037258
| 15>  H       -1.7431030429     0.5226617057    -2.2035342268
| 16>  H       -2.8514166540     1.4231685839    -1.1379813260
| 17>  H       -0.1142664641     0.2577527164    -0.4108903194
| 18>  H       -0.4435684836     2.4865302637     0.6903937831
| 19>  H       -1.9952687070     1.9371631608     1.3571794781
| 20>  H       -0.4947978963     1.1926860116     1.9034840630
| 21>  H       -2.1705173132    -3.2637462555     1.2629180242
| 22>  H       -1.3466355114    -4.0839020167    -0.0929976768
| 23>  H       -0.4294199580    -3.0557263446     1.0238048764
| 24>  H       -2.6326578869    -3.1557165866    -1.9732534034
| 25>  H       -2.9514097902    -1.3488744013    -2.0905700543
| 26> *
| 27>
| 28>                          ****END OF INPUT****

CARTESIAN COORDINATES (ANGSTROEM)
---------------------------------
  C     -1.800785    1.190846   -1.342634
  C     -1.114509    0.583500   -0.099365
  C     -1.004243    1.610818    1.031110
  C     -1.849768   -0.665045    0.388426
  O     -2.536151   -0.667726    1.386797
  C     -1.667837   -1.972735   -0.371245
  C     -1.387628   -3.171957    0.507047
  C     -2.347174   -2.149453   -1.669278
  O     -0.942972   -1.901327   -1.605963
  H     -1.300818    2.125759   -1.613804
  H     -1.743103    0.522662   -2.203534
  H     -2.851417    1.423169   -1.137981
  H     -0.114266    0.257753   -0.410890
  H     -0.443568    2.486530    0.690394
  H     -1.995269    1.937163    1.357179
  H     -0.494798    1.192686    1.903484
  H     -2.170517   -3.263746    1.262918
  H     -1.346636   -4.083902   -0.092998
  H     -0.429420   -3.055726    1.023805
  H     -2.632658   -3.155717   -1.973253
  H     -2.951410   -1.348874   -2.090570

 Total Charge           Charge          ....    0
 Multiplicity           Mult            ....    1
 Number of Electrons    NEL             ....   70
 Basis Dimension        Dim             ....  351

ORBITAL ENERGIES
----------------

  NO   OCC          E(Eh)            E(eV)
   0   2.0000     -20.583225      -560.0980
   1   2.0000     -20.550856      -559.2172
   2   2.0000     -11.333839      -308.4094
   3   2.0000     -11.307709      -307.6984
   4   2.0000     -11.298975      -307.4607
   5   2.0000     -11.243825      -305.9600
   6   2.0000     -11.230843      -305.6068
   7   2.0000     -11.227311      -305.5107
   8   2.0000     -11.214636      -305.1658
   9   2.0000      -1.430710       -38.9316
  10   2.0000      -1.393243       -37.9121
  11   2.0000      -1.083271       -29.4773
  12   2.0000      -1.029896       -28.0249
  13   2.0000      -0.938368       -25.5343
  14   2.0000      -0.924640       -25.1607
  15   2.0000      -0.906811       -24.6756
  16   2.0000      -0.816754       -22.2250
  17   2.0000      -0.737371       -20.0649
  18   2.0000      -0.699503       -19.0345
  19   2.0000      -0.678224       -18.4554
  20   2.0000      -0.639048       -17.3894
  21   2.0000      -0.616999       -16.7894
  22   2.0000      -0.598192       -16.2776
  23   2.0000      -0.583882       -15.8882
  24   2.0000      -0.572296       -15.5730
  25   2.0000      -0.556080       -15.1317
  26   2.0000      -0.548666       -14.9300
  27   2.0000      -0.535450       -14.5703
  28   2.0000      -0.524516       -14.2728
  29   2.0000      -0.520268       -14.1572
  30   2.0000      -0.485218       -13.2035
  31   2.0000      -0.479097       -13.0369
  32   2.0000      -0.476435       -12.9645
  33   2.0000      -0.442310       -12.0359
  34   2.0000      -0.403655       -10.9840
  35   0.0000       0.125178         3.4063
  36   0.0000       0.137197         3.7333
  37   0.0000       0.159032         4.3275
  38   0.0000       0.165232         4.4962
  39   0.0000       0.183310         4.9881

MULLIKEN ATOMIC CHARGES
-----------------------
   0 C :   -0.459443
   1 C :   -0.002031
   2 C :   -0.372339
   3 C :    0.160746
   4 O :   -0.287482
   5 C :    0.183600
   6 C :   -0.411481
   7 C :   -0.101711
   8 O :   -0.338632
   9 H :    0.138823
  10 H :    0.150931
  11 H :    0.138604
  12 H :    0.111830
  13 H :    0.130027
  14 H :    0.135090
  15 H :    0.132914
  16 H :    0.160298
  17 H :    0.138171
  18 H :    0.137396
  19 H :    0.127059
  20 H :    0.127630
Sum of atomic charges:   -0.0000000

LOEWDIN ATOMIC CHARGES
----------------------
   0 C :   -0.282861
   1 C :   -0.271061
   2 C :   -0.287686
   3 C :   -0.264510
   4 O :    0.169044
   5 C :   -0.313088
   6 C :   -0.258746
   7 C :   -0.237062
   8 O :    0.171414
   9 H :    0.127889
  10 H :    0.125699
  11 H :    0.126424
  12 H :    0.165095
  13 H :    0.123374
  14 H :    0.129010
  15 H :    0.126301
  16 H :    0.139998
  17 H :    0.131599
  18 H :    0.132650
  19 H :    0.124791
  20 H :    0.121724

  Mayer bond orders larger than 0.1
B(  0-C ,  1-C ) :   0.8631 B(  0-C ,  9-H ) :   0.9342 B(  0-C , 10-H ) :   0.9355
B(  0-C , 11-H ) :   0.9325 B(  1-C ,  2-C ) :   0.9188 B(  1-C ,  3-C ) :   0.9084
B(  1-C , 12-H ) :   0.9147 B(  2-C , 13-H ) :   0.9400 B(  2-C , 14-H ) :   0.9262
B(  2-C , 15-H ) :   0.9380 B(  3-C ,  4-O ) :   1.9713 B(  3-C ,  5-C ) :   0.8887
B(  5-C ,  6-C ) :   0.9088 B(  5-C ,  7-C ) :   0.9578 B(  5-C ,  8-O ) :   0.8568
B(  6-C , 16-H ) :   0.9310 B(  6-C , 17-H ) :   0.9345 B(  6-C , 18-H ) :   0.9338
B(  7-C ,  8-O ) :   0.9003 B(  7-C , 19-H ) :   0.9165 B(  7-C , 20-H ) :   0.9047

MP2 TOTAL ENERGY:     -423.520473845 Eh
FINAL SINGLE POINT ENERGY      -423.520473844505

DIPOLE MOMENT
-------------
                                X             Y             Z
Electronic contribution:     -0.99204      -4.31494       0.35062
Nuclear contribution   :      0.97625       4.20513      -0.83911
                        -----------------------------------------
Total Dipole Moment    :     -0.01580      -0.10981      -0.48848
                        -----------------------------------------
Magnitude (a.u.)       :      0.50092
Magnitude (Debye)      :      1.27325

                             ****ORCA TERMINATED NORMALLY****
TOTAL RUN TIME: 0 days 0 hours 22 minutes 40 seconds 2 msec
