                         Program Version 3.0.3 - RELEASE   -
|  1> ! RI-MP2 RIJK def2-TZVP def2-TZVP/C def2-TZVP/JK TIGHTSCF
|  2> % maxcore 2000
|  3> % mp2 density relaxed end
|  4> *xyz 0 1
|  5>  O       -0.0490673296     1.4838317905     0.0379754719
|  6>  C        0.0155168476     0.0864380027    -0.0664103559
|  7>  C        0.7937198364    -0.3454293140    -1.3246440714
|  8>  C        0.0704605029     0.0919265447    -2.5884574718
|  9>  C        0.5613605394    -0.4817079660    -3.9363622999
| 10>  C       -0.8567081259    -1.0782025659    -4.0358766265
| 11>  O       -1.2103678700    -0.5746551803    -2.7299954484
| 12>  C        0.6430480525    -0.5072312923     1.1741205328
| 13>  O        1.0358601098     0.1835402646     2.0839109318
| 14>  H        0.3509450062     1.6992520997     0.8953271806
| 15>  H       -0.9993350643    -0.3416981259    -0.1501921805
| 16>  H        1.7936153870     0.1052208756    -1.2986802441
| 17>  H        0.9071708877    -1.4369313423    -1.3360999669
| 18>  H       -0.0587849808     1.1805726541    -2.5779197029
| 19>  H        0.8280869883     0.2521425579    -4.6977616395
| 20>  H        1.3648021613    -1.2163334986    -3.8481782425
| 21>  H       -1.4899135840    -0.6477215082    -4.8214747793
| 22>  H       -0.9256552673    -2.1711924293    -4.0870125408
| 23>  H        0.7280437328    -1.6130350767     1.2019132132
| 24> *
| 25>
| 26>                          ****END OF INPUT****

CARTESIAN COORDINATES (ANGSTROEM)
---------------------------------
  O     -0.049067    1.483832    0.037975
  C      0.015517    0.086438   -0.066410
  C      0.793720   -0.345429   -1.324644
  C      0.070461    0.091927   -2.588457
  C      0.561361   -0.481708   -3.936362
  C     -0.856708   -1.078203   -4.035877
  O     -1.210368   -0.574655   -2.729995
  C      0.643048   -0.507231    1.174121
  O      1.035860    0.183540    2.083911
  H      0.350945    1.699252    0.895327
  H     -0.999335   -0.341698   -0.150192
  H      1.793615    0.105221   -1.298680
  H      0.907171   -1.436931   -1.336100
  H     -0.058785    1.180573   -2.577920
  H      0.828087    0.252143   -4.697762
  H      1.364802   -1.216333   -3.848178
  H     -1.489914   -0.647722   -4.821475
  H     -0.925655   -2.171192   -4.087013
  H      0.728044   -1.613035    1.201913

 Total Charge           Charge          ....    0
 Multiplicity           Mult            ....    1
 Number of Electrons    NEL             ....   70
 Basis Dimension        Dim             ....  339

ORBITAL ENERGIES
----------------

  NO   OCC          E(Eh)            E(eV)
   0   2.0000     -20.576597      -559.9177
   1   2.0000     -20.558629      -559.4287
   2   2.0000     -20.550710      -559.2133
   3   2.0000     -11.345865      -308.7367
   4   2.0000     -11.298017      -307.4347
   5   2.0000     -11.288766      -307.1829
   6   2.0000     -11.284082      -307.0555
   7   2.0000     -11.242302      -305.9186
   8   2.0000     -11.236386      -305.7576
   9   2.0000      -1.422492       -38.7080
  10   2.0000      -1.381980       -37.6056
  11   2.0000      -1.365099       -37.1462
  12   2.0000      -1.072261       -29.1777
  13   2.0000      -1.016507       -27.6606
  14   2.0000      -0.958868       -26.0921
  15   2.0000      -0.870878       -23.6978
  16   2.0000      -0.799859       -21.7653
  17   2.0000      -0.766662       -20.8619
  18   2.0000      -0.729588       -19.8531
  19   2.0000      -0.697428       -18.9780
  20   2.0000      -0.681689       -18.5497
  21   2.0000      -0.668236       -18.1836
  22   2.0000      -0.636272       -17.3138
  23   2.0000      -0.620577       -16.8867
  24   2.0000      -0.582049       -15.8384
  25   2.0000      -0.556030       -15.1303
  26   2.0000      -0.551314       -15.0020
  27   2.0000      -0.544892       -14.8273
  28   2.0000      -0.537579       -14.6283
  29   2.0000      -0.525469       -14.2987
  30   2.0000      -0.481372       -13.0988
  31   2.0000      -0.468115       -12.7380
  32   2.0000      -0.444123       -12.0852
  33   2.0000      -0.434834       -11.8324
  34   2.0000      -0.415126       -11.2961
  35   0.0000       0.119075         3.2402
  36   0.0000       0.137398         3.7388
  37   0.0000       0.153603         4.1797
  38   0.0000       0.163611         4.4521
  39   0.0000       0.169215         4.6046

MULLIKEN ATOMIC CHARGES
-----------------------
   0 O :   -0.482178
   1 C :    0.071664
   2 C :   -0.241280
   3 C :    0.127224
   4 C :   -0.286286
   5 C :   -0.015681
   6 O :   -0.346000
   7 C :    0.117297
   8 O :   -0.296227
   9 H :    0.331113
  10 H :    0.122593
  11 H :    0.116740
  12 H :    0.114656
  13 H :    0.111037
  14 H :    0.133193
  15 H :    0.122297
  16 H :    0.099169
  17 H :    0.098748
  18 H :    0.101921
Sum of atomic charges:   -0.0000000

LOEWDIN ATOMIC CHARGES
----------------------
   0 O :   -0.002601
   1 C :   -0.363423
   2 C :   -0.229394
   3 C :   -0.277965
   4 C :   -0.228601
   5 C :   -0.273558
   6 O :    0.126358
   7 C :   -0.271072
   8 O :    0.125147
   9 H :    0.182436
  10 H :    0.160569
  11 H :    0.148597
  12 H :    0.145400
  13 H :    0.142987
  14 H :    0.130837
  15 H :    0.131979
  16 H :    0.116883
  17 H :    0.114800
  18 H :    0.120622

  Mayer bond orders larger than 0.1
B(  0-O ,  1-C ) :   1.0704 B(  0-O ,  9-H ) :   0.8056 B(  1-C ,  2-C ) :   0.8635
B(  1-C ,  7-C ) :   0.8720 B(  1-C , 10-H ) :   0.9295 B(  2-C ,  3-C ) :   0.9337
B(  2-C , 11-H ) :   0.9058 B(  2-C , 12-H ) :   0.9143 B(  3-C ,  4-C ) :   0.8828
B(  3-C ,  6-O ) :   0.9097 B(  3-C , 13-H ) :   0.9239 B(  4-C ,  5-C ) :   0.9791
B(  4-C , 14-H ) :   0.9307 B(  4-C , 15-H ) :   0.9272 B(  5-C ,  6-O ) :   0.9456
B(  5-C , 16-H ) :   0.9189 B(  5-C , 17-H ) :   0.9174 B(  7-C ,  8-O ) :   1.9189
B(  7-C , 18-H ) :   0.9340

MP2 TOTAL ENERGY:     -459.413718895 Eh
FINAL SINGLE POINT ENERGY      -459.413718894890

DIPOLE MOMENT
-------------
                                X             Y             Z
Electronic contribution:     -0.83446       2.14544       7.01739
Nuclear contribution   :      1.35004      -2.93125      -7.85472
                        -----------------------------------------
Total Dipole Moment    :      0.51557      -0.78581      -0.83733
                        -----------------------------------------
Magnitude (a.u.)       :      1.25874
Magnitude (Debye)      :      3.19947

                             ****ORCA TERMINATED NORMALLY****
TOTAL RUN TIME: 0 days 0 hours 18 minutes 24 seconds 497 msec
