                         Program Version 3.0.3 - RELEASE   -
|  1> ! RI-MP2 RIJK def2-TZVP def2-TZVP/C def2-TZVP/JK TIGHTSCF
|  2> % maxcore 2000
|  3> % mp2 density relaxed end
|  4> *xyz 0 1
|  5>  O        0.0595092232     0.0451430929     0.3332936179
|  6>  C        0.0085795812     1.2272573408     0.0581305769
|  7>  N       -1.1804538073     1.8820490419    -0.1342771553
|  8>  C       -1.3115027853     3.3105702334    -0.3473753303
|  9>  C       -0.8949823682     4.1498052752     0.8761640017
| 10>  O        0.2868063035     3.6785396046     1.5027698636
| 11>  C        1.3314014935     3.3926067731     0.6223803876
| 12>  C        2.2002322828     2.2402655765     1.0170699292
| 13>  C        1.2396518042     2.0909209939    -0.1389191259
| 14>  H       -2.0028418885     1.3273373345     0.0497071737
| 15>  H       -0.7234940057     3.6068299428    -1.2221070566
| 16>  H       -2.3554423096     3.5325088076    -0.5864642846
| 17>  H       -0.7841259262     5.2005640997     0.5622731426
| 18>  H       -1.6647154785     4.1069955283     1.6526904367
| 19>  H        1.7792412141     4.2621656635     0.1392695432
| 20>  H        3.2608172067     2.2942254605     0.8009391696
| 21>  H        1.9423810706     1.7277047204     1.9366795938
| 22>  H        1.6575727197     2.0418790205    -1.1409084536
| 23> *
| 24>
| 25>                          ****END OF INPUT****

CARTESIAN COORDINATES (ANGSTROEM)
---------------------------------
  O      0.059509    0.045143    0.333294
  C      0.008580    1.227257    0.058131
  N     -1.180454    1.882049   -0.134277
  C     -1.311503    3.310570   -0.347375
  C     -0.894982    4.149805    0.876164
  O      0.286806    3.678540    1.502770
  C      1.331401    3.392607    0.622380
  C      2.200232    2.240266    1.017070
  C      1.239652    2.090921   -0.138919
  H     -2.002842    1.327337    0.049707
  H     -0.723494    3.606830   -1.222107
  H     -2.355442    3.532509   -0.586464
  H     -0.784126    5.200564    0.562273
  H     -1.664715    4.106996    1.652690
  H      1.779241    4.262166    0.139270
  H      3.260817    2.294225    0.800939
  H      1.942381    1.727705    1.936680
  H      1.657573    2.041879   -1.140908

 Total Charge           Charge          ....    0
 Multiplicity           Mult            ....    1
 Number of Electrons    NEL             ....   68
 Basis Dimension        Dim             ....  333

ORBITAL ENERGIES
----------------

  NO   OCC          E(Eh)            E(eV)
   0   2.0000     -20.573942      -559.8454
   1   2.0000     -20.512677      -558.1783
   2   2.0000     -15.581160      -423.9849
   3   2.0000     -11.348848      -308.8179
   4   2.0000     -11.296709      -307.3991
   5   2.0000     -11.291312      -307.2522
   6   2.0000     -11.281900      -306.9961
   7   2.0000     -11.247054      -306.0479
   8   2.0000     -11.236527      -305.7615
   9   2.0000      -1.401635       -38.1404
  10   2.0000      -1.376267       -37.4501
  11   2.0000      -1.231501       -33.5108
  12   2.0000      -1.150537       -31.3077
  13   2.0000      -1.012851       -27.5611
  14   2.0000      -0.917520       -24.9670
  15   2.0000      -0.869306       -23.6550
  16   2.0000      -0.812074       -22.0976
  17   2.0000      -0.769119       -20.9288
  18   2.0000      -0.711823       -19.3697
  19   2.0000      -0.697773       -18.9874
  20   2.0000      -0.663757       -18.0617
  21   2.0000      -0.652148       -17.7458
  22   2.0000      -0.636597       -17.3227
  23   2.0000      -0.626728       -17.0541
  24   2.0000      -0.577387       -15.7115
  25   2.0000      -0.564836       -15.3700
  26   2.0000      -0.547952       -14.9105
  27   2.0000      -0.540147       -14.6981
  28   2.0000      -0.512598       -13.9485
  29   2.0000      -0.475662       -12.9434
  30   2.0000      -0.433821       -11.8049
  31   2.0000      -0.429086       -11.6760
  32   2.0000      -0.403182       -10.9711
  33   2.0000      -0.386642       -10.5211
  34   0.0000       0.126189         3.4338
  35   0.0000       0.141640         3.8542
  36   0.0000       0.156560         4.2602
  37   0.0000       0.167554         4.5594
  38   0.0000       0.187399         5.0994

MULLIKEN ATOMIC CHARGES
-----------------------
   0 O :   -0.335154
   1 C :    0.170390
   2 N :   -0.291326
   3 C :   -0.185234
   4 C :   -0.017257
   5 O :   -0.292357
   6 C :    0.004490
   7 C :   -0.275335
   8 C :   -0.064837
   9 H :    0.240406
  10 H :    0.140137
  11 H :    0.148043
  12 H :    0.097901
  13 H :    0.119925
  14 H :    0.107787
  15 H :    0.137494
  16 H :    0.152384
  17 H :    0.142544
Sum of atomic charges:    0.0000000

LOEWDIN ATOMIC CHARGES
----------------------
   0 O :    0.092913
   1 C :   -0.437655
   2 N :    0.115182
   3 C :   -0.294539
   4 C :   -0.313913
   5 O :    0.197945
   6 C :   -0.295045
   7 C :   -0.184228
   8 C :   -0.178171
   9 H :    0.188338
  10 H :    0.138455
  11 H :    0.142231
  12 H :    0.123125
  13 H :    0.130318
  14 H :    0.132476
  15 H :    0.136597
  16 H :    0.149315
  17 H :    0.156654

  Mayer bond orders larger than 0.1
B(  0-O ,  1-C ) :   2.0175 B(  1-C ,  2-N ) :   1.1712 B(  1-C ,  8-C ) :   0.8794
B(  2-N ,  3-C ) :   0.9133 B(  2-N ,  9-H ) :   0.8595 B(  3-C ,  4-C ) :   0.9064
B(  3-C , 10-H ) :   0.9410 B(  3-C , 11-H ) :   0.9242 B(  4-C ,  5-O ) :   0.9344
B(  4-C , 12-H ) :   0.9341 B(  4-C , 13-H ) :   0.9219 B(  5-O ,  6-C ) :   1.0065
B(  6-C ,  7-C ) :   0.9079 B(  6-C ,  8-C ) :   0.8467 B(  6-C , 14-H ) :   0.9339
B(  7-C ,  8-C ) :   0.8928 B(  7-C , 15-H ) :   0.9253 B(  7-C , 16-H ) :   0.9128
B(  8-C , 17-H ) :   0.9082

MP2 TOTAL ENERGY:     -438.375695609 Eh
FINAL SINGLE POINT ENERGY      -438.375695608599

DIPOLE MOMENT
-------------
                                X             Y             Z
Electronic contribution:     -0.12703      -4.21013       0.89953
Nuclear contribution   :     -0.36320       5.66369      -1.56985
                        -----------------------------------------
Total Dipole Moment    :     -0.49022       1.45355      -0.67032
                        -----------------------------------------
Magnitude (a.u.)       :      1.67406
Magnitude (Debye)      :      4.25511

                             ****ORCA TERMINATED NORMALLY****
TOTAL RUN TIME: 0 days 0 hours 16 minutes 21 seconds 736 msec
