                         Program Version 3.0.3 - RELEASE   -
|  1> ! RI-MP2 RIJK def2-TZVP def2-TZVP/C def2-TZVP/JK TIGHTSCF
|  2> % maxcore 2000
|  3> % mp2 density relaxed end
|  4> *xyz 0 1
|  5>  O        0.0986870068    -0.0184241838    -0.0185201577
|  6>  C        0.0135290281     1.1623387322     0.0953140593
|  7>  O        1.1212654711     1.9621487191    -0.0938804371
|  8>  C        0.9747328809     3.3152407488    -0.0322926802
|  9>  N       -0.1275614570     3.9389003319     0.0465623484
| 10>  C        0.1642311071     5.3845388277     0.0299639227
| 11>  C        1.6856004585     5.5262950353    -0.0065198648
| 12>  N        2.3251082874     4.9385914907     1.1858108922
| 13>  C        2.2171091332     4.1405832372    -0.0675421001
| 14>  H       -0.8807161144     1.7421275272     0.3551200916
| 15>  H       -0.3083895657     5.8324724359    -0.8516550698
| 16>  H       -0.2689559872     5.8559780877     0.9178765435
| 17>  H        2.1617006676     6.3551821947    -0.5177695386
| 18>  H        3.2793086833     5.2891362913     1.2525941389
| 19>  H        3.1043755003     3.8195161344    -0.5985014683
| 20> *
| 21>
| 22>                          ****END OF INPUT****

CARTESIAN COORDINATES (ANGSTROEM)
---------------------------------
  O      0.098687   -0.018424   -0.018520
  C      0.013529    1.162339    0.095314
  O      1.121265    1.962149   -0.093880
  C      0.974733    3.315241   -0.032293
  N     -0.127561    3.938900    0.046562
  C      0.164231    5.384539    0.029964
  C      1.685600    5.526295   -0.006520
  N      2.325108    4.938591    1.185811
  C      2.217109    4.140583   -0.067542
  H     -0.880716    1.742128    0.355120
  H     -0.308390    5.832472   -0.851655
  H     -0.268956    5.855978    0.917877
  H      2.161701    6.355182   -0.517770
  H      3.279309    5.289136    1.252594
  H      3.104376    3.819516   -0.598501

 Total Charge           Charge          ....    0
 Multiplicity           Mult            ....    1
 Number of Electrons    NEL             ....   66
 Basis Dimension        Dim             ....  315

ORBITAL ENERGIES
----------------

  NO   OCC          E(Eh)            E(eV)
   0   2.0000     -20.635620      -561.5238
   1   2.0000     -20.566856      -559.6526
   2   2.0000     -15.590606      -424.2419
   3   2.0000     -15.565743      -423.5654
   4   2.0000     -11.392166      -309.9966
   5   2.0000     -11.360276      -309.1288
   6   2.0000     -11.293503      -307.3118
   7   2.0000     -11.288460      -307.1746
   8   2.0000     -11.274044      -306.7823
   9   2.0000      -1.490068       -40.5468
  10   2.0000      -1.399686       -38.0874
  11   2.0000      -1.316885       -35.8343
  12   2.0000      -1.226926       -33.3864
  13   2.0000      -1.002915       -27.2907
  14   2.0000      -0.966150       -26.2903
  15   2.0000      -0.884969       -24.0812
  16   2.0000      -0.829065       -22.5600
  17   2.0000      -0.799639       -21.7593
  18   2.0000      -0.752433       -20.4747
  19   2.0000      -0.694731       -18.9046
  20   2.0000      -0.677602       -18.4385
  21   2.0000      -0.666516       -18.1368
  22   2.0000      -0.640090       -17.4177
  23   2.0000      -0.614553       -16.7228
  24   2.0000      -0.572834       -15.5876
  25   2.0000      -0.565945       -15.4002
  26   2.0000      -0.540927       -14.7194
  27   2.0000      -0.529803       -14.4167
  28   2.0000      -0.501119       -13.6361
  29   2.0000      -0.480487       -13.0747
  30   2.0000      -0.442626       -12.0445
  31   2.0000      -0.409109       -11.1324
  32   2.0000      -0.401044       -10.9130
  33   0.0000       0.113905         3.0995
  34   0.0000       0.128892         3.5073
  35   0.0000       0.156051         4.2464
  36   0.0000       0.167521         4.5585
  37   0.0000       0.175451         4.7743

MULLIKEN ATOMIC CHARGES
-----------------------
   0 O :   -0.242938
   1 C :    0.194601
   2 O :   -0.217656
   3 C :    0.256385
   4 N :   -0.269824
   5 C :   -0.085145
   6 C :   -0.072819
   7 N :   -0.378061
   8 C :   -0.107301
   9 H :    0.139267
  10 H :    0.122472
  11 H :    0.131191
  12 H :    0.146787
  13 H :    0.224792
  14 H :    0.158250
Sum of atomic charges:   -0.0000000

LOEWDIN ATOMIC CHARGES
----------------------
   0 O :    0.147066
   1 C :   -0.383378
   2 O :    0.294340
   3 C :   -0.339764
   4 N :    0.105835
   5 C :   -0.245032
   6 C :   -0.241332
   7 N :    0.015271
   8 C :   -0.208489
   9 H :    0.121200
  10 H :    0.136901
  11 H :    0.141851
  12 H :    0.137664
  13 H :    0.173400
  14 H :    0.144465

  Mayer bond orders larger than 0.1
B(  0-O ,  1-C ) :   2.0483 B(  1-C ,  2-O ) :   0.9524 B(  1-C ,  9-H ) :   0.9140
B(  2-O ,  3-C ) :   1.0239 B(  3-C ,  4-N ) :   1.7684 B(  3-C ,  8-C ) :   0.9365
B(  4-N ,  5-C ) :   0.9418 B(  5-C ,  6-C ) :   0.9609 B(  5-C , 10-H ) :   0.9293
B(  5-C , 11-H ) :   0.9073 B(  6-C ,  7-N ) :   0.9131 B(  6-C ,  8-C ) :   0.9178
B(  6-C , 12-H ) :   0.9150 B(  7-N ,  8-C ) :   0.9408 B(  7-N , 13-H ) :   0.8682
B(  8-C , 14-H ) :   0.9097

MP2 TOTAL ENERGY:     -453.206767315 Eh
FINAL SINGLE POINT ENERGY      -453.206767314700

DIPOLE MOMENT
-------------
                                X             Y             Z
Electronic contribution:     -0.66628      -6.60772      -0.20359
Nuclear contribution   :      1.36723       8.34306      -0.20236
                        -----------------------------------------
Total Dipole Moment    :      0.70095       1.73534      -0.40595
                        -----------------------------------------
Magnitude (a.u.)       :      1.91508
Magnitude (Debye)      :      4.86775

                             ****ORCA TERMINATED NORMALLY****
TOTAL RUN TIME: 0 days 0 hours 14 minutes 5 seconds 358 msec
