                         Program Version 3.0.3 - RELEASE   -
|  1> ! RI-MP2 RIJK def2-TZVP def2-TZVP/C def2-TZVP/JK TIGHTSCF
|  2> % maxcore 2000
|  3> % mp2 density relaxed end
|  4> *xyz 0 1
|  5>  C       -0.1050251366     1.5638103147     0.1122701569
|  6>  C        0.0183849324     0.0300675043     0.0651546056
|  7>  C        0.6683880029    -0.5033446665     1.3546477754
|  8>  C       -1.3683778526    -0.6017218395    -0.1226981024
|  9>  N        0.8119902523    -0.3815429148    -1.1136729153
| 10>  C        2.1062660475    -0.0560827202    -1.3779020656
| 11>  N        2.8473809560     0.6728339561    -0.6256975869
| 12>  C        2.5914557874    -0.6272302169    -2.6310103033
| 13>  N        3.0149918226    -1.0604322222    -3.6160927802
| 14>  H        0.8778780647     2.0268260713     0.2086895509
| 15>  H       -0.5827256650     1.9402607989    -0.7976755829
| 16>  H       -0.7183223838     1.8599051395     0.9690154778
| 17>  H        0.0603198889    -0.2214624131     2.2198757054
| 18>  H        0.7400538077    -1.5951386310     1.3271166318
| 19>  H        1.6698730841    -0.0900312710     1.4810292868
| 20>  H       -1.8459701377    -0.2418344156    -1.0406879345
| 21>  H       -1.3024755719    -1.6944045203    -0.1674247394
| 22>  H       -2.0162271887    -0.3391418952     0.7172079115
| 23>  H        0.3500129756    -0.9617122370    -1.7936197227
| 24>  H        3.7756263739     0.7799117584    -1.0251556686
| 25> *
| 26>
| 27>                          ****END OF INPUT****

CARTESIAN COORDINATES (ANGSTROEM)
---------------------------------
  C     -0.105025    1.563810    0.112270
  C      0.018385    0.030068    0.065155
  C      0.668388   -0.503345    1.354648
  C     -1.368378   -0.601722   -0.122698
  N      0.811990   -0.381543   -1.113673
  C      2.106266   -0.056083   -1.377902
  N      2.847381    0.672834   -0.625698
  C      2.591456   -0.627230   -2.631010
  N      3.014992   -1.060432   -3.616093
  H      0.877878    2.026826    0.208690
  H     -0.582726    1.940261   -0.797676
  H     -0.718322    1.859905    0.969015
  H      0.060320   -0.221462    2.219876
  H      0.740054   -1.595139    1.327117
  H      1.669873   -0.090031    1.481029
  H     -1.845970   -0.241834   -1.040688
  H     -1.302476   -1.694405   -0.167425
  H     -2.016227   -0.339142    0.717208
  H      0.350013   -0.961712   -1.793620
  H      3.775626    0.779912   -1.025156

 Total Charge           Charge          ....    0
 Multiplicity           Mult            ....    1
 Number of Electrons    NEL             ....   68
 Basis Dimension        Dim             ....  345

ORBITAL ENERGIES
----------------

  NO   OCC          E(Eh)            E(eV)
   0   2.0000     -15.601783      -424.5461
   1   2.0000     -15.597832      -424.4386
   2   2.0000     -15.554175      -423.2506
   3   2.0000     -11.370665      -309.4115
   4   2.0000     -11.296016      -307.3802
   5   2.0000     -11.291739      -307.2638
   6   2.0000     -11.234210      -305.6984
   7   2.0000     -11.216852      -305.2261
   8   2.0000     -11.216835      -305.2256
   9   2.0000      -1.308232       -35.5988
  10   2.0000      -1.237971       -33.6869
  11   2.0000      -1.191237       -32.4152
  12   2.0000      -1.081078       -29.4176
  13   2.0000      -0.952468       -25.9180
  14   2.0000      -0.941448       -25.6181
  15   2.0000      -0.910165       -24.7669
  16   2.0000      -0.790484       -21.5102
  17   2.0000      -0.775569       -21.1043
  18   2.0000      -0.670208       -18.2373
  19   2.0000      -0.647082       -17.6080
  20   2.0000      -0.630939       -17.1687
  21   2.0000      -0.599459       -16.3121
  22   2.0000      -0.588840       -16.0232
  23   2.0000      -0.587280       -15.9807
  24   2.0000      -0.554790       -15.0966
  25   2.0000      -0.543917       -14.8007
  26   2.0000      -0.539659       -14.6849
  27   2.0000      -0.525822       -14.3084
  28   2.0000      -0.499608       -13.5950
  29   2.0000      -0.497451       -13.5363
  30   2.0000      -0.485035       -13.1985
  31   2.0000      -0.462552       -12.5867
  32   2.0000      -0.445380       -12.1194
  33   2.0000      -0.374238       -10.1835
  34   0.0000       0.099101         2.6967
  35   0.0000       0.113640         3.0923
  36   0.0000       0.144429         3.9301
  37   0.0000       0.157553         4.2872
  38   0.0000       0.175815         4.7842

MULLIKEN ATOMIC CHARGES
-----------------------
   0 C :   -0.398986
   1 C :    0.160689
   2 C :   -0.398996
   3 C :   -0.434892
   4 N :   -0.330935
   5 C :    0.343417
   6 N :   -0.425261
   7 C :   -0.220799
   8 N :   -0.044688
   9 H :    0.172575
  10 H :    0.122961
  11 H :    0.127379
  12 H :    0.127374
  13 H :    0.122981
  14 H :    0.172587
  15 H :    0.143574
  16 H :    0.143623
  17 H :    0.141129
  18 H :    0.248641
  19 H :    0.227625
Sum of atomic charges:   -0.0000000

LOEWDIN ATOMIC CHARGES
----------------------
   0 C :   -0.267041
   1 C :   -0.365933
   2 C :   -0.267030
   3 C :   -0.273980
   4 N :    0.163134
   5 C :   -0.392304
   6 N :   -0.055015
   7 C :   -0.152057
   8 N :    0.080625
   9 H :    0.134007
  10 H :    0.125171
  11 H :    0.127866
  12 H :    0.127867
  13 H :    0.125178
  14 H :    0.134005
  15 H :    0.126655
  16 H :    0.126668
  17 H :    0.133642
  18 H :    0.198451
  19 H :    0.170091

  Mayer bond orders larger than 0.1
B(  0-C ,  1-C ) :   0.9248 B(  0-C ,  9-H ) :   0.9253 B(  0-C , 10-H ) :   0.9286
B(  0-C , 11-H ) :   0.9289 B(  1-C ,  2-C ) :   0.9247 B(  1-C ,  3-C ) :   0.8940
B(  1-C ,  4-N ) :   0.8151 B(  2-C , 12-H ) :   0.9289 B(  2-C , 13-H ) :   0.9286
B(  2-C , 14-H ) :   0.9253 B(  3-C , 15-H ) :   0.9351 B(  3-C , 16-H ) :   0.9351
B(  3-C , 17-H ) :   0.9356 B(  4-N ,  5-C ) :   1.1966 B(  4-N , 18-H ) :   0.8729
B(  5-C ,  6-N ) :   1.8392 B(  5-C ,  7-C ) :   0.8562 B(  6-N , 19-H ) :   0.8618
B(  7-C ,  8-N ) :   2.8365

MP2 TOTAL ENERGY:     -398.664374532 Eh
FINAL SINGLE POINT ENERGY      -398.664374531634

DIPOLE MOMENT
-------------
                                X             Y             Z
Electronic contribution:      9.60997      -2.33612      -9.87045
Nuclear contribution   :    -10.70039       2.32923      10.53713
                        -----------------------------------------
Total Dipole Moment    :     -1.09042      -0.00689       0.66668
                        -----------------------------------------
Magnitude (a.u.)       :      1.27809
Magnitude (Debye)      :      3.24865

                             ****ORCA TERMINATED NORMALLY****
TOTAL RUN TIME: 0 days 0 hours 21 minutes 54 seconds 162 msec
