                         Program Version 3.0.3 - RELEASE   -
|  1> ! RI-MP2 RIJK def2-TZVP def2-TZVP/C def2-TZVP/JK TIGHTSCF
|  2> % maxcore 2000
|  3> % mp2 density relaxed end
|  4> *xyz 0 1
|  5>  C       -0.2208101872     1.2352229532    -0.5419863920
|  6>  C       -0.2101085933    -0.2489551720    -0.2309767795
|  7>  O        0.5609152512    -1.0173959905    -0.7600354999
|  8>  C       -1.2118033950    -0.7316344751     0.8270413527
|  9>  N       -1.3161026144    -2.1657191550     0.9935987014
| 10>  C       -2.1458447455    -2.8582709427     0.0351699140
| 11>  C       -1.6311640864    -3.3267806759    -1.3590116225
| 12>  O       -2.1325128770    -4.6592510732    -1.1181911474
| 13>  C       -2.3696402743    -4.3658134535     0.2715441094
| 14>  H        0.6502652053     1.4985484254    -1.1430241861
| 15>  H       -1.1311927257     1.4848556914    -1.1001866403
| 16>  H       -0.2386690211     1.8307397386     0.3769313668
| 17>  H       -0.9020831677    -0.2655992033     1.7762434528
| 18>  H       -2.2016503506    -0.3111255254     0.6088208853
| 19>  H       -0.3825697713    -2.5668653805     0.9955192216
| 20>  H       -3.0941815648    -2.3180800356    -0.0474857938
| 21>  H       -2.0788197221    -2.8748888888    -2.2519471057
| 22>  H       -0.5380956644    -3.2997193468    -1.4470632519
| 23>  H       -1.6080956827    -4.8139370447     0.9276212196
| 24>  H       -3.3616020130    -4.6894137757     0.6057862056
| 25> *
| 26>
| 27>                          ****END OF INPUT****

CARTESIAN COORDINATES (ANGSTROEM)
---------------------------------
  C     -0.220810    1.235223   -0.541986
  C     -0.210109   -0.248955   -0.230977
  O      0.560915   -1.017396   -0.760035
  C     -1.211803   -0.731634    0.827041
  N     -1.316103   -2.165719    0.993599
  C     -2.145845   -2.858271    0.035170
  C     -1.631164   -3.326781   -1.359012
  O     -2.132513   -4.659251   -1.118191
  C     -2.369640   -4.365813    0.271544
  H      0.650265    1.498548   -1.143024
  H     -1.131193    1.484856   -1.100187
  H     -0.238669    1.830740    0.376931
  H     -0.902083   -0.265599    1.776243
  H     -2.201650   -0.311126    0.608821
  H     -0.382570   -2.566865    0.995519
  H     -3.094182   -2.318080   -0.047486
  H     -2.078820   -2.874889   -2.251947
  H     -0.538096   -3.299719   -1.447063
  H     -1.608096   -4.813937    0.927621
  H     -3.361602   -4.689414    0.605786

 Total Charge           Charge          ....    0
 Multiplicity           Mult            ....    1
 Number of Electrons    NEL             ....   70
 Basis Dimension        Dim             ....  345

ORBITAL ENERGIES
----------------

  NO   OCC          E(Eh)            E(eV)
   0   2.0000     -20.556174      -559.3619
   1   2.0000     -20.541074      -558.9510
   2   2.0000     -15.556357      -423.3100
   3   2.0000     -11.340163      -308.5815
   4   2.0000     -11.276595      -306.8517
   5   2.0000     -11.271676      -306.7179
   6   2.0000     -11.266645      -306.5810
   7   2.0000     -11.262802      -306.4764
   8   2.0000     -11.246027      -306.0199
   9   2.0000      -1.400906       -38.1206
  10   2.0000      -1.371927       -37.3320
  11   2.0000      -1.221070       -33.2270
  12   2.0000      -1.043157       -28.3857
  13   2.0000      -0.994185       -27.0531
  14   2.0000      -0.927491       -25.2383
  15   2.0000      -0.917675       -24.9712
  16   2.0000      -0.782625       -21.2963
  17   2.0000      -0.758054       -20.6277
  18   2.0000      -0.692695       -18.8492
  19   2.0000      -0.679018       -18.4770
  20   2.0000      -0.667461       -18.1625
  21   2.0000      -0.646710       -17.5979
  22   2.0000      -0.625343       -17.0165
  23   2.0000      -0.601901       -16.3786
  24   2.0000      -0.578294       -15.7362
  25   2.0000      -0.571217       -15.5436
  26   2.0000      -0.568414       -15.4673
  27   2.0000      -0.553063       -15.0496
  28   2.0000      -0.532106       -14.4793
  29   2.0000      -0.505404       -13.7527
  30   2.0000      -0.500093       -13.6082
  31   2.0000      -0.459684       -12.5086
  32   2.0000      -0.435865       -11.8605
  33   2.0000      -0.406355       -11.0575
  34   2.0000      -0.370786       -10.0896
  35   0.0000       0.117858         3.2071
  36   0.0000       0.132753         3.6124
  37   0.0000       0.156533         4.2595
  38   0.0000       0.164761         4.4834
  39   0.0000       0.175042         4.7631

MULLIKEN ATOMIC CHARGES
-----------------------
   0 C :   -0.407714
   1 C :    0.212028
   2 O :   -0.304678
   3 C :   -0.189761
   4 N :   -0.308028
   5 C :   -0.109443
   6 C :   -0.015483
   7 O :   -0.330064
   8 C :    0.008357
   9 H :    0.155954
  10 H :    0.149074
  11 H :    0.144100
  12 H :    0.154347
  13 H :    0.135187
  14 H :    0.212299
  15 H :    0.097923
  16 H :    0.093344
  17 H :    0.113504
  18 H :    0.086769
  19 H :    0.102284
Sum of atomic charges:   -0.0000000

LOEWDIN ATOMIC CHARGES
----------------------
   0 C :   -0.280452
   1 C :   -0.356572
   2 O :    0.144114
   3 C :   -0.295854
   4 N :    0.015772
   5 C :   -0.302811
   6 C :   -0.268641
   7 O :    0.107246
   8 C :   -0.258968
   9 H :    0.134984
  10 H :    0.139853
  11 H :    0.135923
  12 H :    0.149663
  13 H :    0.146749
  14 H :    0.178276
  15 H :    0.142617
  16 H :    0.113571
  17 H :    0.120465
  18 H :    0.117823
  19 H :    0.116242

  Mayer bond orders larger than 0.1
B(  0-C ,  1-C ) :   0.9133 B(  0-C ,  9-H ) :   0.9336 B(  0-C , 10-H ) :   0.9140
B(  0-C , 11-H ) :   0.9162 B(  1-C ,  2-O ) :   1.9654 B(  1-C ,  3-C ) :   0.8911
B(  3-C ,  4-N ) :   0.9974 B(  3-C , 12-H ) :   0.9021 B(  3-C , 13-H ) :   0.9245
B(  4-N ,  5-C ) :   0.9927 B(  4-N , 14-H ) :   0.8681 B(  5-C ,  6-C ) :   0.9461
B(  5-C ,  8-C ) :   0.9738 B(  5-C , 15-H ) :   0.9167 B(  6-C ,  7-O ) :   0.9434
B(  6-C , 16-H ) :   0.9129 B(  6-C , 17-H ) :   0.9008 B(  7-O ,  8-C ) :   0.9521
B(  8-C , 18-H ) :   0.9037 B(  8-C , 19-H ) :   0.9214

MP2 TOTAL ENERGY:     -439.539481682 Eh
FINAL SINGLE POINT ENERGY      -439.539481682499

DIPOLE MOMENT
-------------
                                X             Y             Z
Electronic contribution:      1.49286      -4.08998      -1.09373
Nuclear contribution   :     -1.79916       5.53546       1.63320
                        -----------------------------------------
Total Dipole Moment    :     -0.30629       1.44548       0.53947
                        -----------------------------------------
Magnitude (a.u.)       :      1.57298
Magnitude (Debye)      :      3.99819

                             ****ORCA TERMINATED NORMALLY****
TOTAL RUN TIME: 0 days 0 hours 17 minutes 36 seconds 413 msec
