                         Program Version 3.0.3 - RELEASE   -
|  1> ! RI-MP2 RIJK def2-TZVP def2-TZVP/C def2-TZVP/JK TIGHTSCF
|  2> % maxcore 2000
|  3> % mp2 density relaxed end
|  4> *xyz 0 1
|  5>  O       -0.1472201165    -0.1290672607     0.1917097412
|  6>  C       -0.0402795012     1.0805573867     0.1002710588
|  7>  C       -1.2645081144     1.9946806360     0.2158465920
|  8>  C       -1.6887175805     2.8743490922    -0.9373201385
|  9>  C       -1.1189650640     3.0880820671    -2.1246918739
| 10>  C        0.1664514674     2.4937487549    -2.6480228927
| 11>  C        1.4327762255     3.1227123425    -2.0283161819
| 12>  C        1.4513001577     3.0225033864    -0.4931874484
| 13>  N        1.1922731421     1.6783243631    -0.0022656797
| 14>  H       -2.0894237478     1.3216341056     0.4703849443
| 15>  H       -1.1211176245     2.6373424563     1.0979238034
| 16>  H       -2.6162012722     3.4057991121    -0.7281548770
| 17>  H       -1.6195988517     3.7906708881    -2.7876472115
| 18>  H        0.1856750377     1.4139049949    -2.4685953503
| 19>  H        0.2085875509     2.6192262864    -3.7343008210
| 20>  H        2.3158657908     2.6193794516    -2.4417912051
| 21>  H        1.5111447596     4.1803566879    -2.3085833872
| 22>  H        2.4214826765     3.3504994999    -0.1059975540
| 23>  H        0.7017121924     3.6950468318    -0.0703015024
| 24>  H        1.9334155522     0.9986621073    -0.1128266262
| 25> *
| 26>
| 27>                          ****END OF INPUT****

CARTESIAN COORDINATES (ANGSTROEM)
---------------------------------
  O     -0.147220   -0.129067    0.191710
  C     -0.040280    1.080557    0.100271
  C     -1.264508    1.994681    0.215847
  C     -1.688718    2.874349   -0.937320
  C     -1.118965    3.088082   -2.124692
  C      0.166451    2.493749   -2.648023
  C      1.432776    3.122712   -2.028316
  C      1.451300    3.022503   -0.493187
  N      1.192273    1.678324   -0.002266
  H     -2.089424    1.321634    0.470385
  H     -1.121118    2.637342    1.097924
  H     -2.616201    3.405799   -0.728155
  H     -1.619599    3.790671   -2.787647
  H      0.185675    1.413905   -2.468595
  H      0.208588    2.619226   -3.734301
  H      2.315866    2.619379   -2.441791
  H      1.511145    4.180357   -2.308583
  H      2.421483    3.350499   -0.105998
  H      0.701712    3.695047   -0.070302
  H      1.933416    0.998662   -0.112827

 Total Charge           Charge          ....    0
 Multiplicity           Mult            ....    1
 Number of Electrons    NEL             ....   68
 Basis Dimension        Dim             ....  345

ORBITAL ENERGIES
----------------

  NO   OCC          E(Eh)            E(eV)
   0   2.0000     -20.513446      -558.1992
   1   2.0000     -15.576111      -423.8475
   2   2.0000     -11.347003      -308.7677
   3   2.0000     -11.271875      -306.7233
   4   2.0000     -11.245587      -306.0080
   5   2.0000     -11.242209      -305.9161
   6   2.0000     -11.235906      -305.7445
   7   2.0000     -11.234995      -305.7197
   8   2.0000     -11.233647      -305.6831
   9   2.0000      -1.378199       -37.5027
  10   2.0000      -1.229624       -33.4598
  11   2.0000      -1.101273       -29.9672
  12   2.0000      -1.055594       -28.7242
  13   2.0000      -0.976929       -26.5836
  14   2.0000      -0.936110       -25.4729
  15   2.0000      -0.832017       -22.6403
  16   2.0000      -0.795774       -21.6541
  17   2.0000      -0.728277       -19.8174
  18   2.0000      -0.682729       -18.5780
  19   2.0000      -0.665798       -18.1173
  20   2.0000      -0.654954       -17.8222
  21   2.0000      -0.615800       -16.7568
  22   2.0000      -0.610017       -16.5994
  23   2.0000      -0.593844       -16.1593
  24   2.0000      -0.569856       -15.5066
  25   2.0000      -0.553662       -15.0659
  26   2.0000      -0.540638       -14.7115
  27   2.0000      -0.515579       -14.0296
  28   2.0000      -0.507869       -13.8198
  29   2.0000      -0.501782       -13.6542
  30   2.0000      -0.469736       -12.7822
  31   2.0000      -0.417732       -11.3671
  32   2.0000      -0.388882       -10.5820
  33   2.0000      -0.357372        -9.7246
  34   0.0000       0.122922         3.3449
  35   0.0000       0.139963         3.8086
  36   0.0000       0.154410         4.2017
  37   0.0000       0.159754         4.3471
  38   0.0000       0.166477         4.5301

MULLIKEN ATOMIC CHARGES
-----------------------
   0 O :   -0.341730
   1 C :    0.170130
   2 C :   -0.159786
   3 C :   -0.239932
   4 C :   -0.156234
   5 C :   -0.183645
   6 C :   -0.236675
   7 C :   -0.114076
   8 N :   -0.303878
   9 H :    0.152117
  10 H :    0.142560
  11 H :    0.121620
  12 H :    0.123071
  13 H :    0.147088
  14 H :    0.133678
  15 H :    0.116707
  16 H :    0.113862
  17 H :    0.144535
  18 H :    0.136321
  19 H :    0.234266
Sum of atomic charges:    0.0000000

LOEWDIN ATOMIC CHARGES
----------------------
   0 O :    0.080008
   1 C :   -0.458188
   2 C :   -0.219741
   3 C :   -0.180417
   4 C :   -0.179191
   5 C :   -0.255792
   6 C :   -0.265544
   7 C :   -0.285029
   8 N :    0.105814
   9 H :    0.162799
  10 H :    0.159187
  11 H :    0.148232
  12 H :    0.145287
  13 H :    0.152242
  14 H :    0.143632
  15 H :    0.136596
  16 H :    0.140270
  17 H :    0.136087
  18 H :    0.144364
  19 H :    0.189386

  Mayer bond orders larger than 0.1
B(  0-O ,  1-C ) :   2.0054 B(  1-C ,  2-C ) :   0.9099 B(  1-C ,  8-N ) :   1.1662
B(  2-C ,  3-C ) :   0.9000 B(  2-C ,  9-H ) :   0.9141 B(  2-C , 10-H ) :   0.9042
B(  3-C ,  4-C ) :   1.8109 B(  3-C , 11-H ) :   0.9239 B(  4-C ,  5-C ) :   0.9081
B(  4-C , 12-H ) :   0.9248 B(  5-C ,  6-C ) :   0.8991 B(  5-C , 13-H ) :   0.9305
B(  5-C , 14-H ) :   0.9367 B(  6-C ,  7-C ) :   0.9307 B(  6-C , 15-H ) :   0.9283
B(  6-C , 16-H ) :   0.9255 B(  7-C ,  8-N ) :   0.8717 B(  7-C , 17-H ) :   0.9407
B(  7-C , 18-H ) :   0.9250 B(  8-N , 19-H ) :   0.8615

MP2 TOTAL ENERGY:     -402.494189267 Eh
FINAL SINGLE POINT ENERGY      -402.494189267347

DIPOLE MOMENT
-------------
                                X             Y             Z
Electronic contribution:     -0.95094      -5.02074       3.29359
Nuclear contribution   :      1.43885       6.37190      -3.67025
                        -----------------------------------------
Total Dipole Moment    :      0.48792       1.35116      -0.37666
                        -----------------------------------------
Magnitude (a.u.)       :      1.48512
Magnitude (Debye)      :      3.77487

                             ****ORCA TERMINATED NORMALLY****
TOTAL RUN TIME: 0 days 0 hours 18 minutes 42 seconds 12 msec
