                         Program Version 3.0.3 - RELEASE   -
|  1> ! RI-MP2 RIJK def2-TZVP def2-TZVP/C def2-TZVP/JK TIGHTSCF
|  2> % maxcore 2000
|  3> % mp2 density relaxed end
|  4> *xyz 0 1
|  5>  C       -0.3285392396     1.5893234994    -0.0316259759
|  6>  C       -0.1084221655     0.0749741943     0.0056551834
|  7>  C        0.7447823251    -0.4264828283    -1.1665714807
|  8>  C        0.9068764203    -1.9431047944    -1.2209140639
|  9>  O       -0.3996270915    -2.5071537340    -1.3477674053
| 10>  C        1.8153470285    -2.4448659269    -2.3773913145
| 11>  C        2.4814418019    -3.7157360245    -1.7918595061
| 12>  O        1.9289773042    -3.8923537568    -0.4824146624
| 13>  C        1.6099686112    -2.5873653589    -0.0149446343
| 14>  H        0.6221731012     2.1332129254     0.0104769123
| 15>  H       -0.8396975116     1.8913545306    -0.9526039641
| 16>  H       -0.9398580301     1.9236325961     0.8124041309
| 17>  H        0.3716707996    -0.1978213289     0.9546155450
| 18>  H       -1.0704010836    -0.4463104732    -0.0145825606
| 19>  H        0.2895735360    -0.1006774549    -2.1106019788
| 20>  H        1.7418884392     0.0303877015    -1.1268314483
| 21>  H       -0.3044773405    -3.4543581844    -1.1890396737
| 22>  H        1.2039186608    -2.6489002484    -3.2582682276
| 23>  H        2.5639266787    -1.6950831460    -2.6477676468
| 24>  H        2.2765948802    -4.6262062170    -2.3608020950
| 25>  H        3.5722012687    -3.5946896733    -1.7222116484
| 26>  H        2.5194751951    -2.0296679592     0.2654385230
| 27>  H        0.9629764117    -2.6871195881     0.8587071616
| 28> *
| 29>
| 30>                          ****END OF INPUT****

CARTESIAN COORDINATES (ANGSTROEM)
---------------------------------
  C     -0.328539    1.589323   -0.031626
  C     -0.108422    0.074974    0.005655
  C      0.744782   -0.426483   -1.166571
  C      0.906876   -1.943105   -1.220914
  O     -0.399627   -2.507154   -1.347767
  C      1.815347   -2.444866   -2.377391
  C      2.481442   -3.715736   -1.791860
  O      1.928977   -3.892354   -0.482415
  C      1.609969   -2.587365   -0.014945
  H      0.622173    2.133213    0.010477
  H     -0.839698    1.891355   -0.952604
  H     -0.939858    1.923633    0.812404
  H      0.371671   -0.197821    0.954616
  H     -1.070401   -0.446310   -0.014583
  H      0.289574   -0.100677   -2.110602
  H      1.741888    0.030388   -1.126831
  H     -0.304477   -3.454358   -1.189040
  H      1.203919   -2.648900   -3.258268
  H      2.563927   -1.695083   -2.647768
  H      2.276595   -4.626206   -2.360802
  H      3.572201   -3.594690   -1.722212
  H      2.519475   -2.029668    0.265439
  H      0.962976   -2.687120    0.858707

 Total Charge           Charge          ....    0
 Multiplicity           Mult            ....    1
 Number of Electrons    NEL             ....   72
 Basis Dimension        Dim             ....  363

ORBITAL ENERGIES
----------------

  NO   OCC          E(Eh)            E(eV)
   0   2.0000     -20.559920      -559.4639
   1   2.0000     -20.549695      -559.1856
   2   2.0000     -11.285805      -307.1024
   3   2.0000     -11.278494      -306.9034
   4   2.0000     -11.274017      -306.7816
   5   2.0000     -11.225075      -305.4498
   6   2.0000     -11.221317      -305.3475
   7   2.0000     -11.215984      -305.2024
   8   2.0000     -11.211308      -305.0752
   9   2.0000      -1.391839       -37.8739
  10   2.0000      -1.350525       -36.7497
  11   2.0000      -1.079847       -29.3841
  12   2.0000      -1.031556       -28.0701
  13   2.0000      -0.992988       -27.0206
  14   2.0000      -0.924051       -25.1447
  15   2.0000      -0.835313       -22.7300
  16   2.0000      -0.809056       -22.0155
  17   2.0000      -0.770677       -20.9712
  18   2.0000      -0.707516       -19.2525
  19   2.0000      -0.681045       -18.5322
  20   2.0000      -0.648450       -17.6452
  21   2.0000      -0.621340       -16.9075
  22   2.0000      -0.612541       -16.6681
  23   2.0000      -0.592712       -16.1285
  24   2.0000      -0.578885       -15.7523
  25   2.0000      -0.549598       -14.9553
  26   2.0000      -0.541967       -14.7477
  27   2.0000      -0.530995       -14.4491
  28   2.0000      -0.520031       -14.1508
  29   2.0000      -0.498857       -13.5746
  30   2.0000      -0.487263       -13.2591
  31   2.0000      -0.477160       -12.9842
  32   2.0000      -0.469117       -12.7653
  33   2.0000      -0.456452       -12.4207
  34   2.0000      -0.442260       -12.0345
  35   2.0000      -0.407668       -11.0932
  36   0.0000       0.129122         3.5136
  37   0.0000       0.148270         4.0346
  38   0.0000       0.166888         4.5413
  39   0.0000       0.170870         4.6496
  40   0.0000       0.182045         4.9537

MULLIKEN ATOMIC CHARGES
-----------------------
   0 C :   -0.387003
   1 C :   -0.217597
   2 C :   -0.260325
   3 C :    0.240948
   4 O :   -0.471682
   5 C :   -0.288818
   6 C :   -0.040186
   7 O :   -0.327684
   8 C :   -0.124138
   9 H :    0.118303
  10 H :    0.124854
  11 H :    0.134163
  12 H :    0.102447
  13 H :    0.137736
  14 H :    0.116401
  15 H :    0.113114
  16 H :    0.322976
  17 H :    0.131920
  18 H :    0.124115
  19 H :    0.121155
  20 H :    0.092640
  21 H :    0.094058
  22 H :    0.142602
Sum of atomic charges:   -0.0000000

LOEWDIN ATOMIC CHARGES
----------------------
   0 C :   -0.321238
   1 C :   -0.289726
   2 C :   -0.232219
   3 C :   -0.378723
   4 O :    0.008004
   5 C :   -0.224854
   6 C :   -0.299956
   7 O :    0.134786
   8 C :   -0.284335
   9 H :    0.118783
  10 H :    0.120927
  11 H :    0.120698
  12 H :    0.133701
  13 H :    0.141983
  14 H :    0.147821
  15 H :    0.142961
  16 H :    0.178679
  17 H :    0.141310
  18 H :    0.139259
  19 H :    0.124385
  20 H :    0.119300
  21 H :    0.125808
  22 H :    0.132644

  Mayer bond orders larger than 0.1
B(  0-C ,  1-C ) :   0.9174 B(  0-C ,  9-H ) :   0.9379 B(  0-C , 10-H ) :   0.9412
B(  0-C , 11-H ) :   0.9444 B(  1-C ,  2-C ) :   0.9364 B(  1-C , 12-H ) :   0.9303
B(  1-C , 13-H ) :   0.9348 B(  2-C ,  3-C ) :   0.8889 B(  2-C , 14-H ) :   0.9244
B(  2-C , 15-H ) :   0.9274 B(  3-C ,  4-O ) :   0.9645 B(  3-C ,  5-C ) :   0.8824
B(  3-C ,  8-C ) :   0.9311 B(  4-O , 16-H ) :   0.8293 B(  5-C ,  6-C ) :   0.9486
B(  5-C , 17-H ) :   0.9320 B(  5-C , 18-H ) :   0.9176 B(  6-C ,  7-O ) :   0.9236
B(  6-C , 19-H ) :   0.9261 B(  6-C , 20-H ) :   0.9300 B(  7-O ,  8-C ) :   0.9074
B(  8-C , 21-H ) :   0.9251 B(  8-C , 22-H ) :   0.9270

MP2 TOTAL ENERGY:     -424.738824742 Eh
FINAL SINGLE POINT ENERGY      -424.738824741964

DIPOLE MOMENT
-------------
                                X             Y             Z
Electronic contribution:      0.75290      -8.54229      -0.70108
Nuclear contribution   :     -0.25444       8.77554       0.50934
                        -----------------------------------------
Total Dipole Moment    :      0.49846       0.23325      -0.19174
                        -----------------------------------------
Magnitude (a.u.)       :      0.58278
Magnitude (Debye)      :      1.48131

                             ****ORCA TERMINATED NORMALLY****
TOTAL RUN TIME: 0 days 0 hours 18 minutes 45 seconds 967 msec
