                         Program Version 3.0.3 - RELEASE   -
|  1> ! RI-MP2 RIJK def2-TZVP def2-TZVP/C def2-TZVP/JK TIGHTSCF
|  2> % maxcore 2000
|  3> % mp2 density relaxed end
|  4> *xyz 0 1
|  5>  O       -0.2089184042     0.1332639046     0.4728480947
|  6>  C       -0.0010269930     1.1536090780    -0.1275369998
|  7>  C        1.3738253555     1.7866755810    -0.2629775035
|  8>  O        1.2517648833     2.9195725586    -1.0803897254
|  9>  C        2.4417891777     3.6907818756    -1.2192907850
| 10>  C        3.4362045738     3.0504412998    -2.2301307550
| 11>  C        3.2305341219     3.8535343614    -3.4908607391
| 12>  C        2.4760314951     4.9299527874    -3.2829391576
| 13>  C        2.0339161630     5.0451247302    -1.8459797075
| 14>  H       -0.8065641132     1.7284252018    -0.6352784734
| 15>  H        1.7399312798     2.0459090567     0.7462119055
| 16>  H        2.0664602539     1.0312806592    -0.6676578970
| 17>  H        2.8958233443     3.8158827071    -0.2263963563
| 18>  H        4.4728202157     3.1226977065    -1.8742264245
| 19>  H        3.2302893437     1.9824952417    -2.3658088362
| 20>  H        3.6742190351     3.5705307009    -4.4387609926
| 21>  H        2.2103102370     5.6653280796    -4.0338234825
| 22>  H        0.9552191070     5.1930720269    -1.7294085269
| 23>  H        2.5271755734     5.8855336928    -1.3403847379
| 24> *
| 25>
| 26>                          ****END OF INPUT****

CARTESIAN COORDINATES (ANGSTROEM)
---------------------------------
  O     -0.208918    0.133264    0.472848
  C     -0.001027    1.153609   -0.127537
  C      1.373825    1.786676   -0.262978
  O      1.251765    2.919573   -1.080390
  C      2.441789    3.690782   -1.219291
  C      3.436205    3.050441   -2.230131
  C      3.230534    3.853534   -3.490861
  C      2.476031    4.929953   -3.282939
  C      2.033916    5.045125   -1.845980
  H     -0.806564    1.728425   -0.635278
  H      1.739931    2.045909    0.746212
  H      2.066460    1.031281   -0.667658
  H      2.895823    3.815883   -0.226396
  H      4.472820    3.122698   -1.874226
  H      3.230289    1.982495   -2.365809
  H      3.674219    3.570531   -4.438761
  H      2.210310    5.665328   -4.033823
  H      0.955219    5.193072   -1.729409
  H      2.527176    5.885534   -1.340385

 Total Charge           Charge          ....    0
 Multiplicity           Mult            ....    1
 Number of Electrons    NEL             ....   68
 Basis Dimension        Dim             ....  339

ORBITAL ENERGIES
----------------

  NO   OCC          E(Eh)            E(eV)
   0   2.0000     -20.572271      -559.7999
   1   2.0000     -20.559772      -559.4598
   2   2.0000     -11.334018      -308.4143
   3   2.0000     -11.296211      -307.3855
   4   2.0000     -11.294844      -307.3483
   5   2.0000     -11.234976      -305.7192
   6   2.0000     -11.231891      -305.6353
   7   2.0000     -11.231090      -305.6135
   8   2.0000     -11.229395      -305.5674
   9   2.0000      -1.405366       -38.2420
  10   2.0000      -1.391472       -37.8639
  11   2.0000      -1.137161       -30.9437
  12   2.0000      -1.012516       -27.5520
  13   2.0000      -0.972300       -26.4576
  14   2.0000      -0.941430       -25.6176
  15   2.0000      -0.811392       -22.0791
  16   2.0000      -0.794640       -21.6232
  17   2.0000      -0.742833       -20.2135
  18   2.0000      -0.706724       -19.2309
  19   2.0000      -0.691293       -18.8110
  20   2.0000      -0.662714       -18.0334
  21   2.0000      -0.646110       -17.5815
  22   2.0000      -0.638575       -17.3765
  23   2.0000      -0.580181       -15.7875
  24   2.0000      -0.559452       -15.2235
  25   2.0000      -0.551580       -15.0093
  26   2.0000      -0.542080       -14.7507
  27   2.0000      -0.535133       -14.5617
  28   2.0000      -0.505463       -13.7544
  29   2.0000      -0.500654       -13.6235
  30   2.0000      -0.478672       -13.0253
  31   2.0000      -0.431112       -11.7312
  32   2.0000      -0.423715       -11.5299
  33   2.0000      -0.354432        -9.6446
  34   0.0000       0.126566         3.4440
  35   0.0000       0.133807         3.6411
  36   0.0000       0.156283         4.2527
  37   0.0000       0.158132         4.3030
  38   0.0000       0.165355         4.4995

MULLIKEN ATOMIC CHARGES
-----------------------
   0 O :   -0.267169
   1 C :    0.088854
   2 C :   -0.040536
   3 O :   -0.314681
   4 C :    0.065117
   5 C :   -0.188259
   6 C :   -0.172472
   7 C :   -0.201935
   8 C :   -0.136220
   9 H :    0.097622
  10 H :    0.119225
  11 H :    0.120422
  12 H :    0.091109
  13 H :    0.118583
  14 H :    0.114962
  15 H :    0.130434
  16 H :    0.128440
  17 H :    0.129357
  18 H :    0.117146
Sum of atomic charges:    0.0000000

LOEWDIN ATOMIC CHARGES
----------------------
   0 O :    0.134976
   1 C :   -0.286222
   2 C :   -0.333865
   3 O :    0.182073
   4 C :   -0.279869
   5 C :   -0.226220
   6 C :   -0.165113
   7 C :   -0.163089
   8 C :   -0.219201
   9 H :    0.113807
  10 H :    0.133643
  11 H :    0.131382
  12 H :    0.131566
  13 H :    0.142066
  14 H :    0.141407
  15 H :    0.136740
  16 H :    0.137044
  17 H :    0.146254
  18 H :    0.142620

  Mayer bond orders larger than 0.1
B(  0-O ,  1-C ) :   1.9870 B(  1-C ,  2-C ) :   0.8920 B(  1-C ,  9-H ) :   0.9313
B(  2-C ,  3-O ) :   0.9173 B(  2-C , 10-H ) :   0.9026 B(  2-C , 11-H ) :   0.9006
B(  3-O ,  4-C ) :   0.9261 B(  4-C ,  5-C ) :   0.9228 B(  4-C ,  8-C ) :   0.9159
B(  4-C , 12-H ) :   0.9479 B(  5-C ,  6-C ) :   0.9350 B(  5-C , 13-H ) :   0.9014
B(  5-C , 14-H ) :   0.9201 B(  6-C ,  7-C ) :   1.7947 B(  6-C , 15-H ) :   0.9267
B(  7-C ,  8-C ) :   0.9582 B(  7-C , 16-H ) :   0.9268 B(  8-C , 17-H ) :   0.9147
B(  8-C , 18-H ) :   0.9078

MP2 TOTAL ENERGY:     -422.314127711 Eh
FINAL SINGLE POINT ENERGY      -422.314127711064

DIPOLE MOMENT
-------------
                                X             Y             Z
Electronic contribution:     -4.37695      -3.90025       2.13529
Nuclear contribution   :      5.15687       4.71226      -2.41517
                        -----------------------------------------
Total Dipole Moment    :      0.77992       0.81201      -0.27988
                        -----------------------------------------
Magnitude (a.u.)       :      1.16016
Magnitude (Debye)      :      2.94890

                             ****ORCA TERMINATED NORMALLY****
TOTAL RUN TIME: 0 days 0 hours 15 minutes 16 seconds 269 msec
