                         Program Version 3.0.3 - RELEASE   -
|  1> ! RI-MP2 RIJK def2-TZVP def2-TZVP/C def2-TZVP/JK TIGHTSCF
|  2> % maxcore 2000
|  3> % mp2 density relaxed end
|  4> *xyz 0 1
|  5>  C       -0.0566669066     1.5575626990     0.0062148928
|  6>  N        0.0324841556     0.1077848948     0.0117305168
|  7>  C        1.0489419606    -0.5453406815    -0.8361070836
|  8>  C        2.4802261793    -0.1529462714    -0.3378091162
|  9>  C        2.2061752654    -0.1560502016     1.1899798230
| 10>  C        0.6956782783    -0.5595578602     1.1510477177
| 11>  C        1.1402620850    -1.7207264455     0.1963092635
| 12>  C        2.6524839402    -1.4030759476     0.4637980414
| 13>  O        3.7653549704    -2.1959120698     0.5682771219
| 14>  H        0.9108607871     2.0560811425     0.1852943051
| 15>  H       -0.4433870734     1.8955715174    -0.9611294845
| 16>  H       -0.7595991991     1.8832060172     0.7804606973
| 17>  H        0.8497053096    -0.6350748549    -1.9039099291
| 18>  H        3.2360980482     0.4801487408    -0.7819398826
| 19>  H        2.7512563264     0.4870391922     1.8679947603
| 20>  H        0.1359353421    -0.6641143081     2.0809187420
| 21>  H        0.6378461700    -2.6785871364     0.0978497637
| 22>  H        3.7526431011    -2.6284002568     1.4297106606
| 23> *
| 24>
| 25>                          ****END OF INPUT****

CARTESIAN COORDINATES (ANGSTROEM)
---------------------------------
  C     -0.056667    1.557563    0.006215
  N      0.032484    0.107785    0.011731
  C      1.048942   -0.545341   -0.836107
  C      2.480226   -0.152946   -0.337809
  C      2.206175   -0.156050    1.189980
  C      0.695678   -0.559558    1.151048
  C      1.140262   -1.720726    0.196309
  C      2.652484   -1.403076    0.463798
  O      3.765355   -2.195912    0.568277
  H      0.910861    2.056081    0.185294
  H     -0.443387    1.895572   -0.961129
  H     -0.759599    1.883206    0.780461
  H      0.849705   -0.635075   -1.903910
  H      3.236098    0.480149   -0.781940
  H      2.751256    0.487039    1.867995
  H      0.135935   -0.664114    2.080919
  H      0.637846   -2.678587    0.097850
  H      3.752643   -2.628400    1.429711

 Total Charge           Charge          ....    0
 Multiplicity           Mult            ....    1
 Number of Electrons    NEL             ....   66
 Basis Dimension        Dim             ....  333

ORBITAL ENERGIES
----------------

  NO   OCC          E(Eh)            E(eV)
   0   2.0000     -20.575438      -559.8861
   1   2.0000     -15.544216      -422.9796
   2   2.0000     -11.292154      -307.2751
   3   2.0000     -11.262160      -306.4590
   4   2.0000     -11.260972      -306.4266
   5   2.0000     -11.236256      -305.7541
   6   2.0000     -11.235111      -305.7229
   7   2.0000     -11.231253      -305.6179
   8   2.0000     -11.229651      -305.5743
   9   2.0000      -1.387040       -37.7433
  10   2.0000      -1.291125       -35.1333
  11   2.0000      -1.148694       -31.2575
  12   2.0000      -0.983126       -26.7522
  13   2.0000      -0.943752       -25.6808
  14   2.0000      -0.885616       -24.0988
  15   2.0000      -0.807048       -21.9609
  16   2.0000      -0.759486       -20.6667
  17   2.0000      -0.728838       -19.8327
  18   2.0000      -0.708856       -19.2890
  19   2.0000      -0.667112       -18.1530
  20   2.0000      -0.634347       -17.2615
  21   2.0000      -0.621703       -16.9174
  22   2.0000      -0.603330       -16.4174
  23   2.0000      -0.575184       -15.6516
  24   2.0000      -0.550952       -14.9922
  25   2.0000      -0.536376       -14.5955
  26   2.0000      -0.512610       -13.9488
  27   2.0000      -0.479023       -13.0349
  28   2.0000      -0.438226       -11.9247
  29   2.0000      -0.435851       -11.8601
  30   2.0000      -0.380088       -10.3427
  31   2.0000      -0.364650        -9.9226
  32   2.0000      -0.362487        -9.8638
  33   0.0000       0.139526         3.7967
  34   0.0000       0.144266         3.9257
  35   0.0000       0.174765         4.7556
  36   0.0000       0.176801         4.8110
  37   0.0000       0.180290         4.9059

MULLIKEN ATOMIC CHARGES
-----------------------
   0 C :   -0.327285
   1 N :   -0.153873
   2 C :   -0.002272
   3 C :   -0.244521
   4 C :   -0.260420
   5 C :   -0.011663
   6 C :   -0.141166
   7 C :    0.174626
   8 O :   -0.444912
   9 H :    0.111866
  10 H :    0.135923
  11 H :    0.135043
  12 H :    0.131061
  13 H :    0.140895
  14 H :    0.144929
  15 H :    0.129320
  16 H :    0.152439
  17 H :    0.330013
Sum of atomic charges:    0.0000000

LOEWDIN ATOMIC CHARGES
----------------------
   0 C :   -0.329343
   1 N :    0.109976
   2 C :   -0.180559
   3 C :   -0.127302
   4 C :   -0.141272
   5 C :   -0.184758
   6 C :   -0.093861
   7 C :   -0.300425
   8 O :    0.040396
   9 H :    0.107492
  10 H :    0.118599
  11 H :    0.118235
  12 H :    0.132706
  13 H :    0.139439
  14 H :    0.136550
  15 H :    0.131184
  16 H :    0.134075
  17 H :    0.188868

  Mayer bond orders larger than 0.1
B(  0-C ,  1-N ) :   0.8926 B(  0-C ,  9-H ) :   0.9187 B(  0-C , 10-H ) :   0.9384
B(  0-C , 11-H ) :   0.9385 B(  1-N ,  2-C ) :   0.9942 B(  1-N ,  5-C ) :   0.9868
B(  2-C ,  3-C ) :   0.8865 B(  2-C ,  6-C ) :   0.9296 B(  2-C , 12-H ) :   0.9064
B(  3-C ,  4-C ) :   0.8863 B(  3-C ,  7-C ) :   0.9056 B(  3-C , 13-H ) :   0.9298
B(  4-C ,  5-C ) :   0.8510 B(  4-C ,  7-C ) :   0.8397 B(  4-C , 14-H ) :   0.9252
B(  5-C ,  6-C ) :   0.9113 B(  5-C , 15-H ) :   0.9054 B(  6-C ,  7-C ) :   0.8751
B(  6-C , 16-H ) :   0.8928 B(  7-C ,  8-O ) :   1.0376 B(  8-O , 17-H ) :   0.8331

MP2 TOTAL ENERGY:     -401.162283401 Eh
FINAL SINGLE POINT ENERGY      -401.162283400884

DIPOLE MOMENT
-------------
                                X             Y             Z
Electronic contribution:      2.92032      -4.79131       0.23820
Nuclear contribution   :     -2.88819       4.90903       0.28770
                        -----------------------------------------
Total Dipole Moment    :      0.03212       0.11772       0.52591
                        -----------------------------------------
Magnitude (a.u.)       :      0.53988
Magnitude (Debye)      :      1.37226

                             ****ORCA TERMINATED NORMALLY****
TOTAL RUN TIME: 0 days 0 hours 16 minutes 58 seconds 557 msec
