                         Program Version 3.0.3 - RELEASE   -
|  1> ! RI-MP2 RIJK def2-TZVP def2-TZVP/C def2-TZVP/JK TIGHTSCF
|  2> % maxcore 2000
|  3> % mp2 density relaxed end
|  4> *xyz 0 1
|  5>  O        0.0100368625    -0.0277197488    -0.3499855374
|  6>  C        0.0030154687     1.0973529345     0.0732343096
|  7>  C        1.2350917250     1.9500998305     0.0789930364
|  8>  C        1.1359241412     3.4525490758    -0.1672682396
|  9>  C       -0.1367048241     4.0757492927    -0.4150080962
| 10>  N       -1.1486033297     4.5901249625    -0.6322872169
| 11>  C        1.4884662035     2.9338021614     1.2174026095
| 12>  C        0.5560587139     3.0563784950     2.3059467444
| 13>  N       -0.1737653583     3.1556917775     3.1965785950
| 14>  H       -0.9112054108     1.5711802982     0.4834277256
| 15>  H        2.1094259109     1.4560021401    -0.3287168033
| 16>  H        1.9565234563     3.8920869832    -0.7241557914
| 17>  H        2.5256590409     3.0546312774     1.5112249543
| 18> *
| 19>
| 20>                          ****END OF INPUT****

CARTESIAN COORDINATES (ANGSTROEM)
---------------------------------
  O      0.010037   -0.027720   -0.349986
  C      0.003015    1.097353    0.073234
  C      1.235092    1.950100    0.078993
  C      1.135924    3.452549   -0.167268
  C     -0.136705    4.075749   -0.415008
  N     -1.148603    4.590125   -0.632287
  C      1.488466    2.933802    1.217403
  C      0.556059    3.056378    2.305947
  N     -0.173765    3.155692    3.196579
  H     -0.911205    1.571180    0.483428
  H      2.109426    1.456002   -0.328717
  H      1.956523    3.892087   -0.724156
  H      2.525659    3.054631    1.511225

 Total Charge           Charge          ....    0
 Multiplicity           Mult            ....    1
 Number of Electrons    NEL             ....   62
 Basis Dimension        Dim             ....  303

ORBITAL ENERGIES
----------------

  NO   OCC          E(Eh)            E(eV)
   0   2.0000     -20.590959      -560.3085
   1   2.0000     -15.605605      -424.6501
   2   2.0000     -15.605605      -424.6501
   3   2.0000     -11.369694      -309.3851
   4   2.0000     -11.349331      -308.8310
   5   2.0000     -11.348689      -308.8135
   6   2.0000     -11.322839      -308.1101
   7   2.0000     -11.307666      -307.6972
   8   2.0000     -11.307662      -307.6971
   9   2.0000      -1.430737       -38.9323
  10   2.0000      -1.275709       -34.7138
  11   2.0000      -1.248663       -33.9779
  12   2.0000      -1.224463       -33.3193
  13   2.0000      -0.989129       -26.9156
  14   2.0000      -0.985458       -26.8157
  15   2.0000      -0.877159       -23.8687
  16   2.0000      -0.778028       -21.1712
  17   2.0000      -0.762078       -20.7372
  18   2.0000      -0.684052       -18.6140
  19   2.0000      -0.676835       -18.4176
  20   2.0000      -0.650114       -17.6905
  21   2.0000      -0.606720       -16.5097
  22   2.0000      -0.591168       -16.0865
  23   2.0000      -0.588240       -16.0068
  24   2.0000      -0.583702       -15.8833
  25   2.0000      -0.537890       -14.6367
  26   2.0000      -0.510429       -13.8895
  27   2.0000      -0.500417       -13.6170
  28   2.0000      -0.470973       -12.8158
  29   2.0000      -0.462206       -12.5773
  30   2.0000      -0.447862       -12.1870
  31   0.0000       0.086633         2.3574
  32   0.0000       0.088961         2.4207
  33   0.0000       0.116318         3.1652
  34   0.0000       0.131488         3.5780
  35   0.0000       0.157071         4.2741

MULLIKEN ATOMIC CHARGES
-----------------------
   0 O :   -0.236333
   1 C :    0.064571
   2 C :   -0.054103
   3 C :    0.009887
   4 C :   -0.202381
   5 N :   -0.027621
   6 C :    0.009888
   7 C :   -0.202383
   8 N :   -0.027621
   9 H :    0.129366
  10 H :    0.166761
  11 H :    0.184985
  12 H :    0.184985
Sum of atomic charges:   -0.0000000

LOEWDIN ATOMIC CHARGES
----------------------
   0 O :    0.162299
   1 C :   -0.263092
   2 C :   -0.131560
   3 C :   -0.143629
   4 C :   -0.168882
   5 N :    0.096242
   6 C :   -0.143627
   7 C :   -0.168882
   8 N :    0.096243
   9 H :    0.133688
  10 H :    0.167559
  11 H :    0.181821
  12 H :    0.181821

  Mayer bond orders larger than 0.1
B(  0-O ,  1-C ) :   1.9828 B(  1-C ,  2-C ) :   0.8983 B(  1-C ,  9-H ) :   0.9345
B(  2-C ,  3-C ) :   0.7993 B(  2-C ,  6-C ) :   0.7993 B(  2-C , 10-H ) :   0.9074
B(  3-C ,  4-C ) :   0.9782 B(  3-C ,  6-C ) :   0.8273 B(  3-C , 11-H ) :   0.8984
B(  4-C ,  5-N ) :   2.8135 B(  6-C ,  7-C ) :   0.9782 B(  6-C , 12-H ) :   0.8984
B(  7-C ,  8-N ) :   2.8135

MP2 TOTAL ENERGY:     -414.907418121 Eh
FINAL SINGLE POINT ENERGY      -414.907418120951

DIPOLE MOMENT
-------------
                                X             Y             Z
Electronic contribution:     -1.95970       0.67614       0.75231
Nuclear contribution   :      4.10171      -0.57531      -1.25994
                        -----------------------------------------
Total Dipole Moment    :      2.14201       0.10083      -0.50763
                        -----------------------------------------
Magnitude (a.u.)       :      2.20364
Magnitude (Debye)      :      5.60122

                             ****ORCA TERMINATED NORMALLY****
TOTAL RUN TIME: 0 days 0 hours 12 minutes 32 seconds 65 msec
