                         Program Version 3.0.3 - RELEASE   -
|  1> ! RI-MP2 RIJK def2-TZVP def2-TZVP/C def2-TZVP/JK TIGHTSCF
|  2> % maxcore 2000
|  3> % mp2 density relaxed end
|  4> *xyz 0 1
|  5>  O       -0.0497364168     1.3264219802    -0.0966627561
|  6>  C        0.0409770844    -0.0616357821    -0.0002961210
|  7>  C       -0.4463135726    -0.7606247260     1.2674835944
|  8>  C       -1.2372118853    -0.8304851840    -0.0002250989
|  9>  O       -2.4598587778    -0.0711952957    -0.1255976694
| 10>  C       -3.0483480317    -1.1682727412    -0.8481179937
| 11>  C       -2.3104532181    -1.4506363700    -2.1174022578
| 12>  C       -1.7813217603    -1.9878160989    -0.7987252339
| 13>  H       -0.9641184867     1.5264890213    -0.3386163064
| 14>  H        0.9131538596    -0.4702267196    -0.5048602755
| 15>  H        0.0757534553    -1.6530465463     1.5989668916
| 16>  H       -0.8419857104    -0.1278540545     2.0551757893
| 17>  H       -4.0860973245    -1.3976124030    -0.6412254316
| 18>  H       -2.7656658920    -2.1966859907    -2.7615899867
| 19>  H       -1.7922496235    -0.6464845130    -2.6317979401
| 20>  H       -1.6260026197    -3.0364271766    -0.5875154840
| 21> *
| 22>
| 23>                          ****END OF INPUT****

CARTESIAN COORDINATES (ANGSTROEM)
---------------------------------
  O     -0.049736    1.326422   -0.096663
  C      0.040977   -0.061636   -0.000296
  C     -0.446314   -0.760625    1.267484
  C     -1.237212   -0.830485   -0.000225
  O     -2.459859   -0.071195   -0.125598
  C     -3.048348   -1.168273   -0.848118
  C     -2.310453   -1.450636   -2.117402
  C     -1.781322   -1.987816   -0.798725
  H     -0.964118    1.526489   -0.338616
  H      0.913154   -0.470227   -0.504860
  H      0.075753   -1.653047    1.598967
  H     -0.841986   -0.127854    2.055176
  H     -4.086097   -1.397612   -0.641225
  H     -2.765666   -2.196686   -2.761590
  H     -1.792250   -0.646485   -2.631798
  H     -1.626003   -3.036427   -0.587515

 Total Charge           Charge          ....    0
 Multiplicity           Mult            ....    1
 Number of Electrons    NEL             ....   60
 Basis Dimension        Dim             ....  296

ORBITAL ENERGIES
----------------

  NO   OCC          E(Eh)            E(eV)
   0   2.0000     -20.570974      -559.7647
   1   2.0000     -20.554908      -559.3275
   2   2.0000     -11.301665      -307.5339
   3   2.0000     -11.300000      -307.4886
   4   2.0000     -11.282632      -307.0160
   5   2.0000     -11.251838      -306.1781
   6   2.0000     -11.245191      -305.9972
   7   2.0000     -11.227961      -305.5283
   8   2.0000      -1.413383       -38.4601
   9   2.0000      -1.362883       -37.0859
  10   2.0000      -1.131295       -30.7841
  11   2.0000      -1.121870       -30.5276
  12   2.0000      -0.888782       -24.1850
  13   2.0000      -0.837950       -22.8018
  14   2.0000      -0.826932       -22.5020
  15   2.0000      -0.749424       -20.3929
  16   2.0000      -0.721828       -19.6419
  17   2.0000      -0.688657       -18.7393
  18   2.0000      -0.665660       -18.1135
  19   2.0000      -0.624164       -16.9844
  20   2.0000      -0.598900       -16.2969
  21   2.0000      -0.568785       -15.4774
  22   2.0000      -0.557554       -15.1718
  23   2.0000      -0.538379       -14.6500
  24   2.0000      -0.531280       -14.4569
  25   2.0000      -0.511497       -13.9185
  26   2.0000      -0.477175       -12.9846
  27   2.0000      -0.415235       -11.2991
  28   2.0000      -0.379852       -10.3363
  29   2.0000      -0.375531       -10.2187
  30   0.0000       0.151402         4.1199
  31   0.0000       0.161682         4.3996
  32   0.0000       0.163112         4.4385
  33   0.0000       0.174684         4.7534
  34   0.0000       0.191478         5.2104

MULLIKEN ATOMIC CHARGES
-----------------------
   0 O :   -0.473108
   1 C :    0.043583
   2 C :   -0.245033
   3 C :    0.107324
   4 O :   -0.349017
   5 C :    0.053093
   6 C :   -0.247796
   7 C :   -0.176738
   8 H :    0.337324
   9 H :    0.119177
  10 H :    0.129533
  11 H :    0.135552
  12 H :    0.140042
  13 H :    0.133921
  14 H :    0.146061
  15 H :    0.146081
Sum of atomic charges:   -0.0000000

LOEWDIN ATOMIC CHARGES
----------------------
   0 O :   -0.000996
   1 C :   -0.296144
   2 C :   -0.186453
   3 C :   -0.275856
   4 O :    0.183127
   5 C :   -0.227962
   6 C :   -0.199936
   7 C :   -0.156774
   8 H :    0.184422
   9 H :    0.137861
  10 H :    0.138193
  11 H :    0.145333
  12 H :    0.132445
  13 H :    0.143419
  14 H :    0.138010
  15 H :    0.141311

  Mayer bond orders larger than 0.1
B(  0-O ,  1-C ) :   0.9981 B(  0-O ,  8-H ) :   0.8178 B(  1-C ,  2-C ) :   0.8678
B(  1-C ,  3-C ) :   0.9019 B(  1-C ,  9-H ) :   0.9374 B(  2-C ,  3-C ) :   0.8914
B(  2-C , 10-H ) :   0.9040 B(  2-C , 11-H ) :   0.8954 B(  3-C ,  4-O ) :   0.9186
B(  3-C ,  7-C ) :   0.8937 B(  4-O ,  5-C ) :   0.9214 B(  5-C ,  6-C ) :   0.8829
B(  5-C ,  7-C ) :   0.9135 B(  5-C , 12-H ) :   0.9235 B(  6-C ,  7-C ) :   0.8744
B(  6-C , 13-H ) :   0.9240 B(  6-C , 14-H ) :   0.9141 B(  7-C , 15-H ) :   0.9073

MP2 TOTAL ENERGY:     -383.024860729 Eh
FINAL SINGLE POINT ENERGY      -383.024860729152

DIPOLE MOMENT
-------------
                                X             Y             Z
Electronic contribution:     -0.52620       2.16982       0.73322
Nuclear contribution   :      0.09911      -3.24383      -1.06632
                        -----------------------------------------
Total Dipole Moment    :     -0.42709      -1.07401      -0.33310
                        -----------------------------------------
Magnitude (a.u.)       :      1.20285
Magnitude (Debye)      :      3.05741

                             ****ORCA TERMINATED NORMALLY****
TOTAL RUN TIME: 0 days 0 hours 10 minutes 37 seconds 750 msec
