                         Program Version 3.0.3 - RELEASE   -
|  1> ! RI-MP2 RIJK def2-TZVP def2-TZVP/C def2-TZVP/JK TIGHTSCF
|  2> % maxcore 2000
|  3> % mp2 density relaxed end
|  4> *xyz 0 1
|  5>  O       -0.0141538286     1.4486954820    -0.1677213399
|  6>  C       -0.0229569982     0.0266895646     0.0093930135
|  7>  C        0.6953955270    -0.7181250457    -1.1634712644
|  8>  C        1.5962398254    -1.7968536788    -0.5151706226
|  9>  C        1.6768417722    -1.3550705930     0.9260755081
| 10>  C        0.8011402592    -0.3930888972     1.2108725918
| 11>  C       -1.4976364609    -0.3363099303     0.0928585743
| 12>  C       -1.9710740500    -1.6397844613     0.6809215159
| 13>  C       -2.2679177109    -0.3374639650     1.3849600977
| 14>  H        0.9075433410     1.7293966370    -0.1727011980
| 15>  H       -0.0161855353    -1.1317685366    -1.8817351017
| 16>  H        1.3087229123     0.0119441323    -1.7016933385
| 17>  H        1.1483575543    -2.7967442070    -0.5877574841
| 18>  H        2.5822943313    -1.8709518331    -0.9882648759
| 19>  H        2.3642174288    -1.8041234848     1.6358092305
| 20>  H        0.6637437947     0.0756157105     2.1787995730
| 21>  H       -2.0410685165     0.0217778396    -0.7775574530
| 22>  H       -2.7824402400    -2.1622781246     0.1864331243
| 23>  H       -1.2298379219    -2.2889510165     1.1346456236
| 24>  H       -1.7334551959    -0.1318709988     2.3055262209
| 25>  H       -3.2837912579     0.0411088966     1.3708111046
| 26> *
| 27>
| 28>                          ****END OF INPUT****

CARTESIAN COORDINATES (ANGSTROEM)
---------------------------------
  O     -0.014154    1.448695   -0.167721
  C     -0.022957    0.026690    0.009393
  C      0.695396   -0.718125   -1.163471
  C      1.596240   -1.796854   -0.515171
  C      1.676842   -1.355071    0.926076
  C      0.801140   -0.393089    1.210873
  C     -1.497636   -0.336310    0.092859
  C     -1.971074   -1.639784    0.680922
  C     -2.267918   -0.337464    1.384960
  H      0.907543    1.729397   -0.172701
  H     -0.016186   -1.131769   -1.881735
  H      1.308723    0.011944   -1.701693
  H      1.148358   -2.796744   -0.587757
  H      2.582294   -1.870952   -0.988265
  H      2.364217   -1.804123    1.635809
  H      0.663744    0.075616    2.178800
  H     -2.041069    0.021778   -0.777557
  H     -2.782440   -2.162278    0.186433
  H     -1.229838   -2.288951    1.134646
  H     -1.733455   -0.131871    2.305526
  H     -3.283791    0.041109    1.370811

 Total Charge           Charge          ....    0
 Multiplicity           Mult            ....    1
 Number of Electrons    NEL             ....   68
 Basis Dimension        Dim             ....  351

ORBITAL ENERGIES
----------------

  NO   OCC          E(Eh)            E(eV)
   0   2.0000     -20.547347      -559.1217
   1   2.0000     -11.287615      -307.1516
   2   2.0000     -11.234780      -305.7139
   3   2.0000     -11.229923      -305.5818
   4   2.0000     -11.224097      -305.4232
   5   2.0000     -11.222554      -305.3812
   6   2.0000     -11.220830      -305.3343
   7   2.0000     -11.219198      -305.2899
   8   2.0000     -11.218023      -305.2579
   9   2.0000      -1.355386       -36.8819
  10   2.0000      -1.147687       -31.2302
  11   2.0000      -1.113581       -30.3021
  12   2.0000      -0.973171       -26.4813
  13   2.0000      -0.952270       -25.9126
  14   2.0000      -0.837195       -22.7812
  15   2.0000      -0.817123       -22.2350
  16   2.0000      -0.773172       -21.0391
  17   2.0000      -0.724028       -19.7018
  18   2.0000      -0.693283       -18.8652
  19   2.0000      -0.663854       -18.0644
  20   2.0000      -0.641328       -17.4514
  21   2.0000      -0.621892       -16.9225
  22   2.0000      -0.594550       -16.1785
  23   2.0000      -0.566756       -15.4222
  24   2.0000      -0.536454       -14.5976
  25   2.0000      -0.529542       -14.4096
  26   2.0000      -0.509598       -13.8669
  27   2.0000      -0.499788       -13.5999
  28   2.0000      -0.492358       -13.3978
  29   2.0000      -0.467468       -12.7204
  30   2.0000      -0.436919       -11.8892
  31   2.0000      -0.415458       -11.3052
  32   2.0000      -0.401845       -10.9348
  33   2.0000      -0.358900        -9.7662
  34   0.0000       0.137914         3.7528
  35   0.0000       0.143255         3.8982
  36   0.0000       0.161661         4.3990
  37   0.0000       0.165395         4.5006
  38   0.0000       0.172131         4.6839

MULLIKEN ATOMIC CHARGES
-----------------------
   0 O :   -0.454495
   1 C :    0.403850
   2 C :   -0.306578
   3 C :   -0.179650
   4 C :   -0.154724
   5 C :   -0.328574
   6 C :   -0.149031
   7 C :   -0.260351
   8 C :   -0.272418
   9 H :    0.306598
  10 H :    0.128850
  11 H :    0.119337
  12 H :    0.120743
  13 H :    0.123321
  14 H :    0.128904
  15 H :    0.133795
  16 H :    0.121060
  17 H :    0.128755
  18 H :    0.134807
  19 H :    0.126380
  20 H :    0.129421
Sum of atomic charges:   -0.0000000

LOEWDIN ATOMIC CHARGES
----------------------
   0 O :    0.005055
   1 C :   -0.335767
   2 C :   -0.194195
   3 C :   -0.242756
   4 C :   -0.148591
   5 C :   -0.135580
   6 C :   -0.191282
   7 C :   -0.223941
   8 C :   -0.220618
   9 H :    0.170271
  10 H :    0.138872
  11 H :    0.138123
  12 H :    0.141753
  13 H :    0.136208
  14 H :    0.136846
  15 H :    0.141798
  16 H :    0.154886
  17 H :    0.129417
  18 H :    0.135662
  19 H :    0.132661
  20 H :    0.131177

  Mayer bond orders larger than 0.1
B(  0-O ,  1-C ) :   0.9782 B(  0-O ,  9-H ) :   0.8418 B(  1-C ,  2-C ) :   0.8685
B(  1-C ,  5-C ) :   0.8608 B(  1-C ,  6-C ) :   0.9068 B(  2-C ,  3-C ) :   0.9510
B(  2-C , 10-H ) :   0.9274 B(  2-C , 11-H ) :   0.9349 B(  3-C ,  4-C ) :   0.9366
B(  3-C , 12-H ) :   0.9049 B(  3-C , 13-H ) :   0.9273 B(  4-C ,  5-C ) :   1.7717
B(  4-C , 14-H ) :   0.9242 B(  5-C , 15-H ) :   0.9379 B(  6-C ,  7-C ) :   0.8611
B(  6-C ,  8-C ) :   0.8989 B(  6-C , 16-H ) :   0.9284 B(  7-C ,  8-C ) :   0.9063
B(  7-C , 17-H ) :   0.9308 B(  7-C , 18-H ) :   0.9227 B(  8-C , 19-H ) :   0.9301
B(  8-C , 20-H ) :   0.9318

MP2 TOTAL ENERGY:     -386.409298651 Eh
FINAL SINGLE POINT ENERGY      -386.409298650783

DIPOLE MOMENT
-------------
                                X             Y             Z
Electronic contribution:      1.21195       3.20871       0.32644
Nuclear contribution   :     -0.68836      -3.66751      -0.33457
                        -----------------------------------------
Total Dipole Moment    :      0.52358      -0.45880      -0.00812
                        -----------------------------------------
Magnitude (a.u.)       :      0.69621
Magnitude (Debye)      :      1.76961

                             ****ORCA TERMINATED NORMALLY****
TOTAL RUN TIME: 0 days 0 hours 19 minutes 1 seconds 248 msec
