                         Program Version 3.0.3 - RELEASE   -
|  1> ! RI-MP2 RIJK def2-TZVP def2-TZVP/C def2-TZVP/JK TIGHTSCF
|  2> % maxcore 2000
|  3> % mp2 density relaxed end
|  4> *xyz 0 1
|  5>  C       -0.1461761425     1.3906181830     0.1189311353
|  6>  N       -0.2284022003    -0.0482277468     0.3212825481
|  7>  C        0.7126854170    -0.6450675576     0.9116196791
|  8>  O        1.8593732452    -0.0769199859     1.3780415061
|  9>  C        2.6148305666    -1.0263368746     2.1736684123
| 10>  C        2.4021805938    -0.7382105279     3.6548795144
| 11>  C        2.1030656806    -2.4069004319     1.7156898760
| 12>  C        0.6710019375    -2.1237599281     1.2663150607
| 13>  O       -0.2239528810    -2.3332093476     2.3550308248
| 14>  H        0.5607101333     1.8931122330     0.7891925609
| 15>  H        0.1557884820     1.6001194974    -0.9148872624
| 16>  H       -1.1410166878     1.8263769637     0.2546673608
| 17>  H        3.6632601926    -0.8704689789     1.9043302869
| 18>  H        1.3630822610    -0.9340129206     3.9320097518
| 19>  H        3.0489050271    -1.3831876325     4.2587691366
| 20>  H        2.6455668842     0.3034111217     3.8816260802
| 21>  H        2.6915564165    -2.7676409289     0.8676465332
| 22>  H        2.1359023414    -3.1569862532     2.5075820093
| 23>  H        0.3680697856    -2.7198055978     0.3978763230
| 24>  H       -1.0444537829    -1.8830289063     2.1181768430
| 25> *
| 26>
| 27>                          ****END OF INPUT****

CARTESIAN COORDINATES (ANGSTROEM)
---------------------------------
  C     -0.146176    1.390618    0.118931
  N     -0.228402   -0.048228    0.321283
  C      0.712685   -0.645068    0.911620
  O      1.859373   -0.076920    1.378042
  C      2.614831   -1.026337    2.173668
  C      2.402181   -0.738211    3.654880
  C      2.103066   -2.406900    1.715690
  C      0.671002   -2.123760    1.266315
  O     -0.223953   -2.333209    2.355031
  H      0.560710    1.893112    0.789193
  H      0.155788    1.600119   -0.914887
  H     -1.141017    1.826377    0.254667
  H      3.663260   -0.870469    1.904330
  H      1.363082   -0.934013    3.932010
  H      3.048905   -1.383188    4.258769
  H      2.645567    0.303411    3.881626
  H      2.691556   -2.767641    0.867647
  H      2.135902   -3.156986    2.507582
  H      0.368070   -2.719806    0.397876
  H     -1.044454   -1.883029    2.118177

 Total Charge           Charge          ....    0
 Multiplicity           Mult            ....    1
 Number of Electrons    NEL             ....   70
 Basis Dimension        Dim             ....  345

ORBITAL ENERGIES
----------------

  NO   OCC          E(Eh)            E(eV)
   0   2.0000     -20.589601      -560.2715
   1   2.0000     -20.565999      -559.6293
   2   2.0000     -15.539149      -422.8417
   3   2.0000     -11.327042      -308.2245
   4   2.0000     -11.299421      -307.4729
   5   2.0000     -11.296648      -307.3974
   6   2.0000     -11.238118      -305.8047
   7   2.0000     -11.237153      -305.7785
   8   2.0000     -11.221182      -305.3439
   9   2.0000      -1.428863       -38.8813
  10   2.0000      -1.369615       -37.2691
  11   2.0000      -1.212394       -32.9909
  12   2.0000      -1.075724       -29.2720
  13   2.0000      -1.016609       -27.6633
  14   2.0000      -0.944665       -25.7056
  15   2.0000      -0.877376       -23.8746
  16   2.0000      -0.821629       -22.3576
  17   2.0000      -0.765252       -20.8236
  18   2.0000      -0.714847       -19.4520
  19   2.0000      -0.686294       -18.6750
  20   2.0000      -0.655193       -17.8287
  21   2.0000      -0.628874       -17.1125
  22   2.0000      -0.606468       -16.5028
  23   2.0000      -0.595502       -16.2044
  24   2.0000      -0.574695       -15.6383
  25   2.0000      -0.569079       -15.4854
  26   2.0000      -0.563122       -15.3233
  27   2.0000      -0.542836       -14.7713
  28   2.0000      -0.534294       -14.5389
  29   2.0000      -0.511642       -13.9225
  30   2.0000      -0.482435       -13.1277
  31   2.0000      -0.479351       -13.0438
  32   2.0000      -0.455096       -12.3838
  33   2.0000      -0.406477       -11.0608
  34   2.0000      -0.379492       -10.3265
  35   0.0000       0.133023         3.6197
  36   0.0000       0.155960         4.2439
  37   0.0000       0.163093         4.4380
  38   0.0000       0.167990         4.5712
  39   0.0000       0.178205         4.8492

MULLIKEN ATOMIC CHARGES
-----------------------
   0 C :   -0.280031
   1 N :   -0.267180
   2 C :    0.075364
   3 O :   -0.274783
   4 C :    0.125835
   5 C :   -0.437308
   6 C :   -0.248182
   7 C :    0.148571
   8 O :   -0.485281
   9 H :    0.128411
  10 H :    0.136145
  11 H :    0.135940
  12 H :    0.108380
  13 H :    0.159952
  14 H :    0.126350
  15 H :    0.137403
  16 H :    0.135584
  17 H :    0.138938
  18 H :    0.109040
  19 H :    0.326851
Sum of atomic charges:   -0.0000000

LOEWDIN ATOMIC CHARGES
----------------------
   0 C :   -0.332525
   1 N :    0.065134
   2 C :   -0.372729
   3 O :    0.260925
   4 C :   -0.290986
   5 C :   -0.293119
   6 C :   -0.210734
   7 C :   -0.303246
   8 O :   -0.016639
   9 H :    0.109995
  10 H :    0.119883
  11 H :    0.115572
  12 H :    0.141012
  13 H :    0.132043
  14 H :    0.128198
  15 H :    0.126416
  16 H :    0.145627
  17 H :    0.150293
  18 H :    0.143215
  19 H :    0.181666

  Mayer bond orders larger than 0.1
B(  0-C ,  1-N ) :   0.8657 B(  0-C ,  9-H ) :   0.9291 B(  0-C , 10-H ) :   0.9334
B(  0-C , 11-H ) :   0.9391 B(  1-N ,  2-C ) :   1.9550 B(  2-C ,  3-O ) :   1.0799
B(  2-C ,  7-C ) :   0.8938 B(  3-O ,  4-C ) :   0.8454 B(  4-C ,  5-C ) :   0.9206
B(  4-C ,  6-C ) :   0.9219 B(  4-C , 12-H ) :   0.9325 B(  5-C , 13-H ) :   0.9254
B(  5-C , 14-H ) :   0.9288 B(  5-C , 15-H ) :   0.9362 B(  6-C ,  7-C ) :   0.9115
B(  6-C , 16-H ) :   0.9221 B(  6-C , 17-H ) :   0.9279 B(  7-C ,  8-O ) :   0.9513
B(  7-C , 18-H ) :   0.9366 B(  8-O , 19-H ) :   0.8305

MP2 TOTAL ENERGY:     -439.586566312 Eh
FINAL SINGLE POINT ENERGY      -439.586566311830

DIPOLE MOMENT
-------------
                                X             Y             Z
Electronic contribution:     -1.89663      -1.59623      -2.44293
Nuclear contribution   :      2.52035       1.51588       2.57597
                        -----------------------------------------
Total Dipole Moment    :      0.62372      -0.08035       0.13304
                        -----------------------------------------
Magnitude (a.u.)       :      0.64279
Magnitude (Debye)      :      1.63384

                             ****ORCA TERMINATED NORMALLY****
TOTAL RUN TIME: 0 days 0 hours 17 minutes 37 seconds 162 msec
