                         Program Version 3.0.3 - RELEASE   -
|  1> ! RI-MP2 RIJK def2-TZVP def2-TZVP/C def2-TZVP/JK TIGHTSCF
|  2> % maxcore 2000
|  3> % mp2 density relaxed end
|  4> *xyz 0 1
|  5>  N       -0.0991882374     1.1952171737    -0.0689740299
|  6>  C       -0.1000880884    -0.0555662422    -0.0743801643
|  7>  O        0.9620255444    -0.9614444622    -0.1940213713
|  8>  C        0.0523670570    -2.0636494978     0.0639369263
|  9>  C       -1.1366104230    -1.1190855932     0.0915913419
| 10>  C       -0.9418841362    -2.1381854486    -1.0251022424
| 11>  C       -0.7756116023    -1.9838237101    -2.5326409921
| 12>  O       -1.6266825939    -3.1352123834    -2.7516580271
| 13>  C       -1.8782140122    -3.3020968342    -1.3424539826
| 14>  H        0.8439742920     1.5684508651    -0.1878902342
| 15>  H        0.3846003037    -2.8429820706     0.7368569335
| 16>  H       -2.0208190284    -1.0790942744     0.7114426408
| 17>  H       -1.2002412783    -1.0699319542    -2.9646145442
| 18>  H        0.2385875167    -2.1367364221    -2.9177646954
| 19>  H       -1.5651484195    -4.2885367413    -0.9768503263
| 20>  H       -2.9341416043    -3.1417900045    -1.0886738726
| 21> *
| 22>
| 23>                          ****END OF INPUT****

CARTESIAN COORDINATES (ANGSTROEM)
---------------------------------
  N     -0.099188    1.195217   -0.068974
  C     -0.100088   -0.055566   -0.074380
  O      0.962026   -0.961444   -0.194021
  C      0.052367   -2.063649    0.063937
  C     -1.136610   -1.119086    0.091591
  C     -0.941884   -2.138185   -1.025102
  C     -0.775612   -1.983824   -2.532641
  O     -1.626683   -3.135212   -2.751658
  C     -1.878214   -3.302097   -1.342454
  H      0.843974    1.568451   -0.187890
  H      0.384600   -2.842982    0.736857
  H     -2.020819   -1.079094    0.711443
  H     -1.200241   -1.069932   -2.964615
  H      0.238588   -2.136736   -2.917765
  H     -1.565148   -4.288537   -0.976850
  H     -2.934142   -3.141790   -1.088674

 Total Charge           Charge          ....    0
 Multiplicity           Mult            ....    1
 Number of Electrons    NEL             ....   66
 Basis Dimension        Dim             ....  321

ORBITAL ENERGIES
----------------

  NO   OCC          E(Eh)            E(eV)
   0   2.0000     -20.603162      -560.6405
   1   2.0000     -20.564532      -559.5894
   2   2.0000     -15.548892      -423.1068
   3   2.0000     -11.354542      -308.9728
   4   2.0000     -11.323638      -308.1319
   5   2.0000     -11.302186      -307.5481
   6   2.0000     -11.294212      -307.3311
   7   2.0000     -11.278298      -306.8981
   8   2.0000     -11.270298      -306.6804
   9   2.0000      -1.451005       -39.4839
  10   2.0000      -1.394121       -37.9360
  11   2.0000      -1.209900       -32.9231
  12   2.0000      -1.159313       -31.5465
  13   2.0000      -0.969917       -26.3928
  14   2.0000      -0.955859       -26.0103
  15   2.0000      -0.897262       -24.4157
  16   2.0000      -0.779045       -21.1989
  17   2.0000      -0.755508       -20.5584
  18   2.0000      -0.727309       -19.7911
  19   2.0000      -0.696452       -18.9514
  20   2.0000      -0.694429       -18.8964
  21   2.0000      -0.681248       -18.5377
  22   2.0000      -0.611798       -16.6479
  23   2.0000      -0.590159       -16.0590
  24   2.0000      -0.581733       -15.8298
  25   2.0000      -0.545365       -14.8401
  26   2.0000      -0.535021       -14.5587
  27   2.0000      -0.500390       -13.6163
  28   2.0000      -0.497268       -13.5314
  29   2.0000      -0.446352       -12.1458
  30   2.0000      -0.435537       -11.8516
  31   2.0000      -0.415918       -11.3177
  32   2.0000      -0.399373       -10.8675
  33   0.0000       0.139455         3.7948
  34   0.0000       0.143794         3.9128
  35   0.0000       0.154996         4.2176
  36   0.0000       0.160770         4.3748
  37   0.0000       0.176170         4.7938

MULLIKEN ATOMIC CHARGES
-----------------------
   0 N :   -0.358072
   1 C :    0.138355
   2 O :   -0.284420
   3 C :    0.062436
   4 C :   -0.157960
   5 C :   -0.071095
   6 C :    0.018754
   7 O :   -0.323157
   8 C :   -0.016599
   9 H :    0.236015
  10 H :    0.158370
  11 H :    0.162540
  12 H :    0.111824
  13 H :    0.114373
  14 H :    0.103705
  15 H :    0.104932
Sum of atomic charges:   -0.0000000

LOEWDIN ATOMIC CHARGES
----------------------
   0 N :   -0.036713
   1 C :   -0.366185
   2 O :    0.223640
   3 C :   -0.174283
   4 C :   -0.105056
   5 C :   -0.197961
   6 C :   -0.213486
   7 O :    0.120276
   8 C :   -0.219979
   9 H :    0.177157
  10 H :    0.140455
  11 H :    0.151652
  12 H :    0.127013
  13 H :    0.126800
  14 H :    0.123034
  15 H :    0.123635

  Mayer bond orders larger than 0.1
B(  0-N ,  1-C ) :   2.0732 B(  0-N ,  9-H ) :   0.8425 B(  1-C ,  2-O ) :   1.0237
B(  1-C ,  4-C ) :   0.9439 B(  2-O ,  3-C ) :   0.9083 B(  3-C ,  4-C ) :   0.8785
B(  3-C ,  5-C ) :   0.8556 B(  3-C , 10-H ) :   0.9161 B(  4-C ,  5-C ) :   0.8187
B(  4-C , 11-H ) :   0.9087 B(  5-C ,  6-C ) :   0.9530 B(  5-C ,  8-C ) :   0.9740
B(  6-C ,  7-O ) :   0.9477 B(  6-C , 12-H ) :   0.9070 B(  6-C , 13-H ) :   0.9132
B(  7-O ,  8-C ) :   0.9748 B(  8-C , 14-H ) :   0.9089 B(  8-C , 15-H ) :   0.9036

MP2 TOTAL ENERGY:     -437.089280721 Eh
FINAL SINGLE POINT ENERGY      -437.089280721283

DIPOLE MOMENT
-------------
                                X             Y             Z
Electronic contribution:      1.91446       1.56091       0.94279
Nuclear contribution   :     -1.88058      -2.21818      -0.37051
                        -----------------------------------------
Total Dipole Moment    :      0.03388      -0.65727       0.57228
                        -----------------------------------------
Magnitude (a.u.)       :      0.87216
Magnitude (Debye)      :      2.21685

                             ****ORCA TERMINATED NORMALLY****
TOTAL RUN TIME: 0 days 0 hours 14 minutes 39 seconds 61 msec
