                         Program Version 3.0.3 - RELEASE   -
|  1> ! RI-MP2 RIJK def2-TZVP def2-TZVP/C def2-TZVP/JK TIGHTSCF
|  2> % maxcore 2000
|  3> % mp2 density relaxed end
|  4> *xyz 0 1
|  5>  N       -0.0734192934     1.3029497166     0.2350379232
|  6>  C       -0.0516298470     0.0713542210    -0.0290242226
|  7>  C       -1.2806274960    -0.7910239837    -0.0431472111
|  8>  C       -1.2251992478    -1.7485164121    -1.2309550775
|  9>  N        0.0575238999    -2.4298740088    -1.1965769543
| 10>  C        1.2334294750    -1.8614870104    -0.8112715177
| 11>  O        2.3124883023    -2.3806695282    -0.8913912084
| 12>  O        1.1410838734    -0.5779267050    -0.2948879733
| 13>  H        0.8715600160     1.6916730896     0.2085487082
| 14>  H       -1.3125171189    -1.3737491549     0.8854233111
| 15>  H       -2.1578060341    -0.1455221316    -0.0761080620
| 16>  H       -2.0208793379    -2.4947605313    -1.1616933010
| 17>  H       -1.3657133048    -1.1987679961    -2.1725799504
| 18>  H        0.1698586933    -3.3176480551    -1.6585811040
| 19> *
| 20>
| 21>                          ****END OF INPUT****

CARTESIAN COORDINATES (ANGSTROEM)
---------------------------------
  N     -0.073419    1.302950    0.235038
  C     -0.051630    0.071354   -0.029024
  C     -1.280627   -0.791024   -0.043147
  C     -1.225199   -1.748516   -1.230955
  N      0.057524   -2.429874   -1.196577
  C      1.233429   -1.861487   -0.811272
  O      2.312488   -2.380670   -0.891391
  O      1.141084   -0.577927   -0.294888
  H      0.871560    1.691673    0.208549
  H     -1.312517   -1.373749    0.885423
  H     -2.157806   -0.145522   -0.076108
  H     -2.020879   -2.494761   -1.161693
  H     -1.365713   -1.198768   -2.172580
  H      0.169859   -3.317648   -1.658581

 Total Charge           Charge          ....    0
 Multiplicity           Mult            ....    1
 Number of Electrons    NEL             ....   60
 Basis Dimension        Dim             ....  284

ORBITAL ENERGIES
----------------

  NO   OCC          E(Eh)            E(eV)
   0   2.0000     -20.629193      -561.3489
   1   2.0000     -20.536230      -558.8192
   2   2.0000     -15.610433      -424.7815
   3   2.0000     -15.555742      -423.2933
   4   2.0000     -11.422795      -310.8301
   5   2.0000     -11.362440      -309.1877
   6   2.0000     -11.305376      -307.6349
   7   2.0000     -11.267583      -306.6065
   8   2.0000      -1.487553       -40.4784
   9   2.0000      -1.386028       -37.7157
  10   2.0000      -1.265675       -34.4408
  11   2.0000      -1.220644       -33.2154
  12   2.0000      -1.071285       -29.1512
  13   2.0000      -0.933588       -25.4042
  14   2.0000      -0.891980       -24.2720
  15   2.0000      -0.785062       -21.3626
  16   2.0000      -0.748384       -20.3646
  17   2.0000      -0.723374       -19.6840
  18   2.0000      -0.688489       -18.7348
  19   2.0000      -0.655565       -17.8388
  20   2.0000      -0.643416       -17.5082
  21   2.0000      -0.626668       -17.0525
  22   2.0000      -0.600220       -16.3328
  23   2.0000      -0.564234       -15.3536
  24   2.0000      -0.538963       -14.6659
  25   2.0000      -0.522050       -14.2057
  26   2.0000      -0.483905       -13.1677
  27   2.0000      -0.451174       -12.2771
  28   2.0000      -0.428254       -11.6534
  29   2.0000      -0.419390       -11.4122
  30   0.0000       0.110632         3.0105
  31   0.0000       0.145835         3.9684
  32   0.0000       0.148480         4.0403
  33   0.0000       0.165028         4.4906
  34   0.0000       0.173370         4.7176

MULLIKEN ATOMIC CHARGES
-----------------------
   0 N :   -0.344877
   1 C :    0.128900
   2 C :   -0.188400
   3 C :   -0.120245
   4 N :   -0.344190
   5 C :    0.326602
   6 O :   -0.316104
   7 O :   -0.209473
   8 H :    0.233423
   9 H :    0.144113
  10 H :    0.153345
  11 H :    0.144116
  12 H :    0.134404
  13 H :    0.258389
Sum of atomic charges:   -0.0000000

LOEWDIN ATOMIC CHARGES
----------------------
   0 N :   -0.030712
   1 C :   -0.388141
   2 C :   -0.220044
   3 C :   -0.269882
   4 N :    0.101744
   5 C :   -0.563597
   6 O :    0.107952
   7 O :    0.296538
   8 H :    0.173752
   9 H :    0.159187
  10 H :    0.159923
  11 H :    0.139435
  12 H :    0.135220
  13 H :    0.198624

  Mayer bond orders larger than 0.1
B(  0-N ,  1-C ) :   2.0718 B(  0-N ,  8-H ) :   0.8532 B(  1-C ,  2-C ) :   0.9283
B(  1-C ,  7-O ) :   1.0007 B(  2-C ,  3-C ) :   0.9219 B(  2-C ,  9-H ) :   0.9177
B(  2-C , 10-H ) :   0.9181 B(  3-C ,  4-N ) :   0.8664 B(  3-C , 11-H ) :   0.9277
B(  3-C , 12-H ) :   0.9303 B(  4-N ,  5-C ) :   1.1716 B(  4-N , 13-H ) :   0.8635
B(  5-C ,  6-O ) :   2.0266 B(  5-C ,  7-O ) :   1.0085

MP2 TOTAL ENERGY:     -415.253655302 Eh
FINAL SINGLE POINT ENERGY      -415.253655301849

DIPOLE MOMENT
-------------
                                X             Y             Z
Electronic contribution:      5.53541      -0.20375       0.22996
Nuclear contribution   :     -7.05792      -0.40312      -0.67883
                        -----------------------------------------
Total Dipole Moment    :     -1.52251      -0.60687      -0.44887
                        -----------------------------------------
Magnitude (a.u.)       :      1.69936
Magnitude (Debye)      :      4.31942

                             ****ORCA TERMINATED NORMALLY****
TOTAL RUN TIME: 0 days 0 hours 9 minutes 43 seconds 887 msec
