                         Program Version 3.0.3 - RELEASE   -
|  1> ! RI-MP2 RIJK def2-TZVP def2-TZVP/C def2-TZVP/JK TIGHTSCF
|  2> % maxcore 2000
|  3> % mp2 density relaxed end
|  4> *xyz 0 1
|  5>  C       -0.0058356586     1.5305644514     0.0204294250
|  6>  C       -0.0103498029     0.0212400563    -0.0041667427
|  7>  C       -0.0633561288    -0.6791509479    -1.2103701937
|  8>  C       -0.0350286412    -2.0707734229    -1.2097515951
|  9>  C        0.0438594667    -2.8084998526    -0.0310937850
| 10>  C        0.0858839903    -4.3146210325    -0.0457293150
| 11>  C        0.0896940643    -2.1054538544     1.1896537281
| 12>  N        0.2245688604    -2.8015350025     2.3969673419
| 13>  C        0.0589428139    -0.7069825076     1.1828027288
| 14>  H        1.0177041642     1.9260015254     0.0219321306
| 15>  H       -0.5117466843     1.9444259324    -0.8566969519
| 16>  H       -0.5029886420     1.9201652962     0.9141603358
| 17>  H       -0.1261404580    -0.1380901705    -2.1491450442
| 18>  H       -0.0770989587    -2.6058479445    -2.1547013475
| 19>  H        0.9741560777    -4.6992396734     0.4706616674
| 20>  H       -0.7882760559    -4.7596509134     0.4515343056
| 21>  H        0.1006075536    -4.6956254102    -1.0697894137
| 22>  H       -0.2034542810    -3.7159541120     2.4106025261
| 23>  H       -0.0389929604    -2.2668689542     3.2123827608
| 24>  H        0.0918993707    -0.1779162031     2.1328283488
| 25> *
| 26>
| 27>                          ****END OF INPUT****

CARTESIAN COORDINATES (ANGSTROEM)
---------------------------------
  C     -0.005836    1.530564    0.020429
  C     -0.010350    0.021240   -0.004167
  C     -0.063356   -0.679151   -1.210370
  C     -0.035029   -2.070773   -1.209752
  C      0.043859   -2.808500   -0.031094
  C      0.085884   -4.314621   -0.045729
  C      0.089694   -2.105454    1.189654
  N      0.224569   -2.801535    2.396967
  C      0.058943   -0.706983    1.182803
  H      1.017704    1.926002    0.021932
  H     -0.511747    1.944426   -0.856697
  H     -0.502989    1.920165    0.914160
  H     -0.126140   -0.138090   -2.149145
  H     -0.077099   -2.605848   -2.154701
  H      0.974156   -4.699240    0.470662
  H     -0.788276   -4.759651    0.451534
  H      0.100608   -4.695625   -1.069789
  H     -0.203454   -3.715954    2.410603
  H     -0.038993   -2.266869    3.212383
  H      0.091899   -0.177916    2.132828

 Total Charge           Charge          ....    0
 Multiplicity           Mult            ....    1
 Number of Electrons    NEL             ....   66
 Basis Dimension        Dim             ....  345

ORBITAL ENERGIES
----------------

  NO   OCC          E(Eh)            E(eV)
   0   2.0000     -15.559943      -423.4076
   1   2.0000     -11.268770      -306.6388
   2   2.0000     -11.233829      -305.6880
   3   2.0000     -11.224846      -305.4436
   4   2.0000     -11.222699      -305.3852
   5   2.0000     -11.221814      -305.3611
   6   2.0000     -11.218593      -305.2734
   7   2.0000     -11.213312      -305.1297
   8   2.0000     -11.208703      -305.0043
   9   2.0000      -1.220995       -33.2250
  10   2.0000      -1.127913       -30.6921
  11   2.0000      -1.052591       -28.6425
  12   2.0000      -0.982839       -26.7444
  13   2.0000      -0.968810       -26.3627
  14   2.0000      -0.889515       -24.2049
  15   2.0000      -0.819753       -22.3066
  16   2.0000      -0.778607       -21.1870
  17   2.0000      -0.689204       -18.7542
  18   2.0000      -0.670224       -18.2377
  19   2.0000      -0.637968       -17.3600
  20   2.0000      -0.610492       -16.6123
  21   2.0000      -0.581137       -15.8135
  22   2.0000      -0.578009       -15.7284
  23   2.0000      -0.565003       -15.3745
  24   2.0000      -0.553660       -15.0658
  25   2.0000      -0.543791       -14.7973
  26   2.0000      -0.520784       -14.1713
  27   2.0000      -0.508382       -13.8338
  28   2.0000      -0.486125       -13.2281
  29   2.0000      -0.474715       -12.9177
  30   2.0000      -0.436820       -11.8865
  31   2.0000      -0.318744        -8.6735
  32   2.0000      -0.286254        -7.7894
  33   0.0000       0.129674         3.5286
  34   0.0000       0.134085         3.6486
  35   0.0000       0.147296         4.0081
  36   0.0000       0.148545         4.0421
  37   0.0000       0.163697         4.4544

MULLIKEN ATOMIC CHARGES
-----------------------
   0 C :   -0.441043
   1 C :    0.169276
   2 C :   -0.211293
   3 C :   -0.150553
   4 C :    0.034303
   5 C :   -0.502273
   6 C :    0.269413
   7 N :   -0.502447
   8 C :   -0.314691
   9 H :    0.141974
  10 H :    0.136177
  11 H :    0.133347
  12 H :    0.111006
  13 H :    0.106735
  14 H :    0.160632
  15 H :    0.136007
  16 H :    0.139696
  17 H :    0.247142
  18 H :    0.237546
  19 H :    0.099046
Sum of atomic charges:   -0.0000000

LOEWDIN ATOMIC CHARGES
----------------------
   0 C :   -0.268325
   1 C :   -0.179332
   2 C :   -0.138044
   3 C :   -0.132736
   4 C :   -0.155670
   5 C :   -0.273853
   6 C :   -0.214416
   7 N :   -0.068552
   8 C :   -0.111924
   9 H :    0.130799
  10 H :    0.128431
  11 H :    0.127368
  12 H :    0.145364
  13 H :    0.146279
  14 H :    0.132178
  15 H :    0.125460
  16 H :    0.130872
  17 H :    0.165249
  18 H :    0.165172
  19 H :    0.145680

  Mayer bond orders larger than 0.1
B(  0-C ,  1-C ) :   0.8591 B(  0-C ,  9-H ) :   0.9246 B(  0-C , 10-H ) :   0.9486
B(  0-C , 11-H ) :   0.9477 B(  1-C ,  2-C ) :   1.3069 B(  1-C ,  8-C ) :   1.3612
B(  2-C ,  3-C ) :   1.3364 B(  2-C , 12-H ) :   0.9402 B(  3-C ,  4-C ) :   1.3480
B(  3-C , 13-H ) :   0.9365 B(  4-C ,  5-C ) :   0.8503 B(  4-C ,  6-C ) :   1.2575
B(  5-C , 14-H ) :   0.9386 B(  5-C , 15-H ) :   0.9352 B(  5-C , 16-H ) :   0.9416
B(  6-C ,  7-N ) :   0.9818 B(  6-C ,  8-C ) :   1.3034 B(  7-N , 17-H ) :   0.8715
B(  7-N , 18-H ) :   0.8816 B(  8-C , 19-H ) :   0.9230

MP2 TOTAL ENERGY:     -365.420396705 Eh
FINAL SINGLE POINT ENERGY      -365.420396704628

DIPOLE MOMENT
-------------
                                X             Y             Z
Electronic contribution:      0.14291      -0.20650       0.26278
Nuclear contribution   :     -0.48925       0.00451       0.14719
                        -----------------------------------------
Total Dipole Moment    :     -0.34634      -0.20199       0.40998
                        -----------------------------------------
Magnitude (a.u.)       :      0.57344
Magnitude (Debye)      :      1.45757

                             ****ORCA TERMINATED NORMALLY****
TOTAL RUN TIME: 0 days 0 hours 20 minutes 24 seconds 228 msec
