                         Program Version 3.0.3 - RELEASE   -
|  1> ! RI-MP2 RIJK def2-TZVP def2-TZVP/C def2-TZVP/JK TIGHTSCF
|  2> % maxcore 2000
|  3> % mp2 density relaxed end
|  4> *xyz 0 1
|  5>  C       -0.0455869171     1.5121183858     0.1118670138
|  6>  N       -0.0051770238     0.0665427767     0.0571387393
|  7>  C       -1.2406901405    -0.6720940008     0.4042680025
|  8>  C       -0.3695554295    -1.6184127106     1.2440481349
|  9>  O       -0.5314587323    -2.6687623453     1.7856370690
| 10>  C        0.8031073018    -0.6404175737     1.0766775051
| 11>  H        0.9482166195     1.9193088978    -0.0988752468
| 12>  H       -0.7311567473     1.8932819602    -0.6513959793
| 13>  H       -0.3749248049     1.9023654872     1.0944985510
| 14>  H       -1.9456285730    -0.1118265443     1.0425353473
| 15>  H       -1.7904990824    -1.0998564131    -0.4407682652
| 16>  H        1.7588823734    -1.0448449571     0.7269786016
| 17>  H        0.9755218363    -0.0665522828     2.0035944068
| 18> *
| 19>
| 20>                          ****END OF INPUT****

CARTESIAN COORDINATES (ANGSTROEM)
---------------------------------
  C     -0.045587    1.512118    0.111867
  N     -0.005177    0.066543    0.057139
  C     -1.240690   -0.672094    0.404268
  C     -0.369555   -1.618413    1.244048
  O     -0.531459   -2.668762    1.785637
  C      0.803107   -0.640418    1.076678
  H      0.948217    1.919309   -0.098875
  H     -0.731157    1.893282   -0.651396
  H     -0.374925    1.902365    1.094499
  H     -1.945629   -0.111827    1.042535
  H     -1.790499   -1.099856   -0.440768
  H      1.758882   -1.044845    0.726979
  H      0.975522   -0.066552    2.003594

 Total Charge           Charge          ....    0
 Multiplicity           Mult            ....    1
 Number of Electrons    NEL             ....   46
 Basis Dimension        Dim             ....  228

ORBITAL ENERGIES
----------------

  NO   OCC          E(Eh)            E(eV)
   0   2.0000     -20.561628      -559.5103
   1   2.0000     -15.566838      -423.5952
   2   2.0000     -11.340890      -308.6013
   3   2.0000     -11.271954      -306.7255
   4   2.0000     -11.271927      -306.7247
   5   2.0000     -11.258603      -306.3622
   6   2.0000      -1.406100       -38.2619
   7   2.0000      -1.265720       -34.4420
   8   2.0000      -1.022813       -27.8321
   9   2.0000      -0.951833       -25.9007
  10   2.0000      -0.849875       -23.1263
  11   2.0000      -0.741763       -20.1844
  12   2.0000      -0.680895       -18.5281
  13   2.0000      -0.673588       -18.3293
  14   2.0000      -0.653187       -17.7741
  15   2.0000      -0.591209       -16.0876
  16   2.0000      -0.589140       -16.0313
  17   2.0000      -0.576560       -15.6890
  18   2.0000      -0.539153       -14.6711
  19   2.0000      -0.509687       -13.8693
  20   2.0000      -0.504848       -13.7376
  21   2.0000      -0.407830       -11.0976
  22   2.0000      -0.380015       -10.3407
  23   0.0000       0.127342         3.4651
  24   0.0000       0.132720         3.6115
  25   0.0000       0.169636         4.6160
  26   0.0000       0.173159         4.7119
  27   0.0000       0.192594         5.2408

MULLIKEN ATOMIC CHARGES
-----------------------
   0 C :   -0.323930
   1 N :   -0.148015
   2 C :   -0.165497
   3 C :    0.155457
   4 O :   -0.244701
   5 C :   -0.165497
   6 H :    0.141845
   7 H :    0.141845
   8 H :    0.105260
   9 H :    0.116572
  10 H :    0.135045
  11 H :    0.135045
  12 H :    0.116572
Sum of atomic charges:    0.0000000

LOEWDIN ATOMIC CHARGES
----------------------
   0 C :   -0.340744
   1 N :    0.063082
   2 C :   -0.228009
   3 C :   -0.311392
   4 O :    0.170026
   5 C :   -0.228009
   6 H :    0.120134
   7 H :    0.120134
   8 H :    0.101971
   9 H :    0.133785
  10 H :    0.132619
  11 H :    0.132619
  12 H :    0.133785

  Mayer bond orders larger than 0.1
B(  0-C ,  1-N ) :   0.9044 B(  0-C ,  6-H ) :   0.9379 B(  0-C ,  7-H ) :   0.9379
B(  0-C ,  8-H ) :   0.9228 B(  1-N ,  2-C ) :   0.9382 B(  1-N ,  5-C ) :   0.9382
B(  2-C ,  3-C ) :   0.9045 B(  2-C ,  9-H ) :   0.8990 B(  2-C , 10-H ) :   0.9027
B(  3-C ,  4-O ) :   2.0455 B(  3-C ,  5-C ) :   0.9045 B(  5-C , 11-H ) :   0.9027
B(  5-C , 12-H ) :   0.8990

MP2 TOTAL ENERGY:     -285.989312553 Eh
FINAL SINGLE POINT ENERGY      -285.989312553038

DIPOLE MOMENT
-------------
                                X             Y             Z
Electronic contribution:     -0.41697      -6.39306       1.56855
Nuclear contribution   :      0.45123       7.43030      -1.72154
                        -----------------------------------------
Total Dipole Moment    :      0.03426       1.03724      -0.15299
                        -----------------------------------------
Magnitude (a.u.)       :      1.04902
Magnitude (Debye)      :      2.66640

                             ****ORCA TERMINATED NORMALLY****
TOTAL RUN TIME: 0 days 0 hours 4 minutes 53 seconds 39 msec
