                         Program Version 3.0.3 - RELEASE   -
|  1> ! RI-MP2 RIJK def2-TZVP def2-TZVP/C def2-TZVP/JK TIGHTSCF
|  2> % maxcore 2000
|  3> % mp2 density relaxed end
|  4> *xyz 0 1
|  5>  C       -0.4883650327     1.4377623728     0.0078628102
|  6>  C        0.0182371796    -0.0023971964    -0.0197297298
|  7>  C        0.9315020094    -0.3691229733    -1.2070066205
|  8>  C        1.5904289038    -1.6965273086    -0.7798964549
|  9>  C        1.8379756482    -1.5065800284     0.7113115057
| 10>  O        2.9348355283    -0.5934955877     0.9719582944
| 11>  C        2.0687741864     0.3751840100     1.5901835139
| 12>  C        0.8094681734    -0.4455682490     1.2239881946
| 13>  O       -0.0948673995    -0.7433554559     2.2549090384
| 14>  H        0.3373195178     2.1576540880    -0.0005803650
| 15>  H       -1.1136057820     1.6479047309    -0.8658041332
| 16>  H       -1.0899965184     1.6194464984     0.9036377123
| 17>  H       -0.8517802707    -0.6730807013    -0.0407897548
| 18>  H        0.3797870756    -0.4457176159    -2.1479438067
| 19>  H        1.7005994629     0.4002664045    -1.3428269286
| 20>  H        0.8979934554    -2.5349173743    -0.9250928564
| 21>  H        2.5123967719    -1.9244557815    -1.3222985837
| 22>  H        1.9395994561    -2.4340461582     1.2873100163
| 23>  H        2.2370416631     0.4507072391     2.6756865408
| 24>  H        2.1797822735     1.3729140801     1.1497890494
| 25>  H        0.4039551279    -0.9748254532     3.0454575076
| 26> *
| 27>
| 28>                          ****END OF INPUT****

CARTESIAN COORDINATES (ANGSTROEM)
---------------------------------
  C     -0.488365    1.437762    0.007863
  C      0.018237   -0.002397   -0.019730
  C      0.931502   -0.369123   -1.207007
  C      1.590429   -1.696527   -0.779896
  C      1.837976   -1.506580    0.711312
  O      2.934836   -0.593496    0.971958
  C      2.068774    0.375184    1.590184
  C      0.809468   -0.445568    1.223988
  O     -0.094867   -0.743355    2.254909
  H      0.337320    2.157654   -0.000580
  H     -1.113606    1.647905   -0.865804
  H     -1.089997    1.619446    0.903638
  H     -0.851780   -0.673081   -0.040790
  H      0.379787   -0.445718   -2.147944
  H      1.700599    0.400266   -1.342827
  H      0.897993   -2.534917   -0.925093
  H      2.512397   -1.924456   -1.322299
  H      1.939599   -2.434046    1.287310
  H      2.237042    0.450707    2.675687
  H      2.179782    1.372914    1.149789
  H      0.403955   -0.974825    3.045458

 Total Charge           Charge          ....    0
 Multiplicity           Mult            ....    1
 Number of Electrons    NEL             ....   70
 Basis Dimension        Dim             ....  351

ORBITAL ENERGIES
----------------

  NO   OCC          E(Eh)            E(eV)
   0   2.0000     -20.567810      -559.6786
   1   2.0000     -20.549032      -559.1676
   2   2.0000     -11.287948      -307.1607
   3   2.0000     -11.278213      -306.8958
   4   2.0000     -11.276872      -306.8593
   5   2.0000     -11.228008      -305.5296
   6   2.0000     -11.221700      -305.3580
   7   2.0000     -11.220364      -305.3216
   8   2.0000     -11.214217      -305.1543
   9   2.0000      -1.393806       -37.9274
  10   2.0000      -1.362549       -37.0768
  11   2.0000      -1.113477       -30.2992
  12   2.0000      -1.014625       -27.6094
  13   2.0000      -0.965743       -26.2792
  14   2.0000      -0.919892       -25.0315
  15   2.0000      -0.873827       -23.7780
  16   2.0000      -0.794299       -21.6140
  17   2.0000      -0.741123       -20.1670
  18   2.0000      -0.708385       -19.2761
  19   2.0000      -0.673552       -18.3283
  20   2.0000      -0.647159       -17.6101
  21   2.0000      -0.608000       -16.5445
  22   2.0000      -0.596029       -16.2188
  23   2.0000      -0.586694       -15.9647
  24   2.0000      -0.580551       -15.7976
  25   2.0000      -0.569223       -15.4893
  26   2.0000      -0.547928       -14.9099
  27   2.0000      -0.517217       -14.0742
  28   2.0000      -0.504482       -13.7277
  29   2.0000      -0.495222       -13.4757
  30   2.0000      -0.471097       -12.8192
  31   2.0000      -0.461042       -12.5456
  32   2.0000      -0.438826       -11.9411
  33   2.0000      -0.414725       -11.2852
  34   2.0000      -0.409312       -11.1379
  35   0.0000       0.131849         3.5878
  36   0.0000       0.148422         4.0388
  37   0.0000       0.154824         4.2130
  38   0.0000       0.173045         4.7088
  39   0.0000       0.190507         5.1840

MULLIKEN ATOMIC CHARGES
-----------------------
   0 C :   -0.418285
   1 C :   -0.069930
   2 C :   -0.247112
   3 C :   -0.218071
   4 C :    0.066191
   5 O :   -0.337514
   6 C :   -0.069714
   7 C :    0.169526
   8 O :   -0.448489
   9 H :    0.115269
  10 H :    0.135364
  11 H :    0.148879
  12 H :    0.091650
  13 H :    0.126826
  14 H :    0.116069
  15 H :    0.110990
  16 H :    0.127467
  17 H :    0.090954
  18 H :    0.088202
  19 H :    0.102619
  20 H :    0.319109
Sum of atomic charges:   -0.0000000

LOEWDIN ATOMIC CHARGES
----------------------
   0 C :   -0.290417
   1 C :   -0.236572
   2 C :   -0.226471
   3 C :   -0.238211
   4 C :   -0.235907
   5 O :    0.136261
   6 C :   -0.244707
   7 C :   -0.330459
   8 O :    0.023487
   9 H :    0.120365
  10 H :    0.125518
  11 H :    0.129585
  12 H :    0.163858
  13 H :    0.134853
  14 H :    0.141944
  15 H :    0.143138
  16 H :    0.140582
  17 H :    0.129956
  18 H :    0.116613
  19 H :    0.119637
  20 H :    0.176947

  Mayer bond orders larger than 0.1
B(  0-C ,  1-C ) :   0.9090 B(  0-C ,  9-H ) :   0.9324 B(  0-C , 10-H ) :   0.9413
B(  0-C , 11-H ) :   0.9411 B(  1-C ,  2-C ) :   0.9384 B(  1-C ,  7-C ) :   0.9084
B(  1-C , 12-H ) :   0.9185 B(  2-C ,  3-C ) :   0.9443 B(  2-C , 13-H ) :   0.9295
B(  2-C , 14-H ) :   0.9159 B(  3-C ,  4-C ) :   0.9274 B(  3-C , 15-H ) :   0.9170
B(  3-C , 16-H ) :   0.9146 B(  4-C ,  5-O ) :   0.9542 B(  4-C ,  7-C ) :   0.9145
B(  4-C , 17-H ) :   0.9098 B(  5-O ,  6-C ) :   0.9531 B(  6-C ,  7-C ) :   0.9632
B(  6-C , 18-H ) :   0.8964 B(  6-C , 19-H ) :   0.9127 B(  7-C ,  8-O ) :   1.0551
B(  8-O , 20-H ) :   0.8380

MP2 TOTAL ENERGY:     -423.529390381 Eh
FINAL SINGLE POINT ENERGY      -423.529390380813

DIPOLE MOMENT
-------------
                                X             Y             Z
Electronic contribution:      2.81480      -3.08540       4.15521
Nuclear contribution   :     -3.02111       3.06199      -4.06121
                        -----------------------------------------
Total Dipole Moment    :     -0.20631      -0.02341       0.09400
                        -----------------------------------------
Magnitude (a.u.)       :      0.22792
Magnitude (Debye)      :      0.57932

                             ****ORCA TERMINATED NORMALLY****
TOTAL RUN TIME: 0 days 0 hours 19 minutes 2 seconds 538 msec
