                         Program Version 3.0.3 - RELEASE   -
|  1> ! RI-MP2 RIJK def2-TZVP def2-TZVP/C def2-TZVP/JK TIGHTSCF
|  2> % maxcore 2000
|  3> % mp2 density relaxed end
|  4> *xyz 0 1
|  5>  C        0.0080523428     1.5050533947    -0.2182560413
|  6>  C        1.5265780184     1.5226189142     0.1446289736
|  7>  C        1.3738140505     0.1043360664     0.6736668781
|  8>  C       -0.0495137598    -0.0114753830     0.1488146602
|  9>  C        2.1513662388    -0.6925395048     1.3930858859
| 10>  C        3.5558462470    -0.3544254083     1.8794482203
| 11>  C        3.9402698747    -1.5721627063     2.6848686462
| 12>  C        2.9858926480    -2.5011091951     2.6874031485
| 13>  C        1.7767855704    -2.0860804558     1.8841728377
| 14>  H       -0.5966278182     2.1280953092     0.4443863086
| 15>  H       -0.2402396845     1.7573243968    -1.2511886214
| 16>  H        2.1844380998     1.6020899362    -0.7292753700
| 17>  H        1.8460173740     2.2807563118     0.8681130386
| 18>  H       -0.8140228737    -0.3084029034     0.8751774336
| 19>  H       -0.1490998412    -0.6692671407    -0.7230780785
| 20>  H        4.2538842965    -0.1768317553     1.0477563302
| 21>  H        3.5767263789     0.5655935848     2.4822468572
| 22>  H        4.8957186472    -1.6547047929     3.1909574988
| 23>  H        3.0439898189    -3.4570916797     3.1958750597
| 24>  H        0.8581857220    -2.0805076942     2.4894664739
| 25>  H        1.5781435793    -2.7812734745     1.0548622502
| 26> *
| 27>
| 28>                          ****END OF INPUT****

CARTESIAN COORDINATES (ANGSTROEM)
---------------------------------
  C      0.008052    1.505053   -0.218256
  C      1.526578    1.522619    0.144629
  C      1.373814    0.104336    0.673667
  C     -0.049514   -0.011475    0.148815
  C      2.151366   -0.692540    1.393086
  C      3.555846   -0.354425    1.879448
  C      3.940270   -1.572163    2.684869
  C      2.985893   -2.501109    2.687403
  C      1.776786   -2.086080    1.884173
  H     -0.596628    2.128095    0.444386
  H     -0.240240    1.757324   -1.251189
  H      2.184438    1.602090   -0.729275
  H      1.846017    2.280756    0.868113
  H     -0.814023   -0.308403    0.875177
  H     -0.149100   -0.669267   -0.723078
  H      4.253884   -0.176832    1.047756
  H      3.576726    0.565594    2.482247
  H      4.895719   -1.654705    3.190957
  H      3.043990   -3.457092    3.195875
  H      0.858186   -2.080508    2.489466
  H      1.578144   -2.781273    1.054862

 Total Charge           Charge          ....    0
 Multiplicity           Mult            ....    1
 Number of Electrons    NEL             ....   66
 Basis Dimension        Dim             ....  351

ORBITAL ENERGIES
----------------

  NO   OCC          E(Eh)            E(eV)
   0   2.0000     -11.224073      -305.4226
   1   2.0000     -11.224035      -305.4215
   2   2.0000     -11.221931      -305.3643
   3   2.0000     -11.220209      -305.3174
   4   2.0000     -11.219982      -305.3112
   5   2.0000     -11.219481      -305.2976
   6   2.0000     -11.219239      -305.2910
   7   2.0000     -11.218851      -305.2805
   8   2.0000     -11.215480      -305.1887
   9   2.0000      -1.144406       -31.1409
  10   2.0000      -1.111098       -30.2345
  11   2.0000      -0.985630       -26.8204
  12   2.0000      -0.961097       -26.1528
  13   2.0000      -0.899902       -24.4876
  14   2.0000      -0.870271       -23.6813
  15   2.0000      -0.785692       -21.3798
  16   2.0000      -0.728107       -19.8128
  17   2.0000      -0.698444       -19.0056
  18   2.0000      -0.672996       -18.3132
  19   2.0000      -0.636841       -17.3293
  20   2.0000      -0.596919       -16.2430
  21   2.0000      -0.564562       -15.3625
  22   2.0000      -0.549085       -14.9414
  23   2.0000      -0.539434       -14.6787
  24   2.0000      -0.534272       -14.5383
  25   2.0000      -0.530574       -14.4376
  26   2.0000      -0.494030       -13.4432
  27   2.0000      -0.490453       -13.3459
  28   2.0000      -0.458989       -12.4897
  29   2.0000      -0.454934       -12.3794
  30   2.0000      -0.426859       -11.6154
  31   2.0000      -0.354686        -9.6515
  32   2.0000      -0.315423        -8.5831
  33   0.0000       0.134182         3.6513
  34   0.0000       0.151498         4.1225
  35   0.0000       0.157833         4.2948
  36   0.0000       0.160587         4.3698
  37   0.0000       0.165803         4.5117

MULLIKEN ATOMIC CHARGES
-----------------------
   0 C :   -0.232673
   1 C :   -0.204050
   2 C :   -0.049895
   3 C :   -0.204050
   4 C :   -0.056618
   5 C :   -0.142633
   6 C :   -0.187915
   7 C :   -0.187914
   8 C :   -0.142633
   9 H :    0.110607
  10 H :    0.114975
  11 H :    0.115154
  12 H :    0.116243
  13 H :    0.116243
  14 H :    0.115154
  15 H :    0.120531
  16 H :    0.118518
  17 H :    0.120953
  18 H :    0.120953
  19 H :    0.118518
  20 H :    0.120531
Sum of atomic charges:    0.0000000

LOEWDIN ATOMIC CHARGES
----------------------
   0 C :   -0.229466
   1 C :   -0.203948
   2 C :   -0.148415
   3 C :   -0.203948
   4 C :   -0.130408
   5 C :   -0.202111
   6 C :   -0.160145
   7 C :   -0.160145
   8 C :   -0.202111
   9 H :    0.129316
  10 H :    0.123243
  11 H :    0.136433
  12 H :    0.131132
  13 H :    0.131132
  14 H :    0.136433
  15 H :    0.145820
  16 H :    0.145290
  17 H :    0.135395
  18 H :    0.135395
  19 H :    0.145290
  20 H :    0.145820

  Mayer bond orders larger than 0.1
B(  0-C ,  1-C ) :   0.9754 B(  0-C ,  3-C ) :   0.9754 B(  0-C ,  9-H ) :   0.9247
B(  0-C , 10-H ) :   0.9364 B(  1-C ,  2-C ) :   0.9495 B(  1-C , 11-H ) :   0.9052
B(  1-C , 12-H ) :   0.9150 B(  2-C ,  3-C ) :   0.9495 B(  2-C ,  4-C ) :   1.4519
B(  3-C , 13-H ) :   0.9150 B(  3-C , 14-H ) :   0.9052 B(  4-C ,  5-C ) :   0.9692
B(  4-C ,  8-C ) :   0.9692 B(  5-C ,  6-C ) :   0.9654 B(  5-C , 15-H ) :   0.9026
B(  5-C , 16-H ) :   0.9059 B(  6-C ,  7-C ) :   1.7999 B(  6-C , 17-H ) :   0.9383
B(  7-C ,  8-C ) :   0.9654 B(  7-C , 18-H ) :   0.9383 B(  8-C , 19-H ) :   0.9059
B(  8-C , 20-H ) :   0.9026

MP2 TOTAL ENERGY:     -349.289552234 Eh
FINAL SINGLE POINT ENERGY      -349.289552234338

DIPOLE MOMENT
-------------
                                X             Y             Z
Electronic contribution:      2.13785      -2.19166       1.72597
Nuclear contribution   :     -2.18394       2.23892      -1.76499
                        -----------------------------------------
Total Dipole Moment    :     -0.04610       0.04725      -0.03902
                        -----------------------------------------
Magnitude (a.u.)       :      0.07668
Magnitude (Debye)      :      0.19491

                             ****ORCA TERMINATED NORMALLY****
TOTAL RUN TIME: 0 days 0 hours 16 minutes 45 seconds 481 msec
