                         Program Version 3.0.3 - RELEASE   -
|  1> ! RI-MP2 RIJK def2-TZVP def2-TZVP/C def2-TZVP/JK TIGHTSCF
|  2> % maxcore 2000
|  3> % mp2 density relaxed end
|  4> *xyz 0 1
|  5>  C        0.2996585506     1.4634018410     0.3664574082
|  6>  C       -0.1302215238     0.0356028690     0.0056966351
|  7>  O       -1.5348616933    -0.0667926502    -0.1654473555
|  8>  C        0.6079278406    -0.4960391030    -1.2232610816
|  9>  C        2.0314803526    -1.0291610752    -1.1006076143
| 10>  C        0.9321764679    -1.9946898898    -1.3818914047
| 11>  C        0.4559052168    -3.0161206785    -0.3730611550
| 12>  C        0.2634056486     0.1436955369    -2.5113256450
| 13>  O       -0.6347875688     0.9416888239    -2.6777957442
| 14>  H        1.3702907666     1.5095867709     0.5919575869
| 15>  H        0.0901880066     2.1539083562    -0.4549749816
| 16>  H       -0.2553724124     1.7972376579     1.2471942641
| 17>  H        0.1013131100    -0.6135179746     0.8566339429
| 18>  H       -1.7439753042     0.4701293641    -0.9422717975
| 19>  H        2.7432856173    -0.7844185787    -1.8828657583
| 20>  H        2.4481825615    -1.0128781830    -0.0982646299
| 21>  H        0.8784590230    -2.3447755381    -2.4106748849
| 22>  H        0.6574770345    -2.7045878164     0.6547053861
| 23>  H       -0.6198687337    -3.1909832479    -0.4665565810
| 24>  H        0.9739026342    -3.9673812456    -0.5340723614
| 25>  H        0.8900443956    -0.1828630391    -3.3735885886
| 26> *
| 27>
| 28>                          ****END OF INPUT****

CARTESIAN COORDINATES (ANGSTROEM)
---------------------------------
  C      0.299659    1.463402    0.366457
  C     -0.130222    0.035603    0.005697
  O     -1.534862   -0.066793   -0.165447
  C      0.607928   -0.496039   -1.223261
  C      2.031480   -1.029161   -1.100608
  C      0.932176   -1.994690   -1.381891
  C      0.455905   -3.016121   -0.373061
  C      0.263406    0.143696   -2.511326
  O     -0.634788    0.941689   -2.677796
  H      1.370291    1.509587    0.591958
  H      0.090188    2.153908   -0.454975
  H     -0.255372    1.797238    1.247194
  H      0.101313   -0.613518    0.856634
  H     -1.743975    0.470129   -0.942272
  H      2.743286   -0.784419   -1.882866
  H      2.448183   -1.012878   -0.098265
  H      0.878459   -2.344776   -2.410675
  H      0.657477   -2.704588    0.654705
  H     -0.619869   -3.190983   -0.466557
  H      0.973903   -3.967381   -0.534072
  H      0.890044   -0.182863   -3.373589

 Total Charge           Charge          ....    0
 Multiplicity           Mult            ....    1
 Number of Electrons    NEL             ....   70
 Basis Dimension        Dim             ....  351

ORBITAL ENERGIES
----------------

  NO   OCC          E(Eh)            E(eV)
   0   2.0000     -20.559794      -559.4604
   1   2.0000     -20.541108      -558.9520
   2   2.0000     -11.341271      -308.6117
   3   2.0000     -11.286528      -307.1220
   4   2.0000     -11.261284      -306.4351
   5   2.0000     -11.254514      -306.2509
   6   2.0000     -11.253417      -306.2211
   7   2.0000     -11.231085      -305.6134
   8   2.0000     -11.213019      -305.1217
   9   2.0000      -1.401697       -38.1421
  10   2.0000      -1.351171       -36.7672
  11   2.0000      -1.181987       -32.1635
  12   2.0000      -1.019516       -27.7424
  13   2.0000      -0.983658       -26.7667
  14   2.0000      -0.912953       -24.8427
  15   2.0000      -0.859574       -23.3902
  16   2.0000      -0.808103       -21.9896
  17   2.0000      -0.770654       -20.9706
  18   2.0000      -0.695943       -18.9376
  19   2.0000      -0.670447       -18.2438
  20   2.0000      -0.649246       -17.6669
  21   2.0000      -0.616654       -16.7800
  22   2.0000      -0.610069       -16.6008
  23   2.0000      -0.593312       -16.1448
  24   2.0000      -0.583201       -15.8697
  25   2.0000      -0.570976       -15.5370
  26   2.0000      -0.558994       -15.2110
  27   2.0000      -0.533433       -14.5154
  28   2.0000      -0.521735       -14.1971
  29   2.0000      -0.516222       -14.0471
  30   2.0000      -0.500966       -13.6320
  31   2.0000      -0.463146       -12.6028
  32   2.0000      -0.426738       -11.6121
  33   2.0000      -0.421542       -11.4707
  34   2.0000      -0.403808       -10.9882
  35   0.0000       0.120764         3.2861
  36   0.0000       0.136486         3.7140
  37   0.0000       0.148284         4.0350
  38   0.0000       0.158405         4.3104
  39   0.0000       0.173206         4.7132

MULLIKEN ATOMIC CHARGES
-----------------------
   0 C :   -0.419468
   1 C :    0.158418
   2 O :   -0.486722
   3 C :    0.063416
   4 C :   -0.315354
   5 C :   -0.092807
   6 C :   -0.402208
   7 C :    0.075808
   8 O :   -0.324670
   9 H :    0.121199
  10 H :    0.144287
  11 H :    0.143647
  12 H :    0.074216
  13 H :    0.331388
  14 H :    0.144634
  15 H :    0.142762
  16 H :    0.130955
  17 H :    0.123173
  18 H :    0.153743
  19 H :    0.141968
  20 H :    0.091613
Sum of atomic charges:   -0.0000000

LOEWDIN ATOMIC CHARGES
----------------------
   0 C :   -0.293082
   1 C :   -0.331208
   2 O :   -0.013900
   3 C :   -0.208961
   4 C :   -0.173212
   5 C :   -0.195270
   6 C :   -0.283253
   7 C :   -0.263047
   8 O :    0.109136
   9 H :    0.124125
  10 H :    0.127714
  11 H :    0.126950
  12 H :    0.147478
  13 H :    0.176652
  14 H :    0.137702
  15 H :    0.144814
  16 H :    0.153934
  17 H :    0.125795
  18 H :    0.134431
  19 H :    0.129432
  20 H :    0.123771

  Mayer bond orders larger than 0.1
B(  0-C ,  1-C ) :   0.9122 B(  0-C ,  9-H ) :   0.9323 B(  0-C , 10-H ) :   0.9253
B(  0-C , 11-H ) :   0.9418 B(  1-C ,  2-O ) :   0.9077 B(  1-C ,  3-C ) :   0.9131
B(  1-C , 12-H ) :   0.9274 B(  2-O , 13-H ) :   0.8201 B(  3-C ,  4-C ) :   0.8214
B(  3-C ,  5-C ) :   0.7686 B(  3-C ,  7-C ) :   0.8989 B(  4-C ,  5-C ) :   0.9096
B(  4-C , 14-H ) :   0.9171 B(  4-C , 15-H ) :   0.9191 B(  5-C ,  6-C ) :   0.9207
B(  5-C , 16-H ) :   0.9273 B(  6-C , 17-H ) :   0.9349 B(  6-C , 18-H ) :   0.9354
B(  6-C , 19-H ) :   0.9327 B(  7-C ,  8-O ) :   1.8833 B(  7-C , 20-H ) :   0.9515

MP2 TOTAL ENERGY:     -423.528826773 Eh
FINAL SINGLE POINT ENERGY      -423.528826772815

DIPOLE MOMENT
-------------
                                X             Y             Z
Electronic contribution:     -3.52080       2.97486      -4.72777
Nuclear contribution   :      4.70624      -3.57842       4.75451
                        -----------------------------------------
Total Dipole Moment    :      1.18544      -0.60356       0.02674
                        -----------------------------------------
Magnitude (a.u.)       :      1.33051
Magnitude (Debye)      :      3.38189

                             ****ORCA TERMINATED NORMALLY****
TOTAL RUN TIME: 0 days 0 hours 21 minutes 13 seconds 958 msec
