                         Program Version 3.0.3 - RELEASE   -
|  1> ! RI-MP2 RIJK def2-TZVP def2-TZVP/C def2-TZVP/JK TIGHTSCF
|  2> % maxcore 2000
|  3> % mp2 density relaxed end
|  4> *xyz 0 1
|  5>  C       -0.0488352968     1.3931302877    -0.6639007587
|  6>  C        0.0046016993    -0.0476927055    -0.2115501151
|  7>  C        1.2637977048    -0.8017565659    -0.2930675344
|  8>  O        0.7837764520    -0.3145487079     0.9645241051
|  9>  C       -1.3010688312    -0.8247453700    -0.2006026178
| 10>  C       -2.3979810743    -0.2631110729     0.7489329703
| 11>  N       -3.5206805063     0.1024834647    -0.1325079242
| 12>  C       -3.1528388429    -0.2062187657    -1.3024968594
| 13>  O       -1.9272309589    -0.7530306862    -1.5116041677
| 14>  H        0.9325952827     1.8584306771    -0.5489211490
| 15>  H       -0.3468702072     1.4493840432    -1.7144954401
| 16>  H       -0.7689845883     1.9707047129    -0.0757421253
| 17>  H        1.2446616210    -1.8840270666    -0.4142920072
| 18>  H        2.1579020954    -0.3088515677    -0.6716131881
| 19>  H       -1.0849400569    -1.8764133132     0.0046815246
| 20>  H       -2.7274994051    -1.0070832545     1.4797605968
| 21>  H       -2.0574780868     0.6118882785     1.3113685357
| 22>  H       -3.7404287903    -0.0757881580    -2.2045480256
| 23> *
| 24>
| 25>                          ****END OF INPUT****

CARTESIAN COORDINATES (ANGSTROEM)
---------------------------------
  C     -0.048835    1.393130   -0.663901
  C      0.004602   -0.047693   -0.211550
  C      1.263798   -0.801757   -0.293068
  O      0.783776   -0.314549    0.964524
  C     -1.301069   -0.824745   -0.200603
  C     -2.397981   -0.263111    0.748933
  N     -3.520681    0.102483   -0.132508
  C     -3.152839   -0.206219   -1.302497
  O     -1.927231   -0.753031   -1.511604
  H      0.932595    1.858431   -0.548921
  H     -0.346870    1.449384   -1.714495
  H     -0.768985    1.970705   -0.075742
  H      1.244662   -1.884027   -0.414292
  H      2.157902   -0.308852   -0.671613
  H     -1.084940   -1.876413    0.004682
  H     -2.727499   -1.007083    1.479761
  H     -2.057478    0.611888    1.311369
  H     -3.740429   -0.075788   -2.204548

 Total Charge           Charge          ....    0
 Multiplicity           Mult            ....    1
 Number of Electrons    NEL             ....   68
 Basis Dimension        Dim             ....  333

ORBITAL ENERGIES
----------------

  NO   OCC          E(Eh)            E(eV)
   0   2.0000     -20.601211      -560.5875
   1   2.0000     -20.576167      -559.9060
   2   2.0000     -15.553555      -423.2337
   3   2.0000     -11.334707      -308.4331
   4   2.0000     -11.304677      -307.6159
   5   2.0000     -11.303013      -307.5706
   6   2.0000     -11.289933      -307.2147
   7   2.0000     -11.264228      -306.5152
   8   2.0000     -11.230503      -305.5975
   9   2.0000      -1.443805       -39.2879
  10   2.0000      -1.419247       -38.6197
  11   2.0000      -1.217307       -33.1246
  12   2.0000      -1.064618       -28.9697
  13   2.0000      -0.997532       -27.1442
  14   2.0000      -0.923276       -25.1236
  15   2.0000      -0.881123       -23.9766
  16   2.0000      -0.821367       -22.3505
  17   2.0000      -0.774415       -21.0729
  18   2.0000      -0.718323       -19.5466
  19   2.0000      -0.704822       -19.1792
  20   2.0000      -0.680306       -18.5121
  21   2.0000      -0.626690       -17.0531
  22   2.0000      -0.602641       -16.3987
  23   2.0000      -0.589970       -16.0539
  24   2.0000      -0.571034       -15.5386
  25   2.0000      -0.563798       -15.3417
  26   2.0000      -0.559614       -15.2279
  27   2.0000      -0.528597       -14.3838
  28   2.0000      -0.527723       -14.3601
  29   2.0000      -0.515066       -14.0157
  30   2.0000      -0.460440       -12.5292
  31   2.0000      -0.455795       -12.4028
  32   2.0000      -0.422279       -11.4908
  33   2.0000      -0.387021       -10.5314
  34   0.0000       0.139810         3.8044
  35   0.0000       0.148484         4.0405
  36   0.0000       0.167321         4.5530
  37   0.0000       0.175466         4.7747
  38   0.0000       0.182111         4.9555

MULLIKEN ATOMIC CHARGES
-----------------------
   0 C :   -0.419402
   1 C :    0.138732
   2 C :   -0.086199
   3 O :   -0.340309
   4 C :    0.115254
   5 C :   -0.168761
   6 N :   -0.256441
   7 C :    0.094762
   8 O :   -0.286649
   9 H :    0.145287
  10 H :    0.149902
  11 H :    0.143597
  12 H :    0.116687
  13 H :    0.119898
  14 H :    0.115091
  15 H :    0.130483
  16 H :    0.141063
  17 H :    0.147005
Sum of atomic charges:   -0.0000000

LOEWDIN ATOMIC CHARGES
----------------------
   0 C :   -0.260653
   1 C :   -0.339680
   2 C :   -0.239316
   3 O :    0.166239
   4 C :   -0.226500
   5 C :   -0.247251
   6 N :    0.063594
   7 C :   -0.354485
   8 O :    0.231386
   9 H :    0.135226
  10 H :    0.136446
  11 H :    0.132697
  12 H :    0.121860
  13 H :    0.123038
  14 H :    0.150093
  15 H :    0.135251
  16 H :    0.137713
  17 H :    0.134342

  Mayer bond orders larger than 0.1
B(  0-C ,  1-C ) :   0.9027 B(  0-C ,  9-H ) :   0.9324 B(  0-C , 10-H ) :   0.9344
B(  0-C , 11-H ) :   0.9307 B(  1-C ,  2-C ) :   0.9759 B(  1-C ,  3-O ) :   0.8524
B(  1-C ,  4-C ) :   0.9044 B(  2-C ,  3-O ) :   0.8988 B(  2-C , 12-H ) :   0.9006
B(  2-C , 13-H ) :   0.9149 B(  4-C ,  5-C ) :   0.9253 B(  4-C ,  8-O ) :   0.8517
B(  4-C , 14-H ) :   0.9208 B(  5-C ,  6-N ) :   0.9321 B(  5-C , 15-H ) :   0.9214
B(  5-C , 16-H ) :   0.9265 B(  6-N ,  7-C ) :   1.8406 B(  7-C ,  8-O ) :   1.0530
B(  7-C , 17-H ) :   0.9222

MP2 TOTAL ENERGY:     -438.355835290 Eh
FINAL SINGLE POINT ENERGY      -438.355835289906

DIPOLE MOMENT
-------------
                                X             Y             Z
Electronic contribution:     -2.87937      -2.46768      -0.34436
Nuclear contribution   :      3.41722       2.27208      -0.22947
                        -----------------------------------------
Total Dipole Moment    :      0.53785      -0.19560      -0.57384
                        -----------------------------------------
Magnitude (a.u.)       :      0.81045
Magnitude (Debye)      :      2.06000

                             ****ORCA TERMINATED NORMALLY****
TOTAL RUN TIME: 0 days 0 hours 16 minutes 42 seconds 229 msec
