                         Program Version 3.0.3 - RELEASE   -
|  1> ! RI-MP2 RIJK def2-TZVP def2-TZVP/C def2-TZVP/JK TIGHTSCF
|  2> % maxcore 2000
|  3> % mp2 density relaxed end
|  4> *xyz 0 1
|  5>  C       -0.0851604100     1.5593996636    -0.0036571897
|  6>  C       -0.0024314329     0.0250673672    -0.0134623892
|  7>  C        0.6855186678    -0.4970607249    -1.2846794669
|  8>  C        1.0114807557    -1.9884394472    -1.1662410697
|  9>  C        1.9683131608    -2.2446569939     0.0052276394
| 10>  C        1.5819470038    -1.4850190500     1.2558432657
| 11>  C        2.2656446770    -1.9148554330     2.5255617998
| 12>  C        0.6899597397    -0.4908804714     1.2266169009
| 13>  H        0.9162010644     2.0043831793     0.0022095771
| 14>  H       -0.6144439381     1.9296723736    -0.8882735359
| 15>  H       -0.6167011917     1.9229625621     0.8823062008
| 16>  H       -1.0381318027    -0.3532880016    -0.0079034727
| 17>  H        0.0517438686    -0.3050297961    -2.1581927974
| 18>  H        1.6163718581     0.0657101334    -1.4419012455
| 19>  H        0.0814404458    -2.5487658177    -1.0038814554
| 20>  H        1.4459221238    -2.3660648022    -2.0983407445
| 21>  H        2.0121470882    -3.3186855869     0.2313580923
| 22>  H        2.9959214655    -1.9690372041    -0.2783765605
| 23>  H        3.3574908631    -1.8430764270     2.4300911380
| 24>  H        1.9600329736    -1.3036230122     3.3791135108
| 25>  H        2.0459856667    -2.9648036581     2.7601422803
| 26>  H        0.4341583629     0.0124692271     2.1589022024
| 27> *
| 28>
| 29>                          ****END OF INPUT****

CARTESIAN COORDINATES (ANGSTROEM)
---------------------------------
  C     -0.085160    1.559400   -0.003657
  C     -0.002431    0.025067   -0.013462
  C      0.685519   -0.497061   -1.284679
  C      1.011481   -1.988439   -1.166241
  C      1.968313   -2.244657    0.005228
  C      1.581947   -1.485019    1.255843
  C      2.265645   -1.914855    2.525562
  C      0.689960   -0.490880    1.226617
  H      0.916201    2.004383    0.002210
  H     -0.614444    1.929672   -0.888274
  H     -0.616701    1.922963    0.882306
  H     -1.038132   -0.353288   -0.007903
  H      0.051744   -0.305030   -2.158193
  H      1.616372    0.065710   -1.441901
  H      0.081440   -2.548766   -1.003881
  H      1.445922   -2.366065   -2.098341
  H      2.012147   -3.318686    0.231358
  H      2.995921   -1.969037   -0.278377
  H      3.357491   -1.843076    2.430091
  H      1.960033   -1.303623    3.379114
  H      2.045986   -2.964804    2.760142
  H      0.434158    0.012469    2.158902

 Total Charge           Charge          ....    0
 Multiplicity           Mult            ....    1
 Number of Electrons    NEL             ....   62
 Basis Dimension        Dim             ....  332

ORBITAL ENERGIES
----------------

  NO   OCC          E(Eh)            E(eV)
   0   2.0000     -11.224685      -305.4392
   1   2.0000     -11.223271      -305.4007
   2   2.0000     -11.219118      -305.2877
   3   2.0000     -11.215136      -305.1794
   4   2.0000     -11.215073      -305.1776
   5   2.0000     -11.212635      -305.1113
   6   2.0000     -11.209216      -305.0183
   7   2.0000     -11.208297      -304.9933
   8   2.0000      -1.125546       -30.6277
   9   2.0000      -1.043305       -28.3898
  10   2.0000      -1.015590       -27.6356
  11   2.0000      -0.921665       -25.0798
  12   2.0000      -0.916729       -24.9455
  13   2.0000      -0.818166       -22.2634
  14   2.0000      -0.789762       -21.4905
  15   2.0000      -0.690752       -18.7963
  16   2.0000      -0.644484       -17.5373
  17   2.0000      -0.602827       -16.4038
  18   2.0000      -0.599711       -16.3190
  19   2.0000      -0.587597       -15.9893
  20   2.0000      -0.563907       -15.3447
  21   2.0000      -0.547050       -14.8860
  22   2.0000      -0.534677       -14.5493
  23   2.0000      -0.532899       -14.5009
  24   2.0000      -0.506774       -13.7900
  25   2.0000      -0.492948       -13.4138
  26   2.0000      -0.488552       -13.2942
  27   2.0000      -0.460139       -12.5210
  28   2.0000      -0.442671       -12.0457
  29   2.0000      -0.427199       -11.6247
  30   2.0000      -0.329783        -8.9739
  31   0.0000       0.131323         3.5735
  32   0.0000       0.151741         4.1291
  33   0.0000       0.161963         4.4072
  34   0.0000       0.165052         4.4913
  35   0.0000       0.178945         4.8693

MULLIKEN ATOMIC CHARGES
-----------------------
   0 C :   -0.410382
   1 C :    0.043795
   2 C :   -0.247843
   3 C :   -0.192168
   4 C :   -0.223121
   5 C :    0.044103
   6 C :   -0.412493
   7 C :   -0.263680
   8 H :    0.125711
   9 H :    0.128458
  10 H :    0.129748
  11 H :    0.089448
  12 H :    0.120275
  13 H :    0.103485
  14 H :    0.105275
  15 H :    0.123622
  16 H :    0.122929
  17 H :    0.114894
  18 H :    0.131409
  19 H :    0.129846
  20 H :    0.132924
  21 H :    0.103764
Sum of atomic charges:   -0.0000000

LOEWDIN ATOMIC CHARGES
----------------------
   0 C :   -0.291906
   1 C :   -0.271960
   2 C :   -0.238194
   3 C :   -0.256116
   4 C :   -0.227950
   5 C :   -0.196029
   6 C :   -0.274574
   7 C :   -0.134394
   8 H :    0.123199
   9 H :    0.122082
  10 H :    0.121617
  11 H :    0.156300
  12 H :    0.136172
  13 H :    0.141578
  14 H :    0.139954
  15 H :    0.134622
  16 H :    0.143513
  17 H :    0.144718
  18 H :    0.128694
  19 H :    0.126913
  20 H :    0.127495
  21 H :    0.144264

  Mayer bond orders larger than 0.1
B(  0-C ,  1-C ) :   0.8988 B(  0-C ,  8-H ) :   0.9339 B(  0-C ,  9-H ) :   0.9390
B(  0-C , 10-H ) :   0.9417 B(  1-C ,  2-C ) :   0.9388 B(  1-C ,  7-C ) :   0.9142
B(  1-C , 11-H ) :   0.9174 B(  2-C ,  3-C ) :   0.9150 B(  2-C , 12-H ) :   0.9304
B(  2-C , 13-H ) :   0.9273 B(  3-C ,  4-C ) :   0.9438 B(  3-C , 14-H ) :   0.9326
B(  3-C , 15-H ) :   0.9366 B(  4-C ,  5-C ) :   0.9376 B(  4-C , 16-H ) :   0.9275
B(  4-C , 17-H ) :   0.9124 B(  5-C ,  6-C ) :   0.8942 B(  5-C ,  7-C ) :   1.7710
B(  6-C , 18-H ) :   0.9298 B(  6-C , 19-H ) :   0.9451 B(  6-C , 20-H ) :   0.9322
B(  7-C , 21-H ) :   0.9227

MP2 TOTAL ENERGY:     -312.521636825 Eh
FINAL SINGLE POINT ENERGY      -312.521636825181

DIPOLE MOMENT
-------------
                                X             Y             Z
Electronic contribution:     -0.33425      -1.13524       0.32549
Nuclear contribution   :      0.36518       1.04431      -0.39827
                        -----------------------------------------
Total Dipole Moment    :      0.03093      -0.09093      -0.07278
                        -----------------------------------------
Magnitude (a.u.)       :      0.12051
Magnitude (Debye)      :      0.30631

                             ****ORCA TERMINATED NORMALLY****
TOTAL RUN TIME: 0 days 0 hours 15 minutes 19 seconds 179 msec
