                         Program Version 3.0.3 - RELEASE   -
|  1> ! RI-MP2 RIJK def2-TZVP def2-TZVP/C def2-TZVP/JK TIGHTSCF
|  2> % maxcore 2000
|  3> % mp2 density relaxed end
|  4> *xyz 0 1
|  5>  C       -0.0829366984     1.5431479004     0.0154037558
|  6>  C        0.0096756757     0.0220619667     0.1233973265
|  7>  C        0.4065354575    -0.7006540178    -1.2011684721
|  8>  C        1.4104001459    -1.8034817548    -0.8213499384
|  9>  O        2.7290000008    -1.3417355576    -1.1370469679
| 10>  C        1.2958644345    -1.9382858591     0.7197074163
| 11>  O        2.4725270409    -2.4791768265     1.2922610807
| 12>  C        1.0233892166    -0.4878141943     1.1679023334
| 13>  O        2.2576227094     0.2288979263     1.1992852212
| 14>  H        0.8868607341     1.9760311702    -0.2452614992
| 15>  H       -0.8049400589     1.8340516893    -0.7544088658
| 16>  H       -0.4012829075     1.9907712202     0.9624593358
| 17>  H       -0.9686683438    -0.3619600800     0.4404323921
| 18>  H       -0.4710825784    -1.1143653917    -1.7042200845
| 19>  H        0.8891484903    -0.0195420701    -1.9084722192
| 20>  H        1.2207916651    -2.7525138998    -1.3383786817
| 21>  H        3.3178903629    -1.9286696341    -0.6398309023
| 22>  H        0.4477416626    -2.5840322891     0.9782984830
| 23>  H        2.9398300395    -1.7169857100     1.6663297210
| 24>  H        0.6295494250    -0.4281263393     2.1866450874
| 25>  H        2.6567298261     0.1260557712     0.3197104380
| 26> *
| 27>
| 28>                          ****END OF INPUT****

CARTESIAN COORDINATES (ANGSTROEM)
---------------------------------
  C     -0.082937    1.543148    0.015404
  C      0.009676    0.022062    0.123397
  C      0.406535   -0.700654   -1.201168
  C      1.410400   -1.803482   -0.821350
  O      2.729000   -1.341736   -1.137047
  C      1.295864   -1.938286    0.719707
  O      2.472527   -2.479177    1.292261
  C      1.023389   -0.487814    1.167902
  O      2.257623    0.228898    1.199285
  H      0.886861    1.976031   -0.245261
  H     -0.804940    1.834052   -0.754409
  H     -0.401283    1.990771    0.962459
  H     -0.968668   -0.361960    0.440432
  H     -0.471083   -1.114365   -1.704220
  H      0.889148   -0.019542   -1.908472
  H      1.220792   -2.752514   -1.338379
  H      3.317890   -1.928670   -0.639831
  H      0.447742   -2.584032    0.978298
  H      2.939830   -1.716986    1.666330
  H      0.629549   -0.428126    2.186645
  H      2.656730    0.126056    0.319710

 Total Charge           Charge          ....    0
 Multiplicity           Mult            ....    1
 Number of Electrons    NEL             ....   72
 Basis Dimension        Dim             ....  351

ORBITAL ENERGIES
----------------

  NO   OCC          E(Eh)            E(eV)
   0   2.0000     -20.565914      -559.6270
   1   2.0000     -20.564695      -559.5938
   2   2.0000     -20.560796      -559.4877
   3   2.0000     -11.285682      -307.0990
   4   2.0000     -11.284755      -307.0738
   5   2.0000     -11.284155      -307.0575
   6   2.0000     -11.237092      -305.7768
   7   2.0000     -11.228173      -305.5341
   8   2.0000     -11.217501      -305.2437
   9   2.0000      -1.399633       -38.0859
  10   2.0000      -1.361254       -37.0416
  11   2.0000      -1.352045       -36.7910
  12   2.0000      -1.116194       -30.3732
  13   2.0000      -1.004513       -27.3342
  14   2.0000      -0.961146       -26.1541
  15   2.0000      -0.894315       -24.3356
  16   2.0000      -0.804198       -21.8833
  17   2.0000      -0.775624       -21.1058
  18   2.0000      -0.734267       -19.9804
  19   2.0000      -0.702365       -19.1123
  20   2.0000      -0.681704       -18.5501
  21   2.0000      -0.654822       -17.8186
  22   2.0000      -0.616396       -16.7730
  23   2.0000      -0.607338       -16.5265
  24   2.0000      -0.589718       -16.0470
  25   2.0000      -0.570451       -15.5228
  26   2.0000      -0.554124       -15.0785
  27   2.0000      -0.546580       -14.8732
  28   2.0000      -0.536918       -14.6103
  29   2.0000      -0.520329       -14.1589
  30   2.0000      -0.516296       -14.0491
  31   2.0000      -0.479601       -13.0506
  32   2.0000      -0.464655       -12.6439
  33   2.0000      -0.456660       -12.4264
  34   2.0000      -0.442306       -12.0358
  35   2.0000      -0.417759       -11.3678
  36   0.0000       0.125266         3.4087
  37   0.0000       0.151492         4.1223
  38   0.0000       0.157841         4.2951
  39   0.0000       0.168615         4.5882
  40   0.0000       0.195602         5.3226

MULLIKEN ATOMIC CHARGES
-----------------------
   0 C :   -0.381215
   1 C :   -0.102560
   2 C :   -0.259707
   3 C :    0.102818
   4 O :   -0.499133
   5 C :   -0.052282
   6 O :   -0.496130
   7 C :    0.090571
   8 O :   -0.491799
   9 H :    0.126883
  10 H :    0.134687
  11 H :    0.129604
  12 H :    0.096623
  13 H :    0.129284
  14 H :    0.129796
  15 H :    0.108038
  16 H :    0.330669
  17 H :    0.106082
  18 H :    0.345697
  19 H :    0.122063
  20 H :    0.330012
Sum of atomic charges:   -0.0000000

LOEWDIN ATOMIC CHARGES
----------------------
   0 C :   -0.293289
   1 C :   -0.255989
   2 C :   -0.208186
   3 C :   -0.312718
   4 O :   -0.032067
   5 C :   -0.320174
   6 O :   -0.024492
   7 C :   -0.305112
   8 O :   -0.021098
   9 H :    0.124976
  10 H :    0.124357
  11 H :    0.125849
  12 H :    0.156465
  13 H :    0.139265
  14 H :    0.148574
  15 H :    0.131425
  16 H :    0.176875
  17 H :    0.147139
  18 H :    0.180471
  19 H :    0.143586
  20 H :    0.174144

  Mayer bond orders larger than 0.1
B(  0-C ,  1-C ) :   0.9031 B(  0-C ,  9-H ) :   0.9271 B(  0-C , 10-H ) :   0.9423
B(  0-C , 11-H ) :   0.9385 B(  1-C ,  2-C ) :   0.9160 B(  1-C ,  7-C ) :   0.9458
B(  1-C , 12-H ) :   0.9219 B(  2-C ,  3-C ) :   0.8996 B(  2-C , 13-H ) :   0.9240
B(  2-C , 14-H ) :   0.9136 B(  3-C ,  4-O ) :   0.9354 B(  3-C ,  5-C ) :   0.9019
B(  3-C , 15-H ) :   0.9296 B(  4-O , 16-H ) :   0.8161 B(  5-C ,  6-O ) :   0.9847
B(  5-C ,  7-C ) :   0.9422 B(  5-C , 17-H ) :   0.9437 B(  6-O , 18-H ) :   0.8052
B(  7-C ,  8-O ) :   0.8861 B(  7-C , 19-H ) :   0.9241 B(  8-O , 20-H ) :   0.8005

MP2 TOTAL ENERGY:     -460.661388737 Eh
FINAL SINGLE POINT ENERGY      -460.661388736892

DIPOLE MOMENT
-------------
                                X             Y             Z
Electronic contribution:      4.81985      -4.14873       1.70957
Nuclear contribution   :     -5.45766       4.07606      -1.86854
                        -----------------------------------------
Total Dipole Moment    :     -0.63781      -0.07267      -0.15897
                        -----------------------------------------
Magnitude (a.u.)       :      0.66133
Magnitude (Debye)      :      1.68096

                             ****ORCA TERMINATED NORMALLY****
TOTAL RUN TIME: 0 days 0 hours 18 minutes 52 seconds 958 msec
