                         Program Version 3.0.3 - RELEASE   -
|  1> ! RI-MP2 RIJK def2-TZVP def2-TZVP/C def2-TZVP/JK TIGHTSCF
|  2> % maxcore 2000
|  3> % mp2 density relaxed end
|  4> *xyz 0 1
|  5>  C        0.1247824439     1.4443122810     0.2022716571
|  6>  C       -0.0641162836    -0.0223908628     0.0024209622
|  7>  N       -0.6262588882    -0.5929132062    -1.0443557228
|  8>  C       -0.5643667164    -1.9459593642    -0.8085588237
|  9>  C        0.0384983791    -2.2040068192     0.3961418990
| 10>  C        0.3086849745    -3.4838579196     1.1172018399
| 11>  C        1.3953783953    -3.4741796290     2.1685147085
| 12>  O        1.9176633814    -2.4916773823     2.6381149571
| 13>  N        0.3430032681    -0.9581100351     0.9092224079
| 14>  H        1.1843488366     1.7116404721     0.2899059064
| 15>  H       -0.2925216234     1.9685452178    -0.6582964487
| 16>  H       -0.3808867972     1.8024299061     1.1063499661
| 17>  H       -0.9611554136    -2.6596745129    -1.5158348973
| 18>  H       -0.5828754674    -3.8521404274     1.6575019730
| 19>  H        0.5389558768    -4.2863958660     0.4048466285
| 20>  H        1.6731348813    -4.4867472432     2.5339821346
| 21>  H        0.8919854728    -0.8267908891     1.7451281722
| 22> *
| 23>
| 24>                          ****END OF INPUT****

CARTESIAN COORDINATES (ANGSTROEM)
---------------------------------
  C      0.124782    1.444312    0.202272
  C     -0.064116   -0.022391    0.002421
  N     -0.626259   -0.592913   -1.044356
  C     -0.564367   -1.945959   -0.808559
  C      0.038498   -2.204007    0.396142
  C      0.308685   -3.483858    1.117202
  C      1.395378   -3.474180    2.168515
  O      1.917663   -2.491677    2.638115
  N      0.343003   -0.958110    0.909222
  H      1.184349    1.711640    0.289906
  H     -0.292522    1.968545   -0.658296
  H     -0.380887    1.802430    1.106350
  H     -0.961155   -2.659675   -1.515835
  H     -0.582875   -3.852140    1.657502
  H      0.538956   -4.286396    0.404847
  H      1.673135   -4.486747    2.533982
  H      0.891985   -0.826791    1.745128

 Total Charge           Charge          ....    0
 Multiplicity           Mult            ....    1
 Number of Electrons    NEL             ....   66
 Basis Dimension        Dim             ....  327

ORBITAL ENERGIES
----------------

  NO   OCC          E(Eh)            E(eV)
   0   2.0000     -20.578604      -559.9723
   1   2.0000     -15.601395      -424.5355
   2   2.0000     -15.530887      -422.6169
   3   2.0000     -11.357789      -309.0612
   4   2.0000     -11.291447      -307.2559
   5   2.0000     -11.270120      -306.6755
   6   2.0000     -11.262014      -306.4550
   7   2.0000     -11.233855      -305.6887
   8   2.0000     -11.230802      -305.6057
   9   2.0000      -1.419194       -38.6182
  10   2.0000      -1.331191       -36.2235
  11   2.0000      -1.157024       -31.4842
  12   2.0000      -1.078818       -29.3561
  13   2.0000      -1.018400       -27.7121
  14   2.0000      -0.931031       -25.3346
  15   2.0000      -0.827777       -22.5250
  16   2.0000      -0.807602       -21.9760
  17   2.0000      -0.777833       -21.1659
  18   2.0000      -0.693959       -18.8836
  19   2.0000      -0.690256       -18.7828
  20   2.0000      -0.647175       -17.6105
  21   2.0000      -0.634986       -17.2789
  22   2.0000      -0.604076       -16.4378
  23   2.0000      -0.596878       -16.2419
  24   2.0000      -0.583156       -15.8685
  25   2.0000      -0.545377       -14.8405
  26   2.0000      -0.544345       -14.8124
  27   2.0000      -0.535615       -14.5748
  28   2.0000      -0.525092       -14.2885
  29   2.0000      -0.447905       -12.1881
  30   2.0000      -0.425796       -11.5865
  31   2.0000      -0.391064       -10.6414
  32   2.0000      -0.302157        -8.2221
  33   0.0000       0.117413         3.1950
  34   0.0000       0.127414         3.4671
  35   0.0000       0.144779         3.9396
  36   0.0000       0.159662         4.3446
  37   0.0000       0.172651         4.6981

MULLIKEN ATOMIC CHARGES
-----------------------
   0 C :   -0.451661
   1 C :    0.225444
   2 N :   -0.288009
   3 C :   -0.166843
   4 C :    0.094340
   5 C :   -0.203652
   6 C :    0.127429
   7 O :   -0.307559
   8 N :   -0.286372
   9 H :    0.141529
  10 H :    0.164229
  11 H :    0.140919
  12 H :    0.128074
  13 H :    0.151408
  14 H :    0.157830
  15 H :    0.106729
  16 H :    0.266163
Sum of atomic charges:   -0.0000000

LOEWDIN ATOMIC CHARGES
----------------------
   0 C :   -0.279482
   1 C :   -0.345543
   2 N :    0.102389
   3 C :   -0.247010
   4 C :   -0.240111
   5 C :   -0.237783
   6 C :   -0.277987
   7 O :    0.120433
   8 N :    0.217030
   9 H :    0.130716
  10 H :    0.142605
  11 H :    0.130296
  12 H :    0.132186
  13 H :    0.170222
  14 H :    0.166901
  15 H :    0.118800
  16 H :    0.196338

  Mayer bond orders larger than 0.1
B(  0-C ,  1-C ) :   0.8564 B(  0-C ,  9-H ) :   0.9350 B(  0-C , 10-H ) :   0.9525
B(  0-C , 11-H ) :   0.9341 B(  1-C ,  2-N ) :   1.5813 B(  1-C ,  8-N ) :   1.1700
B(  2-N ,  3-C ) :   1.2940 B(  3-C ,  4-C ) :   1.4900 B(  3-C , 12-H ) :   0.9514
B(  4-C ,  5-C ) :   0.8826 B(  4-C ,  8-N ) :   1.1007 B(  5-C ,  6-C ) :   0.8989
B(  5-C , 13-H ) :   0.8677 B(  5-C , 14-H ) :   0.9288 B(  6-C ,  7-O ) :   1.9133
B(  6-C , 15-H ) :   0.9408 B(  8-N , 16-H ) :   0.8407

MP2 TOTAL ENERGY:     -417.353399954 Eh
FINAL SINGLE POINT ENERGY      -417.353399953818

DIPOLE MOMENT
-------------
                                X             Y             Z
Electronic contribution:      0.90172      -2.31955       0.65481
Nuclear contribution   :     -0.68016       1.42677       0.22918
                        -----------------------------------------
Total Dipole Moment    :      0.22156      -0.89278       0.88399
                        -----------------------------------------
Magnitude (a.u.)       :      1.27577
Magnitude (Debye)      :      3.24275

                             ****ORCA TERMINATED NORMALLY****
TOTAL RUN TIME: 0 days 0 hours 15 minutes 28 seconds 722 msec
