                         Program Version 3.0.3 - RELEASE   -
|  1> ! RI-MP2 RIJK def2-TZVP def2-TZVP/C def2-TZVP/JK TIGHTSCF
|  2> % maxcore 2000
|  3> % mp2 density relaxed end
|  4> *xyz 0 1
|  5>  C       -1.7787226999    -0.7068184615    -0.6484422515
|  6>  C       -0.3770443054    -0.3301796279    -0.1510127739
|  7>  C        0.7418863960    -0.6109053708    -1.1433693830
|  8>  C        0.6665643606     0.1342425389    -2.4670381725
|  9>  O        0.7697527185     1.5437622659    -2.3208035505
| 10>  C        2.1144707095    -0.8892333647    -0.6043718022
| 11>  C        1.3161477648    -2.0269534966    -1.2304714207
| 12>  C        0.8068020436    -3.0960768751    -0.4231434488
| 13>  C        0.3811340398    -4.0050459149     0.2414888221
| 14>  H       -2.0681676906    -0.1414476430    -1.5408346666
| 15>  H       -1.8296157376    -1.7714941016    -0.8941924245
| 16>  H       -2.5278378796    -0.5029201272     0.1226885429
| 17>  H       -0.3451454218     0.7352564026     0.1148582375
| 18>  H       -0.1704424169    -0.8758975967     0.7747787988
| 19>  H        1.5110811398    -0.1586101231    -3.0998605830
| 20>  H       -0.2510501461    -0.1406055206    -3.0081522098
| 21>  H       -0.0455217014     1.8626359723    -1.9224099969
| 22>  H        2.9741275877    -0.5229059830    -1.1550891671
| 23>  H        2.2444914536    -0.9187001371     0.4715826618
| 24>  H        1.6404299309    -2.3361539980    -2.2211589251
| 25>  H        0.0090290245    -4.8063634379     0.8300135032
| 26> *
| 27>
| 28>                          ****END OF INPUT****

CARTESIAN COORDINATES (ANGSTROEM)
---------------------------------
  C     -1.778723   -0.706818   -0.648442
  C     -0.377044   -0.330180   -0.151013
  C      0.741886   -0.610905   -1.143369
  C      0.666564    0.134243   -2.467038
  O      0.769753    1.543762   -2.320804
  C      2.114471   -0.889233   -0.604372
  C      1.316148   -2.026953   -1.230471
  C      0.806802   -3.096077   -0.423143
  C      0.381134   -4.005046    0.241489
  H     -2.068168   -0.141448   -1.540835
  H     -1.829616   -1.771494   -0.894192
  H     -2.527838   -0.502920    0.122689
  H     -0.345145    0.735256    0.114858
  H     -0.170442   -0.875898    0.774779
  H      1.511081   -0.158610   -3.099861
  H     -0.251050   -0.140606   -3.008152
  H     -0.045522    1.862636   -1.922410
  H      2.974128   -0.522906   -1.155089
  H      2.244491   -0.918700    0.471583
  H      1.640430   -2.336154   -2.221159
  H      0.009029   -4.806363    0.830014

 Total Charge           Charge          ....    0
 Multiplicity           Mult            ....    1
 Number of Electrons    NEL             ....   68
 Basis Dimension        Dim             ....  351

ORBITAL ENERGIES
----------------

  NO   OCC          E(Eh)            E(eV)
   0   2.0000     -20.559237      -559.4453
   1   2.0000     -11.281766      -306.9925
   2   2.0000     -11.258698      -306.3648
   3   2.0000     -11.249454      -306.1132
   4   2.0000     -11.236360      -305.7569
   5   2.0000     -11.235798      -305.7416
   6   2.0000     -11.230194      -305.5891
   7   2.0000     -11.220216      -305.3176
   8   2.0000     -11.217967      -305.2564
   9   2.0000      -1.363510       -37.1030
  10   2.0000      -1.176034       -32.0015
  11   2.0000      -1.040502       -28.3135
  12   2.0000      -1.019527       -27.7427
  13   2.0000      -0.945107       -25.7177
  14   2.0000      -0.880077       -23.9481
  15   2.0000      -0.857631       -23.3373
  16   2.0000      -0.767047       -20.8724
  17   2.0000      -0.714397       -19.4397
  18   2.0000      -0.697168       -18.9709
  19   2.0000      -0.679275       -18.4840
  20   2.0000      -0.654431       -17.8080
  21   2.0000      -0.608569       -16.5600
  22   2.0000      -0.594845       -16.1866
  23   2.0000      -0.585661       -15.9366
  24   2.0000      -0.551963       -15.0197
  25   2.0000      -0.530924       -14.4472
  26   2.0000      -0.527495       -14.3539
  27   2.0000      -0.498176       -13.5561
  28   2.0000      -0.494337       -13.4516
  29   2.0000      -0.467581       -12.7235
  30   2.0000      -0.447926       -12.1887
  31   2.0000      -0.432796       -11.7770
  32   2.0000      -0.378350       -10.2954
  33   2.0000      -0.357834        -9.7372
  34   0.0000       0.127382         3.4662
  35   0.0000       0.150363         4.0916
  36   0.0000       0.160160         4.3582
  37   0.0000       0.160832         4.3765
  38   0.0000       0.170686         4.6446

MULLIKEN ATOMIC CHARGES
-----------------------
   0 C :   -0.421170
   1 C :   -0.250498
   2 C :    0.139404
   3 C :   -0.082011
   4 O :   -0.464828
   5 C :   -0.258540
   6 C :   -0.329870
   7 C :   -0.022106
   8 C :   -0.129322
   9 H :    0.118426
  10 H :    0.151813
  11 H :    0.137691
  12 H :    0.124101
  13 H :    0.125378
  14 H :    0.112549
  15 H :    0.128907
  16 H :    0.317686
  17 H :    0.138693
  18 H :    0.139066
  19 H :    0.136601
  20 H :    0.188030
Sum of atomic charges:    0.0000000

LOEWDIN ATOMIC CHARGES
----------------------
   0 C :   -0.310279
   1 C :   -0.249354
   2 C :   -0.232609
   3 C :   -0.300931
   4 O :   -0.039332
   5 C :   -0.157741
   6 C :   -0.172869
   7 C :   -0.096407
   8 C :   -0.103701
   9 H :    0.116422
  10 H :    0.128782
  11 H :    0.123111
  12 H :    0.138841
  13 H :    0.150592
  14 H :    0.135979
  15 H :    0.123335
  16 H :    0.172239
  17 H :    0.139242
  18 H :    0.142028
  19 H :    0.166540
  20 H :    0.126112

  Mayer bond orders larger than 0.1
B(  0-C ,  1-C ) :   0.9096 B(  0-C ,  9-H ) :   0.9365 B(  0-C , 10-H ) :   0.9350
B(  0-C , 11-H ) :   0.9398 B(  1-C ,  2-C ) :   0.9104 B(  1-C , 12-H ) :   0.9466
B(  1-C , 13-H ) :   0.9195 B(  2-C ,  3-C ) :   0.9012 B(  2-C ,  5-C ) :   0.8606
B(  2-C ,  6-C ) :   0.8165 B(  3-C ,  4-O ) :   0.9584 B(  3-C , 14-H ) :   0.9126
B(  3-C , 15-H ) :   0.9556 B(  4-O , 16-H ) :   0.8481 B(  5-C ,  6-C ) :   0.8464
B(  5-C , 17-H ) :   0.9228 B(  5-C , 18-H ) :   0.9235 B(  6-C ,  7-C ) :   1.1753
B(  6-C ,  8-C ) :  -0.1370 B(  6-C , 19-H ) :   0.9413 B(  7-C ,  8-C ) :   2.5509
B(  8-C , 20-H ) :   0.8998

MP2 TOTAL ENERGY:     -386.363793689 Eh
FINAL SINGLE POINT ENERGY      -386.363793689056

DIPOLE MOMENT
-------------
                                X             Y             Z
Electronic contribution:      3.89959      -2.31969      -0.40919
Nuclear contribution   :     -4.36106       2.24442       0.58277
                        -----------------------------------------
Total Dipole Moment    :     -0.46147      -0.07527       0.17358
                        -----------------------------------------
Magnitude (a.u.)       :      0.49875
Magnitude (Debye)      :      1.26771

                             ****ORCA TERMINATED NORMALLY****
TOTAL RUN TIME: 0 days 0 hours 21 minutes 11 seconds 998 msec
