                         Program Version 3.0.3 - RELEASE   -
|  1> ! RI-MP2 RIJK def2-TZVP def2-TZVP/C def2-TZVP/JK TIGHTSCF
|  2> % maxcore 2000
|  3> % mp2 density relaxed end
|  4> *xyz 0 1
|  5>  O       -0.0247239926     1.4045351877     0.0065808350
|  6>  C       -0.0177525274     0.0018184096     0.2067354649
|  7>  C       -1.3589620467    -0.5379496112    -0.2822650001
|  8>  C       -1.4476646542    -2.0418138326    -0.1549442270
|  9>  C       -1.8607472296    -2.6893560248     1.1341535615
| 10>  C       -2.7941115292    -2.7526397281    -0.0670957743
| 11>  C       -4.0159690531    -1.9987596300    -0.0569931461
| 12>  N       -5.0029387589    -1.3944910447    -0.0523406129
| 13>  H        0.8076507031     1.7614287788     0.3294520736
| 14>  H        0.8027008549    -0.4793619042    -0.3517053149
| 15>  H        0.1193981075    -0.2544600837     1.2695552662
| 16>  H       -2.1625480845    -0.0581038008     0.2862839218
| 17>  H       -1.4952996007    -0.2387117655    -1.3278660065
| 18>  H       -0.7154592182    -2.5907377831    -0.7419203926
| 19>  H       -1.3941863670    -3.6179932844     1.4414786788
| 20>  H       -2.1635361861    -2.0409269776     1.9488435844
| 21>  H       -2.8756182371    -3.7069083256    -0.5762084418
| 22> *
| 23>
| 24>                          ****END OF INPUT****

CARTESIAN COORDINATES (ANGSTROEM)
---------------------------------
  O     -0.024724    1.404535    0.006581
  C     -0.017753    0.001818    0.206735
  C     -1.358962   -0.537950   -0.282265
  C     -1.447665   -2.041814   -0.154944
  C     -1.860747   -2.689356    1.134154
  C     -2.794112   -2.752640   -0.067096
  C     -4.015969   -1.998760   -0.056993
  N     -5.002939   -1.394491   -0.052341
  H      0.807651    1.761429    0.329452
  H      0.802701   -0.479362   -0.351705
  H      0.119398   -0.254460    1.269555
  H     -2.162548   -0.058104    0.286284
  H     -1.495300   -0.238712   -1.327866
  H     -0.715459   -2.590738   -0.741920
  H     -1.394186   -3.617993    1.441479
  H     -2.163536   -2.040927    1.948844
  H     -2.875618   -3.706908   -0.576208

 Total Charge           Charge          ....    0
 Multiplicity           Mult            ....    1
 Number of Electrons    NEL             ....   60
 Basis Dimension        Dim             ....  302

ORBITAL ENERGIES
----------------

  NO   OCC          E(Eh)            E(eV)
   0   2.0000     -20.563632      -559.5649
   1   2.0000     -15.563837      -423.5135
   2   2.0000     -11.286997      -307.1348
   3   2.0000     -11.285116      -307.0836
   4   2.0000     -11.270750      -306.6927
   5   2.0000     -11.269014      -306.6455
   6   2.0000     -11.261623      -306.4443
   7   2.0000     -11.236414      -305.7584
   8   2.0000      -1.368619       -37.2420
   9   2.0000      -1.220488       -33.2112
  10   2.0000      -1.178515       -32.0690
  11   2.0000      -1.035945       -28.1895
  12   2.0000      -0.913237       -24.8504
  13   2.0000      -0.877850       -23.8875
  14   2.0000      -0.809667       -22.0322
  15   2.0000      -0.726662       -19.7735
  16   2.0000      -0.703330       -19.1386
  17   2.0000      -0.674679       -18.3589
  18   2.0000      -0.650517       -17.7015
  19   2.0000      -0.593137       -16.1401
  20   2.0000      -0.584789       -15.9129
  21   2.0000      -0.553830       -15.0705
  22   2.0000      -0.546890       -14.8816
  23   2.0000      -0.527734       -14.3604
  24   2.0000      -0.519312       -14.1312
  25   2.0000      -0.498884       -13.5753
  26   2.0000      -0.477375       -12.9900
  27   2.0000      -0.453872       -12.3505
  28   2.0000      -0.431322       -11.7369
  29   2.0000      -0.411693       -11.2027
  30   0.0000       0.124323         3.3830
  31   0.0000       0.133209         3.6248
  32   0.0000       0.149726         4.0743
  33   0.0000       0.158408         4.3105
  34   0.0000       0.162604         4.4247

MULLIKEN ATOMIC CHARGES
-----------------------
   0 O :   -0.459419
   1 C :   -0.073623
   2 C :   -0.184448
   3 C :   -0.104782
   4 C :   -0.269261
   5 C :    0.001285
   6 C :   -0.212771
   7 N :   -0.060091
   8 H :    0.317135
   9 H :    0.091884
  10 H :    0.100223
  11 H :    0.131399
  12 H :    0.131628
  13 H :    0.131388
  14 H :    0.148830
  15 H :    0.152151
  16 H :    0.158472
Sum of atomic charges:    0.0000000

LOEWDIN ATOMIC CHARGES
----------------------
   0 O :   -0.045884
   1 C :   -0.347836
   2 C :   -0.241594
   3 C :   -0.188815
   4 C :   -0.174631
   5 C :   -0.192783
   6 C :   -0.181982
   7 N :    0.059772
   8 H :    0.173612
   9 H :    0.114786
  10 H :    0.115893
  11 H :    0.152989
  12 H :    0.149472
  13 H :    0.154600
  14 H :    0.137242
  15 H :    0.145714
  16 H :    0.169445

  Mayer bond orders larger than 0.1
B(  0-O ,  1-C ) :   1.0257 B(  0-O ,  8-H ) :   0.8476 B(  1-C ,  2-C ) :   0.9280
B(  1-C ,  9-H ) :   0.9293 B(  1-C , 10-H ) :   0.9305 B(  2-C ,  3-C ) :   0.9213
B(  2-C , 11-H ) :   0.9194 B(  2-C , 12-H ) :   0.9241 B(  3-C ,  4-C ) :   0.8891
B(  3-C ,  5-C ) :   0.8392 B(  3-C , 13-H ) :   0.9178 B(  4-C ,  5-C ) :   0.8484
B(  4-C , 14-H ) :   0.9262 B(  4-C , 15-H ) :   0.9239 B(  5-C ,  6-C ) :   0.9767
B(  5-C , 16-H ) :   0.9112 B(  6-C ,  7-N ) :   2.8458

MP2 TOTAL ENERGY:     -363.241955752 Eh
FINAL SINGLE POINT ENERGY      -363.241955752449

DIPOLE MOMENT
-------------
                                X             Y             Z
Electronic contribution:     -6.04811      -0.18720      -0.98192
Nuclear contribution   :      8.03398      -0.71696       1.29678
                        -----------------------------------------
Total Dipole Moment    :      1.98587      -0.90416       0.31487
                        -----------------------------------------
Magnitude (a.u.)       :      2.20462
Magnitude (Debye)      :      5.60369

                             ****ORCA TERMINATED NORMALLY****
TOTAL RUN TIME: 0 days 0 hours 11 minutes 18 seconds 739 msec
