                         Program Version 3.0.3 - RELEASE   -
|  1> ! RI-MP2 RIJK def2-TZVP def2-TZVP/C def2-TZVP/JK TIGHTSCF
|  2> % maxcore 2000
|  3> % mp2 density relaxed end
|  4> *xyz 0 1
|  5>  C        0.0624495807     1.5190997199     0.0552105146
|  6>  C       -0.0173828237     0.0381577113     0.0762069269
|  7>  C       -1.0706816305    -0.8330752277    -0.0594081171
|  8>  N       -0.5555667493    -2.1113462713     0.0446204605
|  9>  N        0.6763744907    -2.0803235136     0.2250859013
| 10>  O        1.0803500436    -0.6742520994     0.2533981417
| 11>  C       -2.4396359829    -0.5458668521    -0.2671659403
| 12>  N       -3.5511331109    -0.2713446046    -0.4367384552
| 13>  H        0.7265667898     1.8530635102    -0.7477641204
| 14>  H       -0.9289024344     1.9473775003    -0.0999608901
| 15>  H        0.4695524569     1.8917461169     1.0000858381
| 16> *
| 17>
| 18>                          ****END OF INPUT****

CARTESIAN COORDINATES (ANGSTROEM)
---------------------------------
  C      0.062450    1.519100    0.055211
  C     -0.017383    0.038158    0.076207
  C     -1.070682   -0.833075   -0.059408
  N     -0.555567   -2.111346    0.044620
  N      0.676374   -2.080324    0.225086
  O      1.080350   -0.674252    0.253398
  C     -2.439636   -0.545867   -0.267166
  N     -3.551133   -0.271345   -0.436738
  H      0.726567    1.853064   -0.747764
  H     -0.928902    1.947378   -0.099961
  H      0.469552    1.891746    1.000086

 Total Charge           Charge          ....    0
 Multiplicity           Mult            ....    1
 Number of Electrons    NEL             ....   56
 Basis Dimension        Dim             ....  266

ORBITAL ENERGIES
----------------

  NO   OCC          E(Eh)            E(eV)
   0   2.0000     -20.689081      -562.9785
   1   2.0000     -15.723447      -427.8567
   2   2.0000     -15.677878      -426.6167
   3   2.0000     -15.595273      -424.3690
   4   2.0000     -11.382011      -309.7203
   5   2.0000     -11.325070      -308.1708
   6   2.0000     -11.299963      -307.4876
   7   2.0000     -11.284939      -307.0788
   8   2.0000      -1.557127       -42.3716
   9   2.0000      -1.360692       -37.0263
  10   2.0000      -1.241855       -33.7926
  11   2.0000      -1.154525       -31.4162
  12   2.0000      -1.042994       -28.3813
  13   2.0000      -0.920052       -25.0359
  14   2.0000      -0.887043       -24.1377
  15   2.0000      -0.806344       -21.9417
  16   2.0000      -0.720817       -19.6144
  17   2.0000      -0.694073       -18.8867
  18   2.0000      -0.637485       -17.3468
  19   2.0000      -0.619904       -16.8684
  20   2.0000      -0.604463       -16.4483
  21   2.0000      -0.590144       -16.0586
  22   2.0000      -0.575391       -15.6572
  23   2.0000      -0.551045       -14.9947
  24   2.0000      -0.510796       -13.8995
  25   2.0000      -0.507161       -13.8006
  26   2.0000      -0.485547       -13.2124
  27   2.0000      -0.392240       -10.6734
  28   0.0000       0.071491         1.9454
  29   0.0000       0.114129         3.1056
  30   0.0000       0.116571         3.1720
  31   0.0000       0.156879         4.2689
  32   0.0000       0.169461         4.6113

MULLIKEN ATOMIC CHARGES
-----------------------
   0 C :   -0.391161
   1 C :    0.145582
   2 C :    0.152875
   3 N :   -0.084002
   4 N :    0.002352
   5 O :   -0.098373
   6 C :   -0.210423
   7 N :   -0.031038
   8 H :    0.171371
   9 H :    0.171444
  10 H :    0.171373
Sum of atomic charges:    0.0000000

LOEWDIN ATOMIC CHARGES
----------------------
   0 C :   -0.247967
   1 C :   -0.275141
   2 C :   -0.255497
   3 N :    0.077173
   4 N :    0.023553
   5 O :    0.285981
   6 C :   -0.151215
   7 N :    0.098601
   8 H :    0.147960
   9 H :    0.148586
  10 H :    0.147964

  Mayer bond orders larger than 0.1
B(  0-C ,  1-C ) :   0.8711 B(  0-C ,  8-H ) :   0.9205 B(  0-C ,  9-H ) :   0.9404
B(  0-C , 10-H ) :   0.9205 B(  1-C ,  2-C ) :   1.4586 B(  1-C ,  5-O ) :   1.2038
B(  2-C ,  3-N ) :   1.1964 B(  2-C ,  6-C ) :   0.9114 B(  3-N ,  4-N ) :   1.4926
B(  4-N ,  5-O ) :   0.8160 B(  6-C ,  7-N ) :   2.8398

MP2 TOTAL ENERGY:     -392.918102449 Eh
FINAL SINGLE POINT ENERGY      -392.918102449054

DIPOLE MOMENT
-------------
                                X             Y             Z
Electronic contribution:     -1.17985      -5.75874      -0.04625
Nuclear contribution   :      2.12911       7.01241       0.15819
                        -----------------------------------------
Total Dipole Moment    :      0.94926       1.25367       0.11193
                        -----------------------------------------
Magnitude (a.u.)       :      1.57649
Magnitude (Debye)      :      4.00711

                             ****ORCA TERMINATED NORMALLY****
TOTAL RUN TIME: 0 days 0 hours 9 minutes 37 seconds 540 msec
