                         Program Version 3.0.3 - RELEASE   -
|  1> ! RI-MP2 RIJK def2-TZVP def2-TZVP/C def2-TZVP/JK TIGHTSCF
|  2> % maxcore 2000
|  3> % mp2 density relaxed end
|  4> *xyz 0 1
|  5>  O        0.3187812822     1.3491749264     0.4175296730
|  6>  C        0.0460018102     0.0117530958     0.0990192301
|  7>  C       -1.4349766561    -0.4717493131    -0.0731249063
|  8>  N       -2.7973116675     0.1711410267    -0.5414468876
|  9>  C       -1.9062648768     0.9650453751    -1.5050904398
| 10>  C       -1.2711307890    -0.4579565432    -1.5849180195
| 11>  C       -2.7669299487    -0.9308069109    -1.6421121060
| 12>  C        0.2718797806    -0.4486823458    -1.4441976694
| 13>  O        1.2467562208    -0.7069740197    -2.0750005664
| 14>  H        1.2673905193     1.4910855320     0.3170998594
| 15>  H        0.5780516278    -0.6782456564     0.7718596198
| 16>  H       -1.6065355079    -1.4186932602     0.4425542342
| 17>  H       -2.4235598527     1.3102536573    -2.4037713391
| 18>  H       -1.3473782214     1.7651274153    -1.0245551321
| 19>  H       -2.9801782823    -1.9354744887    -1.2708955569
| 20>  H       -3.3776220286    -0.6709849104    -2.5096854234
| 21> *
| 22>
| 23>                          ****END OF INPUT****

CARTESIAN COORDINATES (ANGSTROEM)
---------------------------------
  O      0.318781    1.349175    0.417530
  C      0.046002    0.011753    0.099019
  C     -1.434977   -0.471749   -0.073125
  N     -2.797312    0.171141   -0.541447
  C     -1.906265    0.965045   -1.505090
  C     -1.271131   -0.457957   -1.584918
  C     -2.766930   -0.930807   -1.642112
  C      0.271880   -0.448682   -1.444198
  O      1.246756   -0.706974   -2.075001
  H      1.267391    1.491086    0.317100
  H      0.578052   -0.678246    0.771860
  H     -1.606536   -1.418693    0.442554
  H     -2.423560    1.310254   -2.403771
  H     -1.347378    1.765127   -1.024555
  H     -2.980178   -1.935474   -1.270896
  H     -3.377622   -0.670985   -2.509685

 Total Charge           Charge          ....    0
 Multiplicity           Mult            ....    1
 Number of Electrons    NEL             ....   66
 Basis Dimension        Dim             ....  321

ORBITAL ENERGIES
----------------

  NO   OCC          E(Eh)            E(eV)
   0   2.0000     -20.589839      -560.2780
   1   2.0000     -20.576892      -559.9257
   2   2.0000     -15.596091      -424.3912
   3   2.0000     -11.358555      -309.0820
   4   2.0000     -11.326553      -308.2112
   5   2.0000     -11.293757      -307.3188
   6   2.0000     -11.275688      -306.8271
   7   2.0000     -11.273018      -306.7544
   8   2.0000     -11.272293      -306.7347
   9   2.0000      -1.422321       -38.7033
  10   2.0000      -1.396071       -37.9890
  11   2.0000      -1.310456       -35.6593
  12   2.0000      -1.082083       -29.4450
  13   2.0000      -0.941889       -25.6301
  14   2.0000      -0.935064       -25.4444
  15   2.0000      -0.866389       -23.5756
  16   2.0000      -0.803824       -21.8732
  17   2.0000      -0.742500       -20.2044
  18   2.0000      -0.725634       -19.7455
  19   2.0000      -0.686585       -18.6829
  20   2.0000      -0.667182       -18.1549
  21   2.0000      -0.640890       -17.4395
  22   2.0000      -0.619527       -16.8582
  23   2.0000      -0.598659       -16.2903
  24   2.0000      -0.557418       -15.1681
  25   2.0000      -0.536900       -14.6098
  26   2.0000      -0.534308       -14.5393
  27   2.0000      -0.504632       -13.7317
  28   2.0000      -0.493654       -13.4330
  29   2.0000      -0.472064       -12.8455
  30   2.0000      -0.457122       -12.4389
  31   2.0000      -0.403763       -10.9869
  32   2.0000      -0.357826        -9.7369
  33   0.0000       0.106101         2.8871
  34   0.0000       0.133693         3.6380
  35   0.0000       0.149182         4.0594
  36   0.0000       0.154640         4.2080
  37   0.0000       0.166083         4.5194

MULLIKEN ATOMIC CHARGES
-----------------------
   0 O :   -0.451466
   1 C :    0.085579
   2 C :   -0.114439
   3 N :   -0.178238
   4 C :   -0.177393
   5 C :    0.003081
   6 C :   -0.100893
   7 C :    0.047049
   8 O :   -0.208648
   9 H :    0.332079
  10 H :    0.111494
  11 H :    0.114985
  12 H :    0.121973
  13 H :    0.160068
  14 H :    0.128271
  15 H :    0.126497
Sum of atomic charges:   -0.0000000

LOEWDIN ATOMIC CHARGES
----------------------
   0 O :   -0.003750
   1 C :   -0.270364
   2 C :   -0.170934
   3 N :    0.104491
   4 C :   -0.190124
   5 C :   -0.192043
   6 C :   -0.189185
   7 C :   -0.255771
   8 O :    0.181373
   9 H :    0.187322
  10 H :    0.138921
  11 H :    0.141636
  12 H :    0.126960
  13 H :    0.137016
  14 H :    0.127756
  15 H :    0.126697

  Mayer bond orders larger than 0.1
B(  0-O ,  1-C ) :   0.9775 B(  0-O ,  9-H ) :   0.8300 B(  1-C ,  2-C ) :   0.8781
B(  1-C ,  5-C ) :  -0.1265 B(  1-C ,  7-C ) :   0.8417 B(  1-C , 10-H ) :   0.9052
B(  2-C ,  3-N ) :   0.9057 B(  2-C ,  5-C ) :   0.8869 B(  2-C , 11-H ) :   0.9349
B(  3-N ,  4-C ) :   0.9038 B(  3-N ,  6-C ) :   0.8915 B(  4-C ,  5-C ) :   0.9086
B(  4-C , 12-H ) :   0.9286 B(  4-C , 13-H ) :   0.8957 B(  5-C ,  6-C ) :   0.8930
B(  5-C ,  7-C ) :   0.7822 B(  6-C , 14-H ) :   0.9253 B(  6-C , 15-H ) :   0.9190
B(  7-C ,  8-O ) :   2.0767

MP2 TOTAL ENERGY:     -437.009237558 Eh
FINAL SINGLE POINT ENERGY      -437.009237558119

DIPOLE MOMENT
-------------
                                X             Y             Z
Electronic contribution:      3.69476      -0.30380      -0.65047
Nuclear contribution   :     -3.52357       0.06505       0.64535
                        -----------------------------------------
Total Dipole Moment    :      0.17119      -0.23874      -0.00512
                        -----------------------------------------
Magnitude (a.u.)       :      0.29382
Magnitude (Debye)      :      0.74683

                             ****ORCA TERMINATED NORMALLY****
TOTAL RUN TIME: 0 days 0 hours 23 minutes 3 seconds 549 msec
