                         Program Version 3.0.3 - RELEASE   -
|  1> ! RI-MP2 RIJK def2-TZVP def2-TZVP/C def2-TZVP/JK TIGHTSCF
|  2> % maxcore 2000
|  3> % mp2 density relaxed end
|  4> *xyz 0 1
|  5>  C        0.3078081116     1.6872827722    -0.6953656427
|  6>  C       -0.0008525160     0.1932018435    -0.8116615571
|  7>  C        1.2240837003    -0.6950630522    -0.5840093649
|  8>  O        1.7802156863    -0.5195689343     0.7180502627
|  9>  C        0.9368967400    -2.1844462729    -0.8324074914
| 10>  N        0.5851168918    -2.4156717523    -2.2275937829
| 11>  C        1.6481082111    -2.8396903141    -3.1364133205
| 12>  C        0.5517590564    -3.7784732693    -2.7631972896
| 13>  C        0.8177004863    -5.0075963246    -1.9212794556
| 14>  H        0.7611282790     1.9165338108     0.2731815880
| 15>  H        1.0121011671     2.0039380290    -1.4727582107
| 16>  H       -0.5989191875     2.2903824257    -0.8025804543
| 17>  H       -0.7719650801    -0.0895289181    -0.0778194101
| 18>  H       -0.4150588946    -0.0467121221    -1.7961282853
| 19>  H        2.0243401597    -0.3839311681    -1.2683572950
| 20>  H        1.0806639450    -0.6951716242     1.3575903375
| 21>  H        1.8192148455    -2.7500643633    -0.4954390465
| 22>  H        0.0884261948    -2.4966030921    -0.2066987928
| 23>  H        1.6717405434    -2.3570599408    -4.1101654999
| 24>  H        2.6296509423    -3.0379481173    -2.7051060181
| 25>  H       -0.2534545017    -3.9143025179    -3.4849302464
| 26>  H        1.6806607886    -4.8850298723    -1.2626324800
| 27>  H       -0.0506766833    -5.2592452354    -1.3020240532
| 28>  H        1.0167589939    -5.8656776799    -2.5720060114
| 29> *
| 30>
| 31>                          ****END OF INPUT****

CARTESIAN COORDINATES (ANGSTROEM)
---------------------------------
  C      0.307808    1.687283   -0.695366
  C     -0.000853    0.193202   -0.811662
  C      1.224084   -0.695063   -0.584009
  O      1.780216   -0.519569    0.718050
  C      0.936897   -2.184446   -0.832407
  N      0.585117   -2.415672   -2.227594
  C      1.648108   -2.839690   -3.136413
  C      0.551759   -3.778473   -2.763197
  C      0.817700   -5.007596   -1.921279
  H      0.761128    1.916534    0.273182
  H      1.012101    2.003938   -1.472758
  H     -0.598919    2.290382   -0.802580
  H     -0.771965   -0.089529   -0.077819
  H     -0.415059   -0.046712   -1.796128
  H      2.024340   -0.383931   -1.268357
  H      1.080664   -0.695172    1.357590
  H      1.819215   -2.750064   -0.495439
  H      0.088426   -2.496603   -0.206699
  H      1.671741   -2.357060   -4.110165
  H      2.629651   -3.037948   -2.705106
  H     -0.253455   -3.914303   -3.484930
  H      1.680661   -4.885030   -1.262632
  H     -0.050677   -5.259245   -1.302024
  H      1.016759   -5.865678   -2.572006

 Total Charge           Charge          ....    0
 Multiplicity           Mult            ....    1
 Number of Electrons    NEL             ....   72
 Basis Dimension        Dim             ....  369

ORBITAL ENERGIES
----------------

  NO   OCC          E(Eh)            E(eV)
   0   2.0000     -20.549468      -559.1794
   1   2.0000     -15.555082      -423.2753
   2   2.0000     -11.270951      -306.6982
   3   2.0000     -11.260747      -306.4205
   4   2.0000     -11.250430      -306.1398
   5   2.0000     -11.247992      -306.0734
   6   2.0000     -11.224977      -305.4472
   7   2.0000     -11.212667      -305.1122
   8   2.0000     -11.205382      -304.9139
   9   2.0000      -1.355687       -36.8901
  10   2.0000      -1.270854       -34.5817
  11   2.0000      -1.059043       -28.8180
  12   2.0000      -1.009920       -27.4813
  13   2.0000      -0.974858       -26.5272
  14   2.0000      -0.889952       -24.2168
  15   2.0000      -0.832585       -22.6558
  16   2.0000      -0.801061       -21.7980
  17   2.0000      -0.774326       -21.0705
  18   2.0000      -0.679510       -18.4904
  19   2.0000      -0.652194       -17.7471
  20   2.0000      -0.644079       -17.5263
  21   2.0000      -0.632817       -17.2198
  22   2.0000      -0.600945       -16.3526
  23   2.0000      -0.583782       -15.8855
  24   2.0000      -0.574462       -15.6319
  25   2.0000      -0.556024       -15.1302
  26   2.0000      -0.540444       -14.7062
  27   2.0000      -0.523461       -14.2441
  28   2.0000      -0.512054       -13.9337
  29   2.0000      -0.504305       -13.7228
  30   2.0000      -0.477521       -12.9940
  31   2.0000      -0.474845       -12.9212
  32   2.0000      -0.452129       -12.3030
  33   2.0000      -0.445264       -12.1163
  34   2.0000      -0.422043       -11.4844
  35   2.0000      -0.364564        -9.9203
  36   0.0000       0.134439         3.6583
  37   0.0000       0.147752         4.0205
  38   0.0000       0.157027         4.2729
  39   0.0000       0.167168         4.5489
  40   0.0000       0.180858         4.9214

MULLIKEN ATOMIC CHARGES
-----------------------
   0 C :   -0.373317
   1 C :   -0.236002
   2 C :    0.100190
   3 O :   -0.473443
   4 C :   -0.145619
   5 N :   -0.227225
   6 C :   -0.207385
   7 C :   -0.022278
   8 C :   -0.393114
   9 H :    0.129041
  10 H :    0.119727
  11 H :    0.130116
  12 H :    0.091246
  13 H :    0.129115
  14 H :    0.088292
  15 H :    0.308803
  16 H :    0.112907
  17 H :    0.100007
  18 H :    0.129082
  19 H :    0.120591
  20 H :    0.115800
  21 H :    0.129396
  22 H :    0.132575
  23 H :    0.141494
Sum of atomic charges:   -0.0000000

LOEWDIN ATOMIC CHARGES
----------------------
   0 C :   -0.320661
   1 C :   -0.287183
   2 C :   -0.347594
   3 O :   -0.022785
   4 C :   -0.287104
   5 N :    0.110439
   6 C :   -0.249745
   7 C :   -0.281967
   8 C :   -0.301469
   9 H :    0.121886
  10 H :    0.121058
  11 H :    0.119348
  12 H :    0.132862
  13 H :    0.144695
  14 H :    0.146257
  15 H :    0.173558
  16 H :    0.126482
  17 H :    0.132327
  18 H :    0.122647
  19 H :    0.124917
  20 H :    0.140414
  21 H :    0.124808
  22 H :    0.126155
  23 H :    0.130654

  Mayer bond orders larger than 0.1
B(  0-C ,  1-C ) :   0.9243 B(  0-C ,  9-H ) :   0.9354 B(  0-C , 10-H ) :   0.9384
B(  0-C , 11-H ) :   0.9427 B(  1-C ,  2-C ) :   0.9586 B(  1-C , 12-H ) :   0.9130
B(  1-C , 13-H ) :   0.9246 B(  2-C ,  3-O ) :   0.9018 B(  2-C ,  4-C ) :   0.9506
B(  2-C , 14-H ) :   0.9099 B(  3-O , 15-H ) :   0.8443 B(  4-C ,  5-N ) :   0.8839
B(  4-C , 16-H ) :   0.9203 B(  4-C , 17-H ) :   0.9046 B(  5-N ,  6-C ) :   0.8790
B(  5-N ,  7-C ) :   0.9009 B(  6-C ,  7-C ) :   0.9416 B(  6-C , 18-H ) :   0.9223
B(  6-C , 19-H ) :   0.9190 B(  7-C ,  8-C ) :   0.9103 B(  7-C , 20-H ) :   0.9250
B(  8-C , 21-H ) :   0.9352 B(  8-C , 22-H ) :   0.9377 B(  8-C , 23-H ) :   0.9314

MP2 TOTAL ENERGY:     -404.830508256 Eh
FINAL SINGLE POINT ENERGY      -404.830508255819

DIPOLE MOMENT
-------------
                                X             Y             Z
Electronic contribution:      1.17747      -0.54334       0.20974
Nuclear contribution   :     -1.47189      -0.06181      -0.27823
                        -----------------------------------------
Total Dipole Moment    :     -0.29442      -0.60515      -0.06849
                        -----------------------------------------
Magnitude (a.u.)       :      0.67645
Magnitude (Debye)      :      1.71941

                             ****ORCA TERMINATED NORMALLY****
TOTAL RUN TIME: 0 days 0 hours 17 minutes 47 seconds 846 msec
