                         Program Version 3.0.3 - RELEASE   -
|  1> ! RI-MP2 RIJK def2-TZVP def2-TZVP/C def2-TZVP/JK TIGHTSCF
|  2> % maxcore 2000
|  3> % mp2 density relaxed end
|  4> *xyz 0 1
|  5>  C       -0.0736705505     1.4785508349    -0.0051543431
|  6>  O        1.1588150155     0.7562533896    -0.0789863076
|  7>  C       -0.0702504829     0.0110029226     0.0120194533
|  8>  C       -0.2902005065    -0.7405750615     1.3167476212
|  9>  C        0.1631078828    -2.1783970231     1.2389212382
| 10>  C        0.1860674596    -2.8616708700     0.0946872335
| 11>  C       -0.2309867096    -2.2393889485    -1.1868604974
| 12>  N       -1.5780852570    -1.6017811140    -1.2082218348
| 13>  C       -0.3769699484    -0.7558104546    -1.2375117008
| 14>  H       -0.2404962440     2.0271046645     0.9217298552
| 15>  H       -0.3614992498     2.0115684450    -0.9112135272
| 16>  H        0.2404613163    -0.2084749105     2.1124627964
| 17>  H       -1.3588659488    -0.7095366069     1.5672324368
| 18>  H        0.4566195616    -2.6580180771     2.1681040195
| 19>  H        0.5119220219    -3.8971276801     0.0705932588
| 20>  H        0.0880076234    -2.7380845604    -2.0975544414
| 21>  H       -1.9714970672    -1.6659047481    -2.1439668535
| 22>  H       -0.1113268364    -0.2433570720    -2.1587033170
| 23> *
| 24>
| 25>                          ****END OF INPUT****

CARTESIAN COORDINATES (ANGSTROEM)
---------------------------------
  C     -0.073671    1.478551   -0.005154
  O      1.158815    0.756253   -0.078986
  C     -0.070250    0.011003    0.012019
  C     -0.290201   -0.740575    1.316748
  C      0.163108   -2.178397    1.238921
  C      0.186067   -2.861671    0.094687
  C     -0.230987   -2.239389   -1.186860
  N     -1.578085   -1.601781   -1.208222
  C     -0.376970   -0.755810   -1.237512
  H     -0.240496    2.027105    0.921730
  H     -0.361499    2.011568   -0.911214
  H      0.240461   -0.208475    2.112463
  H     -1.358866   -0.709537    1.567232
  H      0.456620   -2.658018    2.168104
  H      0.511922   -3.897128    0.070593
  H      0.088008   -2.738085   -2.097554
  H     -1.971497   -1.665905   -2.143967
  H     -0.111327   -0.243357   -2.158703

 Total Charge           Charge          ....    0
 Multiplicity           Mult            ....    1
 Number of Electrons    NEL             ....   66
 Basis Dimension        Dim             ....  333

ORBITAL ENERGIES
----------------

  NO   OCC          E(Eh)            E(eV)
   0   2.0000     -20.563193      -559.5529
   1   2.0000     -15.566183      -423.5774
   2   2.0000     -11.293345      -307.3076
   3   2.0000     -11.280309      -306.9528
   4   2.0000     -11.267395      -306.6014
   5   2.0000     -11.266541      -306.5782
   6   2.0000     -11.232331      -305.6473
   7   2.0000     -11.230951      -305.6097
   8   2.0000     -11.226310      -305.4834
   9   2.0000      -1.407990       -38.3134
  10   2.0000      -1.270961       -34.5846
  11   2.0000      -1.085683       -29.5429
  12   2.0000      -0.999478       -27.1972
  13   2.0000      -0.935696       -25.4616
  14   2.0000      -0.901775       -24.5385
  15   2.0000      -0.856110       -23.2959
  16   2.0000      -0.792593       -21.5676
  17   2.0000      -0.727056       -19.7842
  18   2.0000      -0.699603       -19.0372
  19   2.0000      -0.679249       -18.4833
  20   2.0000      -0.645375       -17.5615
  21   2.0000      -0.617097       -16.7921
  22   2.0000      -0.588667       -16.0184
  23   2.0000      -0.579487       -15.7686
  24   2.0000      -0.543603       -14.7922
  25   2.0000      -0.518214       -14.1013
  26   2.0000      -0.505095       -13.7443
  27   2.0000      -0.490431       -13.3453
  28   2.0000      -0.486353       -13.2343
  29   2.0000      -0.448486       -12.2039
  30   2.0000      -0.432995       -11.7824
  31   2.0000      -0.393720       -10.7137
  32   2.0000      -0.340739        -9.2720
  33   0.0000       0.129730         3.5301
  34   0.0000       0.141554         3.8519
  35   0.0000       0.157789         4.2937
  36   0.0000       0.170286         4.6337
  37   0.0000       0.189208         5.1486

MULLIKEN ATOMIC CHARGES
-----------------------
   0 C :   -0.082104
   1 O :   -0.337136
   2 C :    0.156332
   3 C :   -0.111616
   4 C :   -0.182863
   5 C :   -0.221473
   6 C :    0.043672
   7 N :   -0.405658
   8 C :   -0.073338
   9 H :    0.115476
  10 H :    0.111850
  11 H :    0.131063
  12 H :    0.124867
  13 H :    0.123677
  14 H :    0.121154
  15 H :    0.131882
  16 H :    0.219849
  17 H :    0.134367
Sum of atomic charges:    0.0000000

LOEWDIN ATOMIC CHARGES
----------------------
   0 C :   -0.242999
   1 O :    0.162904
   2 C :   -0.293496
   3 C :   -0.200691
   4 C :   -0.144942
   5 C :   -0.155999
   6 C :   -0.227574
   7 N :    0.016903
   8 C :   -0.213538
   9 H :    0.121944
  10 H :    0.120528
  11 H :    0.153015
  12 H :    0.160313
  13 H :    0.142779
  14 H :    0.144714
  15 H :    0.141106
  16 H :    0.168149
  17 H :    0.146884

  Mayer bond orders larger than 0.1
B(  0-C ,  1-O ) :   0.8926 B(  0-C ,  2-C ) :   0.9632 B(  0-C ,  9-H ) :   0.9105
B(  0-C , 10-H ) :   0.9059 B(  1-O ,  2-C ) :   0.8699 B(  2-C ,  3-C ) :   0.9177
B(  2-C ,  8-C ) :   0.9148 B(  3-C ,  4-C ) :   0.9543 B(  3-C , 11-H ) :   0.9222
B(  3-C , 12-H ) :   0.8829 B(  4-C ,  5-C ) :   1.8135 B(  4-C , 13-H ) :   0.9242
B(  5-C ,  6-C ) :   0.9533 B(  5-C , 14-H ) :   0.9330 B(  6-C ,  7-N ) :   0.8674
B(  6-C ,  8-C ) :   0.9444 B(  6-C , 15-H ) :   0.9166 B(  7-N ,  8-C ) :   0.9843
B(  7-N , 16-H ) :   0.8670 B(  8-C , 17-H ) :   0.9279

MP2 TOTAL ENERGY:     -401.216740352 Eh
FINAL SINGLE POINT ENERGY      -401.216740352078

DIPOLE MOMENT
-------------
                                X             Y             Z
Electronic contribution:      1.15631       0.27168      -1.03519
Nuclear contribution   :     -1.56121      -0.29499       0.64037
                        -----------------------------------------
Total Dipole Moment    :     -0.40490      -0.02332      -0.39481
                        -----------------------------------------
Magnitude (a.u.)       :      0.56601
Magnitude (Debye)      :      1.43869

                             ****ORCA TERMINATED NORMALLY****
TOTAL RUN TIME: 0 days 0 hours 17 minutes 48 seconds 155 msec
