                         Program Version 3.0.3 - RELEASE   -
|  1> ! RI-MP2 RIJK def2-TZVP def2-TZVP/C def2-TZVP/JK TIGHTSCF
|  2> % maxcore 2000
|  3> % mp2 density relaxed end
|  4> *xyz 0 1
|  5>  C       -0.0945451639     1.6300123447     0.0106695736
|  6>  C        1.4218448865     1.3381245183    -0.0044345227
|  7>  C        1.2542213817     0.0610202991     0.8782754290
|  8>  O        1.9990071444    -0.8123695991    -0.0210522775
|  9>  C        1.2383542119     0.0704844939    -0.8975695526
| 10>  C       -0.0379241635     0.0867732946     0.0019395155
| 11>  H       -0.4930356122     2.0994772668     0.9142265422
| 12>  H       -0.5090718534     2.1090423204    -0.8805683511
| 13>  H        2.2717408807     2.0202743132    -0.0083926676
| 14>  H        1.3697744013    -0.0682973360     1.9543087180
| 15>  H        1.3346500393    -0.0473472106    -1.9768127731
| 16>  H       -0.8419659327    -0.6488712853     0.0052034991
| 17> *
| 18>
| 19>                          ****END OF INPUT****

CARTESIAN COORDINATES (ANGSTROEM)
---------------------------------
  C     -0.094545    1.630012    0.010670
  C      1.421845    1.338125   -0.004435
  C      1.254221    0.061020    0.878275
  O      1.999007   -0.812370   -0.021052
  C      1.238354    0.070484   -0.897570
  C     -0.037924    0.086773    0.001940
  H     -0.493036    2.099477    0.914227
  H     -0.509072    2.109042   -0.880568
  H      2.271741    2.020274   -0.008393
  H      1.369774   -0.068297    1.954309
  H      1.334650   -0.047347   -1.976813
  H     -0.841966   -0.648871    0.005203

 Total Charge           Charge          ....    0
 Multiplicity           Mult            ....    1
 Number of Electrons    NEL             ....   44
 Basis Dimension        Dim             ....  222

ORBITAL ENERGIES
----------------

  NO   OCC          E(Eh)            E(eV)
   0   2.0000     -20.545622      -559.0748
   1   2.0000     -11.301132      -307.5194
   2   2.0000     -11.301044      -307.5170
   3   2.0000     -11.250227      -306.1342
   4   2.0000     -11.250191      -306.1333
   5   2.0000     -11.238267      -305.8088
   6   2.0000      -1.401928       -38.1484
   7   2.0000      -1.164636       -31.6914
   8   2.0000      -0.896512       -24.3953
   9   2.0000      -0.888629       -24.1808
  10   2.0000      -0.882358       -24.0102
  11   2.0000      -0.713906       -19.4264
  12   2.0000      -0.699465       -19.0334
  13   2.0000      -0.635934       -17.3047
  14   2.0000      -0.626818       -17.0566
  15   2.0000      -0.597164       -16.2497
  16   2.0000      -0.532158       -14.4808
  17   2.0000      -0.465178       -12.6581
  18   2.0000      -0.454836       -12.3767
  19   2.0000      -0.443543       -12.0694
  20   2.0000      -0.439071       -11.9477
  21   2.0000      -0.399110       -10.8603
  22   0.0000       0.144411         3.9296
  23   0.0000       0.173250         4.7144
  24   0.0000       0.173768         4.7285
  25   0.0000       0.176832         4.8119
  26   0.0000       0.197040         5.3617

MULLIKEN ATOMIC CHARGES
-----------------------
   0 C :   -0.235140
   1 C :   -0.110230
   2 C :    0.015235
   3 O :   -0.338556
   4 C :    0.015235
   5 C :   -0.110232
   6 H :    0.116270
   7 H :    0.116270
   8 H :    0.136302
   9 H :    0.129272
  10 H :    0.129272
  11 H :    0.136302
Sum of atomic charges:   -0.0000000

LOEWDIN ATOMIC CHARGES
----------------------
   0 C :   -0.211113
   1 C :   -0.145196
   2 C :   -0.194710
   3 O :    0.124556
   4 C :   -0.194709
   5 C :   -0.145196
   6 H :    0.128083
   7 H :    0.128083
   8 H :    0.128275
   9 H :    0.126826
  10 H :    0.126826
  11 H :    0.128275

  Mayer bond orders larger than 0.1
B(  0-C ,  1-C ) :   0.9092 B(  0-C ,  5-C ) :   0.9092 B(  0-C ,  6-H ) :   0.9284
B(  0-C ,  7-H ) :   0.9284 B(  1-C ,  2-C ) :   0.8843 B(  1-C ,  4-C ) :   0.8843
B(  1-C ,  8-H ) :   0.9026 B(  2-C ,  3-O ) :   0.9224 B(  2-C ,  5-C ) :   0.8843
B(  2-C ,  9-H ) :   0.8984 B(  3-O ,  4-C ) :   0.9224 B(  4-C ,  5-C ) :   0.8843
B(  4-C , 10-H ) :   0.8984 B(  5-C , 11-H ) :   0.9026

MP2 TOTAL ENERGY:     -268.665435069 Eh
FINAL SINGLE POINT ENERGY      -268.665435069174

DIPOLE MOMENT
-------------
                                X             Y             Z
Electronic contribution:      2.03778      -2.37733      -0.03088
Nuclear contribution   :     -2.57012       2.99837       0.03894
                        -----------------------------------------
Total Dipole Moment    :     -0.53234       0.62103       0.00807
                        -----------------------------------------
Magnitude (a.u.)       :      0.81801
Magnitude (Debye)      :      2.07921

                             ****ORCA TERMINATED NORMALLY****
TOTAL RUN TIME: 0 days 0 hours 4 minutes 30 seconds 928 msec
