                         Program Version 3.0.3 - RELEASE   -
|  1> ! RI-MP2 RIJK def2-TZVP def2-TZVP/C def2-TZVP/JK TIGHTSCF
|  2> % maxcore 2000
|  3> % mp2 density relaxed end
|  4> *xyz 0 1
|  5>  C       -0.0769522508     1.5629137247    -0.0789988150
|  6>  C        0.1077967068     0.0624299596    -0.0108651598
|  7>  N        1.3324140359    -0.5801689601    -0.7123411376
|  8>  C        2.1420915983    -0.1408914023     0.5203068497
|  9>  C        0.8354929242    -0.6699316381     1.1604024300
| 10>  C        0.9913848964    -1.8181631189     0.1331722942
| 11>  C        0.4626669641    -0.7384432598     2.5590280230
| 12>  N        0.1563639747    -0.7850163253     3.6731577761
| 13>  H       -0.2621528375     1.8576365844    -1.1168590701
| 14>  H       -0.9530866765     1.8488946545     0.5117418812
| 15>  H        0.7749123794     2.1378629352     0.2884045822
| 16>  H       -0.8140752040    -0.4348019666    -0.3296078191
| 17>  H        3.0463684787    -0.7319636285     0.6783399591
| 18>  H        2.3568712160     0.9249789082     0.5714602356
| 19>  H        0.0866983624    -2.3394640650    -0.1869230876
| 20>  H        1.8319318821    -2.5015330822     0.2671974080
| 21> *
| 22>
| 23>                          ****END OF INPUT****

CARTESIAN COORDINATES (ANGSTROEM)
---------------------------------
  C     -0.076952    1.562914   -0.078999
  C      0.107797    0.062430   -0.010865
  N      1.332414   -0.580169   -0.712341
  C      2.142092   -0.140891    0.520307
  C      0.835493   -0.669932    1.160402
  C      0.991385   -1.818163    0.133172
  C      0.462667   -0.738443    2.559028
  N      0.156364   -0.785016    3.673158
  H     -0.262153    1.857637   -1.116859
  H     -0.953087    1.848895    0.511742
  H      0.774912    2.137863    0.288405
  H     -0.814075   -0.434802   -0.329608
  H      3.046368   -0.731964    0.678340
  H      2.356871    0.924979    0.571460
  H      0.086698   -2.339464   -0.186923
  H      1.831932   -2.501533    0.267197

 Total Charge           Charge          ....    0
 Multiplicity           Mult            ....    1
 Number of Electrons    NEL             ....   58
 Basis Dimension        Dim             ....  296

ORBITAL ENERGIES
----------------

  NO   OCC          E(Eh)            E(eV)
   0   2.0000     -15.593216      -424.3130
   1   2.0000     -15.579650      -423.9438
   2   2.0000     -11.304304      -307.6057
   3   2.0000     -11.296682      -307.3984
   4   2.0000     -11.289806      -307.2112
   5   2.0000     -11.288393      -307.1728
   6   2.0000     -11.278306      -306.8983
   7   2.0000     -11.236910      -305.7719
   8   2.0000      -1.324024       -36.0285
   9   2.0000      -1.223185       -33.2846
  10   2.0000      -1.032617       -28.0989
  11   2.0000      -0.993542       -27.0356
  12   2.0000      -0.951859       -25.9014
  13   2.0000      -0.887841       -24.1594
  14   2.0000      -0.788824       -21.4650
  15   2.0000      -0.735998       -20.0275
  16   2.0000      -0.678877       -18.4732
  17   2.0000      -0.640748       -17.4356
  18   2.0000      -0.601424       -16.3656
  19   2.0000      -0.569830       -15.5059
  20   2.0000      -0.562969       -15.3192
  21   2.0000      -0.550839       -14.9891
  22   2.0000      -0.532895       -14.5008
  23   2.0000      -0.527464       -14.3530
  24   2.0000      -0.490360       -13.3434
  25   2.0000      -0.489343       -13.3157
  26   2.0000      -0.450749       -12.2655
  27   2.0000      -0.447088       -12.1659
  28   2.0000      -0.409335       -11.1386
  29   0.0000       0.127967         3.4822
  30   0.0000       0.140983         3.8364
  31   0.0000       0.144095         3.9210
  32   0.0000       0.155709         4.2371
  33   0.0000       0.175846         4.7850

MULLIKEN ATOMIC CHARGES
-----------------------
   0 C :   -0.409250
   1 C :   -0.005447
   2 N :   -0.195071
   3 C :   -0.154352
   4 C :    0.077620
   5 C :   -0.126518
   6 C :   -0.216850
   7 N :   -0.033076
   8 H :    0.152721
   9 H :    0.148479
  10 H :    0.126258
  11 H :    0.113799
  12 H :    0.129174
  13 H :    0.130677
  14 H :    0.129163
  15 H :    0.132676
Sum of atomic charges:   -0.0000000

LOEWDIN ATOMIC CHARGES
----------------------
   0 C :   -0.287399
   1 C :   -0.211019
   2 N :    0.108827
   3 C :   -0.182162
   4 C :   -0.226488
   5 C :   -0.185088
   6 C :   -0.157102
   7 N :    0.075187
   8 H :    0.136692
   9 H :    0.135610
  10 H :    0.125129
  11 H :    0.148715
  12 H :    0.131198
  13 H :    0.126533
  14 H :    0.130345
  15 H :    0.131022

  Mayer bond orders larger than 0.1
B(  0-C ,  1-C ) :   0.9357 B(  0-C ,  8-H ) :   0.9336 B(  0-C ,  9-H ) :   0.9308
B(  0-C , 10-H ) :   0.9282 B(  1-C ,  2-N ) :   0.9094 B(  1-C ,  4-C ) :   0.8894
B(  1-C , 11-H ) :   0.9210 B(  2-N ,  3-C ) :   0.9217 B(  2-N ,  5-C ) :   0.9198
B(  3-C ,  4-C ) :   0.9291 B(  3-C , 12-H ) :   0.9248 B(  3-C , 13-H ) :   0.9262
B(  4-C ,  5-C ) :   0.9147 B(  4-C ,  6-C ) :   0.7760 B(  5-C , 14-H ) :   0.9242
B(  5-C , 15-H ) :   0.9253 B(  6-C ,  7-N ) :   2.8914

MP2 TOTAL ENERGY:     -342.118706946 Eh
FINAL SINGLE POINT ENERGY      -342.118706946304

DIPOLE MOMENT
-------------
                                X             Y             Z
Electronic contribution:      0.04834      -3.26358       4.98674
Nuclear contribution   :      0.10075       3.43702      -5.84813
                        -----------------------------------------
Total Dipole Moment    :      0.14910       0.17345      -0.86138
                        -----------------------------------------
Magnitude (a.u.)       :      0.89123
Magnitude (Debye)      :      2.26533

                             ****ORCA TERMINATED NORMALLY****
TOTAL RUN TIME: 0 days 0 hours 12 minutes 10 seconds 68 msec
