                         Program Version 3.0.3 - RELEASE   -
|  1> ! RI-MP2 RIJK def2-TZVP def2-TZVP/C def2-TZVP/JK TIGHTSCF
|  2> % maxcore 2000
|  3> % mp2 density relaxed end
|  4> *xyz 0 1
|  5>  C        0.0248903240     1.5537441616     0.0115696785
|  6>  C        0.0979261788     0.0440334736     0.0550502632
|  7>  C        1.3401053803    -0.7478505496    -0.1541233676
|  8>  O        2.4858737779    -0.0179953543     0.3675452912
|  9>  C        1.9641039955    -0.1190833567     1.6540954653
| 10>  O        2.4872652923     0.2030000499     2.6706951735
| 11>  C        0.6881816903    -0.7957214851     1.2126563150
| 12>  C       -0.0599466574    -1.8429957080     1.9834570311
| 13>  H        0.9663523530     2.0080727290     0.3268103026
| 14>  H       -0.1863794706     1.8933436972    -1.0078144414
| 15>  H       -0.7733298724     1.9243613208     0.6618225885
| 16>  H       -0.7834046029    -0.4602936782    -0.3418281596
| 17>  H        1.5461127365    -1.5217109805    -0.8808644647
| 18>  H       -0.6000929188    -1.3949689737     2.8238891176
| 19>  H       -0.7930504067    -2.3472388146     1.3468814717
| 20>  H        0.6184729602    -2.6003176813     2.3884160150
| 21> *
| 22>
| 23>                          ****END OF INPUT****

CARTESIAN COORDINATES (ANGSTROEM)
---------------------------------
  C      0.024890    1.553744    0.011570
  C      0.097926    0.044033    0.055050
  C      1.340105   -0.747851   -0.154123
  O      2.485874   -0.017995    0.367545
  C      1.964104   -0.119083    1.654095
  O      2.487265    0.203000    2.670695
  C      0.688182   -0.795721    1.212656
  C     -0.059947   -1.842996    1.983457
  H      0.966352    2.008073    0.326810
  H     -0.186379    1.893344   -1.007814
  H     -0.773330    1.924361    0.661823
  H     -0.783405   -0.460294   -0.341828
  H      1.546113   -1.521711   -0.880864
  H     -0.600093   -1.394969    2.823889
  H     -0.793050   -2.347239    1.346881
  H      0.618473   -2.600318    2.388416

 Total Charge           Charge          ....    0
 Multiplicity           Mult            ....    1
 Number of Electrons    NEL             ....   60
 Basis Dimension        Dim             ....  296

ORBITAL ENERGIES
----------------

  NO   OCC          E(Eh)            E(eV)
   0   2.0000     -20.598366      -560.5100
   1   2.0000     -20.554762      -559.3235
   2   2.0000     -11.384849      -309.7975
   3   2.0000     -11.316276      -307.9315
   4   2.0000     -11.273237      -306.7604
   5   2.0000     -11.271797      -306.7212
   6   2.0000     -11.244673      -305.9831
   7   2.0000     -11.233729      -305.6853
   8   2.0000      -1.465649       -39.8823
   9   2.0000      -1.383093       -37.6359
  10   2.0000      -1.165722       -31.7209
  11   2.0000      -1.018852       -27.7244
  12   2.0000      -0.967083       -26.3157
  13   2.0000      -0.896609       -24.3980
  14   2.0000      -0.817385       -22.2422
  15   2.0000      -0.722535       -19.6612
  16   2.0000      -0.697890       -18.9905
  17   2.0000      -0.685357       -18.6495
  18   2.0000      -0.662461       -18.0265
  19   2.0000      -0.605771       -16.4839
  20   2.0000      -0.599504       -16.3133
  21   2.0000      -0.581512       -15.8237
  22   2.0000      -0.576910       -15.6985
  23   2.0000      -0.566149       -15.4057
  24   2.0000      -0.550594       -14.9824
  25   2.0000      -0.527517       -14.3545
  26   2.0000      -0.504281       -13.7222
  27   2.0000      -0.448397       -12.2015
  28   2.0000      -0.420451       -11.4411
  29   2.0000      -0.411143       -11.1878
  30   0.0000       0.126409         3.4398
  31   0.0000       0.150599         4.0980
  32   0.0000       0.152378         4.1464
  33   0.0000       0.165245         4.4965
  34   0.0000       0.179767         4.8917

MULLIKEN ATOMIC CHARGES
-----------------------
   0 C :   -0.390221
   1 C :   -0.120233
   2 C :    0.090456
   3 O :   -0.269211
   4 C :    0.266780
   5 O :   -0.255483
   6 C :   -0.071057
   7 C :   -0.401544
   8 H :    0.159952
   9 H :    0.136075
  10 H :    0.138281
  11 H :    0.124941
  12 H :    0.157350
  13 H :    0.151786
  14 H :    0.134890
  15 H :    0.147237
Sum of atomic charges:   -0.0000000

LOEWDIN ATOMIC CHARGES
----------------------
   0 C :   -0.283455
   1 C :   -0.181138
   2 C :   -0.181464
   3 O :    0.236872
   4 C :   -0.410984
   5 O :    0.165663
   6 C :   -0.181629
   7 C :   -0.264068
   8 H :    0.136142
   9 H :    0.129796
  10 H :    0.129554
  11 H :    0.162288
  12 H :    0.138139
  13 H :    0.137210
  14 H :    0.132250
  15 H :    0.134826

  Mayer bond orders larger than 0.1
B(  0-C ,  1-C ) :   0.9167 B(  0-C ,  8-H ) :   0.9297 B(  0-C ,  9-H ) :   0.9311
B(  0-C , 10-H ) :   0.9339 B(  1-C ,  2-C ) :   0.8935 B(  1-C ,  6-C ) :   0.8247
B(  1-C , 11-H ) :   0.9212 B(  2-C ,  3-O ) :   0.8924 B(  2-C ,  6-C ) :   0.8309
B(  2-C , 12-H ) :   0.9086 B(  3-O ,  4-C ) :   1.0418 B(  4-C ,  5-O ) :   2.0662
B(  4-C ,  6-C ) :   0.9297 B(  6-C ,  7-C ) :   0.8855 B(  7-C , 13-H ) :   0.9346
B(  7-C , 14-H ) :   0.9375 B(  7-C , 15-H ) :   0.9330

MP2 TOTAL ENERGY:     -383.105333863 Eh
FINAL SINGLE POINT ENERGY      -383.105333863066

DIPOLE MOMENT
-------------
                                X             Y             Z
Electronic contribution:      7.19979       0.19392       1.60581
Nuclear contribution   :     -8.55101      -0.83126      -2.43734
                        -----------------------------------------
Total Dipole Moment    :     -1.35122      -0.63734      -0.83153
                        -----------------------------------------
Magnitude (a.u.)       :      1.70981
Magnitude (Debye)      :      4.34598

                             ****ORCA TERMINATED NORMALLY****
TOTAL RUN TIME: 0 days 0 hours 12 minutes 49 seconds 471 msec
