                         Program Version 3.0.3 - RELEASE   -
|  1> ! RI-MP2 RIJK def2-TZVP def2-TZVP/C def2-TZVP/JK TIGHTSCF
|  2> % maxcore 2000
|  3> % mp2 density relaxed end
|  4> *xyz 0 1
|  5>  C        0.0897732742    -1.1435649057    -0.3767591024
|  6>  C        0.0025974447     0.0496992266    -0.2283512352
|  7>  C       -0.0351170054     1.4554362347    -0.0596062586
|  8>  C       -1.1277142042     2.2051700705     0.1594556231
|  9>  C       -0.7926686201     3.6617593045     0.3474609888
| 10>  C        0.6973133578     3.7505257409    -0.0778792386
| 11>  C        1.2055007320     2.3025713121    -0.0716064134
| 12>  C        2.4323656553     1.8710136252     0.7064496154
| 13>  C        2.4570342576     1.8858077975    -0.7996630542
| 14>  H        0.1434934400    -2.1962020075    -0.5045917066
| 15>  H       -2.1339805908     1.8115369603     0.2370978380
| 16>  H       -1.4358997077     4.3224031829    -0.2447532141
| 17>  H       -0.9402861222     3.9555690935     1.3965633310
| 18>  H        0.7668098642     4.1601525186    -1.0915218280
| 19>  H        1.2832039649     4.4020310350     0.5758723833
| 20>  H        2.9816044398     2.6398734549     1.2402491244
| 21>  H        2.4042468304     0.9068002492     1.2026584973
| 22>  H        2.4481952121     0.9313612879    -1.3152071946
| 23>  H        3.0259594275     2.6645791589    -1.2978238757
| 24> *
| 25>
| 26>                          ****END OF INPUT****

CARTESIAN COORDINATES (ANGSTROEM)
---------------------------------
  C      0.089773   -1.143565   -0.376759
  C      0.002597    0.049699   -0.228351
  C     -0.035117    1.455436   -0.059606
  C     -1.127714    2.205170    0.159456
  C     -0.792669    3.661759    0.347461
  C      0.697313    3.750526   -0.077879
  C      1.205501    2.302571   -0.071606
  C      2.432366    1.871014    0.706450
  C      2.457034    1.885808   -0.799663
  H      0.143493   -2.196202   -0.504592
  H     -2.133981    1.811537    0.237098
  H     -1.435900    4.322403   -0.244753
  H     -0.940286    3.955569    1.396563
  H      0.766810    4.160153   -1.091522
  H      1.283204    4.402031    0.575872
  H      2.981604    2.639873    1.240249
  H      2.404247    0.906800    1.202658
  H      2.448195    0.931361   -1.315207
  H      3.025959    2.664579   -1.297824

 Total Charge           Charge          ....    0
 Multiplicity           Mult            ....    1
 Number of Electrons    NEL             ....   64
 Basis Dimension        Dim             ....  339

ORBITAL ENERGIES
----------------

  NO   OCC          E(Eh)            E(eV)
   0   2.0000     -11.249788      -306.1223
   1   2.0000     -11.242282      -305.9180
   2   2.0000     -11.236709      -305.7664
   3   2.0000     -11.236622      -305.7640
   4   2.0000     -11.230885      -305.6079
   5   2.0000     -11.227023      -305.5028
   6   2.0000     -11.226741      -305.4952
   7   2.0000     -11.222208      -305.3718
   8   2.0000     -11.221188      -305.3440
   9   2.0000      -1.176078       -32.0027
  10   2.0000      -1.093341       -29.7513
  11   2.0000      -1.042572       -28.3698
  12   2.0000      -0.968659       -26.3586
  13   2.0000      -0.904339       -24.6083
  14   2.0000      -0.821695       -22.3595
  15   2.0000      -0.791600       -21.5405
  16   2.0000      -0.770216       -20.9587
  17   2.0000      -0.702502       -19.1160
  18   2.0000      -0.681472       -18.5438
  19   2.0000      -0.641186       -17.4476
  20   2.0000      -0.620310       -16.8795
  21   2.0000      -0.594311       -16.1720
  22   2.0000      -0.542027       -14.7493
  23   2.0000      -0.524369       -14.2688
  24   2.0000      -0.508833       -13.8461
  25   2.0000      -0.503476       -13.7003
  26   2.0000      -0.485490       -13.2109
  27   2.0000      -0.472058       -12.8454
  28   2.0000      -0.418279       -11.3819
  29   2.0000      -0.401906       -10.9364
  30   2.0000      -0.390553       -10.6275
  31   2.0000      -0.313020        -8.5177
  32   0.0000       0.115217         3.1352
  33   0.0000       0.143502         3.9049
  34   0.0000       0.158615         4.3161
  35   0.0000       0.164487         4.4759
  36   0.0000       0.175404         4.7730

MULLIKEN ATOMIC CHARGES
-----------------------
   0 C :   -0.160186
   1 C :    0.064955
   2 C :   -0.059039
   3 C :   -0.250064
   4 C :   -0.164198
   5 C :   -0.245948
   6 C :    0.073854
   7 C :   -0.309402
   8 C :   -0.298840
   9 H :    0.190522
  10 H :    0.136646
  11 H :    0.123706
  12 H :    0.116407
  13 H :    0.118995
  14 H :    0.123091
  15 H :    0.127086
  16 H :    0.140938
  17 H :    0.143553
  18 H :    0.127924
Sum of atomic charges:   -0.0000000

LOEWDIN ATOMIC CHARGES
----------------------
   0 C :   -0.080168
   1 C :   -0.064293
   2 C :   -0.124832
   3 C :   -0.095614
   4 C :   -0.233065
   5 C :   -0.187829
   6 C :   -0.188334
   7 C :   -0.197552
   8 C :   -0.199853
   9 H :    0.127521
  10 H :    0.141910
  11 H :    0.138037
  12 H :    0.141925
  13 H :    0.141946
  14 H :    0.137021
  15 H :    0.132293
  16 H :    0.137864
  17 H :    0.139077
  18 H :    0.133946

  Mayer bond orders larger than 0.1
B(  0-C ,  1-C ) :   2.5817 B(  0-C ,  2-C ) :  -0.1439 B(  0-C ,  9-H ) :   0.8861
B(  1-C ,  2-C ) :   1.0920 B(  2-C ,  3-C ) :   1.6556 B(  2-C ,  6-C ) :   0.9599
B(  3-C ,  4-C ) :   0.9618 B(  3-C , 10-H ) :   0.9227 B(  4-C ,  5-C ) :   0.9698
B(  4-C , 11-H ) :   0.9279 B(  4-C , 12-H ) :   0.9051 B(  5-C ,  6-C ) :   0.9052
B(  5-C , 13-H ) :   0.9254 B(  5-C , 14-H ) :   0.9302 B(  6-C ,  7-C ) :   0.8306
B(  6-C ,  8-C ) :   0.8400 B(  7-C ,  8-C ) :   0.9282 B(  7-C , 15-H ) :   0.9214
B(  7-C , 16-H ) :   0.9242 B(  8-C , 17-H ) :   0.9199 B(  8-C , 18-H ) :   0.9246

MP2 TOTAL ENERGY:     -348.064428326 Eh
FINAL SINGLE POINT ENERGY      -348.064428325898

DIPOLE MOMENT
-------------
                                X             Y             Z
Electronic contribution:     -2.60856      -4.70126      -0.49762
Nuclear contribution   :      2.63161       4.95811       0.55226
                        -----------------------------------------
Total Dipole Moment    :      0.02305       0.25685       0.05464
                        -----------------------------------------
Magnitude (a.u.)       :      0.26361
Magnitude (Debye)      :      0.67004

                             ****ORCA TERMINATED NORMALLY****
TOTAL RUN TIME: 0 days 0 hours 19 minutes 48 seconds 97 msec
