                         Program Version 3.0.3 - RELEASE   -
|  1> ! RI-MP2 RIJK def2-TZVP def2-TZVP/C def2-TZVP/JK TIGHTSCF
|  2> % maxcore 2000
|  3> % mp2 density relaxed end
|  4> *xyz 0 1
|  5>  C       -0.7112832286     1.1562656742    -0.2665594488
|  6>  C        0.4694415983     0.2150184917     0.0341514566
|  7>  C        1.0235709946    -0.4101310761    -1.1622807605
|  8>  C        1.4616296443    -0.9039606918    -2.1708241513
|  9>  C        1.9976857381    -1.5391308690    -3.3772806367
| 10>  O        1.4512328340    -2.8470551194    -3.5673861267
| 11>  C        1.6983301157    -0.7176337509    -4.6281251150
| 12>  C        1.6150472105    -1.3795610636    -5.9495225226
| 13>  N        0.4011770089    -0.8488766759    -5.2931821815
| 14>  H       -0.4026366972     1.9647423082    -0.9343548678
| 15>  H       -1.5270854749     0.6133090715    -0.7508486854
| 16>  H       -1.0905338877     1.5979168467     0.6596346790
| 17>  H        1.2624950704     0.7701294746     0.5513425528
| 18>  H        0.1480338365    -0.5678278992     0.7332272160
| 19>  H        3.0934890809    -1.6117370278    -3.2769470105
| 20>  H        1.2664295946    -3.2120873807    -2.6971983933
| 21>  H        2.0743500631     0.3005804406    -4.5633858587
| 22>  H        1.9266739217    -0.8438711158    -6.8417102862
| 23>  H        1.7472391066    -2.4560438056    -5.9818540138
| 24>  H       -0.0870153098    -1.6325706217    -4.8624932455
| 25> *
| 26>
| 27>                          ****END OF INPUT****

CARTESIAN COORDINATES (ANGSTROEM)
---------------------------------
  C     -0.711283    1.156266   -0.266559
  C      0.469442    0.215018    0.034151
  C      1.023571   -0.410131   -1.162281
  C      1.461630   -0.903961   -2.170824
  C      1.997686   -1.539131   -3.377281
  O      1.451233   -2.847055   -3.567386
  C      1.698330   -0.717634   -4.628125
  C      1.615047   -1.379561   -5.949523
  N      0.401177   -0.848877   -5.293182
  H     -0.402637    1.964742   -0.934355
  H     -1.527085    0.613309   -0.750849
  H     -1.090534    1.597917    0.659635
  H      1.262495    0.770129    0.551343
  H      0.148034   -0.567828    0.733227
  H      3.093489   -1.611737   -3.276947
  H      1.266430   -3.212087   -2.697198
  H      2.074350    0.300580   -4.563386
  H      1.926674   -0.843871   -6.841710
  H      1.747239   -2.456044   -5.981854
  H     -0.087015   -1.632571   -4.862493

 Total Charge           Charge          ....    0
 Multiplicity           Mult            ....    1
 Number of Electrons    NEL             ....   68
 Basis Dimension        Dim             ....  345

ORBITAL ENERGIES
----------------

  NO   OCC          E(Eh)            E(eV)
   0   2.0000     -20.571611      -559.7820
   1   2.0000     -15.547209      -423.0611
   2   2.0000     -11.316165      -307.9285
   3   2.0000     -11.258779      -306.3670
   4   2.0000     -11.257725      -306.3383
   5   2.0000     -11.245228      -305.9982
   6   2.0000     -11.236712      -305.7665
   7   2.0000     -11.228011      -305.5297
   8   2.0000     -11.225368      -305.4578
   9   2.0000      -1.380410       -37.5629
  10   2.0000      -1.251959       -34.0675
  11   2.0000      -1.087966       -29.6051
  12   2.0000      -1.033706       -28.1286
  13   2.0000      -0.963717       -26.2241
  14   2.0000      -0.883293       -24.0356
  15   2.0000      -0.868627       -23.6365
  16   2.0000      -0.802579       -21.8393
  17   2.0000      -0.746847       -20.3227
  18   2.0000      -0.676616       -18.4117
  19   2.0000      -0.665852       -18.1187
  20   2.0000      -0.650266       -17.6946
  21   2.0000      -0.629403       -17.1269
  22   2.0000      -0.622786       -16.9469
  23   2.0000      -0.568565       -15.4714
  24   2.0000      -0.553758       -15.0685
  25   2.0000      -0.532280       -14.4841
  26   2.0000      -0.525052       -14.2874
  27   2.0000      -0.516352       -14.0506
  28   2.0000      -0.490878       -13.3575
  29   2.0000      -0.473431       -12.8827
  30   2.0000      -0.458286       -12.4706
  31   2.0000      -0.391669       -10.6579
  32   2.0000      -0.379525       -10.3274
  33   2.0000      -0.376766       -10.2523
  34   0.0000       0.122349         3.3293
  35   0.0000       0.142866         3.8876
  36   0.0000       0.159252         4.3335
  37   0.0000       0.173675         4.7259
  38   0.0000       0.182224         4.9586

MULLIKEN ATOMIC CHARGES
-----------------------
   0 C :   -0.357558
   1 C :   -0.309314
   2 C :    0.073671
   3 C :   -0.115432
   4 C :   -0.011643
   5 O :   -0.476121
   6 C :   -0.005433
   7 C :   -0.172605
   8 N :   -0.380884
   9 H :    0.134261
  10 H :    0.133262
  11 H :    0.133403
  12 H :    0.145231
  13 H :    0.142028
  14 H :    0.113815
  15 H :    0.329652
  16 H :    0.128344
  17 H :    0.119974
  18 H :    0.143616
  19 H :    0.231734
Sum of atomic charges:   -0.0000000

LOEWDIN ATOMIC CHARGES
----------------------
   0 C :   -0.297061
   1 C :   -0.276463
   2 C :   -0.065018
   3 C :   -0.069896
   4 C :   -0.325522
   5 O :   -0.012373
   6 C :   -0.262107
   7 C :   -0.262659
   8 N :   -0.013849
   9 H :    0.125906
  10 H :    0.125576
  11 H :    0.121635
  12 H :    0.154744
  13 H :    0.154255
  14 H :    0.156990
  15 H :    0.180804
  16 H :    0.147152
  17 H :    0.122493
  18 H :    0.126630
  19 H :    0.168763

  Mayer bond orders larger than 0.1
B(  0-C ,  1-C ) :   0.9429 B(  0-C ,  9-H ) :   0.9343 B(  0-C , 10-H ) :   0.9346
B(  0-C , 11-H ) :   0.9386 B(  1-C ,  2-C ) :   0.9329 B(  1-C , 12-H ) :   0.9455
B(  1-C , 13-H ) :   0.9392 B(  2-C ,  3-C ) :   2.6292 B(  3-C ,  4-C ) :   1.0810
B(  4-C ,  5-O ) :   0.9704 B(  4-C ,  6-C ) :   0.9336 B(  4-C , 14-H ) :   0.9517
B(  5-O , 15-H ) :   0.8371 B(  6-C ,  7-C ) :   0.9507 B(  6-C ,  8-N ) :   0.9568
B(  6-C , 16-H ) :   0.9115 B(  7-C ,  8-N ) :   0.9123 B(  7-C , 17-H ) :   0.9247
B(  7-C , 18-H ) :   0.9084 B(  8-N , 19-H ) :   0.8709

MP2 TOTAL ENERGY:     -402.392883065 Eh
FINAL SINGLE POINT ENERGY      -402.392883065060

DIPOLE MOMENT
-------------
                                X             Y             Z
Electronic contribution:      2.96318      -4.04578      -3.17807
Nuclear contribution   :     -2.66318       3.90881       4.23466
                        -----------------------------------------
Total Dipole Moment    :      0.29999      -0.13697       1.05658
                        -----------------------------------------
Magnitude (a.u.)       :      1.10685
Magnitude (Debye)      :      2.81340

                             ****ORCA TERMINATED NORMALLY****
TOTAL RUN TIME: 0 days 0 hours 16 minutes 40 seconds 480 msec
