                         Program Version 3.0.3 - RELEASE   -
|  1> ! RI-MP2 RIJK def2-TZVP def2-TZVP/C def2-TZVP/JK TIGHTSCF
|  2> % maxcore 2000
|  3> % mp2 density relaxed end
|  4> *xyz 0 1
|  5>  N        0.0519837194     1.2800114679    -0.5579591077
|  6>  C       -0.0406592825     0.0475120152     0.2242284319
|  7>  C       -1.4501024445    -0.5270495833     0.1359226553
|  8>  C       -2.4638911026     0.1747380218     0.8762437049
|  9>  N       -3.2983215150     0.7000348998     1.4823389046
| 10>  C       -1.9247414246    -1.1521361475    -1.1733454443
| 11>  O       -0.9558810646    -1.1794423298    -2.1912887628
| 12>  C       -1.6601393790    -2.0580262770    -0.0076997746
| 13>  O       -0.5623227244    -2.8970666885    -0.0711480717
| 14>  H        0.9434017100     1.7324270546    -0.3821095807
| 15>  H        0.0272664999     1.0483255537    -1.5464097788
| 16>  H        0.6709216660    -0.7379126995    -0.0633706918
| 17>  H        0.1625544854     0.2862074999     1.2730536864
| 18>  H       -2.9403550017    -0.9427685243    -1.4969433919
| 19>  H       -1.3087369108    -1.6922932150    -2.9265794636
| 20>  H       -2.4897732164    -2.4899662989     0.5415737262
| 21>  H       -0.1361940749    -2.7307509890    -0.9241329014
| 22> *
| 23>
| 24>                          ****END OF INPUT****

CARTESIAN COORDINATES (ANGSTROEM)
---------------------------------
  N      0.051984    1.280011   -0.557959
  C     -0.040659    0.047512    0.224228
  C     -1.450102   -0.527050    0.135923
  C     -2.463891    0.174738    0.876244
  N     -3.298322    0.700035    1.482339
  C     -1.924741   -1.152136   -1.173345
  O     -0.955881   -1.179442   -2.191289
  C     -1.660139   -2.058026   -0.007700
  O     -0.562323   -2.897067   -0.071148
  H      0.943402    1.732427   -0.382110
  H      0.027266    1.048326   -1.546410
  H      0.670922   -0.737913   -0.063371
  H      0.162554    0.286207    1.273054
  H     -2.940355   -0.942769   -1.496943
  H     -1.308737   -1.692293   -2.926579
  H     -2.489773   -2.489966    0.541574
  H     -0.136194   -2.730751   -0.924133

 Total Charge           Charge          ....    0
 Multiplicity           Mult            ....    1
 Number of Electrons    NEL             ....   68
 Basis Dimension        Dim             ....  327

ORBITAL ENERGIES
----------------

  NO   OCC          E(Eh)            E(eV)
   0   2.0000     -20.614238      -560.9419
   1   2.0000     -20.588534      -560.2425
   2   2.0000     -15.563945      -423.5165
   3   2.0000     -15.547983      -423.0821
   4   2.0000     -11.326950      -308.2220
   5   2.0000     -11.320784      -308.0542
   6   2.0000     -11.286888      -307.1318
   7   2.0000     -11.274759      -306.8018
   8   2.0000     -11.269351      -306.6546
   9   2.0000      -1.431794       -38.9611
  10   2.0000      -1.393764       -37.9263
  11   2.0000      -1.222319       -33.2610
  12   2.0000      -1.192839       -32.4588
  13   2.0000      -1.147643       -31.2290
  14   2.0000      -0.959934       -26.1211
  15   2.0000      -0.864138       -23.5144
  16   2.0000      -0.858823       -23.3698
  17   2.0000      -0.773327       -21.0433
  18   2.0000      -0.748057       -20.3557
  19   2.0000      -0.688743       -18.7417
  20   2.0000      -0.662934       -18.0393
  21   2.0000      -0.660129       -17.9630
  22   2.0000      -0.628098       -17.0914
  23   2.0000      -0.604781       -16.4569
  24   2.0000      -0.584205       -15.8970
  25   2.0000      -0.569619       -15.5001
  26   2.0000      -0.555696       -15.1213
  27   2.0000      -0.549007       -14.9392
  28   2.0000      -0.539483       -14.6801
  29   2.0000      -0.495037       -13.4707
  30   2.0000      -0.473265       -12.8782
  31   2.0000      -0.421887       -11.4801
  32   2.0000      -0.407011       -11.0753
  33   2.0000      -0.396914       -10.8006
  34   0.0000       0.101245         2.7550
  35   0.0000       0.140980         3.8363
  36   0.0000       0.146357         3.9826
  37   0.0000       0.164210         4.4684
  38   0.0000       0.179926         4.8960

MULLIKEN ATOMIC CHARGES
-----------------------
   0 N :   -0.549913
   1 C :   -0.091794
   2 C :    0.146674
   3 C :   -0.240006
   4 N :   -0.051987
   5 C :   -0.028023
   6 O :   -0.482954
   7 C :    0.063637
   8 O :   -0.449372
   9 H :    0.229042
  10 H :    0.240592
  11 H :    0.102966
  12 H :    0.135531
  13 H :    0.145620
  14 H :    0.339745
  15 H :    0.153454
  16 H :    0.336789
Sum of atomic charges:   -0.0000000

LOEWDIN ATOMIC CHARGES
----------------------
   0 N :   -0.168677
   1 C :   -0.274820
   2 C :   -0.209672
   3 C :   -0.152987
   4 N :    0.065136
   5 C :   -0.266101
   6 O :    0.002174
   7 C :   -0.266653
   8 O :    0.024875
   9 H :    0.153821
  10 H :    0.155732
  11 H :    0.125335
  12 H :    0.145275
  13 H :    0.144033
  14 H :    0.190339
  15 H :    0.149794
  16 H :    0.182397

  Mayer bond orders larger than 0.1
B(  0-N ,  1-C ) :   1.0025 B(  0-N ,  9-H ) :   0.8897 B(  0-N , 10-H ) :   0.8825
B(  1-C ,  2-C ) :   0.9100 B(  1-C , 11-H ) :   0.9098 B(  1-C , 12-H ) :   0.9218
B(  2-C ,  3-C ) :   0.8903 B(  2-C ,  5-C ) :   0.8261 B(  2-C ,  7-C ) :   0.7991
B(  3-C ,  4-N ) :   2.8679 B(  5-C ,  6-O ) :   1.0204 B(  5-C ,  7-C ) :   0.9113
B(  5-C , 13-H ) :   0.9267 B(  6-O , 14-H ) :   0.8307 B(  7-C ,  8-O ) :   0.9807
B(  7-C , 15-H ) :   0.9305 B(  8-O , 16-H ) :   0.8149

MP2 TOTAL ENERGY:     -454.393567276 Eh
FINAL SINGLE POINT ENERGY      -454.393567275888

DIPOLE MOMENT
-------------
                                X             Y             Z
Electronic contribution:     -4.02404      -0.78563       1.82589
Nuclear contribution   :      4.94491      -0.21236      -3.55369
                        -----------------------------------------
Total Dipole Moment    :      0.92086      -0.99799      -1.72780
                        -----------------------------------------
Magnitude (a.u.)       :      2.19756
Magnitude (Debye)      :      5.58575

                             ****ORCA TERMINATED NORMALLY****
TOTAL RUN TIME: 0 days 0 hours 17 minutes 28 seconds 9 msec
