                         Program Version 3.0.3 - RELEASE   -
|  1> ! RI-MP2 RIJK def2-TZVP def2-TZVP/C def2-TZVP/JK TIGHTSCF
|  2> % maxcore 2000
|  3> % mp2 density relaxed end
|  4> *xyz 0 1
|  5>  C       -0.0504206860     1.5326902768    -0.0191195804
|  6>  C        0.0693320845     0.0310606002     0.0167881832
|  7>  C        0.9961030102    -0.7916426287    -0.9166570622
|  8>  C        0.7154893436    -1.9087597994     0.1301498809
|  9>  C       -0.7993360736    -2.0864538466    -0.0118525815
| 10>  C       -1.5011050274    -1.4369326111     1.1287957172
| 11>  C       -0.4801552628    -1.0554327529     2.1812843302
| 12>  C        0.6616755878    -0.7796362177     1.2185812607
| 13>  N       -1.2577320898    -0.6743707885    -0.1304865251
| 14>  H        0.9312465381     2.0087956084     0.0691701459
| 15>  H       -0.5106878655     1.8573808198    -0.9578550588
| 16>  H       -0.6809143687     1.8956666198     0.7998034761
| 17>  H        0.6665197817    -0.9509179765    -1.9468912029
| 18>  H        2.0303137467    -0.4372604467    -0.8959862692
| 19>  H        1.3367007063    -2.7981095049     0.2305508486
| 20>  H       -1.2488295272    -2.8275300202    -0.6632831477
| 21>  H       -2.5388351920    -1.6415923303     1.3681177182
| 22>  H       -0.7727782105    -0.1721195405     2.7598410366
| 23>  H       -0.2750595824    -1.8751103081     2.8784946491
| 24>  H        1.6198562070    -0.4429058728     1.6096854612
| 25> *
| 26>
| 27>                          ****END OF INPUT****

CARTESIAN COORDINATES (ANGSTROEM)
---------------------------------
  C     -0.050421    1.532690   -0.019120
  C      0.069332    0.031061    0.016788
  C      0.996103   -0.791643   -0.916657
  C      0.715489   -1.908760    0.130150
  C     -0.799336   -2.086454   -0.011853
  C     -1.501105   -1.436933    1.128796
  C     -0.480155   -1.055433    2.181284
  C      0.661676   -0.779636    1.218581
  N     -1.257732   -0.674371   -0.130487
  H      0.931247    2.008796    0.069170
  H     -0.510688    1.857381   -0.957855
  H     -0.680914    1.895667    0.799803
  H      0.666520   -0.950918   -1.946891
  H      2.030314   -0.437260   -0.895986
  H      1.336701   -2.798110    0.230551
  H     -1.248830   -2.827530   -0.663283
  H     -2.538835   -1.641592    1.368118
  H     -0.772778   -0.172120    2.759841
  H     -0.275060   -1.875110    2.878495
  H      1.619856   -0.442906    1.609685

 Total Charge           Charge          ....    0
 Multiplicity           Mult            ....    1
 Number of Electrons    NEL             ....   66
 Basis Dimension        Dim             ....  345

ORBITAL ENERGIES
----------------

  NO   OCC          E(Eh)            E(eV)
   0   2.0000     -15.548629      -423.0997
   1   2.0000     -11.258701      -306.3648
   2   2.0000     -11.252226      -306.1886
   3   2.0000     -11.248309      -306.0821
   4   2.0000     -11.234896      -305.7171
   5   2.0000     -11.227625      -305.5192
   6   2.0000     -11.223089      -305.3958
   7   2.0000     -11.220869      -305.3354
   8   2.0000     -11.210402      -305.0506
   9   2.0000      -1.304938       -35.5092
  10   2.0000      -1.100195       -29.9378
  11   2.0000      -1.029916       -28.0254
  12   2.0000      -0.999409       -27.1953
  13   2.0000      -0.899166       -24.4675
  14   2.0000      -0.864074       -23.5127
  15   2.0000      -0.787115       -21.4185
  16   2.0000      -0.749255       -20.3883
  17   2.0000      -0.727747       -19.8030
  18   2.0000      -0.682633       -18.5754
  19   2.0000      -0.631363       -17.1803
  20   2.0000      -0.613958       -16.7067
  21   2.0000      -0.599718       -16.3192
  22   2.0000      -0.560375       -15.2486
  23   2.0000      -0.550741       -14.9864
  24   2.0000      -0.534061       -14.5325
  25   2.0000      -0.501145       -13.6369
  26   2.0000      -0.487707       -13.2712
  27   2.0000      -0.467129       -12.7112
  28   2.0000      -0.451344       -12.2817
  29   2.0000      -0.444392       -12.0925
  30   2.0000      -0.416727       -11.3397
  31   2.0000      -0.409422       -11.1409
  32   2.0000      -0.365630        -9.9493
  33   0.0000       0.139501         3.7960
  34   0.0000       0.158966         4.3257
  35   0.0000       0.162848         4.4313
  36   0.0000       0.176637         4.8065
  37   0.0000       0.191879         5.2213

MULLIKEN ATOMIC CHARGES
-----------------------
   0 C :   -0.429848
   1 C :    0.186427
   2 C :   -0.270377
   3 C :   -0.059533
   4 C :   -0.091445
   5 C :   -0.139992
   6 C :   -0.211615
   7 C :   -0.141996
   8 N :   -0.228133
   9 H :    0.124770
  10 H :    0.142786
  11 H :    0.131677
  12 H :    0.121103
  13 H :    0.113307
  14 H :    0.130131
  15 H :    0.134126
  16 H :    0.123881
  17 H :    0.117089
  18 H :    0.120813
  19 H :    0.126831
Sum of atomic charges:    0.0000000

LOEWDIN ATOMIC CHARGES
----------------------
   0 C :   -0.273303
   1 C :   -0.265623
   2 C :   -0.174495
   3 C :   -0.166951
   4 C :   -0.191588
   5 C :   -0.215488
   6 C :   -0.219792
   7 C :   -0.160760
   8 N :    0.167439
   9 H :    0.126606
  10 H :    0.132737
  11 H :    0.129319
  12 H :    0.130060
  13 H :    0.137613
  14 H :    0.134717
  15 H :    0.136606
  16 H :    0.138782
  17 H :    0.141924
  18 H :    0.144494
  19 H :    0.147701

  Mayer bond orders larger than 0.1
B(  0-C ,  1-C ) :   0.8514 B(  0-C ,  9-H ) :   0.9410 B(  0-C , 10-H ) :   0.9462
B(  0-C , 11-H ) :   0.9402 B(  1-C ,  2-C ) :   0.9141 B(  1-C ,  7-C ) :   0.8942
B(  1-C ,  8-N ) :   0.8880 B(  2-C ,  3-C ) :   0.9260 B(  2-C , 12-H ) :   0.9107
B(  2-C , 13-H ) :   0.9254 B(  3-C ,  4-C ) :   0.9017 B(  3-C ,  7-C ) :   0.9072
B(  3-C , 14-H ) :   0.9050 B(  4-C ,  5-C ) :   0.9305 B(  4-C ,  8-N ) :   0.8813
B(  4-C , 15-H ) :   0.9112 B(  5-C ,  6-C ) :   0.9555 B(  5-C ,  8-N ) :   0.9378
B(  5-C , 16-H ) :   0.9292 B(  6-C ,  7-C ) :   0.9655 B(  6-C , 17-H ) :   0.9122
B(  6-C , 18-H ) :   0.9064 B(  7-C , 19-H ) :   0.9132

MP2 TOTAL ENERGY:     -365.344882940 Eh
FINAL SINGLE POINT ENERGY      -365.344882939525

DIPOLE MOMENT
-------------
                                X             Y             Z
Electronic contribution:     -1.87332      -3.03532      -0.41131
Nuclear contribution   :      2.36683       2.85976       0.81572
                        -----------------------------------------
Total Dipole Moment    :      0.49351      -0.17556       0.40441
                        -----------------------------------------
Magnitude (a.u.)       :      0.66176
Magnitude (Debye)      :      1.68205

                             ****ORCA TERMINATED NORMALLY****
TOTAL RUN TIME: 0 days 0 hours 20 minutes 44 seconds 5 msec
