                         Program Version 3.0.3 - RELEASE   -
|  1> ! RI-MP2 RIJK def2-TZVP def2-TZVP/C def2-TZVP/JK TIGHTSCF
|  2> % maxcore 2000
|  3> % mp2 density relaxed end
|  4> *xyz 0 1
|  5>  C       -0.2080720052     1.5366707962    -0.0922707674
|  6>  C        0.1250892126     0.0455459732    -0.0697806716
|  7>  C        0.9510602220    -0.4643871992    -1.2627717378
|  8>  C        1.2943371751    -1.9074211610    -0.8613381279
|  9>  C        1.5522097684    -1.8348461582     0.6739188044
| 10>  C        3.0070388900    -1.6966677973     1.0430373157
| 11>  C        3.3003992883    -0.5094119434     1.5667162703
| 12>  C        2.0982704346     0.3949161714     1.6591225894
| 13>  C        0.9086776054    -0.4835385961     1.1607002788
| 14>  H        0.6905102309     2.1588551435    -0.1558466666
| 15>  H       -0.8313071984     1.7787344294    -0.9599250607
| 16>  H       -0.7593481756     1.8385138892     0.8051754937
| 17>  H       -0.8279263136    -0.5035871666    -0.0856376079
| 18>  H        0.4141396783    -0.3984239216    -2.2144461920
| 19>  H        1.8670566708     0.1326514033    -1.3640377217
| 20>  H        0.4391519589    -2.5612197102    -1.0684777669
| 21>  H        2.1507351327    -2.3152017824    -1.4066264412
| 22>  H        1.1081656096    -2.7071035862     1.1671005029
| 23>  H        3.7207115724    -2.4953393968     0.8656728595
| 24>  H        4.2882776946    -0.1935948839     1.8864470546
| 25>  H        1.9345662309     0.7571141720     2.6818066722
| 26>  H        2.2447137831     1.2954315903     1.0491177394
| 27>  H        0.2217651043    -0.6535055155     1.9938925510
| 28> *
| 29>
| 30>                          ****END OF INPUT****

CARTESIAN COORDINATES (ANGSTROEM)
---------------------------------
  C     -0.208072    1.536671   -0.092271
  C      0.125089    0.045546   -0.069781
  C      0.951060   -0.464387   -1.262772
  C      1.294337   -1.907421   -0.861338
  C      1.552210   -1.834846    0.673919
  C      3.007039   -1.696668    1.043037
  C      3.300399   -0.509412    1.566716
  C      2.098270    0.394916    1.659123
  C      0.908678   -0.483539    1.160700
  H      0.690510    2.158855   -0.155847
  H     -0.831307    1.778734   -0.959925
  H     -0.759348    1.838514    0.805175
  H     -0.827926   -0.503587   -0.085638
  H      0.414140   -0.398424   -2.214446
  H      1.867057    0.132651   -1.364038
  H      0.439152   -2.561220   -1.068478
  H      2.150735   -2.315202   -1.406626
  H      1.108166   -2.707104    1.167101
  H      3.720712   -2.495339    0.865673
  H      4.288278   -0.193595    1.886447
  H      1.934566    0.757114    2.681807
  H      2.244714    1.295432    1.049118
  H      0.221765   -0.653506    1.993893

 Total Charge           Charge          ....    0
 Multiplicity           Mult            ....    1
 Number of Electrons    NEL             ....   68
 Basis Dimension        Dim             ....  363

ORBITAL ENERGIES
----------------

  NO   OCC          E(Eh)            E(eV)
   0   2.0000     -11.220671      -305.3300
   1   2.0000     -11.219415      -305.2958
   2   2.0000     -11.218751      -305.2777
   3   2.0000     -11.217525      -305.2444
   4   2.0000     -11.216810      -305.2249
   5   2.0000     -11.214120      -305.1517
   6   2.0000     -11.212492      -305.1074
   7   2.0000     -11.209958      -305.0385
   8   2.0000     -11.209161      -305.0168
   9   2.0000      -1.148897       -31.2631
  10   2.0000      -1.066428       -29.0190
  11   2.0000      -1.007041       -27.4030
  12   2.0000      -0.944389       -25.6981
  13   2.0000      -0.925774       -25.1916
  14   2.0000      -0.865605       -23.5543
  15   2.0000      -0.776386       -21.1265
  16   2.0000      -0.727244       -19.7893
  17   2.0000      -0.717704       -19.5297
  18   2.0000      -0.668536       -18.1918
  19   2.0000      -0.649330       -17.6692
  20   2.0000      -0.600483       -16.3400
  21   2.0000      -0.586015       -15.9463
  22   2.0000      -0.565319       -15.3831
  23   2.0000      -0.547614       -14.9013
  24   2.0000      -0.525818       -14.3082
  25   2.0000      -0.519903       -14.1473
  26   2.0000      -0.499774       -13.5996
  27   2.0000      -0.474233       -12.9045
  28   2.0000      -0.463009       -12.5991
  29   2.0000      -0.454804       -12.3759
  30   2.0000      -0.445852       -12.1322
  31   2.0000      -0.438394       -11.9293
  32   2.0000      -0.432793       -11.7769
  33   2.0000      -0.338294        -9.2054
  34   0.0000       0.132179         3.5968
  35   0.0000       0.150579         4.0975
  36   0.0000       0.164110         4.4657
  37   0.0000       0.167600         4.5606
  38   0.0000       0.177901         4.8409

MULLIKEN ATOMIC CHARGES
-----------------------
   0 C :   -0.386772
   1 C :   -0.083967
   2 C :   -0.258098
   3 C :   -0.217495
   4 C :    0.007868
   5 C :   -0.221311
   6 C :   -0.182154
   7 C :   -0.212462
   8 C :   -0.043947
   9 H :    0.117684
  10 H :    0.131729
  11 H :    0.132059
  12 H :    0.082704
  13 H :    0.119240
  14 H :    0.108160
  15 H :    0.107457
  16 H :    0.119003
  17 H :    0.101798
  18 H :    0.122854
  19 H :    0.121071
  20 H :    0.118680
  21 H :    0.108926
  22 H :    0.106974
Sum of atomic charges:    0.0000000

LOEWDIN ATOMIC CHARGES
----------------------
   0 C :   -0.296941
   1 C :   -0.258513
   2 C :   -0.235519
   3 C :   -0.229196
   4 C :   -0.192780
   5 C :   -0.148878
   6 C :   -0.162402
   7 C :   -0.219472
   8 C :   -0.163668
   9 H :    0.119202
  10 H :    0.123971
  11 H :    0.124260
  12 H :    0.154787
  13 H :    0.132753
  14 H :    0.139820
  15 H :    0.134473
  16 H :    0.133986
  17 H :    0.148031
  18 H :    0.136940
  19 H :    0.135020
  20 H :    0.137493
  21 H :    0.139681
  22 H :    0.146953

  Mayer bond orders larger than 0.1
B(  0-C ,  1-C ) :   0.9060 B(  0-C ,  9-H ) :   0.9316 B(  0-C , 10-H ) :   0.9390
B(  0-C , 11-H ) :   0.9433 B(  1-C ,  2-C ) :   0.9425 B(  1-C ,  8-C ) :   0.9202
B(  1-C , 12-H ) :   0.9271 B(  2-C ,  3-C ) :   0.9517 B(  2-C , 13-H ) :   0.9280
B(  2-C , 14-H ) :   0.9175 B(  3-C ,  4-C ) :   0.8908 B(  3-C , 15-H ) :   0.9267
B(  3-C , 16-H ) :   0.9270 B(  4-C ,  5-C ) :   0.9310 B(  4-C ,  8-C ) :   0.9436
B(  4-C , 17-H ) :   0.9176 B(  5-C ,  6-C ) :   1.7976 B(  5-C , 18-H ) :   0.9246
B(  6-C ,  7-C ) :   0.9467 B(  6-C , 19-H ) :   0.9304 B(  7-C ,  8-C ) :   0.9203
B(  7-C , 20-H ) :   0.9198 B(  7-C , 21-H ) :   0.9119 B(  8-C , 22-H ) :   0.9188

MP2 TOTAL ENERGY:     -350.540775383 Eh
FINAL SINGLE POINT ENERGY      -350.540775382818

DIPOLE MOMENT
-------------
                                X             Y             Z
Electronic contribution:      2.87395      -3.12026       2.26010
Nuclear contribution   :     -2.99253       3.14122      -2.27697
                        -----------------------------------------
Total Dipole Moment    :     -0.11858       0.02096      -0.01687
                        -----------------------------------------
Magnitude (a.u.)       :      0.12160
Magnitude (Debye)      :      0.30907

                             ****ORCA TERMINATED NORMALLY****
TOTAL RUN TIME: 0 days 0 hours 22 minutes 25 seconds 128 msec
