                         Program Version 3.0.3 - RELEASE   -
|  1> ! RI-MP2 RIJK def2-TZVP def2-TZVP/C def2-TZVP/JK TIGHTSCF
|  2> % maxcore 2000
|  3> % mp2 density relaxed end
|  4> *xyz 0 1
|  5>  C       -0.0573069041     1.5159130117     0.2185285110
|  6>  C        1.3784756611     2.0636562786     0.0807111880
|  7>  C        2.2589968426     0.8534226137     0.4691899852
|  8>  C        3.6203981066     0.7358421160    -0.1781498935
|  9>  C        3.6735523659    -0.2729457256    -1.0550546723
| 10>  C        2.3731422429    -1.0017927148    -1.1007481723
| 11>  N        2.0052044342    -1.6586831989     0.1984575578
| 12>  C        1.4764552836    -0.3263534529    -0.1226849058
| 13>  C        0.0102505601     0.0527657486    -0.2968125311
| 14>  H       -0.3476179791     1.5183725241     1.2753166566
| 15>  H       -0.7944695614     2.1180346122    -0.3191559075
| 16>  H        1.5792413538     2.3402480856    -0.9611906465
| 17>  H        1.5579386146     2.9485079676     0.6975362982
| 18>  H        2.3284282983     0.7791105858     1.5620600999
| 19>  H        4.4484325016     1.3891825290     0.0751189207
| 20>  H        4.5363450431    -0.5507254720    -1.6493732517
| 21>  H        2.0063015794    -1.4519173401    -2.0179381200
| 22>  H        1.2757688346    -2.3443608264     0.0000929223
| 23>  H       -0.6546891810    -0.6057490138     0.2719727623
| 24>  H       -0.2955160769    -0.0109742484    -1.3468822512
| 25> *
| 26>
| 27>                          ****END OF INPUT****

CARTESIAN COORDINATES (ANGSTROEM)
---------------------------------
  C     -0.057307    1.515913    0.218529
  C      1.378476    2.063656    0.080711
  C      2.258997    0.853423    0.469190
  C      3.620398    0.735842   -0.178150
  C      3.673552   -0.272946   -1.055055
  C      2.373142   -1.001793   -1.100748
  N      2.005204   -1.658683    0.198458
  C      1.476455   -0.326353   -0.122685
  C      0.010251    0.052766   -0.296813
  H     -0.347618    1.518373    1.275317
  H     -0.794470    2.118035   -0.319156
  H      1.579241    2.340248   -0.961191
  H      1.557939    2.948508    0.697536
  H      2.328428    0.779111    1.562060
  H      4.448433    1.389183    0.075119
  H      4.536345   -0.550725   -1.649373
  H      2.006302   -1.451917   -2.017938
  H      1.275769   -2.344361    0.000093
  H     -0.654689   -0.605749    0.271973
  H     -0.295516   -0.010974   -1.346882

 Total Charge           Charge          ....    0
 Multiplicity           Mult            ....    1
 Number of Electrons    NEL             ....   66
 Basis Dimension        Dim             ....  345

ORBITAL ENERGIES
----------------

  NO   OCC          E(Eh)            E(eV)
   0   2.0000     -15.552939      -423.2170
   1   2.0000     -11.253503      -306.2234
   2   2.0000     -11.252619      -306.1993
   3   2.0000     -11.227568      -305.5177
   4   2.0000     -11.225002      -305.4478
   5   2.0000     -11.223854      -305.4166
   6   2.0000     -11.223336      -305.4025
   7   2.0000     -11.221321      -305.3477
   8   2.0000     -11.220334      -305.3208
   9   2.0000      -1.265892       -34.4467
  10   2.0000      -1.110267       -30.2119
  11   2.0000      -1.062825       -28.9210
  12   2.0000      -0.958349       -26.0780
  13   2.0000      -0.921414       -25.0730
  14   2.0000      -0.874236       -23.7892
  15   2.0000      -0.794617       -21.6226
  16   2.0000      -0.742830       -20.2134
  17   2.0000      -0.734236       -19.9796
  18   2.0000      -0.675342       -18.3770
  19   2.0000      -0.655954       -17.8494
  20   2.0000      -0.615578       -16.7507
  21   2.0000      -0.592135       -16.1128
  22   2.0000      -0.570598       -15.5268
  23   2.0000      -0.544754       -14.8235
  24   2.0000      -0.529709       -14.4141
  25   2.0000      -0.488536       -13.2938
  26   2.0000      -0.483390       -13.1537
  27   2.0000      -0.476889       -12.9768
  28   2.0000      -0.465402       -12.6642
  29   2.0000      -0.461555       -12.5596
  30   2.0000      -0.446346       -12.1457
  31   2.0000      -0.371254       -10.1023
  32   2.0000      -0.333886        -9.0855
  33   0.0000       0.132949         3.6177
  34   0.0000       0.147017         4.0005
  35   0.0000       0.150641         4.0991
  36   0.0000       0.169900         4.6232
  37   0.0000       0.172066         4.6822

MULLIKEN ATOMIC CHARGES
-----------------------
   0 C :   -0.209625
   1 C :   -0.276594
   2 C :    0.077152
   3 C :   -0.243124
   4 C :   -0.163148
   5 C :   -0.087433
   6 N :   -0.377731
   7 C :    0.095969
   8 C :   -0.233971
   9 H :    0.112334
  10 H :    0.124950
  11 H :    0.118104
  12 H :    0.123552
  13 H :    0.106585
  14 H :    0.122376
  15 H :    0.128481
  16 H :    0.128676
  17 H :    0.211819
  18 H :    0.119895
  19 H :    0.121731
Sum of atomic charges:    0.0000000

LOEWDIN ATOMIC CHARGES
----------------------
   0 C :   -0.246351
   1 C :   -0.224258
   2 C :   -0.182806
   3 C :   -0.120382
   4 C :   -0.139347
   5 C :   -0.212147
   6 N :    0.026146
   7 C :   -0.242929
   8 C :   -0.217260
   9 H :    0.137342
  10 H :    0.131739
  11 H :    0.141080
  12 H :    0.133176
  13 H :    0.161381
  14 H :    0.136809
  15 H :    0.137135
  16 H :    0.135621
  17 H :    0.168001
  18 H :    0.137220
  19 H :    0.139829

  Mayer bond orders larger than 0.1
B(  0-C ,  1-C ) :   0.9318 B(  0-C ,  8-C ) :   0.9489 B(  0-C ,  9-H ) :   0.9278
B(  0-C , 10-H ) :   0.9323 B(  1-C ,  2-C ) :   0.8746 B(  1-C , 11-H ) :   0.9251
B(  1-C , 12-H ) :   0.9306 B(  2-C ,  3-C ) :   0.9142 B(  2-C ,  7-C ) :   0.9216
B(  2-C , 13-H ) :   0.8961 B(  3-C ,  4-C ) :   1.8085 B(  3-C , 14-H ) :   0.9269
B(  4-C ,  5-C ) :   0.9413 B(  4-C , 15-H ) :   0.9252 B(  5-C ,  6-N ) :   1.0025
B(  5-C ,  7-C ) :   0.8902 B(  5-C , 16-H ) :   0.9135 B(  6-N ,  7-C ) :   1.0229
B(  6-N , 17-H ) :   0.8720 B(  7-C ,  8-C ) :   0.8942 B(  8-C , 18-H ) :   0.9272
B(  8-C , 19-H ) :   0.9197

MP2 TOTAL ENERGY:     -365.347260802 Eh
FINAL SINGLE POINT ENERGY      -365.347260802226

DIPOLE MOMENT
-------------
                                X             Y             Z
Electronic contribution:      3.59309      -3.22760      -0.14561
Nuclear contribution   :     -4.13094       3.48953      -0.26039
                        -----------------------------------------
Total Dipole Moment    :     -0.53784       0.26193      -0.40599
                        -----------------------------------------
Magnitude (a.u.)       :      0.72299
Magnitude (Debye)      :      1.83769

                             ****ORCA TERMINATED NORMALLY****
TOTAL RUN TIME: 0 days 0 hours 20 minutes 40 seconds 283 msec
