                         Program Version 3.0.3 - RELEASE   -
|  1> ! RI-MP2 RIJK def2-TZVP def2-TZVP/C def2-TZVP/JK TIGHTSCF
|  2> % maxcore 2000
|  3> % mp2 density relaxed end
|  4> *xyz 0 1
|  5>  C        0.0815218106     1.3373921822     0.0078271968
|  6>  O        0.0111163774    -0.0682872324     0.0013412103
|  7>  C       -1.3165808234    -0.5469833776     0.0114577457
|  8>  C       -1.2604763807    -2.0673673881     0.0030840745
|  9>  C       -2.6392833243    -2.7089493974     0.0128670324
| 10>  O       -3.6583081160    -2.0635749703     0.0264657491
| 11>  C       -2.6432912212    -4.2362537122     0.0042419610
| 12>  O       -3.9641952672    -4.7072849793     0.0146746337
| 13>  H        1.1390349884     1.6126609562    -0.0007992645
| 14>  H       -0.4075424971     1.7756719669    -0.8766290620
| 15>  H       -0.3906393254     1.7666062720     0.9058114311
| 16>  H       -1.8577116177    -0.1906368951     0.9016117587
| 17>  H       -1.8744461075    -0.1815227473    -0.8645661213
| 18>  H       -0.7048248657    -2.4149043430    -0.8776140484
| 19>  H       -0.6883782566    -2.4238871870     0.8695558250
| 20>  H       -2.0790551087    -4.5647213298    -0.8863891225
| 21>  H       -2.0615296749    -4.5747310501     0.8797259287
| 22>  H       -3.9377040201    -5.6684106676     0.0089752720
| 23> *
| 24>
| 25>                          ****END OF INPUT****

CARTESIAN COORDINATES (ANGSTROEM)
---------------------------------
  C      0.081522    1.337392    0.007827
  O      0.011116   -0.068287    0.001341
  C     -1.316581   -0.546983    0.011458
  C     -1.260476   -2.067367    0.003084
  C     -2.639283   -2.708949    0.012867
  O     -3.658308   -2.063575    0.026466
  C     -2.643291   -4.236254    0.004242
  O     -3.964195   -4.707285    0.014675
  H      1.139035    1.612661   -0.000799
  H     -0.407542    1.775672   -0.876629
  H     -0.390639    1.766606    0.905811
  H     -1.857712   -0.190637    0.901612
  H     -1.874446   -0.181523   -0.864566
  H     -0.704825   -2.414904   -0.877614
  H     -0.688378   -2.423887    0.869556
  H     -2.079055   -4.564721   -0.886389
  H     -2.061530   -4.574731    0.879726
  H     -3.937704   -5.668411    0.008975

 Total Charge           Charge          ....    0
 Multiplicity           Mult            ....    1
 Number of Electrons    NEL             ....   64
 Basis Dimension        Dim             ....  308

ORBITAL ENERGIES
----------------

  NO   OCC          E(Eh)            E(eV)
   0   2.0000     -20.569276      -559.7185
   1   2.0000     -20.558214      -559.4175
   2   2.0000     -20.547135      -559.1160
   3   2.0000     -11.332296      -308.3675
   4   2.0000     -11.299283      -307.4691
   5   2.0000     -11.278179      -306.8949
   6   2.0000     -11.271860      -306.7229
   7   2.0000     -11.241577      -305.8988
   8   2.0000      -1.400267       -38.1032
   9   2.0000      -1.379429       -37.5362
  10   2.0000      -1.369010       -37.2527
  11   2.0000      -1.063675       -28.9441
  12   2.0000      -0.988657       -26.9027
  13   2.0000      -0.922400       -25.0998
  14   2.0000      -0.848869       -23.0989
  15   2.0000      -0.743652       -20.2358
  16   2.0000      -0.721464       -19.6320
  17   2.0000      -0.682027       -18.5589
  18   2.0000      -0.666972       -18.1492
  19   2.0000      -0.656199       -17.8561
  20   2.0000      -0.646941       -17.6042
  21   2.0000      -0.621650       -16.9159
  22   2.0000      -0.599789       -16.3211
  23   2.0000      -0.594045       -16.1648
  24   2.0000      -0.537839       -14.6353
  25   2.0000      -0.529592       -14.4109
  26   2.0000      -0.515510       -14.0277
  27   2.0000      -0.494714       -13.4618
  28   2.0000      -0.484215       -13.1761
  29   2.0000      -0.463080       -12.6011
  30   2.0000      -0.425981       -11.5915
  31   2.0000      -0.414267       -11.2728
  32   0.0000       0.118839         3.2338
  33   0.0000       0.141770         3.8578
  34   0.0000       0.143978         3.9178
  35   0.0000       0.151968         4.1353
  36   0.0000       0.188390         5.1264

MULLIKEN ATOMIC CHARGES
-----------------------
   0 C :   -0.211788
   1 O :   -0.306142
   2 C :   -0.047641
   3 C :   -0.240639
   4 C :    0.207923
   5 O :   -0.270701
   6 C :   -0.095878
   7 O :   -0.433491
   8 H :    0.137854
   9 H :    0.112987
  10 H :    0.112991
  11 H :    0.104567
  12 H :    0.104535
  13 H :    0.136958
  14 H :    0.136972
  15 H :    0.116093
  16 H :    0.116079
  17 H :    0.319321
Sum of atomic charges:    0.0000000

LOEWDIN ATOMIC CHARGES
----------------------
   0 C :   -0.361042
   1 O :    0.129759
   2 C :   -0.321790
   3 C :   -0.242164
   4 C :   -0.329048
   5 O :    0.172047
   6 C :   -0.339380
   7 O :   -0.020287
   8 H :    0.112977
   9 H :    0.101952
  10 H :    0.101953
  11 H :    0.124821
  12 H :    0.124815
  13 H :    0.154501
  14 H :    0.154517
  15 H :    0.129475
  16 H :    0.129477
  17 H :    0.177418

  Mayer bond orders larger than 0.1
B(  0-C ,  1-O ) :   0.9176 B(  0-C ,  8-H ) :   0.9392 B(  0-C ,  9-H ) :   0.9376
B(  0-C , 10-H ) :   0.9376 B(  1-O ,  2-C ) :   0.9615 B(  2-C ,  3-C ) :   0.9585
B(  2-C , 11-H ) :   0.9263 B(  2-C , 12-H ) :   0.9263 B(  3-C ,  4-C ) :   0.8924
B(  3-C , 13-H ) :   0.9007 B(  3-C , 14-H ) :   0.9006 B(  4-C ,  5-O ) :   1.9768
B(  4-C ,  6-C ) :   0.9194 B(  6-C ,  7-O ) :   1.0542 B(  6-C , 15-H ) :   0.9219
B(  6-C , 16-H ) :   0.9218 B(  7-O , 17-H ) :   0.8441

MP2 TOTAL ENERGY:     -421.403135760 Eh
FINAL SINGLE POINT ENERGY      -421.403135760304

DIPOLE MOMENT
-------------
                                X             Y             Z
Electronic contribution:     -5.07645      -4.38758       0.02711
Nuclear contribution   :      6.02573       3.76047      -0.04025
                        -----------------------------------------
Total Dipole Moment    :      0.94928      -0.62711      -0.01313
                        -----------------------------------------
Magnitude (a.u.)       :      1.13779
Magnitude (Debye)      :      2.89204

                             ****ORCA TERMINATED NORMALLY****
TOTAL RUN TIME: 0 days 0 hours 10 minutes 19 seconds 750 msec
