                         Program Version 3.0.3 - RELEASE   -
|  1> ! RI-MP2 RIJK def2-TZVP def2-TZVP/C def2-TZVP/JK TIGHTSCF
|  2> % maxcore 2000
|  3> % mp2 density relaxed end
|  4> *xyz 0 1
|  5>  C        0.0198064084     1.4554467719     0.0216175526
|  6>  C       -0.0372438422    -0.0424597910     0.0862345564
|  7>  O        0.4472700923    -0.7581593597    -1.1131993801
|  8>  C       -0.2817547700    -1.9005892769    -0.5570604235
|  9>  C        0.5193924943    -2.2452351628     0.7051779748
| 10>  C        0.7947362241    -0.7800097577     1.1729944310
| 11>  O        2.1542974081    -0.4036958524     1.1111827988
| 12>  C       -1.3267470510    -0.8750754611    -0.0374246160
| 13>  O       -2.0372976433    -1.0945261323     1.1508797281
| 14>  H        1.0554005145     1.8008745617     0.0808011482
| 15>  H       -0.4298646702     1.8263704624    -0.9032619417
| 16>  H       -0.5274497751     1.8786185432     0.8703826934
| 17>  H       -0.5049632003    -2.6760270696    -1.2897863655
| 18>  H       -0.0644766721    -2.8217107384     1.4258813219
| 19>  H        1.4515617181    -2.7708955102     0.4873513695
| 20>  H        0.4535698509    -0.5753159760     2.1887629456
| 21>  H        2.4120167920    -0.5165883630     0.1865454688
| 22>  H       -1.9546194680    -0.4999345269    -0.8530929946
| 23>  H       -2.8633142806    -1.5413732213     0.9439074723
| 24> *
| 25>
| 26>                          ****END OF INPUT****

CARTESIAN COORDINATES (ANGSTROEM)
---------------------------------
  C      0.019806    1.455447    0.021618
  C     -0.037244   -0.042460    0.086235
  O      0.447270   -0.758159   -1.113199
  C     -0.281755   -1.900589   -0.557060
  C      0.519392   -2.245235    0.705178
  C      0.794736   -0.780010    1.172994
  O      2.154297   -0.403696    1.111183
  C     -1.326747   -0.875075   -0.037425
  O     -2.037298   -1.094526    1.150880
  H      1.055401    1.800875    0.080801
  H     -0.429865    1.826370   -0.903262
  H     -0.527450    1.878619    0.870383
  H     -0.504963   -2.676027   -1.289786
  H     -0.064477   -2.821711    1.425881
  H      1.451562   -2.770896    0.487351
  H      0.453570   -0.575316    2.188763
  H      2.412017   -0.516588    0.186545
  H     -1.954619   -0.499935   -0.853093
  H     -2.863314   -1.541373    0.943907

 Total Charge           Charge          ....    0
 Multiplicity           Mult            ....    1
 Number of Electrons    NEL             ....   70
 Basis Dimension        Dim             ....  339

ORBITAL ENERGIES
----------------

  NO   OCC          E(Eh)            E(eV)
   0   2.0000     -20.577278      -559.9362
   1   2.0000     -20.557758      -559.4050
   2   2.0000     -20.549350      -559.1762
   3   2.0000     -11.294314      -307.3339
   4   2.0000     -11.290052      -307.2179
   5   2.0000     -11.289816      -307.2115
   6   2.0000     -11.278536      -306.9046
   7   2.0000     -11.223298      -305.4015
   8   2.0000     -11.219355      -305.2942
   9   2.0000      -1.409969       -38.3672
  10   2.0000      -1.376949       -37.4687
  11   2.0000      -1.350658       -36.7533
  12   2.0000      -1.067211       -29.0403
  13   2.0000      -1.023950       -27.8631
  14   2.0000      -0.953280       -25.9401
  15   2.0000      -0.900835       -24.5130
  16   2.0000      -0.793931       -21.6040
  17   2.0000      -0.767455       -20.8835
  18   2.0000      -0.726102       -19.7582
  19   2.0000      -0.676920       -18.4199
  20   2.0000      -0.672628       -18.3031
  21   2.0000      -0.640410       -17.4265
  22   2.0000      -0.630506       -17.1569
  23   2.0000      -0.596641       -16.2354
  24   2.0000      -0.571149       -15.5418
  25   2.0000      -0.566049       -15.4030
  26   2.0000      -0.544289       -14.8108
  27   2.0000      -0.528466       -14.3803
  28   2.0000      -0.513020       -13.9600
  29   2.0000      -0.509144       -13.8545
  30   2.0000      -0.487534       -13.2665
  31   2.0000      -0.475133       -12.9290
  32   2.0000      -0.459015       -12.4904
  33   2.0000      -0.425309       -11.5732
  34   2.0000      -0.402102       -10.9417
  35   0.0000       0.124568         3.3897
  36   0.0000       0.154856         4.2139
  37   0.0000       0.164534         4.4772
  38   0.0000       0.174321         4.7435
  39   0.0000       0.187170         5.0931

MULLIKEN ATOMIC CHARGES
-----------------------
   0 C :   -0.408130
   1 C :    0.093161
   2 O :   -0.326616
   3 C :   -0.045473
   4 C :   -0.181530
   5 C :    0.083794
   6 O :   -0.469508
   7 C :    0.050882
   8 O :   -0.463635
   9 H :    0.147283
  10 H :    0.138222
  11 H :    0.143922
  12 H :    0.134453
  13 H :    0.109022
  14 H :    0.128421
  15 H :    0.118277
  16 H :    0.320787
  17 H :    0.101884
  18 H :    0.324785
Sum of atomic charges:   -0.0000000

LOEWDIN ATOMIC CHARGES
----------------------
   0 C :   -0.266483
   1 C :   -0.303394
   2 O :    0.165426
   3 C :   -0.249363
   4 C :   -0.219980
   5 C :   -0.286366
   6 O :   -0.012528
   7 C :   -0.287054
   8 O :    0.002095
   9 H :    0.135619
  10 H :    0.131214
  11 H :    0.139385
  12 H :    0.128325
  13 H :    0.140035
  14 H :    0.138509
  15 H :    0.145289
  16 H :    0.179052
  17 H :    0.139803
  18 H :    0.180417

  Mayer bond orders larger than 0.1
B(  0-C ,  1-C ) :   0.8603 B(  0-C ,  9-H ) :   0.9356 B(  0-C , 10-H ) :   0.9368
B(  0-C , 11-H ) :   0.9356 B(  1-C ,  2-O ) :   0.9118 B(  1-C ,  5-C ) :   0.9778
B(  1-C ,  7-C ) :   0.9043 B(  2-O ,  3-C ) :   0.9378 B(  3-C ,  4-C ) :   0.9312
B(  3-C ,  7-C ) :   0.9173 B(  3-C , 12-H ) :   0.9044 B(  4-C ,  5-C ) :   0.9469
B(  4-C , 13-H ) :   0.8883 B(  4-C , 14-H ) :   0.9261 B(  5-C ,  6-O ) :   0.9429
B(  5-C , 15-H ) :   0.9123 B(  6-O , 16-H ) :   0.8252 B(  7-C ,  8-O ) :   1.1383
B(  7-C , 17-H ) :   0.9296 B(  8-O , 18-H ) :   0.8399

MP2 TOTAL ENERGY:     -459.427294961 Eh
FINAL SINGLE POINT ENERGY      -459.427294961020

DIPOLE MOMENT
-------------
                                X             Y             Z
Electronic contribution:      0.13560      -1.74692      -0.55666
Nuclear contribution   :     -1.21533       1.29754       0.18959
                        -----------------------------------------
Total Dipole Moment    :     -1.07974      -0.44938      -0.36707
                        -----------------------------------------
Magnitude (a.u.)       :      1.22577
Magnitude (Debye)      :      3.11566

                             ****ORCA TERMINATED NORMALLY****
TOTAL RUN TIME: 0 days 0 hours 19 minutes 18 seconds 152 msec
