                         Program Version 3.0.3 - RELEASE   -
|  1> ! RI-MP2 RIJK def2-TZVP def2-TZVP/C def2-TZVP/JK TIGHTSCF
|  2> % maxcore 2000
|  3> % mp2 density relaxed end
|  4> *xyz 0 1
|  5>  C       -0.3895539630     1.4017996545     0.2014384595
|  6>  N       -0.0226748171    -0.0031318453     0.1198797530
|  7>  C        1.3305143284    -0.3193313178    -0.3214069793
|  8>  C        0.9160422468    -0.5834250295     1.0865130006
|  9>  C        1.5226125664     0.1808971297     2.2468801381
| 10>  C        0.6069943506     0.2194671644     3.4792483698
| 11>  C        1.2511593784     0.9390204908     4.6768250789
| 12>  C        0.3012138007     1.0461150610     5.8473068558
| 13>  O        0.5217095983     0.6406017723     6.9589913650
| 14>  H        0.4265534353     2.0780514064     0.5011307724
| 15>  H       -0.7415539833     1.7255770778    -0.7833782124
| 16>  H       -1.2164950427     1.5242680814     0.9088825270
| 17>  H        1.4274649853    -1.1282941338    -1.0412670015
| 18>  H        2.0192538425     0.5112486018    -0.4807573844
| 19>  H        0.6525638695    -1.6100391671     1.3438541835
| 20>  H        2.4697154171    -0.3047114568     2.5173942420
| 21>  H        1.7835491690     1.2018697396     1.9469399230
| 22>  H       -0.3377887540     0.7136085499     3.2197865842
| 23>  H        0.3459537487    -0.8059449352     3.7700438952
| 24>  H        2.1618749718     0.4327241615     5.0105878063
| 25>  H        1.5215595721     1.9625117078     4.3767812818
| 26>  H       -0.6682586907     1.5428527166     5.6024607115
| 27> *
| 28>
| 29>                          ****END OF INPUT****

CARTESIAN COORDINATES (ANGSTROEM)
---------------------------------
  C     -0.389554    1.401800    0.201438
  N     -0.022675   -0.003132    0.119880
  C      1.330514   -0.319331   -0.321407
  C      0.916042   -0.583425    1.086513
  C      1.522613    0.180897    2.246880
  C      0.606994    0.219467    3.479248
  C      1.251159    0.939020    4.676825
  C      0.301214    1.046115    5.847307
  O      0.521710    0.640602    6.958991
  H      0.426553    2.078051    0.501131
  H     -0.741554    1.725577   -0.783378
  H     -1.216495    1.524268    0.908883
  H      1.427465   -1.128294   -1.041267
  H      2.019254    0.511249   -0.480757
  H      0.652564   -1.610039    1.343854
  H      2.469715   -0.304711    2.517394
  H      1.783549    1.201870    1.946940
  H     -0.337789    0.713609    3.219787
  H      0.345954   -0.805945    3.770044
  H      2.161875    0.432724    5.010588
  H      1.521560    1.962512    4.376781
  H     -0.668259    1.542853    5.602461

 Total Charge           Charge          ....    0
 Multiplicity           Mult            ....    1
 Number of Electrons    NEL             ....   70
 Basis Dimension        Dim             ....  357

ORBITAL ENERGIES
----------------

  NO   OCC          E(Eh)            E(eV)
   0   2.0000     -20.557699      -559.4034
   1   2.0000     -15.560427      -423.4208
   2   2.0000     -11.332562      -308.3747
   3   2.0000     -11.263496      -306.4953
   4   2.0000     -11.254240      -306.2434
   5   2.0000     -11.251385      -306.1658
   6   2.0000     -11.244825      -305.9873
   7   2.0000     -11.244220      -305.9708
   8   2.0000     -11.240297      -305.8640
   9   2.0000      -1.396431       -37.9988
  10   2.0000      -1.274334       -34.6764
  11   2.0000      -1.094640       -29.7867
  12   2.0000      -1.014771       -27.6133
  13   2.0000      -0.979410       -26.6511
  14   2.0000      -0.864292       -23.5186
  15   2.0000      -0.835638       -22.7389
  16   2.0000      -0.795353       -21.6427
  17   2.0000      -0.777352       -21.1528
  18   2.0000      -0.685777       -18.6609
  19   2.0000      -0.675247       -18.3744
  20   2.0000      -0.648672       -17.6513
  21   2.0000      -0.636195       -17.3118
  22   2.0000      -0.624488       -16.9932
  23   2.0000      -0.595731       -16.2107
  24   2.0000      -0.573049       -15.5935
  25   2.0000      -0.562817       -15.3150
  26   2.0000      -0.551548       -15.0084
  27   2.0000      -0.526546       -14.3280
  28   2.0000      -0.514345       -13.9960
  29   2.0000      -0.500447       -13.6179
  30   2.0000      -0.491983       -13.3875
  31   2.0000      -0.457033       -12.4365
  32   2.0000      -0.446388       -12.1468
  33   2.0000      -0.417204       -11.3527
  34   2.0000      -0.370087       -10.0706
  35   0.0000       0.125221         3.4074
  36   0.0000       0.134889         3.6705
  37   0.0000       0.150585         4.0976
  38   0.0000       0.154873         4.2143
  39   0.0000       0.162470         4.4210

MULLIKEN ATOMIC CHARGES
-----------------------
   0 C :   -0.297468
   1 N :   -0.222832
   2 C :   -0.178458
   3 C :   -0.030911
   4 C :   -0.238579
   5 C :   -0.291029
   6 C :   -0.134323
   7 C :    0.097432
   8 O :   -0.263179
   9 H :    0.104042
  10 H :    0.146583
  11 H :    0.131746
  12 H :    0.127756
  13 H :    0.113891
  14 H :    0.117746
  15 H :    0.130862
  16 H :    0.119595
  17 H :    0.120744
  18 H :    0.132786
  19 H :    0.121486
  20 H :    0.122939
  21 H :    0.069172
Sum of atomic charges:   -0.0000000

LOEWDIN ATOMIC CHARGES
----------------------
   0 C :   -0.335727
   1 N :    0.084661
   2 C :   -0.249289
   3 C :   -0.259532
   4 C :   -0.256831
   5 C :   -0.258244
   6 C :   -0.262796
   7 C :   -0.297831
   8 O :    0.131046
   9 H :    0.102522
  10 H :    0.120711
  11 H :    0.115948
  12 H :    0.123541
  13 H :    0.123634
  14 H :    0.144169
  15 H :    0.147740
  16 H :    0.139281
  17 H :    0.139309
  18 H :    0.142920
  19 H :    0.145103
  20 H :    0.150869
  21 H :    0.108793

  Mayer bond orders larger than 0.1
B(  0-C ,  1-N ) :   0.8888 B(  0-C ,  9-H ) :   0.9274 B(  0-C , 10-H ) :   0.9368
B(  0-C , 11-H ) :   0.9378 B(  1-N ,  2-C ) :   0.8967 B(  1-N ,  3-C ) :   0.9240
B(  2-C ,  3-C ) :   0.9386 B(  2-C , 12-H ) :   0.9208 B(  2-C , 13-H ) :   0.9191
B(  3-C ,  4-C ) :   0.9205 B(  3-C , 14-H ) :   0.9173 B(  4-C ,  5-C ) :   0.9095
B(  4-C , 15-H ) :   0.9239 B(  4-C , 16-H ) :   0.9438 B(  5-C ,  6-C ) :   0.9054
B(  5-C , 17-H ) :   0.9344 B(  5-C , 18-H ) :   0.9261 B(  6-C ,  7-C ) :   0.8790
B(  6-C , 19-H ) :   0.9048 B(  6-C , 20-H ) :   0.9144 B(  7-C ,  8-O ) :   2.0081
B(  7-C , 21-H ) :   0.9388

MP2 TOTAL ENERGY:     -403.625856121 Eh
FINAL SINGLE POINT ENERGY      -403.625856121452

DIPOLE MOMENT
-------------
                                X             Y             Z
Electronic contribution:     -0.76098      -1.78418       7.08939
Nuclear contribution   :      1.12877       2.30075      -7.98847
                        -----------------------------------------
Total Dipole Moment    :      0.36780       0.51657      -0.89907
                        -----------------------------------------
Magnitude (a.u.)       :      1.10020
Magnitude (Debye)      :      2.79650

                             ****ORCA TERMINATED NORMALLY****
TOTAL RUN TIME: 0 days 0 hours 17 minutes 52 seconds 41 msec
