                         Program Version 3.0.3 - RELEASE   -
|  1> ! RI-MP2 RIJK def2-TZVP def2-TZVP/C def2-TZVP/JK TIGHTSCF
|  2> % maxcore 2000
|  3> % mp2 density relaxed end
|  4> *xyz 0 1
|  5>  O       -0.1349020366     1.2614189739    -0.6272750765
|  6>  N        0.0396559820    -0.0606690069    -0.1902912314
|  7>  C       -1.0671851155    -0.5763468430     0.1634042259
|  8>  C       -1.1571565199    -2.0021968626     0.6678994296
|  9>  C       -2.5774130290    -2.4233853672     0.2453643666
| 10>  O       -3.1395311641    -3.4629660766     0.9881214766
| 11>  C       -3.3691072878    -1.1197223605     0.3843305219
| 12>  O       -4.5143520689    -1.0891237452     0.7598194771
| 13>  C       -2.4428140530     0.0524114876     0.0925382519
| 14>  H        0.7584339281     1.5126990213    -0.8860912210
| 15>  H       -0.3628690071    -2.6372059818     0.2748660193
| 16>  H       -1.1051386244    -2.0277435883     1.7645335208
| 17>  H       -2.5601485726    -2.6677848620    -0.8341525578
| 18>  H       -4.0450598448    -3.1811720836     1.1902340762
| 19>  H       -2.5910043470     0.8593766326     0.8179704052
| 20>  H       -2.6344394993     0.4892468322    -0.8945589243
| 21> *
| 22>
| 23>                          ****END OF INPUT****

CARTESIAN COORDINATES (ANGSTROEM)
---------------------------------
  O     -0.134902    1.261419   -0.627275
  N      0.039656   -0.060669   -0.190291
  C     -1.067185   -0.576347    0.163404
  C     -1.157157   -2.002197    0.667899
  C     -2.577413   -2.423385    0.245364
  O     -3.139531   -3.462966    0.988121
  C     -3.369107   -1.119722    0.384331
  O     -4.514352   -1.089124    0.759819
  C     -2.442814    0.052411    0.092538
  H      0.758434    1.512699   -0.886091
  H     -0.362869   -2.637206    0.274866
  H     -1.105139   -2.027744    1.764534
  H     -2.560149   -2.667785   -0.834153
  H     -4.045060   -3.181172    1.190234
  H     -2.591004    0.859377    0.817970
  H     -2.634439    0.489247   -0.894559

 Total Charge           Charge          ....    0
 Multiplicity           Mult            ....    1
 Number of Electrons    NEL             ....   68
 Basis Dimension        Dim             ....  321

ORBITAL ENERGIES
----------------

  NO   OCC          E(Eh)            E(eV)
   0   2.0000     -20.607096      -560.7476
   1   2.0000     -20.576197      -559.9068
   2   2.0000     -20.571852      -559.7885
   3   2.0000     -15.632764      -425.3891
   4   2.0000     -11.353184      -308.9358
   5   2.0000     -11.309156      -307.7378
   6   2.0000     -11.299876      -307.4852
   7   2.0000     -11.266519      -306.5776
   8   2.0000     -11.256332      -306.3004
   9   2.0000      -1.435482       -39.0614
  10   2.0000      -1.425708       -38.7955
  11   2.0000      -1.378164       -37.5017
  12   2.0000      -1.198040       -32.6003
  13   2.0000      -1.096845       -29.8467
  14   2.0000      -1.006348       -27.3841
  15   2.0000      -0.908022       -24.7085
  16   2.0000      -0.788020       -21.4431
  17   2.0000      -0.765422       -20.8282
  18   2.0000      -0.723307       -19.6822
  19   2.0000      -0.701202       -19.0807
  20   2.0000      -0.691451       -18.8153
  21   2.0000      -0.673773       -18.3343
  22   2.0000      -0.636436       -17.3183
  23   2.0000      -0.631166       -17.1749
  24   2.0000      -0.601362       -16.3639
  25   2.0000      -0.585996       -15.9458
  26   2.0000      -0.565998       -15.4016
  27   2.0000      -0.554793       -15.0967
  28   2.0000      -0.553136       -15.0516
  29   2.0000      -0.524223       -14.2648
  30   2.0000      -0.466473       -12.6934
  31   2.0000      -0.452551       -12.3145
  32   2.0000      -0.425701       -11.5839
  33   2.0000      -0.399483       -10.8705
  34   0.0000       0.101692         2.7672
  35   0.0000       0.128204         3.4886
  36   0.0000       0.143235         3.8976
  37   0.0000       0.152229         4.1424
  38   0.0000       0.169964         4.6250

MULLIKEN ATOMIC CHARGES
-----------------------
   0 O :   -0.364744
   1 N :   -0.073903
   2 C :   -0.066991
   3 C :   -0.138322
   4 C :    0.081717
   5 O :   -0.468788
   6 C :    0.116685
   7 O :   -0.286953
   8 C :   -0.184892
   9 H :    0.339849
  10 H :    0.146982
  11 H :    0.126753
  12 H :    0.105090
  13 H :    0.335471
  14 H :    0.165165
  15 H :    0.166881
Sum of atomic charges:   -0.0000000

LOEWDIN ATOMIC CHARGES
----------------------
   0 O :   -0.068814
   1 N :    0.029910
   2 C :   -0.277370
   3 C :   -0.184861
   4 C :   -0.325939
   5 O :    0.000138
   6 C :   -0.297166
   7 O :    0.155497
   8 C :   -0.188237
   9 H :    0.172362
  10 H :    0.148603
  11 H :    0.156918
  12 H :    0.154911
  13 H :    0.187616
  14 H :    0.167031
  15 H :    0.169400

  Mayer bond orders larger than 0.1
B(  0-O ,  1-N ) :   0.8118 B(  0-O ,  9-H ) :   0.8424 B(  1-N ,  2-C ) :   1.8638
B(  2-C ,  3-C ) :   0.9083 B(  2-C ,  8-C ) :   0.9274 B(  3-C ,  4-C ) :   0.8704
B(  3-C ,  5-O ) :  -0.1085 B(  3-C , 10-H ) :   0.9112 B(  3-C , 11-H ) :   0.9019
B(  4-C ,  5-O ) :   1.0784 B(  4-C ,  6-C ) :   0.9130 B(  4-C , 12-H ) :   0.9120
B(  5-O , 13-H ) :   0.8119 B(  6-C ,  7-O ) :   1.9718 B(  6-C ,  8-C ) :   0.9000
B(  8-C , 14-H ) :   0.8891 B(  8-C , 15-H ) :   0.8817

MP2 TOTAL ENERGY:     -474.256287110 Eh
FINAL SINGLE POINT ENERGY      -474.256287110100

DIPOLE MOMENT
-------------
                                X             Y             Z
Electronic contribution:     -1.13277       0.87473       0.03719
Nuclear contribution   :      1.65917      -0.35544      -0.45285
                        -----------------------------------------
Total Dipole Moment    :      0.52641       0.51929      -0.41566
                        -----------------------------------------
Magnitude (a.u.)       :      0.84825
Magnitude (Debye)      :      2.15609

                             ****ORCA TERMINATED NORMALLY****
TOTAL RUN TIME: 0 days 0 hours 13 minutes 37 seconds 348 msec
