                         Program Version 3.0.3 - RELEASE   -
|  1> ! RI-MP2 RIJK def2-TZVP def2-TZVP/C def2-TZVP/JK TIGHTSCF
|  2> % maxcore 2000
|  3> % mp2 density relaxed end
|  4> *xyz 0 1
|  5>  O       -0.0983710540     1.4508999811     0.0637738222
|  6>  C       -0.0031026264     0.0481748467    -0.0054558144
|  7>  C        0.2839492942    -0.6879506885     1.3489015292
|  8>  N       -1.1136951172    -1.2248242359     1.3474185890
|  9>  C       -1.4061448225    -0.6231077155     0.0025030414
| 10>  C       -2.6060818898     0.1493148770     0.5864413376
| 11>  O       -3.8374993205    -0.2464264285     0.0405453406
| 12>  C       -2.1348257012    -0.4441780154     1.9566879256
| 13>  O       -2.4011253668    -0.2633277852     3.1087661369
| 14>  H        0.7876503433     1.8161762374     0.1563313036
| 15>  H        0.6411818046    -0.2717337580    -0.8342201042
| 16>  H        1.0312387131    -1.4835916199     1.2904621383
| 17>  H        0.4993958148    -0.0363475069     2.2003348830
| 18>  H       -1.6396998762    -1.3098311448    -0.8115271905
| 19>  H       -2.4682535102     1.2381543532     0.5837564719
| 20>  H       -4.5373624050     0.1771545631     0.5488552597
| 21> *
| 22>
| 23>                          ****END OF INPUT****

CARTESIAN COORDINATES (ANGSTROEM)
---------------------------------
  O     -0.098371    1.450900    0.063774
  C     -0.003103    0.048175   -0.005456
  C      0.283949   -0.687951    1.348902
  N     -1.113695   -1.224824    1.347419
  C     -1.406145   -0.623108    0.002503
  C     -2.606082    0.149315    0.586441
  O     -3.837499   -0.246426    0.040545
  C     -2.134826   -0.444178    1.956688
  O     -2.401125   -0.263328    3.108766
  H      0.787650    1.816176    0.156331
  H      0.641182   -0.271734   -0.834220
  H      1.031239   -1.483592    1.290462
  H      0.499396   -0.036348    2.200335
  H     -1.639700   -1.309831   -0.811527
  H     -2.468254    1.238154    0.583756
  H     -4.537362    0.177155    0.548855

 Total Charge           Charge          ....    0
 Multiplicity           Mult            ....    1
 Number of Electrons    NEL             ....   68
 Basis Dimension        Dim             ....  321

ORBITAL ENERGIES
----------------

  NO   OCC          E(Eh)            E(eV)
   0   2.0000     -20.585972      -560.1728
   1   2.0000     -20.580614      -560.0270
   2   2.0000     -20.550184      -559.1989
   3   2.0000     -15.575844      -423.8403
   4   2.0000     -11.354439      -308.9700
   5   2.0000     -11.312501      -307.8288
   6   2.0000     -11.307383      -307.6895
   7   2.0000     -11.281858      -306.9950
   8   2.0000     -11.277284      -306.8705
   9   2.0000      -1.410857       -38.3914
  10   2.0000      -1.394548       -37.9476
  11   2.0000      -1.383669       -37.6516
  12   2.0000      -1.285823       -34.9890
  13   2.0000      -1.036451       -28.2033
  14   2.0000      -0.990081       -26.9415
  15   2.0000      -0.883303       -24.0359
  16   2.0000      -0.822887       -22.3919
  17   2.0000      -0.744883       -20.2693
  18   2.0000      -0.731776       -19.9126
  19   2.0000      -0.713113       -19.4048
  20   2.0000      -0.682757       -18.5788
  21   2.0000      -0.667682       -18.1685
  22   2.0000      -0.658832       -17.9277
  23   2.0000      -0.610967       -16.6252
  24   2.0000      -0.591799       -16.1037
  25   2.0000      -0.587931       -15.9984
  26   2.0000      -0.544602       -14.8194
  27   2.0000      -0.536604       -14.6017
  28   2.0000      -0.526552       -14.3282
  29   2.0000      -0.492185       -13.3930
  30   2.0000      -0.477405       -12.9909
  31   2.0000      -0.462676       -12.5901
  32   2.0000      -0.418395       -11.3851
  33   2.0000      -0.381486       -10.3808
  34   0.0000       0.113646         3.0925
  35   0.0000       0.125581         3.4172
  36   0.0000       0.157425         4.2837
  37   0.0000       0.160984         4.3806
  38   0.0000       0.176256         4.7962

MULLIKEN ATOMIC CHARGES
-----------------------
   0 O :   -0.451193
   1 C :   -0.035161
   2 C :   -0.130334
   3 N :   -0.140505
   4 C :    0.031989
   5 C :    0.042746
   6 O :   -0.459731
   7 C :    0.132906
   8 O :   -0.266479
   9 H :    0.323069
  10 H :    0.103028
  11 H :    0.130688
  12 H :    0.124123
  13 H :    0.132950
  14 H :    0.129698
  15 H :    0.332206
Sum of atomic charges:   -0.0000000

LOEWDIN ATOMIC CHARGES
----------------------
   0 O :   -0.006456
   1 C :   -0.310514
   2 C :   -0.215149
   3 N :    0.173968
   4 C :   -0.162276
   5 C :   -0.281248
   6 O :   -0.004300
   7 C :   -0.385004
   8 O :    0.147158
   9 H :    0.180775
  10 H :    0.128214
  11 H :    0.128776
  12 H :    0.131679
  13 H :    0.142254
  14 H :    0.146069
  15 H :    0.186053

  Mayer bond orders larger than 0.1
B(  0-O ,  1-C ) :   1.1022 B(  0-O ,  9-H ) :   0.8368 B(  1-C ,  2-C ) :   0.9203
B(  1-C ,  4-C ) :   0.8579 B(  1-C , 10-H ) :   0.9409 B(  2-C ,  3-N ) :   0.8878
B(  2-C , 11-H ) :   0.9122 B(  2-C , 12-H ) :   0.9136 B(  3-N ,  4-C ) :   0.9280
B(  3-N ,  7-C ) :   1.0111 B(  4-C ,  5-C ) :   0.9294 B(  4-C , 13-H ) :   0.8978
B(  5-C ,  6-O ) :   0.9802 B(  5-C ,  7-C ) :   0.8963 B(  5-C , 14-H ) :   0.8970
B(  6-O , 15-H ) :   0.8359 B(  7-C ,  8-O ) :   2.0378

MP2 TOTAL ENERGY:     -474.243023395 Eh
FINAL SINGLE POINT ENERGY      -474.243023394654

DIPOLE MOMENT
-------------
                                X             Y             Z
Electronic contribution:     -3.32107      -0.62375       2.34118
Nuclear contribution   :      4.46601       1.18885      -3.16249
                        -----------------------------------------
Total Dipole Moment    :      1.14494       0.56510      -0.82131
                        -----------------------------------------
Magnitude (a.u.)       :      1.51814
Magnitude (Debye)      :      3.85881

                             ****ORCA TERMINATED NORMALLY****
TOTAL RUN TIME: 0 days 0 hours 16 minutes 24 seconds 699 msec
