                         Program Version 3.0.3 - RELEASE   -
|  1> ! RI-MP2 RIJK def2-TZVP def2-TZVP/C def2-TZVP/JK TIGHTSCF
|  2> % maxcore 2000
|  3> % mp2 density relaxed end
|  4> *xyz 0 1
|  5>  C       -0.0999777525     1.4352474176     0.3260384248
|  6>  C       -0.0242887973     0.1176382754    -0.4145963164
|  7>  O        0.9646275342    -0.2334079055    -1.0167166318
|  8>  C       -1.2596613864    -0.7804289865    -0.3480135154
|  9>  C       -1.5543177998    -1.5074393167    -1.6722533961
| 10>  O       -2.2061895999    -2.7341967805    -1.3098690443
| 11>  C       -1.9479805453    -3.0499484024    -0.0060655137
| 12>  N       -2.3800324340    -4.0729853749     0.5914646258
| 13>  C       -1.0636258668    -1.9823319135     0.6029908983
| 14>  H        0.8611499430     1.9482537327     0.2832738468
| 15>  H       -0.8764480106     2.0680638092    -0.1204676120
| 16>  H       -0.3923073810     1.2708358605     1.3696150396
| 17>  H       -2.1332330431    -0.2029027206    -0.0302343147
| 18>  H       -2.2261367144    -0.9547593395    -2.3325600783
| 19>  H       -0.6197814452    -1.7252683281    -2.1989674928
| 20>  H       -2.9348340094    -4.6514324043    -0.0418975681
| 21>  H       -0.0220904588    -2.3218257177     0.5686360886
| 22>  H       -1.3293025826    -1.7931324650     1.6427200598
| 23> *
| 24>
| 25>                          ****END OF INPUT****

CARTESIAN COORDINATES (ANGSTROEM)
---------------------------------
  C     -0.099978    1.435247    0.326038
  C     -0.024289    0.117638   -0.414596
  O      0.964628   -0.233408   -1.016717
  C     -1.259661   -0.780429   -0.348014
  C     -1.554318   -1.507439   -1.672253
  O     -2.206190   -2.734197   -1.309869
  C     -1.947981   -3.049948   -0.006066
  N     -2.380032   -4.072985    0.591465
  C     -1.063626   -1.982332    0.602991
  H      0.861150    1.948254    0.283274
  H     -0.876448    2.068064   -0.120468
  H     -0.392307    1.270836    1.369615
  H     -2.133233   -0.202903   -0.030234
  H     -2.226137   -0.954759   -2.332560
  H     -0.619781   -1.725268   -2.198967
  H     -2.934834   -4.651432   -0.041898
  H     -0.022090   -2.321826    0.568636
  H     -1.329303   -1.793132    1.642720

 Total Charge           Charge          ....    0
 Multiplicity           Mult            ....    1
 Number of Electrons    NEL             ....   68
 Basis Dimension        Dim             ....  333

ORBITAL ENERGIES
----------------

  NO   OCC          E(Eh)            E(eV)
   0   2.0000     -20.597594      -560.4890
   1   2.0000     -20.562085      -559.5228
   2   2.0000     -15.532435      -422.6590
   3   2.0000     -11.349827      -308.8445
   4   2.0000     -11.340375      -308.5873
   5   2.0000     -11.302064      -307.5448
   6   2.0000     -11.266297      -306.5715
   7   2.0000     -11.257948      -306.3443
   8   2.0000     -11.250905      -306.1527
   9   2.0000      -1.434776       -39.0422
  10   2.0000      -1.406855       -38.2825
  11   2.0000      -1.197042       -32.5732
  12   2.0000      -1.108945       -30.1759
  13   2.0000      -1.024933       -27.8898
  14   2.0000      -0.978624       -26.6297
  15   2.0000      -0.879310       -23.9272
  16   2.0000      -0.782568       -21.2948
  17   2.0000      -0.754296       -20.5254
  18   2.0000      -0.718152       -19.5419
  19   2.0000      -0.695876       -18.9357
  20   2.0000      -0.662480       -18.0270
  21   2.0000      -0.643767       -17.5178
  22   2.0000      -0.621341       -16.9076
  23   2.0000      -0.618018       -16.8171
  24   2.0000      -0.601840       -16.3769
  25   2.0000      -0.579493       -15.7688
  26   2.0000      -0.554306       -15.0834
  27   2.0000      -0.537115       -14.6156
  28   2.0000      -0.530067       -14.4239
  29   2.0000      -0.492372       -13.3981
  30   2.0000      -0.491368       -13.3708
  31   2.0000      -0.442272       -12.0348
  32   2.0000      -0.425400       -11.5757
  33   2.0000      -0.399109       -10.8603
  34   0.0000       0.113856         3.0982
  35   0.0000       0.123737         3.3671
  36   0.0000       0.154910         4.2153
  37   0.0000       0.162363         4.4181
  38   0.0000       0.165116         4.4930

MULLIKEN ATOMIC CHARGES
-----------------------
   0 C :   -0.427525
   1 C :    0.199767
   2 O :   -0.289300
   3 C :   -0.060618
   4 C :   -0.066455
   5 O :   -0.253199
   6 C :    0.116581
   7 N :   -0.374967
   8 C :   -0.208537
   9 H :    0.158223
  10 H :    0.152147
  11 H :    0.150561
  12 H :    0.120847
  13 H :    0.125278
  14 H :    0.136790
  15 H :    0.224820
  16 H :    0.152094
  17 H :    0.143493
Sum of atomic charges:   -0.0000000

LOEWDIN ATOMIC CHARGES
----------------------
   0 C :   -0.275320
   1 C :   -0.330402
   2 O :    0.156702
   3 C :   -0.218044
   4 C :   -0.239741
   5 O :    0.234619
   6 C :   -0.408181
   7 N :   -0.060733
   8 C :   -0.181723
   9 H :    0.134711
  10 H :    0.140214
  11 H :    0.139443
  12 H :    0.159161
  13 H :    0.129763
  14 H :    0.135916
  15 H :    0.169158
  16 H :    0.162677
  17 H :    0.151782

  Mayer bond orders larger than 0.1
B(  0-C ,  1-C ) :   0.9239 B(  0-C ,  9-H ) :   0.9395 B(  0-C , 10-H ) :   0.9147
B(  0-C , 11-H ) :   0.9114 B(  1-C ,  2-O ) :   1.9787 B(  1-C ,  3-C ) :   0.8420
B(  3-C ,  4-C ) :   0.9224 B(  3-C ,  8-C ) :   0.9200 B(  3-C , 12-H ) :   0.9093
B(  4-C ,  5-O ) :   0.8863 B(  4-C , 13-H ) :   0.9232 B(  4-C , 14-H ) :   0.9208
B(  5-O ,  6-C ) :   1.0868 B(  6-C ,  7-N ) :   2.0667 B(  6-C ,  8-C ) :   0.9143
B(  7-N , 15-H ) :   0.8551 B(  8-C , 16-H ) :   0.9085 B(  8-C , 17-H ) :   0.9110

MP2 TOTAL ENERGY:     -438.401234671 Eh
FINAL SINGLE POINT ENERGY      -438.401234670910

DIPOLE MOMENT
-------------
                                X             Y             Z
Electronic contribution:     -0.23062      -4.66873      -2.37592
Nuclear contribution   :     -0.14282       5.98253       2.36070
                        -----------------------------------------
Total Dipole Moment    :     -0.37345       1.31380      -0.01522
                        -----------------------------------------
Magnitude (a.u.)       :      1.36593
Magnitude (Debye)      :      3.47193

                             ****ORCA TERMINATED NORMALLY****
TOTAL RUN TIME: 0 days 0 hours 16 minutes 52 seconds 277 msec
