                         Program Version 3.0.3 - RELEASE   -
|  1> ! RI-MP2 RIJK def2-TZVP def2-TZVP/C def2-TZVP/JK TIGHTSCF
|  2> % maxcore 2000
|  3> % mp2 density relaxed end
|  4> *xyz 0 1
|  5>  N       -0.0781926913    -1.1636310480    -0.2140019024
|  6>  C       -0.0501401384    -0.0167178600    -0.0752785104
|  7>  C       -0.0073900302     1.4458273336     0.0476608696
|  8>  N       -0.5687293196     1.9206691257     1.3426458382
|  9>  C        0.5246559710     2.7797513968     1.9191878388
| 10>  C        1.1633911161     3.4131302282     0.6634878823
| 11>  C        1.4609339639     2.0255713666     0.0464755076
| 12>  C        2.1778299318     1.3550637954     1.2101251857
| 13>  C        1.6223194732     1.8120122089     2.3357315455
| 14>  H       -0.5615406952     1.8591978001    -0.8031574781
| 15>  H       -1.3833059992     2.4960737338     1.1555349213
| 16>  H        0.1261517051     3.4384906321     2.6895174148
| 17>  H        0.4626201589     4.0209080957     0.0809555201
| 18>  H        2.0740372675     3.9801338526     0.8644933712
| 19>  H        1.9429443512     1.9828610957    -0.9288205514
| 20>  H        2.9180054714     0.5733769752     1.1037793505
| 21>  H        1.8060948340     1.4825392978     3.3493673368
| 22> *
| 23>
| 24>                          ****END OF INPUT****

CARTESIAN COORDINATES (ANGSTROEM)
---------------------------------
  N     -0.078193   -1.163631   -0.214002
  C     -0.050140   -0.016718   -0.075279
  C     -0.007390    1.445827    0.047661
  N     -0.568729    1.920669    1.342646
  C      0.524656    2.779751    1.919188
  C      1.163391    3.413130    0.663488
  C      1.460934    2.025571    0.046476
  C      2.177830    1.355064    1.210125
  C      1.622319    1.812012    2.335732
  H     -0.561541    1.859198   -0.803157
  H     -1.383306    2.496074    1.155535
  H      0.126152    3.438491    2.689517
  H      0.462620    4.020908    0.080956
  H      2.074037    3.980134    0.864493
  H      1.942944    1.982861   -0.928821
  H      2.918005    0.573377    1.103779
  H      1.806095    1.482539    3.349367

 Total Charge           Charge          ....    0
 Multiplicity           Mult            ....    1
 Number of Electrons    NEL             ....   64
 Basis Dimension        Dim             ....  327

ORBITAL ENERGIES
----------------

  NO   OCC          E(Eh)            E(eV)
   0   2.0000     -15.570085      -423.6836
   1   2.0000     -15.561074      -423.4384
   2   2.0000     -11.311782      -307.8092
   3   2.0000     -11.280492      -306.9578
   4   2.0000     -11.265033      -306.5371
   5   2.0000     -11.262794      -306.4762
   6   2.0000     -11.244623      -305.9817
   7   2.0000     -11.240545      -305.8708
   8   2.0000     -11.237907      -305.7990
   9   2.0000      -1.269136       -34.5350
  10   2.0000      -1.205920       -32.8147
  11   2.0000      -1.115479       -30.3537
  12   2.0000      -1.032501       -28.0958
  13   2.0000      -0.984037       -26.7770
  14   2.0000      -0.884844       -24.0778
  15   2.0000      -0.809147       -22.0180
  16   2.0000      -0.746537       -20.3143
  17   2.0000      -0.736671       -20.0458
  18   2.0000      -0.693243       -18.8641
  19   2.0000      -0.666223       -18.1289
  20   2.0000      -0.614751       -16.7282
  21   2.0000      -0.578745       -15.7484
  22   2.0000      -0.563961       -15.3462
  23   2.0000      -0.545804       -14.8521
  24   2.0000      -0.533844       -14.5266
  25   2.0000      -0.521730       -14.1970
  26   2.0000      -0.514781       -14.0079
  27   2.0000      -0.489244       -13.3130
  28   2.0000      -0.453949       -12.3526
  29   2.0000      -0.444562       -12.0972
  30   2.0000      -0.403218       -10.9721
  31   2.0000      -0.365198        -9.9375
  32   0.0000       0.113666         3.0930
  33   0.0000       0.128297         3.4911
  34   0.0000       0.153922         4.1884
  35   0.0000       0.160327         4.3627
  36   0.0000       0.170721         4.6456

MULLIKEN ATOMIC CHARGES
-----------------------
   0 N :   -0.055301
   1 C :   -0.175188
   2 C :    0.012281
   3 N :   -0.326566
   4 C :    0.013898
   5 C :   -0.252853
   6 C :    0.018008
   7 C :   -0.242202
   8 C :   -0.184947
   9 H :    0.146091
  10 H :    0.212229
  11 H :    0.141404
  12 H :    0.118082
  13 H :    0.133565
  14 H :    0.152302
  15 H :    0.148997
  16 H :    0.140200
Sum of atomic charges:   -0.0000000

LOEWDIN ATOMIC CHARGES
----------------------
   0 N :    0.061671
   1 C :   -0.166244
   2 C :   -0.245387
   3 N :    0.034285
   4 C :   -0.248831
   5 C :   -0.200666
   6 C :   -0.180984
   7 C :   -0.118893
   8 C :   -0.116504
   9 H :    0.163692
  10 H :    0.169079
  11 H :    0.141306
  12 H :    0.133889
  13 H :    0.143524
  14 H :    0.149580
  15 H :    0.141831
  16 H :    0.138653

  Mayer bond orders larger than 0.1
B(  0-N ,  1-C ) :   2.8900 B(  1-C ,  2-C ) :   0.9079 B(  2-C ,  3-N ) :   1.0274
B(  2-C ,  6-C ) :   0.8473 B(  2-C ,  9-H ) :   0.9090 B(  3-N ,  4-C ) :   0.9068
B(  3-N , 10-H ) :   0.8698 B(  4-C ,  5-C ) :   0.9714 B(  4-C ,  8-C ) :   0.9265
B(  4-C , 11-H ) :   0.9224 B(  5-C ,  6-C ) :   0.9178 B(  5-C , 12-H ) :   0.9274
B(  5-C , 13-H ) :   0.9172 B(  6-C ,  7-C ) :   0.9289 B(  6-C , 14-H ) :   0.9131
B(  7-C ,  8-C ) :   1.7914 B(  7-C , 15-H ) :   0.9164 B(  8-C , 16-H ) :   0.9189

MP2 TOTAL ENERGY:     -380.201879143 Eh
FINAL SINGLE POINT ENERGY      -380.201879143475

DIPOLE MOMENT
-------------
                                X             Y             Z
Electronic contribution:     -1.59759      -5.11749      -0.97587
Nuclear contribution   :      1.84797       7.06918       0.97197
                        -----------------------------------------
Total Dipole Moment    :      0.25038       1.95169      -0.00390
                        -----------------------------------------
Magnitude (a.u.)       :      1.96769
Magnitude (Debye)      :      5.00146

                             ****ORCA TERMINATED NORMALLY****
TOTAL RUN TIME: 0 days 0 hours 18 minutes 45 seconds 484 msec
