                         Program Version 3.0.3 - RELEASE   -
|  1> ! RI-MP2 RIJK def2-TZVP def2-TZVP/C def2-TZVP/JK TIGHTSCF
|  2> % maxcore 2000
|  3> % mp2 density relaxed end
|  4> *xyz 0 1
|  5>  C       -0.1431323166     1.4324332346     0.0467207098
|  6>  N        1.3688311728     1.4397225682     0.0635109347
|  7>  C        1.3935463919     0.1613821791    -0.6819315657
|  8>  C        1.8522603471     0.0165736708    -2.1424108031
|  9>  O        2.2763678777    -1.3372540665    -1.9012918410
| 10>  C        2.0650612889    -1.2299608662    -0.4706101762
| 11>  C        0.9331215286    -2.1682851027     0.0340343091
| 12>  C       -0.2912587204    -1.2663664363     0.1774069183
| 13>  C       -0.0262626879    -0.0444962662    -0.2704777367
| 14>  H       -0.6098378393     1.7053453557     0.9975216410
| 15>  H       -0.5739738175     2.0449514442    -0.7561449488
| 16>  H        1.7879379812     2.2173008952    -0.4400346069
| 17>  H        1.0928633782     0.0911737478    -2.9305719615
| 18>  H        2.7027283325     0.6680714139    -2.3959105854
| 19>  H        3.0050041371    -1.3236560970     0.0823835663
| 20>  H        0.8079998909    -2.9931349149    -0.6772499229
| 21>  H        1.1702725844    -2.6204927007     1.0056490278
| 22>  H       -1.1824156796    -1.5883558391     0.7047561311
| 23> *
| 24>
| 25>                          ****END OF INPUT****

CARTESIAN COORDINATES (ANGSTROEM)
---------------------------------
  C     -0.143132    1.432433    0.046721
  N      1.368831    1.439723    0.063511
  C      1.393546    0.161382   -0.681932
  C      1.852260    0.016574   -2.142411
  O      2.276368   -1.337254   -1.901292
  C      2.065061   -1.229961   -0.470610
  C      0.933122   -2.168285    0.034034
  C     -0.291259   -1.266366    0.177407
  C     -0.026263   -0.044496   -0.270478
  H     -0.609838    1.705345    0.997522
  H     -0.573974    2.044951   -0.756145
  H      1.787938    2.217301   -0.440035
  H      1.092863    0.091174   -2.930572
  H      2.702728    0.668071   -2.395911
  H      3.005004   -1.323656    0.082384
  H      0.808000   -2.993135   -0.677250
  H      1.170273   -2.620493    1.005649
  H     -1.182416   -1.588356    0.704756

 Total Charge           Charge          ....    0
 Multiplicity           Mult            ....    1
 Number of Electrons    NEL             ....   66
 Basis Dimension        Dim             ....  333

ORBITAL ENERGIES
----------------

  NO   OCC          E(Eh)            E(eV)
   0   2.0000     -20.547559      -559.1275
   1   2.0000     -15.559638      -423.3993
   2   2.0000     -11.280899      -306.9689
   3   2.0000     -11.278037      -306.8910
   4   2.0000     -11.273145      -306.7579
   5   2.0000     -11.262743      -306.4748
   6   2.0000     -11.234793      -305.7143
   7   2.0000     -11.230882      -305.6078
   8   2.0000     -11.229994      -305.5837
   9   2.0000      -1.379463       -37.5371
  10   2.0000      -1.246798       -33.9271
  11   2.0000      -1.094716       -29.7887
  12   2.0000      -0.972701       -26.4685
  13   2.0000      -0.970060       -26.3967
  14   2.0000      -0.904241       -24.6056
  15   2.0000      -0.871071       -23.7030
  16   2.0000      -0.781472       -21.2649
  17   2.0000      -0.707892       -19.2627
  18   2.0000      -0.693461       -18.8700
  19   2.0000      -0.654992       -17.8232
  20   2.0000      -0.628896       -17.1131
  21   2.0000      -0.611314       -16.6347
  22   2.0000      -0.595269       -16.1981
  23   2.0000      -0.580393       -15.7933
  24   2.0000      -0.545354       -14.8398
  25   2.0000      -0.532452       -14.4887
  26   2.0000      -0.507989       -13.8231
  27   2.0000      -0.493246       -13.4219
  28   2.0000      -0.478731       -13.0269
  29   2.0000      -0.434545       -11.8246
  30   2.0000      -0.412367       -11.2211
  31   2.0000      -0.396795       -10.7974
  32   2.0000      -0.338583        -9.2133
  33   0.0000       0.132021         3.5925
  34   0.0000       0.136029         3.7015
  35   0.0000       0.157133         4.2758
  36   0.0000       0.166147         4.5211
  37   0.0000       0.190072         5.1721

MULLIKEN ATOMIC CHARGES
-----------------------
   0 C :   -0.129857
   1 N :   -0.291927
   2 C :    0.055669
   3 C :   -0.032759
   4 O :   -0.334650
   5 C :    0.074580
   6 C :   -0.172916
   7 C :   -0.231836
   8 C :   -0.059581
   9 H :    0.118268
  10 H :    0.127236
  11 H :    0.204350
  12 H :    0.103842
  13 H :    0.088773
  14 H :    0.104399
  15 H :    0.130319
  16 H :    0.115671
  17 H :    0.130420
Sum of atomic charges:   -0.0000000

LOEWDIN ATOMIC CHARGES
----------------------
   0 C :   -0.215178
   1 N :    0.021889
   2 C :   -0.243016
   3 C :   -0.240333
   4 O :    0.137883
   5 C :   -0.199786
   6 C :   -0.212967
   7 C :   -0.118965
   8 C :   -0.136701
   9 H :    0.126698
  10 H :    0.126517
  11 H :    0.157130
  12 H :    0.120457
  13 H :    0.119404
  14 H :    0.132313
  15 H :    0.147255
  16 H :    0.139892
  17 H :    0.137508

  Mayer bond orders larger than 0.1
B(  0-C ,  1-N ) :   0.9644 B(  0-C ,  8-C ) :   0.9048 B(  0-C ,  9-H ) :   0.9110
B(  0-C , 10-H ) :   0.9171 B(  1-N ,  2-C ) :   1.0473 B(  1-N , 11-H ) :   0.8707
B(  2-C ,  3-C ) :   0.9695 B(  2-C ,  5-C ) :   0.9350 B(  2-C ,  8-C ) :   0.9113
B(  3-C ,  4-O ) :   0.9625 B(  3-C , 12-H ) :   0.9057 B(  3-C , 13-H ) :   0.9011
B(  4-O ,  5-C ) :   0.9813 B(  5-C ,  6-C ) :   0.9434 B(  5-C , 14-H ) :   0.9109
B(  6-C ,  7-C ) :   0.9469 B(  6-C , 15-H ) :   0.8996 B(  6-C , 16-H ) :   0.9072
B(  7-C ,  8-C ) :   1.7716 B(  7-C , 17-H ) :   0.9228

MP2 TOTAL ENERGY:     -401.189712926 Eh
FINAL SINGLE POINT ENERGY      -401.189712926112

DIPOLE MOMENT
-------------
                                X             Y             Z
Electronic contribution:      1.00987      -0.52325      -0.78440
Nuclear contribution   :     -1.42787       1.06748       0.90015
                        -----------------------------------------
Total Dipole Moment    :     -0.41800       0.54423       0.11575
                        -----------------------------------------
Magnitude (a.u.)       :      0.69592
Magnitude (Debye)      :      1.76890

                             ****ORCA TERMINATED NORMALLY****
TOTAL RUN TIME: 0 days 0 hours 19 minutes 9 seconds 967 msec
