                         Program Version 3.0.3 - RELEASE   -
|  1> ! RI-MP2 RIJK def2-TZVP def2-TZVP/C def2-TZVP/JK TIGHTSCF
|  2> % maxcore 2000
|  3> % mp2 density relaxed end
|  4> *xyz 0 1
|  5>  C       -0.2643114999     1.3662652514     0.0738330286
|  6>  C        0.0712028121    -0.1243381497    -0.1336111691
|  7>  C        0.9036062923    -0.3068730633    -1.3295895692
|  8>  N        1.5694918448    -0.4434440889    -2.2646440596
|  9>  C        0.7704150746    -0.7181227583     1.0874092981
| 10>  C        0.0602714170    -1.1864085898     2.3290195229
| 11>  C       -1.2548343327    -1.9079741097     2.0034231492
| 12>  C       -0.4676651041    -2.9108934056     1.0989323278
| 13>  C        0.8357777800    -2.1759303705     1.4395884778
| 14>  H        0.6459394743     1.9486178578     0.2427049772
| 15>  H       -0.7784924186     1.7815050179    -0.7964480704
| 16>  H       -0.9098166819     1.4747125405     0.9494533604
| 17>  H       -0.8634752046    -0.6646025417    -0.3182555205
| 18>  H        1.7001966579    -0.2002496920     1.3147153566
| 19>  H        0.3254055436    -0.7927439943     3.3032669946
| 20>  H       -1.6848760911    -2.3997392944     2.8780264388
| 21>  H       -2.0424247387    -1.3101920110     1.5318385212
| 22>  H       -0.4903567529    -3.9250303393     1.5018349480
| 23>  H       -0.7393007062    -2.9602972018     0.0395739783
| 24>  H        1.7876741641    -2.6583049072     1.6261029293
| 25> *
| 26>
| 27>                          ****END OF INPUT****

CARTESIAN COORDINATES (ANGSTROEM)
---------------------------------
  C     -0.264311    1.366265    0.073833
  C      0.071203   -0.124338   -0.133611
  C      0.903606   -0.306873   -1.329590
  N      1.569492   -0.443444   -2.264644
  C      0.770415   -0.718123    1.087409
  C      0.060271   -1.186409    2.329020
  C     -1.254834   -1.907974    2.003423
  C     -0.467665   -2.910893    1.098932
  C      0.835778   -2.175930    1.439588
  H      0.645939    1.948618    0.242705
  H     -0.778492    1.781505   -0.796448
  H     -0.909817    1.474713    0.949453
  H     -0.863475   -0.664603   -0.318256
  H      1.700197   -0.200250    1.314715
  H      0.325406   -0.792744    3.303267
  H     -1.684876   -2.399739    2.878026
  H     -2.042425   -1.310192    1.531839
  H     -0.490357   -3.925030    1.501835
  H     -0.739301   -2.960297    0.039574
  H      1.787674   -2.658305    1.626103

 Total Charge           Charge          ....    0
 Multiplicity           Mult            ....    1
 Number of Electrons    NEL             ....   66
 Basis Dimension        Dim             ....  345

ORBITAL ENERGIES
----------------

  NO   OCC          E(Eh)            E(eV)
   0   2.0000     -15.561470      -423.4491
   1   2.0000     -11.283702      -307.0452
   2   2.0000     -11.264649      -306.5267
   3   2.0000     -11.254141      -306.2408
   4   2.0000     -11.246388      -306.0298
   5   2.0000     -11.244745      -305.9851
   6   2.0000     -11.241231      -305.8895
   7   2.0000     -11.239240      -305.8353
   8   2.0000     -11.237103      -305.7771
   9   2.0000      -1.217252       -33.1231
  10   2.0000      -1.201821       -32.7032
  11   2.0000      -1.085893       -29.5487
  12   2.0000      -0.993555       -27.0360
  13   2.0000      -0.912757       -24.8374
  14   2.0000      -0.902021       -24.5452
  15   2.0000      -0.792443       -21.5635
  16   2.0000      -0.746224       -20.3058
  17   2.0000      -0.722965       -19.6729
  18   2.0000      -0.677604       -18.4385
  19   2.0000      -0.650324       -17.6962
  20   2.0000      -0.611889       -16.6504
  21   2.0000      -0.586308       -15.9542
  22   2.0000      -0.564684       -15.3658
  23   2.0000      -0.556940       -15.1551
  24   2.0000      -0.539243       -14.6735
  25   2.0000      -0.529548       -14.4097
  26   2.0000      -0.528847       -14.3906
  27   2.0000      -0.486027       -13.2255
  28   2.0000      -0.477344       -12.9892
  29   2.0000      -0.453616       -12.3435
  30   2.0000      -0.450080       -12.2473
  31   2.0000      -0.417450       -11.3594
  32   2.0000      -0.387689       -10.5495
  33   0.0000       0.122340         3.3291
  34   0.0000       0.145077         3.9477
  35   0.0000       0.146483         3.9860
  36   0.0000       0.155639         4.2351
  37   0.0000       0.180929         4.9233

MULLIKEN ATOMIC CHARGES
-----------------------
   0 C :   -0.394502
   1 C :    0.040394
   2 C :   -0.209467
   3 N :   -0.056538
   4 C :   -0.120554
   5 C :   -0.115071
   6 C :   -0.258028
   7 C :   -0.255397
   8 C :   -0.112355
   9 H :    0.139281
  10 H :    0.151433
  11 H :    0.145276
  12 H :    0.133990
  13 H :    0.132820
  14 H :    0.136720
  15 H :    0.128363
  16 H :    0.119292
  17 H :    0.128220
  18 H :    0.127444
  19 H :    0.138678
Sum of atomic charges:    0.0000000

LOEWDIN ATOMIC CHARGES
----------------------
   0 C :   -0.260474
   1 C :   -0.246100
   2 C :   -0.165967
   3 N :    0.056614
   4 C :   -0.168087
   5 C :   -0.160694
   6 C :   -0.218957
   7 C :   -0.215477
   8 C :   -0.155773
   9 H :    0.130826
  10 H :    0.130123
  11 H :    0.130056
  12 H :    0.179066
  13 H :    0.166839
  14 H :    0.135532
  15 H :    0.136698
  16 H :    0.124031
  17 H :    0.136818
  18 H :    0.127362
  19 H :    0.137563

  Mayer bond orders larger than 0.1
B(  0-C ,  1-C ) :   0.9025 B(  0-C ,  9-H ) :   0.9309 B(  0-C , 10-H ) :   0.9346
B(  0-C , 11-H ) :   0.9360 B(  1-C ,  2-C ) :   0.9363 B(  1-C ,  4-C ) :   0.8759
B(  1-C , 12-H ) :   0.9103 B(  2-C ,  3-N ) :   2.8911 B(  4-C ,  5-C ) :   0.8904
B(  4-C ,  8-C ) :   0.8976 B(  4-C , 13-H ) :   0.9183 B(  5-C ,  6-C ) :   0.9085
B(  5-C ,  8-C ) :   0.8173 B(  5-C , 14-H ) :   0.9214 B(  6-C ,  7-C ) :   0.9582
B(  6-C , 15-H ) :   0.9239 B(  6-C , 16-H ) :   0.9350 B(  7-C ,  8-C ) :   0.9123
B(  7-C , 17-H ) :   0.9254 B(  7-C , 18-H ) :   0.9360 B(  8-C , 19-H ) :   0.9225

MP2 TOTAL ENERGY:     -365.337024728 Eh
FINAL SINGLE POINT ENERGY      -365.337024728410

DIPOLE MOMENT
-------------
                                X             Y             Z
Electronic contribution:      4.27796      -0.35871      -4.97642
Nuclear contribution   :     -5.13336       0.40486       6.42757
                        -----------------------------------------
Total Dipole Moment    :     -0.85540       0.04615       1.45115
                        -----------------------------------------
Magnitude (a.u.)       :      1.68514
Magnitude (Debye)      :      4.28328

                             ****ORCA TERMINATED NORMALLY****
TOTAL RUN TIME: 0 days 0 hours 20 minutes 24 seconds 809 msec
