                         Program Version 3.0.3 - RELEASE   -
|  1> ! RI-MP2 RIJK def2-TZVP def2-TZVP/C def2-TZVP/JK TIGHTSCF
|  2> % maxcore 2000
|  3> % mp2 density relaxed end
|  4> *xyz 0 1
|  5>  O       -0.4414820474     0.7913865779     0.9135712197
|  6>  C        0.0815539205     1.0695046628    -0.1338541923
|  7>  C        1.4372292581     1.7506602947    -0.2658390808
|  8>  C        1.3885134121     2.8815077910    -1.2463616799
|  9>  C        1.3644407884     4.2310202766    -0.9994159152
| 10>  N        1.2790254628     4.8279248612    -2.2378836785
| 11>  C        1.2497281124     3.8316498466    -3.1656131213
| 12>  N        1.3125515948     2.6467808542    -2.6043147042
| 13>  H       -0.4040418615     0.8434957108    -1.1083910223
| 14>  H        1.7605886802     2.0766616651     0.7255029427
| 15>  H        2.1437793760     0.9922190086    -0.6298033697
| 16>  H        1.4027230167     4.8047827552    -0.0885850460
| 17>  H        1.2552911396     5.8171607869    -2.4199367154
| 18>  H        1.1867950273     4.0304720785    -4.2249822867
| 19> *
| 20>
| 21>                          ****END OF INPUT****

CARTESIAN COORDINATES (ANGSTROEM)
---------------------------------
  O     -0.441482    0.791387    0.913571
  C      0.081554    1.069505   -0.133854
  C      1.437229    1.750660   -0.265839
  C      1.388513    2.881508   -1.246362
  C      1.364441    4.231020   -0.999416
  N      1.279025    4.827925   -2.237884
  C      1.249728    3.831650   -3.165613
  N      1.312552    2.646781   -2.604315
  H     -0.404042    0.843496   -1.108391
  H      1.760589    2.076662    0.725503
  H      2.143779    0.992219   -0.629803
  H      1.402723    4.804783   -0.088585
  H      1.255291    5.817161   -2.419937
  H      1.186795    4.030472   -4.224982

 Total Charge           Charge          ....    0
 Multiplicity           Mult            ....    1
 Number of Electrons    NEL             ....   58
 Basis Dimension        Dim             ....  284

ORBITAL ENERGIES
----------------

  NO   OCC          E(Eh)            E(eV)
   0   2.0000     -20.549233      -559.1731
   1   2.0000     -15.631362      -425.3510
   2   2.0000     -15.555137      -423.2768
   3   2.0000     -11.324714      -308.1611
   4   2.0000     -11.308349      -307.7158
   5   2.0000     -11.269684      -306.6637
   6   2.0000     -11.263249      -306.4886
   7   2.0000     -11.242747      -305.9307
   8   2.0000      -1.388675       -37.7878
   9   2.0000      -1.352820       -36.8121
  10   2.0000      -1.182180       -32.1687
  11   2.0000      -1.062718       -28.9180
  12   2.0000      -0.980275       -26.6746
  13   2.0000      -0.840701       -22.8766
  14   2.0000      -0.812072       -22.0976
  15   2.0000      -0.783279       -21.3141
  16   2.0000      -0.751940       -20.4613
  17   2.0000      -0.664752       -18.0888
  18   2.0000      -0.632306       -17.2059
  19   2.0000      -0.625871       -17.0308
  20   2.0000      -0.612143       -16.6572
  21   2.0000      -0.601864       -16.3776
  22   2.0000      -0.583825       -15.8867
  23   2.0000      -0.541007       -14.7216
  24   2.0000      -0.501490       -13.6462
  25   2.0000      -0.451946       -12.2981
  26   2.0000      -0.424233       -11.5440
  27   2.0000      -0.405304       -11.0289
  28   2.0000      -0.326905        -8.8955
  29   0.0000       0.117842         3.2066
  30   0.0000       0.138995         3.7822
  31   0.0000       0.148346         4.0367
  32   0.0000       0.157691         4.2910
  33   0.0000       0.176973         4.8157

MULLIKEN ATOMIC CHARGES
-----------------------
   0 O :   -0.270566
   1 C :    0.090584
   2 C :   -0.173557
   3 C :    0.058686
   4 C :   -0.115017
   5 N :   -0.252500
   6 C :    0.053218
   7 N :   -0.320402
   8 H :    0.094079
   9 H :    0.126529
  10 H :    0.141700
  11 H :    0.158512
  12 H :    0.254155
  13 H :    0.154577
Sum of atomic charges:    0.0000000

LOEWDIN ATOMIC CHARGES
----------------------
   0 O :    0.127393
   1 C :   -0.283018
   2 C :   -0.226651
   3 C :   -0.270624
   4 C :   -0.213562
   5 N :    0.177707
   6 C :   -0.313315
   7 N :    0.106609
   8 H :    0.115672
   9 H :    0.151358
  10 H :    0.163555
  11 H :    0.138552
  12 H :    0.195002
  13 H :    0.131322

  Mayer bond orders larger than 0.1
B(  0-O ,  1-C ) :   1.9879 B(  1-C ,  2-C ) :   0.8870 B(  1-C ,  8-H ) :   0.9314
B(  2-C ,  3-C ) :   0.8584 B(  2-C ,  9-H ) :   0.9202 B(  2-C , 10-H ) :   0.9159
B(  3-C ,  4-C ) :   1.5197 B(  3-C ,  7-N ) :   1.2389 B(  4-C ,  5-N ) :   1.1360
B(  4-C , 11-H ) :   0.8997 B(  5-N ,  6-C ) :   1.1691 B(  5-N , 12-H ) :   0.8683
B(  6-C ,  7-N ) :   1.5435 B(  6-C , 13-H ) :   0.9251

MP2 TOTAL ENERGY:     -378.129541809 Eh
FINAL SINGLE POINT ENERGY      -378.129541809462

DIPOLE MOMENT
-------------
                                X             Y             Z
Electronic contribution:     -1.05172      -0.18074      -0.10226
Nuclear contribution   :      1.61144       1.99210      -0.56270
                        -----------------------------------------
Total Dipole Moment    :      0.55972       1.81136      -0.66495
                        -----------------------------------------
Magnitude (a.u.)       :      2.00910
Magnitude (Debye)      :      5.10673

                             ****ORCA TERMINATED NORMALLY****
TOTAL RUN TIME: 0 days 0 hours 10 minutes 7 seconds 354 msec
