                         Program Version 3.0.3 - RELEASE   -
|  1> ! RI-MP2 RIJK def2-TZVP def2-TZVP/C def2-TZVP/JK TIGHTSCF
|  2> % maxcore 2000
|  3> % mp2 density relaxed end
|  4> *xyz 0 1
|  5>  O       -0.1488804585     1.3790216545     0.0229815570
|  6>  C        0.0681491507    -0.0184045811    -0.0502025890
|  7>  C        0.8347490154    -0.3794396988    -1.2638109363
|  8>  N        1.4680091347    -0.6462245109    -2.1931158600
|  9>  C        0.7438831911    -0.5833353192     1.1986750783
| 10>  C       -0.0247726190    -0.4599107549     2.5421640162
| 11>  C        0.4559610714    -1.8931860912     2.8998846343
| 12>  C        0.7831384358    -2.1245086315     1.3985274332
| 13>  H        0.7093436782     1.8136382740     0.0900450717
| 14>  H       -0.9316600196    -0.4584206277    -0.1447002486
| 15>  H        1.7512394814    -0.1581514119     1.2801955015
| 16>  H        0.2532912004     0.3576560396     3.2096955371
| 17>  H       -1.1059780290    -0.4182657052     2.3777507162
| 18>  H        1.3602828410    -1.8777289980     3.5141490734
| 19>  H       -0.2669491313    -2.5654697554     3.3660915687
| 20>  H       -0.0427089153    -2.6161520486     0.8739389114
| 21>  H        1.7097299925    -2.6420774037     1.1448937049
| 22> *
| 23>
| 24>                          ****END OF INPUT****

CARTESIAN COORDINATES (ANGSTROEM)
---------------------------------
  O     -0.148880    1.379022    0.022982
  C      0.068149   -0.018405   -0.050203
  C      0.834749   -0.379440   -1.263811
  N      1.468009   -0.646225   -2.193116
  C      0.743883   -0.583335    1.198675
  C     -0.024773   -0.459911    2.542164
  C      0.455961   -1.893186    2.899885
  C      0.783138   -2.124509    1.398527
  H      0.709344    1.813638    0.090045
  H     -0.931660   -0.458421   -0.144700
  H      1.751239   -0.158151    1.280196
  H      0.253291    0.357656    3.209696
  H     -1.105978   -0.418266    2.377751
  H      1.360283   -1.877729    3.514149
  H     -0.266949   -2.565470    3.366092
  H     -0.042709   -2.616152    0.873939
  H      1.709730   -2.642077    1.144894

 Total Charge           Charge          ....    0
 Multiplicity           Mult            ....    1
 Number of Electrons    NEL             ....   60
 Basis Dimension        Dim             ....  302

ORBITAL ENERGIES
----------------

  NO   OCC          E(Eh)            E(eV)
   0   2.0000     -20.590595      -560.2986
   1   2.0000     -15.578343      -423.9083
   2   2.0000     -11.339936      -308.5754
   3   2.0000     -11.275414      -306.8196
   4   2.0000     -11.256225      -306.2975
   5   2.0000     -11.240189      -305.8611
   6   2.0000     -11.238740      -305.8217
   7   2.0000     -11.236565      -305.7625
   8   2.0000      -1.399865       -38.0923
   9   2.0000      -1.223016       -33.2799
  10   2.0000      -1.153235       -31.3811
  11   2.0000      -1.022447       -27.8222
  12   2.0000      -0.917071       -24.9548
  13   2.0000      -0.888741       -24.1839
  14   2.0000      -0.783333       -21.3156
  15   2.0000      -0.757731       -20.6189
  16   2.0000      -0.693024       -18.8581
  17   2.0000      -0.676205       -18.4005
  18   2.0000      -0.641874       -17.4663
  19   2.0000      -0.600247       -16.3336
  20   2.0000      -0.574007       -15.6195
  21   2.0000      -0.558110       -15.1869
  22   2.0000      -0.547919       -14.9096
  23   2.0000      -0.522926       -14.2295
  24   2.0000      -0.505103       -13.7445
  25   2.0000      -0.480488       -13.0748
  26   2.0000      -0.470923       -12.8145
  27   2.0000      -0.468224       -12.7410
  28   2.0000      -0.458624       -12.4798
  29   2.0000      -0.441968       -12.0266
  30   0.0000       0.115137         3.1330
  31   0.0000       0.129942         3.5359
  32   0.0000       0.143669         3.9094
  33   0.0000       0.150934         4.1071
  34   0.0000       0.179436         4.8827

MULLIKEN ATOMIC CHARGES
-----------------------
   0 O :   -0.445606
   1 C :    0.163095
   2 C :   -0.181508
   3 N :   -0.054322
   4 C :   -0.108058
   5 C :   -0.216734
   6 C :   -0.201261
   7 C :   -0.256425
   8 H :    0.325708
   9 H :    0.129941
  10 H :    0.113544
  11 H :    0.122356
  12 H :    0.116934
  13 H :    0.119105
  14 H :    0.121537
  15 H :    0.116961
  16 H :    0.134734
Sum of atomic charges:   -0.0000000

LOEWDIN ATOMIC CHARGES
----------------------
   0 O :    0.012784
   1 C :   -0.331014
   2 C :   -0.167784
   3 N :    0.068050
   4 C :   -0.217899
   5 C :   -0.214155
   6 C :   -0.238882
   7 C :   -0.211872
   8 H :    0.184391
   9 H :    0.168845
  10 H :    0.154942
  11 H :    0.126312
  12 H :    0.139272
  13 H :    0.134731
  14 H :    0.124430
  15 H :    0.138824
  16 H :    0.129027

  Mayer bond orders larger than 0.1
B(  0-O ,  1-C ) :   0.9112 B(  0-O ,  8-H ) :   0.8362 B(  1-C ,  2-C ) :   0.9261
B(  1-C ,  4-C ) :   0.9433 B(  1-C ,  9-H ) :   0.8964 B(  2-C ,  3-N ) :   2.8577
B(  4-C ,  5-C ) :   0.9275 B(  4-C ,  7-C ) :   0.9329 B(  4-C , 10-H ) :   0.8966
B(  5-C ,  6-C ) :   0.9277 B(  5-C , 11-H ) :   0.9315 B(  5-C , 12-H ) :   0.9210
B(  6-C ,  7-C ) :   0.9306 B(  6-C , 13-H ) :   0.9287 B(  6-C , 14-H ) :   0.9276
B(  7-C , 15-H ) :   0.9220 B(  7-C , 16-H ) :   0.9283

MP2 TOTAL ENERGY:     -363.241768035 Eh
FINAL SINGLE POINT ENERGY      -363.241768034688

DIPOLE MOMENT
-------------
                                X             Y             Z
Electronic contribution:      0.90520       3.33500      -8.29217
Nuclear contribution   :     -1.03523      -3.35903       9.68284
                        -----------------------------------------
Total Dipole Moment    :     -0.13003      -0.02403       1.39066
                        -----------------------------------------
Magnitude (a.u.)       :      1.39694
Magnitude (Debye)      :      3.55073

                             ****ORCA TERMINATED NORMALLY****
TOTAL RUN TIME: 0 days 0 hours 12 minutes 21 seconds 854 msec
