                         Program Version 3.0.3 - RELEASE   -
|  1> ! RI-MP2 RIJK def2-TZVP def2-TZVP/C def2-TZVP/JK TIGHTSCF
|  2> % maxcore 2000
|  3> % mp2 density relaxed end
|  4> *xyz 0 1
|  5>  O        0.2961264401    -0.0462798892     0.3790652013
|  6>  C        0.2055606638     1.1073132555     0.0528568380
|  7>  C        1.3806631779     2.0607409531    -0.0989921051
|  8>  C        1.2512135298     2.8991110450    -1.3931618026
|  9>  C        1.2623105434     2.0889682943    -2.6047699503
| 10>  C        1.2720041450     1.3909775521    -3.5830325790
| 11>  C        1.4314419592     2.9614916916     1.1275051580
| 12>  C        2.0362213527     2.4578474797     2.4120253135
| 13>  C        2.7535490054     3.5118920253     1.6064737056
| 14>  H       -0.7905686311     1.5797656503    -0.1261154630
| 15>  H        2.2875428691     1.4493594066    -0.1410940490
| 16>  H        0.3224516688     3.4848029722    -1.3498013171
| 17>  H        2.0683719110     3.6293533279    -1.4180567348
| 18>  H        1.2783726519     0.7808679796    -4.4520861964
| 19>  H        0.5742849616     3.6239243547     1.2274829051
| 20>  H        1.5708864694     2.7492289640     3.3467553109
| 21>  H        2.4440403333     1.4527941973     2.4129533285
| 22>  H        3.6482085264     3.2162822139     1.0682390445
| 23>  H        2.7791462222     4.5266892762     1.9874836919
| 24> *
| 25>
| 26>                          ****END OF INPUT****

CARTESIAN COORDINATES (ANGSTROEM)
---------------------------------
  O      0.296126   -0.046280    0.379065
  C      0.205561    1.107313    0.052857
  C      1.380663    2.060741   -0.098992
  C      1.251214    2.899111   -1.393162
  C      1.262311    2.088968   -2.604770
  C      1.272004    1.390978   -3.583033
  C      1.431442    2.961492    1.127505
  C      2.036221    2.457847    2.412025
  C      2.753549    3.511892    1.606474
  H     -0.790569    1.579766   -0.126115
  H      2.287543    1.449359   -0.141094
  H      0.322452    3.484803   -1.349801
  H      2.068372    3.629353   -1.418057
  H      1.278373    0.780868   -4.452086
  H      0.574285    3.623924    1.227483
  H      1.570886    2.749229    3.346755
  H      2.444040    1.452794    2.412953
  H      3.648209    3.216282    1.068239
  H      2.779146    4.526689    1.987484

 Total Charge           Charge          ....    0
 Multiplicity           Mult            ....    1
 Number of Electrons    NEL             ....   66
 Basis Dimension        Dim             ....  339

ORBITAL ENERGIES
----------------

  NO   OCC          E(Eh)            E(eV)
   0   2.0000     -20.555999      -559.3572
   1   2.0000     -11.330467      -308.3177
   2   2.0000     -11.268641      -306.6353
   3   2.0000     -11.257585      -306.3345
   4   2.0000     -11.251555      -306.1704
   5   2.0000     -11.240321      -305.8647
   6   2.0000     -11.239648      -305.8464
   7   2.0000     -11.236411      -305.7583
   8   2.0000     -11.228902      -305.5539
   9   2.0000      -1.395478       -37.9729
  10   2.0000      -1.167484       -31.7688
  11   2.0000      -1.097473       -29.8638
  12   2.0000      -1.019884       -27.7525
  13   2.0000      -0.929862       -25.3028
  14   2.0000      -0.836857       -22.7720
  15   2.0000      -0.826019       -22.4771
  16   2.0000      -0.787735       -21.4354
  17   2.0000      -0.728908       -19.8346
  18   2.0000      -0.681370       -18.5410
  19   2.0000      -0.673152       -18.3174
  20   2.0000      -0.647794       -17.6274
  21   2.0000      -0.641369       -17.4525
  22   2.0000      -0.616779       -16.7834
  23   2.0000      -0.586681       -15.9644
  24   2.0000      -0.555344       -15.1117
  25   2.0000      -0.528159       -14.3719
  26   2.0000      -0.525749       -14.3064
  27   2.0000      -0.496586       -13.5128
  28   2.0000      -0.451111       -12.2754
  29   2.0000      -0.436051       -11.8656
  30   2.0000      -0.406440       -11.0598
  31   2.0000      -0.393814       -10.7162
  32   2.0000      -0.388226       -10.5642
  33   0.0000       0.129028         3.5110
  34   0.0000       0.130127         3.5409
  35   0.0000       0.147115         4.0032
  36   0.0000       0.157797         4.2939
  37   0.0000       0.164610         4.4793

MULLIKEN ATOMIC CHARGES
-----------------------
   0 O :   -0.254894
   1 C :    0.090684
   2 C :    0.012014
   3 C :   -0.425727
   4 C :   -0.004403
   5 C :   -0.115044
   6 C :   -0.140546
   7 C :   -0.255691
   8 C :   -0.260079
   9 H :    0.070073
  10 H :    0.103898
  11 H :    0.150381
  12 H :    0.159302
  13 H :    0.193816
  14 H :    0.124397
  15 H :    0.135071
  16 H :    0.146526
  17 H :    0.135530
  18 H :    0.134691
Sum of atomic charges:    0.0000000

LOEWDIN ATOMIC CHARGES
----------------------
   0 O :    0.143432
   1 C :   -0.262476
   2 C :   -0.227692
   3 C :   -0.221856
   4 C :   -0.111687
   5 C :   -0.095576
   6 C :   -0.208678
   7 C :   -0.217795
   8 C :   -0.222958
   9 H :    0.113772
  10 H :    0.168181
  11 H :    0.160588
  12 H :    0.163698
  13 H :    0.127760
  14 H :    0.151233
  15 H :    0.133389
  16 H :    0.139261
  17 H :    0.134981
  18 H :    0.132421

  Mayer bond orders larger than 0.1
B(  0-O ,  1-C ) :   2.0034 B(  1-C ,  2-C ) :   0.8519 B(  1-C ,  9-H ) :   0.9318
B(  2-C ,  3-C ) :   0.8856 B(  2-C ,  6-C ) :   0.9082 B(  2-C , 10-H ) :   0.9015
B(  3-C ,  4-C ) :   1.0990 B(  3-C ,  5-C ) :  -0.1141 B(  3-C , 11-H ) :   0.9182
B(  3-C , 12-H ) :   0.9253 B(  4-C ,  5-C ) :   2.6238 B(  5-C , 13-H ) :   0.8923
B(  6-C ,  7-C ) :   0.8916 B(  6-C ,  8-C ) :   0.8896 B(  6-C , 14-H ) :   0.9069
B(  7-C ,  8-C ) :   0.9088 B(  7-C , 15-H ) :   0.9314 B(  7-C , 16-H ) :   0.9251
B(  8-C , 17-H ) :   0.9265 B(  8-C , 18-H ) :   0.9289

MP2 TOTAL ENERGY:     -385.160603057 Eh
FINAL SINGLE POINT ENERGY      -385.160603057047

DIPOLE MOMENT
-------------
                                X             Y             Z
Electronic contribution:     -2.67684      -4.70411      -3.98928
Nuclear contribution   :      2.85760       5.78649       4.03086
                        -----------------------------------------
Total Dipole Moment    :      0.18076       1.08238       0.04158
                        -----------------------------------------
Magnitude (a.u.)       :      1.09816
Magnitude (Debye)      :      2.79129

                             ****ORCA TERMINATED NORMALLY****
TOTAL RUN TIME: 0 days 0 hours 17 minutes 37 seconds 718 msec
