                         Program Version 3.0.3 - RELEASE   -
|  1> ! RI-MP2 RIJK def2-TZVP def2-TZVP/C def2-TZVP/JK TIGHTSCF
|  2> % maxcore 2000
|  3> % mp2 density relaxed end
|  4> *xyz 0 1
|  5>  O        0.0967191574     1.3832407497    -0.1481480623
|  6>  C       -0.0171775363     0.0045949940    -0.0771015551
|  7>  C       -0.4815244779    -0.7544609365    -1.2961924587
|  8>  C       -1.3288715025    -0.7693462767    -0.0453041500
|  9>  C       -1.1254093478    -1.9660014158     0.8853051491
| 10>  N       -0.1090410545    -2.9162255542     0.4131640391
| 11>  C        0.2524990929    -1.9194223704     1.4567144942
| 12>  C        0.8744813665    -0.6419724768     0.9523607551
| 13>  O        1.8015144773    -0.0520092459     1.4612330192
| 14>  H        0.8456096646     1.6045518156     0.4260000947
| 15>  H       -0.8202346411    -0.0974744132    -2.0903278390
| 16>  H        0.0119270579    -1.6656448685    -1.6060714098
| 17>  H       -2.2817599022    -0.2551657687    -0.0332547401
| 18>  H       -1.9639721999    -2.3312421545     1.4671623296
| 19>  H       -0.2356732588    -3.8158047982     0.8716945682
| 20>  H        0.5180356144    -2.2516885400     2.4531456256
| 21> *
| 22>
| 23>                          ****END OF INPUT****

CARTESIAN COORDINATES (ANGSTROEM)
---------------------------------
  O      0.096719    1.383241   -0.148148
  C     -0.017178    0.004595   -0.077102
  C     -0.481524   -0.754461   -1.296192
  C     -1.328872   -0.769346   -0.045304
  C     -1.125409   -1.966001    0.885305
  N     -0.109041   -2.916226    0.413164
  C      0.252499   -1.919422    1.456714
  C      0.874481   -0.641972    0.952361
  O      1.801514   -0.052009    1.461233
  H      0.845610    1.604552    0.426000
  H     -0.820235   -0.097474   -2.090328
  H      0.011927   -1.665645   -1.606071
  H     -2.281760   -0.255166   -0.033255
  H     -1.963972   -2.331242    1.467162
  H     -0.235673   -3.815805    0.871695
  H      0.518036   -2.251689    2.453146

 Total Charge           Charge          ....    0
 Multiplicity           Mult            ....    1
 Number of Electrons    NEL             ....   66
 Basis Dimension        Dim             ....  321

ORBITAL ENERGIES
----------------

  NO   OCC          E(Eh)            E(eV)
   0   2.0000     -20.566159      -559.6336
   1   2.0000     -20.564845      -559.5979
   2   2.0000     -15.590484      -424.2387
   3   2.0000     -11.346101      -308.7431
   4   2.0000     -11.301218      -307.5218
   5   2.0000     -11.292924      -307.2961
   6   2.0000     -11.284564      -307.0686
   7   2.0000     -11.252929      -306.2078
   8   2.0000     -11.238885      -305.8256
   9   2.0000      -1.415902       -38.5286
  10   2.0000      -1.373048       -37.3625
  11   2.0000      -1.300328       -35.3837
  12   2.0000      -1.151498       -31.3339
  13   2.0000      -0.978040       -26.6138
  14   2.0000      -0.925369       -25.1806
  15   2.0000      -0.854744       -23.2588
  16   2.0000      -0.791917       -21.5492
  17   2.0000      -0.770664       -20.9708
  18   2.0000      -0.735004       -20.0005
  19   2.0000      -0.698195       -18.9988
  20   2.0000      -0.661987       -18.0136
  21   2.0000      -0.643124       -17.5003
  22   2.0000      -0.610598       -16.6152
  23   2.0000      -0.598684       -16.2910
  24   2.0000      -0.568232       -15.4624
  25   2.0000      -0.552210       -15.0264
  26   2.0000      -0.523724       -14.2513
  27   2.0000      -0.521515       -14.1912
  28   2.0000      -0.502655       -13.6779
  29   2.0000      -0.463332       -12.6079
  30   2.0000      -0.443076       -12.0567
  31   2.0000      -0.399698       -10.8763
  32   2.0000      -0.371736       -10.1154
  33   0.0000       0.108364         2.9487
  34   0.0000       0.130157         3.5417
  35   0.0000       0.164320         4.4714
  36   0.0000       0.171943         4.6788
  37   0.0000       0.178131         4.8472

MULLIKEN ATOMIC CHARGES
-----------------------
   0 O :   -0.455075
   1 C :    0.194888
   2 C :   -0.315681
   3 C :   -0.076941
   4 C :   -0.097834
   5 N :   -0.371981
   6 C :   -0.057289
   7 C :    0.163553
   8 O :   -0.299600
   9 H :    0.338188
  10 H :    0.139839
  11 H :    0.171552
  12 H :    0.149260
  13 H :    0.144776
  14 H :    0.225698
  15 H :    0.146648
Sum of atomic charges:   -0.0000000

LOEWDIN ATOMIC CHARGES
----------------------
   0 O :    0.035308
   1 C :   -0.310273
   2 C :   -0.165650
   3 C :   -0.150417
   4 C :   -0.211095
   5 N :    0.020617
   6 C :   -0.198137
   7 C :   -0.266625
   8 O :    0.151778
   9 H :    0.193092
  10 H :    0.147352
  11 H :    0.142654
  12 H :    0.151267
  13 H :    0.140803
  14 H :    0.174583
  15 H :    0.144742

  Mayer bond orders larger than 0.1
B(  0-O ,  1-C ) :   1.1210 B(  0-O ,  9-H ) :   0.8055 B(  1-C ,  2-C ) :   0.8724
B(  1-C ,  3-C ) :   0.7965 B(  1-C ,  7-C ) :   0.9478 B(  2-C ,  3-C ) :   0.8711
B(  2-C , 10-H ) :   0.9236 B(  2-C , 11-H ) :   0.8849 B(  3-C ,  4-C ) :   0.8738
B(  3-C , 12-H ) :   0.9041 B(  4-C ,  5-N ) :   0.9300 B(  4-C ,  6-C ) :   0.9015
B(  4-C , 13-H ) :   0.9145 B(  5-N ,  6-C ) :   0.9139 B(  5-N , 14-H ) :   0.8674
B(  6-C ,  7-C ) :   0.9218 B(  6-C , 15-H ) :   0.9197 B(  7-C ,  8-O ) :   1.9020

MP2 TOTAL ENERGY:     -437.137162648 Eh
FINAL SINGLE POINT ENERGY      -437.137162648293

DIPOLE MOMENT
-------------
                                X             Y             Z
Electronic contribution:      2.95071       1.95814       1.71556
Nuclear contribution   :     -3.81168      -2.93170      -1.26378
                        -----------------------------------------
Total Dipole Moment    :     -0.86097      -0.97357       0.45178
                        -----------------------------------------
Magnitude (a.u.)       :      1.37594
Magnitude (Debye)      :      3.49735

                             ****ORCA TERMINATED NORMALLY****
TOTAL RUN TIME: 0 days 0 hours 15 minutes 44 seconds 591 msec
