                         Program Version 3.0.3 - RELEASE   -
|  1> ! RI-MP2 RIJK def2-TZVP def2-TZVP/C def2-TZVP/JK TIGHTSCF
|  2> % maxcore 2000
|  3> % mp2 density relaxed end
|  4> *xyz 0 1
|  5>  C       -0.0581644673     1.4771960206     0.0563797388
|  6>  C        0.0346812357    -0.0486411964    -0.0303610638
|  7>  C        0.7500693194    -0.5014247284    -1.2929354801
|  8>  O        0.7872317965    -1.9376785328    -1.2839309500
|  9>  C        1.4005052044    -2.5042063578    -2.3510869554
| 10>  N        1.4238460471    -3.8647970349    -2.2051308128
| 11>  O        1.8820376380    -1.8930985174    -3.2760965072
| 12>  H        0.9357822251     1.9374807670     0.0642830405
| 13>  H       -0.6085755029     1.8925723074    -0.7947533263
| 14>  H       -0.5748781965     1.7863600378     0.9692217552
| 15>  H        0.5674613639    -0.4460687071     0.8412320139
| 16>  H       -0.9683029766    -0.4907094300    -0.0125095074
| 17>  H        0.2325287742    -0.1587659830    -2.1956593361
| 18>  H        1.7738600119    -0.1143292038    -1.3379596680
| 19>  H        0.8054706567    -4.2877245905    -1.5339133545
| 20>  H        1.6526824204    -4.3917004305    -3.0302645067
| 21> *
| 22>
| 23>                          ****END OF INPUT****

CARTESIAN COORDINATES (ANGSTROEM)
---------------------------------
  C     -0.058164    1.477196    0.056380
  C      0.034681   -0.048641   -0.030361
  C      0.750069   -0.501425   -1.292935
  O      0.787232   -1.937679   -1.283931
  C      1.400505   -2.504206   -2.351087
  N      1.423846   -3.864797   -2.205131
  O      1.882038   -1.893099   -3.276097
  H      0.935782    1.937481    0.064283
  H     -0.608576    1.892572   -0.794753
  H     -0.574878    1.786360    0.969222
  H      0.567461   -0.446069    0.841232
  H     -0.968303   -0.490709   -0.012510
  H      0.232529   -0.158766   -2.195659
  H      1.773860   -0.114329   -1.337960
  H      0.805471   -4.287725   -1.533913
  H      1.652682   -4.391700   -3.030265

 Total Charge           Charge          ....    0
 Multiplicity           Mult            ....    1
 Number of Electrons    NEL             ....   56
 Basis Dimension        Dim             ....  271

ORBITAL ENERGIES
----------------

  NO   OCC          E(Eh)            E(eV)
   0   2.0000     -20.596307      -560.4540
   1   2.0000     -20.523210      -558.4649
   2   2.0000     -15.583426      -424.0466
   3   2.0000     -11.398994      -310.1824
   4   2.0000     -11.283234      -307.0324
   5   2.0000     -11.228349      -305.5389
   6   2.0000     -11.221918      -305.3639
   7   2.0000      -1.459225       -39.7075
   8   2.0000      -1.353133       -36.8206
   9   2.0000      -1.215046       -33.0631
  10   2.0000      -1.064490       -28.9662
  11   2.0000      -0.943878       -25.6842
  12   2.0000      -0.829845       -22.5812
  13   2.0000      -0.798002       -21.7148
  14   2.0000      -0.743702       -20.2372
  15   2.0000      -0.700503       -19.0616
  16   2.0000      -0.686076       -18.6691
  17   2.0000      -0.642201       -17.4752
  18   2.0000      -0.618219       -16.8226
  19   2.0000      -0.601937       -16.3795
  20   2.0000      -0.554949       -15.1009
  21   2.0000      -0.546021       -14.8580
  22   2.0000      -0.516764       -14.0619
  23   2.0000      -0.490910       -13.3583
  24   2.0000      -0.487928       -13.2772
  25   2.0000      -0.459468       -12.5028
  26   2.0000      -0.455227       -12.3874
  27   2.0000      -0.428450       -11.6587
  28   0.0000       0.132528         3.6063
  29   0.0000       0.138151         3.7593
  30   0.0000       0.178940         4.8692
  31   0.0000       0.182410         4.9636
  32   0.0000       0.191865         5.2209

MULLIKEN ATOMIC CHARGES
-----------------------
   0 C :   -0.408971
   1 C :   -0.160320
   2 C :   -0.063121
   3 O :   -0.284757
   4 C :    0.415814
   5 N :   -0.511929
   6 O :   -0.378457
   7 H :    0.127688
   8 H :    0.127059
   9 H :    0.139068
  10 H :    0.113975
  11 H :    0.111670
  12 H :    0.118346
  13 H :    0.119445
  14 H :    0.266259
  15 H :    0.268233
Sum of atomic charges:    0.0000000

LOEWDIN ATOMIC CHARGES
----------------------
   0 C :   -0.316564
   1 C :   -0.297060
   2 C :   -0.282936
   3 O :    0.224905
   4 C :   -0.615346
   5 N :   -0.039477
   6 O :    0.073892
   7 H :    0.122348
   8 H :    0.122147
   9 H :    0.123373
  10 H :    0.137601
  11 H :    0.136967
  12 H :    0.129476
  13 H :    0.130060
  14 H :    0.173779
  15 H :    0.176834

  Mayer bond orders larger than 0.1
B(  0-C ,  1-C ) :   0.9203 B(  0-C ,  7-H ) :   0.9366 B(  0-C ,  8-H ) :   0.9365
B(  0-C ,  9-H ) :   0.9394 B(  1-C ,  2-C ) :   0.9342 B(  1-C , 10-H ) :   0.9272
B(  1-C , 11-H ) :   0.9271 B(  2-C ,  3-O ) :   0.8477 B(  2-C , 12-H ) :   0.9359
B(  2-C , 13-H ) :   0.9355 B(  3-O ,  4-C ) :   1.0843 B(  4-C ,  5-N ) :   1.1537
B(  4-C ,  6-O ) :   1.9296 B(  5-N , 14-H ) :   0.8651 B(  5-N , 15-H ) :   0.8678

MP2 TOTAL ENERGY:     -362.390610107 Eh
FINAL SINGLE POINT ENERGY      -362.390610107282

DIPOLE MOMENT
-------------
                                X             Y             Z
Electronic contribution:      3.31814      -7.73558      -5.39947
Nuclear contribution   :     -3.94053       7.31505       6.01841
                        -----------------------------------------
Total Dipole Moment    :     -0.62239      -0.42052       0.61894
                        -----------------------------------------
Magnitude (a.u.)       :      0.97330
Magnitude (Debye)      :      2.47392

                             ****ORCA TERMINATED NORMALLY****
TOTAL RUN TIME: 0 days 0 hours 6 minutes 18 seconds 78 msec
