                         Program Version 3.0.3 - RELEASE   -
|  1> ! RI-MP2 RIJK def2-TZVP def2-TZVP/C def2-TZVP/JK TIGHTSCF
|  2> % maxcore 2000
|  3> % mp2 density relaxed end
|  4> *xyz 0 1
|  5>  O        0.5470581929     0.6780325626    -0.8375681405
|  6>  C       -0.0049242950    -0.2958364270     0.0072932487
|  7>  C        0.0734857362    -0.1264643219     1.5525900619
|  8>  C       -1.4081649090    -0.5671285315     1.6797141203
|  9>  C       -2.4379340853     0.5820378413     1.8063133467
| 10>  C       -2.3742336447     0.8310055603     0.2737936625
| 11>  C       -1.5435757411    -0.4668953538     0.0864873065
| 12>  C       -1.6821675703    -1.8608306031     2.3681176668
| 13>  O       -0.8408822250    -2.6290789823     2.7676373407
| 14>  H        0.2483035251     1.5442458789    -0.5418189425
| 15>  H        0.4532143173    -1.2408039433    -0.2979077018
| 16>  H        0.7824624174    -0.7798338707     2.0624435888
| 17>  H        0.2434738465     0.9066636188     1.8733623158
| 18>  H       -3.4198306082     0.2115655025     2.1187733576
| 19>  H       -2.1544385650     1.4051654746     2.4682033743
| 20>  H       -3.3399602883     0.8335634808    -0.2343831076
| 21>  H       -1.8491881944     1.7442649010    -0.0246386115
| 22>  H       -2.0004467194    -1.2497178894    -0.5201388762
| 23>  H       -2.7671878696    -2.1028105678     2.4681506995
| 24> *
| 25>
| 26>                          ****END OF INPUT****

CARTESIAN COORDINATES (ANGSTROEM)
---------------------------------
  O      0.547058    0.678033   -0.837568
  C     -0.004924   -0.295836    0.007293
  C      0.073486   -0.126464    1.552590
  C     -1.408165   -0.567129    1.679714
  C     -2.437934    0.582038    1.806313
  C     -2.374234    0.831006    0.273794
  C     -1.543576   -0.466895    0.086487
  C     -1.682168   -1.860831    2.368118
  O     -0.840882   -2.629079    2.767637
  H      0.248304    1.544246   -0.541819
  H      0.453214   -1.240804   -0.297908
  H      0.782462   -0.779834    2.062444
  H      0.243474    0.906664    1.873362
  H     -3.419831    0.211566    2.118773
  H     -2.154439    1.405165    2.468203
  H     -3.339960    0.833563   -0.234383
  H     -1.849188    1.744265   -0.024639
  H     -2.000447   -1.249718   -0.520139
  H     -2.767188   -2.102811    2.468151

 Total Charge           Charge          ....    0
 Multiplicity           Mult            ....    1
 Number of Electrons    NEL             ....   68
 Basis Dimension        Dim             ....  339

ORBITAL ENERGIES
----------------

  NO   OCC          E(Eh)            E(eV)
   0   2.0000     -20.563899      -559.5721
   1   2.0000     -20.556806      -559.3791
   2   2.0000     -11.331464      -308.3448
   3   2.0000     -11.288713      -307.1815
   4   2.0000     -11.251488      -306.1686
   5   2.0000     -11.248503      -306.0873
   6   2.0000     -11.245919      -306.0170
   7   2.0000     -11.243764      -305.9584
   8   2.0000     -11.230863      -305.6073
   9   2.0000      -1.394924       -37.9578
  10   2.0000      -1.372774       -37.3551
  11   2.0000      -1.181181       -32.1416
  12   2.0000      -1.027305       -27.9544
  13   2.0000      -0.964799       -26.2535
  14   2.0000      -0.900634       -24.5075
  15   2.0000      -0.845508       -23.0074
  16   2.0000      -0.811116       -22.0716
  17   2.0000      -0.727249       -19.7894
  18   2.0000      -0.704654       -19.1746
  19   2.0000      -0.682656       -18.5760
  20   2.0000      -0.653400       -17.7799
  21   2.0000      -0.638684       -17.3795
  22   2.0000      -0.622585       -16.9414
  23   2.0000      -0.579282       -15.7631
  24   2.0000      -0.573225       -15.5982
  25   2.0000      -0.557526       -15.1710
  26   2.0000      -0.534126       -14.5343
  27   2.0000      -0.526552       -14.3282
  28   2.0000      -0.505835       -13.7645
  29   2.0000      -0.490744       -13.3538
  30   2.0000      -0.441984       -12.0270
  31   2.0000      -0.425791       -11.5864
  32   2.0000      -0.421703       -11.4751
  33   2.0000      -0.401336       -10.9209
  34   0.0000       0.113430         3.0866
  35   0.0000       0.124660         3.3922
  36   0.0000       0.146276         3.9804
  37   0.0000       0.159796         4.3483
  38   0.0000       0.168119         4.5748

MULLIKEN ATOMIC CHARGES
-----------------------
   0 O :   -0.442728
   1 C :   -0.021658
   2 C :   -0.247701
   3 C :    0.133648
   4 C :   -0.266843
   5 C :   -0.269737
   6 C :   -0.019342
   7 C :    0.040832
   8 O :   -0.271962
   9 H :    0.312971
  10 H :    0.112956
  11 H :    0.148981
  12 H :    0.119802
  13 H :    0.122631
  14 H :    0.121319
  15 H :    0.126488
  16 H :    0.100995
  17 H :    0.126157
  18 H :    0.073191
Sum of atomic charges:   -0.0000000

LOEWDIN ATOMIC CHARGES
----------------------
   0 O :   -0.005160
   1 C :   -0.313409
   2 C :   -0.173672
   3 C :   -0.206896
   4 C :   -0.195968
   5 C :   -0.215633
   6 C :   -0.129701
   7 C :   -0.269022
   8 O :    0.132976
   9 H :    0.170916
  10 H :    0.149486
  11 H :    0.141685
  12 H :    0.136196
  13 H :    0.138100
  14 H :    0.129273
  15 H :    0.132954
  16 H :    0.125733
  17 H :    0.137148
  18 H :    0.114995

  Mayer bond orders larger than 0.1
B(  0-O ,  1-C ) :   0.9872 B(  0-O ,  9-H ) :   0.8388 B(  1-C ,  2-C ) :   0.9742
B(  1-C ,  6-C ) :   0.8770 B(  1-C , 10-H ) :   0.9151 B(  2-C ,  3-C ) :   0.8941
B(  2-C , 11-H ) :   0.9051 B(  2-C , 12-H ) :   0.9179 B(  3-C ,  4-C ) :   0.8917
B(  3-C ,  6-C ) :   0.8351 B(  3-C ,  7-C ) :   0.8659 B(  4-C ,  5-C ) :   0.9515
B(  4-C , 13-H ) :   0.9125 B(  4-C , 14-H ) :   0.9193 B(  5-C ,  6-C ) :   0.8953
B(  5-C , 15-H ) :   0.9208 B(  5-C , 16-H ) :   0.9278 B(  6-C , 17-H ) :   0.9056
B(  7-C ,  8-O ) :   1.9952 B(  7-C , 18-H ) :   0.9591

MP2 TOTAL ENERGY:     -422.299212346 Eh
FINAL SINGLE POINT ENERGY      -422.299212346378

DIPOLE MOMENT
-------------
                                X             Y             Z
Electronic contribution:      2.23550      -4.17010       1.10536
Nuclear contribution   :     -3.16325       5.10394      -1.15329
                        -----------------------------------------
Total Dipole Moment    :     -0.92775       0.93384      -0.04793
                        -----------------------------------------
Magnitude (a.u.)       :      1.31722
Magnitude (Debye)      :      3.34812

                             ****ORCA TERMINATED NORMALLY****
TOTAL RUN TIME: 0 days 0 hours 18 minutes 36 seconds 918 msec
