                         Program Version 3.0.3 - RELEASE   -
|  1> ! RI-MP2 RIJK def2-TZVP def2-TZVP/C def2-TZVP/JK TIGHTSCF
|  2> % maxcore 2000
|  3> % mp2 density relaxed end
|  4> *xyz 0 1
|  5>  C       -0.0491593274     1.4546439169    -0.0023900790
|  6>  O        0.0558316787     0.0488462035     0.0212772519
|  7>  C        0.6688228714    -0.4773068125    -1.1358951723
|  8>  C        0.6649509049    -1.9917639167    -0.9903904532
|  9>  C       -0.7678830229    -2.5250531373    -0.9022077211
| 10>  O       -1.0585015554    -3.6217100754    -0.5020997518
| 11>  C        1.3758904679    -2.6855724750    -2.1691198215
| 12>  C        1.7952734835    -4.1175242935    -1.9338960437
| 13>  O        1.5709578039    -2.0938088826    -3.2044243931
| 14>  H        0.9400140351     1.9338677467    -0.0644270942
| 15>  H       -0.6538802183     1.8034365744    -0.8536620659
| 16>  H       -0.5339159371     1.7610004064     0.9272720967
| 17>  H        0.1185824885    -0.1863238247    -2.0446743940
| 18>  H        1.6962399877    -0.1012615498    -1.2519674349
| 19>  H        1.1612176819    -2.2919973652    -0.0606984638
| 20>  H       -1.5409713870    -1.8182196729    -1.2711957874
| 21>  H        0.9891055193    -4.6762265738    -1.4492350310
| 22>  H        2.0872827699    -4.5825939740    -2.8761098341
| 23>  H        2.6495158852    -4.1304337746    -1.2458093575
| 24> *
| 25>
| 26>                          ****END OF INPUT****

CARTESIAN COORDINATES (ANGSTROEM)
---------------------------------
  C     -0.049159    1.454644   -0.002390
  O      0.055832    0.048846    0.021277
  C      0.668823   -0.477307   -1.135895
  C      0.664951   -1.991764   -0.990390
  C     -0.767883   -2.525053   -0.902208
  O     -1.058502   -3.621710   -0.502100
  C      1.375890   -2.685572   -2.169120
  C      1.795273   -4.117524   -1.933896
  O      1.570958   -2.093809   -3.204424
  H      0.940014    1.933868   -0.064427
  H     -0.653880    1.803437   -0.853662
  H     -0.533916    1.761000    0.927272
  H      0.118582   -0.186324   -2.044674
  H      1.696240   -0.101262   -1.251967
  H      1.161218   -2.291997   -0.060698
  H     -1.540971   -1.818220   -1.271196
  H      0.989106   -4.676227   -1.449235
  H      2.087283   -4.582594   -2.876110
  H      2.649516   -4.130434   -1.245809

 Total Charge           Charge          ....    0
 Multiplicity           Mult            ....    1
 Number of Electrons    NEL             ....   70
 Basis Dimension        Dim             ....  339

ORBITAL ENERGIES
----------------

  NO   OCC          E(Eh)            E(eV)
   0   2.0000     -20.574059      -559.8486
   1   2.0000     -20.570708      -559.7574
   2   2.0000     -20.561461      -559.5058
   3   2.0000     -11.349802      -308.8438
   4   2.0000     -11.348455      -308.8071
   5   2.0000     -11.294982      -307.3521
   6   2.0000     -11.283688      -307.0448
   7   2.0000     -11.262970      -306.4810
   8   2.0000     -11.237816      -305.7965
   9   2.0000      -1.413449       -38.4619
  10   2.0000      -1.405465       -38.2446
  11   2.0000      -1.394746       -37.9530
  12   2.0000      -1.095381       -29.8068
  13   2.0000      -1.015608       -27.6361
  14   2.0000      -0.948063       -25.7981
  15   2.0000      -0.879707       -23.9381
  16   2.0000      -0.830131       -22.5890
  17   2.0000      -0.752360       -20.4728
  18   2.0000      -0.694657       -18.9026
  19   2.0000      -0.687793       -18.7158
  20   2.0000      -0.686271       -18.6744
  21   2.0000      -0.647317       -17.6144
  22   2.0000      -0.646438       -17.5905
  23   2.0000      -0.634507       -17.2658
  24   2.0000      -0.617495       -16.8029
  25   2.0000      -0.589485       -16.0407
  26   2.0000      -0.569585       -15.4992
  27   2.0000      -0.553824       -15.0703
  28   2.0000      -0.533917       -14.5286
  29   2.0000      -0.523272       -14.2390
  30   2.0000      -0.514713       -14.0061
  31   2.0000      -0.499413       -13.5897
  32   2.0000      -0.445720       -12.1287
  33   2.0000      -0.435412       -11.8482
  34   2.0000      -0.417077       -11.3492
  35   0.0000       0.101586         2.7643
  36   0.0000       0.133541         3.6338
  37   0.0000       0.140651         3.8273
  38   0.0000       0.152977         4.1627
  39   0.0000       0.175225         4.7681

MULLIKEN ATOMIC CHARGES
-----------------------
   0 C :   -0.216802
   1 O :   -0.308235
   2 C :   -0.085987
   3 C :   -0.000562
   4 C :    0.069979
   5 O :   -0.262009
   6 C :    0.198095
   7 C :   -0.431813
   8 O :   -0.283357
   9 H :    0.116306
  10 H :    0.116003
  11 H :    0.143765
  12 H :    0.119495
  13 H :    0.118598
  14 H :    0.125610
  15 H :    0.100173
  16 H :    0.179855
  17 H :    0.153017
  18 H :    0.147868
Sum of atomic charges:   -0.0000000

LOEWDIN ATOMIC CHARGES
----------------------
   0 C :   -0.354999
   1 O :    0.137527
   2 C :   -0.305565
   3 C :   -0.229446
   4 C :   -0.257202
   5 O :    0.141457
   6 C :   -0.320641
   7 C :   -0.273276
   8 O :    0.160817
   9 H :    0.104051
  10 H :    0.103289
  11 H :    0.115095
  12 H :    0.129971
  13 H :    0.129332
  14 H :    0.176722
  15 H :    0.122453
  16 H :    0.143888
  17 H :    0.134225
  18 H :    0.142301

  Mayer bond orders larger than 0.1
B(  0-C ,  1-O ) :   0.9109 B(  0-C ,  9-H ) :   0.9375 B(  0-C , 10-H ) :   0.9366
B(  0-C , 11-H ) :   0.9383 B(  1-O ,  2-C ) :   0.9440 B(  2-C ,  3-C ) :   0.9343
B(  2-C , 12-H ) :   0.9137 B(  2-C , 13-H ) :   0.9281 B(  3-C ,  4-C ) :   0.8199
B(  3-C ,  6-C ) :   0.8488 B(  3-C , 14-H ) :   0.8923 B(  4-C ,  5-O ) :   1.9682
B(  4-C , 15-H ) :   0.9364 B(  6-C ,  7-C ) :   0.9452 B(  6-C ,  8-O ) :   1.9754
B(  7-C , 16-H ) :   0.9077 B(  7-C , 17-H ) :   0.9353 B(  7-C , 18-H ) :   0.9103

MP2 TOTAL ENERGY:     -459.433588962 Eh
FINAL SINGLE POINT ENERGY      -459.433588961589

DIPOLE MOMENT
-------------
                                X             Y             Z
Electronic contribution:     -1.75629      -4.20654      -1.34438
Nuclear contribution   :      2.12268       4.84833       1.60553
                        -----------------------------------------
Total Dipole Moment    :      0.36639       0.64179       0.26115
                        -----------------------------------------
Magnitude (a.u.)       :      0.78380
Magnitude (Debye)      :      1.99226

                             ****ORCA TERMINATED NORMALLY****
TOTAL RUN TIME: 0 days 0 hours 15 minutes 45 seconds 257 msec
