                         Program Version 3.0.3 - RELEASE   -
|  1> ! RI-MP2 RIJK def2-TZVP def2-TZVP/C def2-TZVP/JK TIGHTSCF
|  2> % maxcore 2000
|  3> % mp2 density relaxed end
|  4> *xyz 0 1
|  5>  O        0.0934582339     1.3364875992     0.1698637865
|  6>  C        0.0101326725    -0.0449451400    -0.0490907526
|  7>  C       -1.4174549082    -0.5141332478    -0.0815855949
|  8>  N       -2.3914540368     0.3066050660     0.0267558305
|  9>  C       -3.6275473578    -0.4742049240    -0.0588181824
| 10>  C       -3.1629836388    -1.9702761014    -0.0036889769
| 11>  N       -1.7348140290    -1.8537179408    -0.2918113026
| 12>  C       -3.4159321986    -2.6192404593     1.3465284015
| 13>  O       -2.5459508359    -3.0722481102     2.0452469190
| 14>  H       -0.8228730026     1.6525411506     0.1938612531
| 15>  H        0.4882742583    -0.3258920645    -1.0014758695
| 16>  H        0.5471847789    -0.5937192848     0.7420743269
| 17>  H       -4.3156821237    -0.2134528911     0.7530964615
| 18>  H       -4.1426688697    -0.2599114653    -1.0016727045
| 19>  H       -3.6900275445    -2.5727958564    -0.7550660488
| 20>  H       -1.1593329319    -2.5297007756     0.1992492652
| 21>  H       -4.4862386262    -2.6554810246     1.6492282179
| 22> *
| 23>
| 24>                          ****END OF INPUT****

CARTESIAN COORDINATES (ANGSTROEM)
---------------------------------
  O      0.093458    1.336488    0.169864
  C      0.010133   -0.044945   -0.049091
  C     -1.417455   -0.514133   -0.081586
  N     -2.391454    0.306605    0.026756
  C     -3.627547   -0.474205   -0.058818
  C     -3.162984   -1.970276   -0.003689
  N     -1.734814   -1.853718   -0.291811
  C     -3.415932   -2.619240    1.346528
  O     -2.545951   -3.072248    2.045247
  H     -0.822873    1.652541    0.193861
  H      0.488274   -0.325892   -1.001476
  H      0.547185   -0.593719    0.742074
  H     -4.315682   -0.213453    0.753096
  H     -4.142669   -0.259911   -1.001673
  H     -3.690028   -2.572796   -0.755066
  H     -1.159333   -2.529701    0.199249
  H     -4.486239   -2.655481    1.649228

 Total Charge           Charge          ....    0
 Multiplicity           Mult            ....    1
 Number of Electrons    NEL             ....   68
 Basis Dimension        Dim             ....  327

ORBITAL ENERGIES
----------------

  NO   OCC          E(Eh)            E(eV)
   0   2.0000     -20.581620      -560.0544
   1   2.0000     -20.550467      -559.2066
   2   2.0000     -15.591344      -424.2621
   3   2.0000     -15.552510      -423.2053
   4   2.0000     -11.353288      -308.9387
   5   2.0000     -11.323894      -308.1388
   6   2.0000     -11.298148      -307.4382
   7   2.0000     -11.294354      -307.3350
   8   2.0000     -11.280656      -306.9623
   9   2.0000      -1.422249       -38.7014
  10   2.0000      -1.368906       -37.2498
  11   2.0000      -1.319177       -35.8966
  12   2.0000      -1.172844       -31.9147
  13   2.0000      -1.062721       -28.9181
  14   2.0000      -0.957890       -26.0655
  15   2.0000      -0.902804       -24.5665
  16   2.0000      -0.809512       -22.0280
  17   2.0000      -0.780449       -21.2371
  18   2.0000      -0.744059       -20.2469
  19   2.0000      -0.706865       -19.2348
  20   2.0000      -0.675487       -18.3809
  21   2.0000      -0.647898       -17.6302
  22   2.0000      -0.640557       -17.4304
  23   2.0000      -0.631948       -17.1962
  24   2.0000      -0.587883       -15.9971
  25   2.0000      -0.584822       -15.9138
  26   2.0000      -0.561955       -15.2916
  27   2.0000      -0.543838       -14.7986
  28   2.0000      -0.514397       -13.9975
  29   2.0000      -0.501085       -13.6352
  30   2.0000      -0.456116       -12.4115
  31   2.0000      -0.446649       -12.1539
  32   2.0000      -0.437131       -11.8949
  33   2.0000      -0.374150       -10.1811
  34   0.0000       0.108010         2.9391
  35   0.0000       0.135206         3.6791
  36   0.0000       0.142890         3.8882
  37   0.0000       0.162237         4.4147
  38   0.0000       0.169066         4.6005

MULLIKEN ATOMIC CHARGES
-----------------------
   0 O :   -0.482869
   1 C :   -0.009298
   2 C :    0.179153
   3 N :   -0.350699
   4 C :   -0.146617
   5 C :    0.048441
   6 N :   -0.338152
   7 C :    0.069907
   8 O :   -0.275180
   9 H :    0.338734
  10 H :    0.117969
  11 H :    0.112554
  12 H :    0.131422
  13 H :    0.124715
  14 H :    0.135921
  15 H :    0.248148
  16 H :    0.095852
Sum of atomic charges:    0.0000000

LOEWDIN ATOMIC CHARGES
----------------------
   0 O :   -0.035211
   1 C :   -0.314268
   2 C :   -0.342158
   3 N :    0.065445
   4 C :   -0.242492
   5 C :   -0.275492
   6 N :    0.099869
   7 C :   -0.274409
   8 O :    0.136558
   9 H :    0.179924
  10 H :    0.134799
  11 H :    0.133480
  12 H :    0.134395
  13 H :    0.135360
  14 H :    0.157642
  15 H :    0.188691
  16 H :    0.117867

  Mayer bond orders larger than 0.1
B(  0-O ,  1-C ) :   1.0239 B(  0-O ,  9-H ) :   0.8052 B(  1-C ,  2-C ) :   0.9257
B(  1-C , 10-H ) :   0.9115 B(  1-C , 11-H ) :   0.9231 B(  2-C ,  3-N ) :   1.6958
B(  2-C ,  6-N ) :   1.0796 B(  3-N ,  4-C ) :   0.9518 B(  4-C ,  5-C ) :   0.9023
B(  4-C , 12-H ) :   0.9277 B(  4-C , 13-H ) :   0.9155 B(  5-C ,  6-N ) :   0.9537
B(  5-C ,  7-C ) :   0.8596 B(  5-C , 14-H ) :   0.8986 B(  6-N , 15-H ) :   0.8544
B(  7-C ,  8-O ) :   1.9722 B(  7-C , 16-H ) :   0.9340

MP2 TOTAL ENERGY:     -454.426483967 Eh
FINAL SINGLE POINT ENERGY      -454.426483967188

DIPOLE MOMENT
-------------
                                X             Y             Z
Electronic contribution:      0.45793      -1.20703       1.53256
Nuclear contribution   :     -1.57994       0.26518      -1.96817
                        -----------------------------------------
Total Dipole Moment    :     -1.12201      -0.94185      -0.43560
                        -----------------------------------------
Magnitude (a.u.)       :      1.52831
Magnitude (Debye)      :      3.88466

                             ****ORCA TERMINATED NORMALLY****
TOTAL RUN TIME: 0 days 0 hours 15 minutes 44 seconds 261 msec
