                         Program Version 3.0.3 - RELEASE   -
|  1> ! RI-MP2 RIJK def2-TZVP def2-TZVP/C def2-TZVP/JK TIGHTSCF
|  2> % maxcore 2000
|  3> % mp2 density relaxed end
|  4> *xyz 0 1
|  5>  C       -1.0283935599     0.9890863259    -0.6465471801
|  6>  C       -0.2127036473    -0.0813236950     0.0757364701
|  7>  C       -1.1033548423    -1.1285045919     0.7603346857
|  8>  O       -1.8143299929    -1.8919246902    -0.1938032071
|  9>  O        0.5756838450    -0.7855717515    -0.8929363355
| 10>  C        2.0087603398    -0.8226787094    -0.7653774472
| 11>  C        2.4381487502    -1.5006875509     0.5454143390
| 12>  C        2.4543919435    -1.6667064155    -1.9637504548
| 13>  C        2.5977850790     0.5930092423    -0.8702577166
| 14>  H       -0.3734784963     1.6815847916    -1.1812624390
| 15>  H       -1.7030705128     0.5168433295    -1.3649218107
| 16>  H       -1.6309763926     1.5606950733     0.0671242007
| 17>  H        0.4251111065     0.3882318181     0.8344414872
| 18>  H       -0.4785830315    -1.7718603305     1.4001607356
| 19>  H       -1.8443109289    -0.6383730326     1.4018274214
| 20>  H       -1.1526732501    -2.1441730424    -0.8510573942
| 21>  H        2.0092957385    -2.5046617159     0.6152917928
| 22>  H        3.5281720844    -1.5905978586     0.5869369025
| 23>  H        2.1234827061    -0.9295419111     1.4238755139
| 24>  H        2.1223141477    -1.2038400805    -2.8969978154
| 25>  H        3.5438374080    -1.7619556753    -1.9886967171
| 26>  H        2.0202484231    -2.6689858531    -1.9057046840
| 27>  H        2.2833229011     1.2281796572    -0.0368450952
| 28>  H        3.6914684212     0.5529639174    -0.8574963280
| 29>  H        2.2815559905     1.0674504690    -1.8035725538
| 30> *
| 31>
| 32>                          ****END OF INPUT****

CARTESIAN COORDINATES (ANGSTROEM)
---------------------------------
  C     -1.028394    0.989086   -0.646547
  C     -0.212704   -0.081324    0.075736
  C     -1.103355   -1.128505    0.760335
  O     -1.814330   -1.891925   -0.193803
  O      0.575684   -0.785572   -0.892936
  C      2.008760   -0.822679   -0.765377
  C      2.438149   -1.500688    0.545414
  C      2.454392   -1.666706   -1.963750
  C      2.597785    0.593009   -0.870258
  H     -0.373478    1.681585   -1.181262
  H     -1.703071    0.516843   -1.364922
  H     -1.630976    1.560695    0.067124
  H      0.425111    0.388232    0.834441
  H     -0.478583   -1.771860    1.400161
  H     -1.844311   -0.638373    1.401827
  H     -1.152673   -2.144173   -0.851057
  H      2.009296   -2.504662    0.615292
  H      3.528172   -1.590598    0.586937
  H      2.123483   -0.929542    1.423876
  H      2.122314   -1.203840   -2.896998
  H      3.543837   -1.761956   -1.988697
  H      2.020248   -2.668986   -1.905705
  H      2.283323    1.228180   -0.036845
  H      3.691468    0.552964   -0.857496
  H      2.281556    1.067450   -1.803573

 Total Charge           Charge          ....    0
 Multiplicity           Mult            ....    1
 Number of Electrons    NEL             ....   74
 Basis Dimension        Dim             ....  375

ORBITAL ENERGIES
----------------

  NO   OCC          E(Eh)            E(eV)
   0   2.0000     -20.550404      -559.2049
   1   2.0000     -20.541823      -558.9714
   2   2.0000     -11.293684      -307.3168
   3   2.0000     -11.279623      -306.9341
   4   2.0000     -11.266818      -306.5857
   5   2.0000     -11.220571      -305.3273
   6   2.0000     -11.219443      -305.2966
   7   2.0000     -11.214932      -305.1738
   8   2.0000     -11.210234      -305.0460
   9   2.0000      -1.376813       -37.4650
  10   2.0000      -1.342645       -36.5352
  11   2.0000      -1.085986       -29.5512
  12   2.0000      -1.019596       -27.7446
  13   2.0000      -0.946087       -25.7443
  14   2.0000      -0.941105       -25.6088
  15   2.0000      -0.918759       -25.0007
  16   2.0000      -0.816057       -22.2060
  17   2.0000      -0.753043       -20.4913
  18   2.0000      -0.683922       -18.6105
  19   2.0000      -0.673131       -18.3168
  20   2.0000      -0.644675       -17.5425
  21   2.0000      -0.629123       -17.1193
  22   2.0000      -0.603920       -16.4335
  23   2.0000      -0.592367       -16.1191
  24   2.0000      -0.573976       -15.6187
  25   2.0000      -0.567520       -15.4430
  26   2.0000      -0.548854       -14.9351
  27   2.0000      -0.533191       -14.5089
  28   2.0000      -0.532437       -14.4883
  29   2.0000      -0.521774       -14.1982
  30   2.0000      -0.521197       -14.1825
  31   2.0000      -0.511728       -13.9248
  32   2.0000      -0.492515       -13.4020
  33   2.0000      -0.468955       -12.7609
  34   2.0000      -0.449427       -12.2295
  35   2.0000      -0.442528       -12.0418
  36   2.0000      -0.407518       -11.0891
  37   0.0000       0.124025         3.3749
  38   0.0000       0.156692         4.2638
  39   0.0000       0.164582         4.4785
  40   0.0000       0.171206         4.6588
  41   0.0000       0.182500         4.9661

MULLIKEN ATOMIC CHARGES
-----------------------
   0 C :   -0.381939
   1 C :    0.034934
   2 C :    0.012278
   3 O :   -0.483691
   4 O :   -0.339350
   5 C :    0.140491
   6 C :   -0.406105
   7 C :   -0.367209
   8 C :   -0.401090
   9 H :    0.131183
  10 H :    0.141660
  11 H :    0.120035
  12 H :    0.077431
  13 H :    0.098313
  14 H :    0.101505
  15 H :    0.326003
  16 H :    0.139036
  17 H :    0.136942
  18 H :    0.129679
  19 H :    0.136026
  20 H :    0.120387
  21 H :    0.130449
  22 H :    0.128470
  23 H :    0.135678
  24 H :    0.138883
Sum of atomic charges:   -0.0000000

LOEWDIN ATOMIC CHARGES
----------------------
   0 C :   -0.295472
   1 C :   -0.355775
   2 C :   -0.334814
   3 O :   -0.046917
   4 O :    0.199349
   5 C :   -0.421872
   6 C :   -0.276687
   7 C :   -0.270671
   8 C :   -0.274360
   9 H :    0.121603
  10 H :    0.130199
  11 H :    0.124708
  12 H :    0.137657
  13 H :    0.115291
  14 H :    0.128682
  15 H :    0.176165
  16 H :    0.127697
  17 H :    0.129926
  18 H :    0.123146
  19 H :    0.128035
  20 H :    0.126672
  21 H :    0.126034
  22 H :    0.123571
  23 H :    0.129417
  24 H :    0.128416

  Mayer bond orders larger than 0.1
B(  0-C ,  1-C ) :   0.9266 B(  0-C ,  9-H ) :   0.9393 B(  0-C , 10-H ) :   0.9310
B(  0-C , 11-H ) :   0.9338 B(  1-C ,  2-C ) :   0.9387 B(  1-C ,  4-O ) :   0.8060
B(  1-C , 12-H ) :   0.9193 B(  2-C ,  3-O ) :   0.9342 B(  2-C , 13-H ) :   0.9223
B(  2-C , 14-H ) :   0.9298 B(  3-O , 15-H ) :   0.8245 B(  4-O ,  5-C ) :   0.9282
B(  5-C ,  6-C ) :   0.9266 B(  5-C ,  7-C ) :   0.9158 B(  5-C ,  8-C ) :   0.9321
B(  6-C , 16-H ) :   0.9380 B(  6-C , 17-H ) :   0.9266 B(  6-C , 18-H ) :   0.9254
B(  7-C , 19-H ) :   0.9368 B(  7-C , 20-H ) :   0.9303 B(  7-C , 21-H ) :   0.9352
B(  8-C , 22-H ) :   0.9237 B(  8-C , 23-H ) :   0.9289 B(  8-C , 24-H ) :   0.9393

MP2 TOTAL ENERGY:     -425.932220386 Eh
FINAL SINGLE POINT ENERGY      -425.932220386191

DIPOLE MOMENT
-------------
                                X             Y             Z
Electronic contribution:     -5.32208      -2.59099      -0.21631
Nuclear contribution   :      6.33212       3.00993       0.47653
                        -----------------------------------------
Total Dipole Moment    :      1.01004       0.41894       0.26022
                        -----------------------------------------
Magnitude (a.u.)       :      1.12402
Magnitude (Debye)      :      2.85702

                             ****ORCA TERMINATED NORMALLY****
TOTAL RUN TIME: 0 days 0 hours 20 minutes 35 seconds 10 msec
