                         Program Version 3.0.3 - RELEASE   -
|  1> ! RI-MP2 RIJK def2-TZVP def2-TZVP/C def2-TZVP/JK TIGHTSCF
|  2> % maxcore 2000
|  3> % mp2 density relaxed end
|  4> *xyz 0 1
|  5>  C        0.8635176370    -0.2469672768     1.4532206476
|  6>  C        0.3564044883     0.4462777822     0.6125807861
|  7>  C       -0.2625116500     1.2794651795    -0.4246538196
|  8>  N        0.6033919169     2.2321877527    -1.1231514529
|  9>  C        1.1547224752     3.3194105205    -0.3087454888
| 10>  C        2.4144904351     3.0250180255     0.3912871603
| 11>  C        3.4632712749     2.7805788025     0.9218556521
| 12>  C        1.3381764295     4.5142324655    -1.1654193256
| 13>  N        1.4771701321     5.4474108659    -1.8308718282
| 14>  H        1.3163959136    -0.8520010125     2.1995325015
| 15>  H       -0.7035002553     0.6317693173    -1.1909625610
| 16>  H       -1.0984188949     1.8429802426     0.0083943093
| 17>  H        1.3540010950     1.7521518746    -1.6072604888
| 18>  H        0.3905258413     3.5838721514     0.4345347561
| 19>  H        4.3841276614     2.5585581291     1.4030457121
| 20> *
| 21>
| 22>                          ****END OF INPUT****

CARTESIAN COORDINATES (ANGSTROEM)
---------------------------------
  C      0.863518   -0.246967    1.453221
  C      0.356404    0.446278    0.612581
  C     -0.262512    1.279465   -0.424654
  N      0.603392    2.232188   -1.123151
  C      1.154722    3.319411   -0.308745
  C      2.414490    3.025018    0.391287
  C      3.463271    2.780579    0.921856
  C      1.338176    4.514232   -1.165419
  N      1.477170    5.447411   -1.830872
  H      1.316396   -0.852001    2.199533
  H     -0.703500    0.631769   -1.190963
  H     -1.098419    1.842980    0.008394
  H      1.354001    1.752152   -1.607260
  H      0.390526    3.583872    0.434535
  H      4.384128    2.558558    1.403046

 Total Charge           Charge          ....    0
 Multiplicity           Mult            ....    1
 Number of Electrons    NEL             ....   62
 Basis Dimension        Dim             ....  315

ORBITAL ENERGIES
----------------

  NO   OCC          E(Eh)            E(eV)
   0   2.0000     -15.591957      -424.2787
   1   2.0000     -15.577055      -423.8732
   2   2.0000     -11.353959      -308.9569
   3   2.0000     -11.307034      -307.6800
   4   2.0000     -11.279503      -306.9309
   5   2.0000     -11.258219      -306.3517
   6   2.0000     -11.251672      -306.1735
   7   2.0000     -11.247099      -306.0491
   8   2.0000     -11.239952      -305.8546
   9   2.0000      -1.267928       -34.5021
  10   2.0000      -1.218422       -33.1549
  11   2.0000      -1.093509       -29.7559
  12   2.0000      -1.051205       -28.6047
  13   2.0000      -1.001110       -27.2416
  14   2.0000      -0.932809       -25.3830
  15   2.0000      -0.776126       -21.1195
  16   2.0000      -0.754723       -20.5371
  17   2.0000      -0.740519       -20.1506
  18   2.0000      -0.707037       -19.2395
  19   2.0000      -0.677919       -18.4471
  20   2.0000      -0.648962       -17.6592
  21   2.0000      -0.614724       -16.7275
  22   2.0000      -0.582554       -15.8521
  23   2.0000      -0.561598       -15.2818
  24   2.0000      -0.477593       -12.9960
  25   2.0000      -0.473970       -12.8974
  26   2.0000      -0.453933       -12.3521
  27   2.0000      -0.422680       -11.5017
  28   2.0000      -0.409446       -11.1416
  29   2.0000      -0.403718       -10.9857
  30   2.0000      -0.398172       -10.8348
  31   0.0000       0.108976         2.9654
  32   0.0000       0.133078         3.6212
  33   0.0000       0.145922         3.9707
  34   0.0000       0.151926         4.1341
  35   0.0000       0.156009         4.2452

MULLIKEN ATOMIC CHARGES
-----------------------
   0 C :   -0.170525
   1 C :   -0.018028
   2 C :   -0.276595
   3 N :   -0.316158
   4 C :    0.030833
   5 C :   -0.063462
   6 C :   -0.136538
   7 C :   -0.112940
   8 N :   -0.052595
   9 H :    0.192054
  10 H :    0.173483
  11 H :    0.167934
  12 H :    0.226956
  13 H :    0.155722
  14 H :    0.199857
Sum of atomic charges:    0.0000000

LOEWDIN ATOMIC CHARGES
----------------------
   0 C :   -0.088910
   1 C :   -0.120231
   2 C :   -0.292214
   3 N :    0.044433
   4 C :   -0.277524
   5 C :   -0.079477
   6 C :   -0.061925
   7 C :   -0.146301
   8 N :    0.075283
   9 H :    0.128455
  10 H :    0.157871
  11 H :    0.154710
  12 H :    0.183473
  13 H :    0.190779
  14 H :    0.131578

  Mayer bond orders larger than 0.1
B(  0-C ,  1-C ) :   2.6841 B(  0-C ,  9-H ) :   0.9130 B(  1-C ,  2-C ) :   0.8950
B(  2-C ,  3-N ) :   0.9637 B(  2-C , 10-H ) :   0.9493 B(  2-C , 11-H ) :   0.9671
B(  3-N ,  4-C ) :   0.9379 B(  3-N , 12-H ) :   0.8768 B(  4-C ,  5-C ) :   1.1090
B(  4-C ,  7-C ) :   0.9191 B(  4-C , 13-H ) :   0.9129 B(  5-C ,  6-C ) :   2.5942
B(  6-C , 14-H ) :   0.8943 B(  7-C ,  8-N ) :   2.8602

MP2 TOTAL ENERGY:     -378.892182484 Eh
FINAL SINGLE POINT ENERGY      -378.892182484077

DIPOLE MOMENT
-------------
                                X             Y             Z
Electronic contribution:      1.69292       3.86919      -1.25724
Nuclear contribution   :     -1.70602      -5.29111       2.22053
                        -----------------------------------------
Total Dipole Moment    :     -0.01310      -1.42192       0.96329
                        -----------------------------------------
Magnitude (a.u.)       :      1.71755
Magnitude (Debye)      :      4.36566

                             ****ORCA TERMINATED NORMALLY****
TOTAL RUN TIME: 0 days 0 hours 12 minutes 59 seconds 501 msec
