                         Program Version 3.0.3 - RELEASE   -
|  1> ! RI-MP2 RIJK def2-TZVP def2-TZVP/C def2-TZVP/JK TIGHTSCF
|  2> % maxcore 2000
|  3> % mp2 density relaxed end
|  4> *xyz 0 1
|  5>  C       -0.7005029995     1.5078383016     0.2069095707
|  6>  C       -0.2612885725     0.0666450504     0.0142502679
|  7>  C        0.5176489965    -0.3979538151    -1.2669301064
|  8>  C        0.8613547661     0.5827378265    -2.3985000123
|  9>  C       -0.3373197083     0.8445029746    -3.2821043500
| 10>  O       -0.8651439132     1.9155473770    -3.4373153761
| 11>  C        1.6276399305    -0.8321885445    -0.3129105066
| 12>  C        2.0733621958     0.2690725246     0.5606362606
| 13>  N        0.8359558196    -0.4443831312     0.9247670903
| 14>  H        0.1102640054     2.2275412609     0.0669667452
| 15>  H       -1.4894892578     1.7655486542    -0.5062638607
| 16>  H       -1.0956019438     1.6401010500     1.2192668572
| 17>  H       -1.1234270094    -0.5858776173     0.1767479491
| 18>  H        0.0226446818    -1.2730309868    -1.7003322632
| 19>  H        1.2373819253     1.5374626477    -2.0243590010
| 20>  H        1.6422305463     0.1251908708    -3.0231405883
| 21>  H       -0.7326316747    -0.0660416961    -3.7931478163
| 22>  H        2.1588606035    -1.7772172017    -0.3726497486
| 23>  H        2.8867482854     0.0584114707     1.2482005768
| 24>  H        2.0347737531     1.3001774036     0.2218392216
| 25> *
| 26>
| 27>                          ****END OF INPUT****

CARTESIAN COORDINATES (ANGSTROEM)
---------------------------------
  C     -0.700503    1.507838    0.206910
  C     -0.261289    0.066645    0.014250
  C      0.517649   -0.397954   -1.266930
  C      0.861355    0.582738   -2.398500
  C     -0.337320    0.844503   -3.282104
  O     -0.865144    1.915547   -3.437315
  C      1.627640   -0.832189   -0.312911
  C      2.073362    0.269073    0.560636
  N      0.835956   -0.444383    0.924767
  H      0.110264    2.227541    0.066967
  H     -1.489489    1.765549   -0.506264
  H     -1.095602    1.640101    1.219267
  H     -1.123427   -0.585878    0.176748
  H      0.022645   -1.273031   -1.700332
  H      1.237382    1.537463   -2.024359
  H      1.642231    0.125191   -3.023141
  H     -0.732632   -0.066042   -3.793148
  H      2.158861   -1.777217   -0.372650
  H      2.886748    0.058411    1.248201
  H      2.034774    1.300177    0.221839

 Total Charge           Charge          ....    0
 Multiplicity           Mult            ....    1
 Number of Electrons    NEL             ....   68
 Basis Dimension        Dim             ....  345

ORBITAL ENERGIES
----------------

  NO   OCC          E(Eh)            E(eV)
   0   2.0000     -20.562332      -559.5295
   1   2.0000     -15.563923      -423.5159
   2   2.0000     -11.337335      -308.5046
   3   2.0000     -11.268568      -306.6333
   4   2.0000     -11.267846      -306.6137
   5   2.0000     -11.260457      -306.4126
   6   2.0000     -11.255412      -306.2753
   7   2.0000     -11.247962      -306.0726
   8   2.0000     -11.219025      -305.2852
   9   2.0000      -1.401025       -38.1238
  10   2.0000      -1.294714       -35.2310
  11   2.0000      -1.078072       -29.3358
  12   2.0000      -1.023669       -27.8554
  13   2.0000      -0.944573       -25.7031
  14   2.0000      -0.904073       -24.6011
  15   2.0000      -0.813176       -22.1277
  16   2.0000      -0.798758       -21.7353
  17   2.0000      -0.734050       -19.9745
  18   2.0000      -0.706580       -19.2270
  19   2.0000      -0.674420       -18.3519
  20   2.0000      -0.645481       -17.5644
  21   2.0000      -0.627855       -17.0848
  22   2.0000      -0.605234       -16.4693
  23   2.0000      -0.590214       -16.0605
  24   2.0000      -0.568424       -15.4676
  25   2.0000      -0.551044       -14.9947
  26   2.0000      -0.539255       -14.6739
  27   2.0000      -0.525028       -14.2868
  28   2.0000      -0.502707       -13.6794
  29   2.0000      -0.472036       -12.8448
  30   2.0000      -0.450393       -12.2558
  31   2.0000      -0.427229       -11.6255
  32   2.0000      -0.421829       -11.4785
  33   2.0000      -0.374569       -10.1925
  34   0.0000       0.123559         3.3622
  35   0.0000       0.136590         3.7168
  36   0.0000       0.146353         3.9825
  37   0.0000       0.157912         4.2970
  38   0.0000       0.169972         4.6252

MULLIKEN ATOMIC CHARGES
-----------------------
   0 C :   -0.398043
   1 C :   -0.008764
   2 C :   -0.139039
   3 C :   -0.146382
   4 C :    0.090756
   5 O :   -0.264569
   6 C :   -0.074931
   7 C :   -0.172307
   8 N :   -0.231579
   9 H :    0.112918
  10 H :    0.147617
  11 H :    0.147412
  12 H :    0.109222
  13 H :    0.116853
  14 H :    0.109205
  15 H :    0.136675
  16 H :    0.076292
  17 H :    0.130406
  18 H :    0.133021
  19 H :    0.125237
Sum of atomic charges:   -0.0000000

LOEWDIN ATOMIC CHARGES
----------------------
   0 C :   -0.294500
   1 C :   -0.247912
   2 C :   -0.206220
   3 C :   -0.240987
   4 C :   -0.295890
   5 O :    0.132788
   6 C :   -0.201140
   7 C :   -0.251329
   8 N :    0.114687
   9 H :    0.121053
  10 H :    0.133231
  11 H :    0.131927
  12 H :    0.147753
  13 H :    0.155691
  14 H :    0.145306
  15 H :    0.155841
  16 H :    0.109843
  17 H :    0.132462
  18 H :    0.134276
  19 H :    0.123120

  Mayer bond orders larger than 0.1
B(  0-C ,  1-C ) :   0.9566 B(  0-C ,  9-H ) :   0.9241 B(  0-C , 10-H ) :   0.9307
B(  0-C , 11-H ) :   0.9341 B(  1-C ,  2-C ) :   0.9685 B(  1-C ,  8-N ) :   0.9189
B(  1-C , 12-H ) :   0.9153 B(  2-C ,  3-C ) :   0.8874 B(  2-C ,  6-C ) :   0.9324
B(  2-C , 13-H ) :   0.9239 B(  3-C ,  4-C ) :   0.8657 B(  3-C , 14-H ) :   0.9026
B(  3-C , 15-H ) :   0.9095 B(  4-C ,  5-O ) :   1.9977 B(  4-C , 16-H ) :   0.9358
B(  6-C ,  7-C ) :   0.9399 B(  6-C ,  8-N ) :   0.8988 B(  6-C , 17-H ) :   0.9010
B(  7-C ,  8-N ) :   0.8801 B(  7-C , 18-H ) :   0.9318 B(  7-C , 19-H ) :   0.9091

MP2 TOTAL ENERGY:     -402.414781220 Eh
FINAL SINGLE POINT ENERGY      -402.414781219738

DIPOLE MOMENT
-------------
                                X             Y             Z
Electronic contribution:     -0.68420      -0.75038      -2.85314
Nuclear contribution   :      1.24821       0.21733       2.59990
                        -----------------------------------------
Total Dipole Moment    :      0.56401      -0.53304      -0.25324
                        -----------------------------------------
Magnitude (a.u.)       :      0.81632
Magnitude (Debye)      :      2.07491

                             ****ORCA TERMINATED NORMALLY****
TOTAL RUN TIME: 0 days 0 hours 20 minutes 15 seconds 827 msec
