                         Program Version 3.0.3 - RELEASE   -
|  1> ! RI-MP2 RIJK def2-TZVP def2-TZVP/C def2-TZVP/JK TIGHTSCF
|  2> % maxcore 2000
|  3> % mp2 density relaxed end
|  4> *xyz 0 1
|  5>  C       -0.1218077179     1.5128371833     0.2021412868
|  6>  C        0.0895405235     0.0282543072    -0.1044903346
|  7>  O        1.0355364632    -0.5560427009     0.7761114195
|  8>  C       -1.2500435574    -0.7023866347    -0.1548934842
|  9>  C       -1.5645219240    -2.1188470300     0.0861777990
| 10>  C       -0.7596949582    -2.8032937788     1.1916624537
| 11>  C       -1.1707600496    -1.6044028816     2.0530302758
| 12>  O       -0.9732715126    -1.2373239702     3.1720296605
| 13>  N       -2.0642193121    -1.0222317839     1.0612543785
| 14>  H        0.8398184025     2.0325510012     0.2056003323
| 15>  H       -0.7690573086     1.9849090733    -0.5428952576
| 16>  H       -0.5958807598     1.6362269085     1.1824231634
| 17>  H        0.5293122159    -0.0729225422    -1.1059629515
| 18>  H        0.8858334546    -0.2113904688     1.6638852870
| 19>  H       -1.9017175105    -0.2452499378    -0.9001991514
| 20>  H       -2.2912236212    -2.6385645112    -0.5284237850
| 21>  H       -1.2451494983    -3.7189835898     1.5417504476
| 22>  H        0.3052559302    -2.9715385235     1.0467235802
| 23> *
| 24>
| 25>                          ****END OF INPUT****

CARTESIAN COORDINATES (ANGSTROEM)
---------------------------------
  C     -0.121808    1.512837    0.202141
  C      0.089541    0.028254   -0.104490
  O      1.035536   -0.556043    0.776111
  C     -1.250044   -0.702387   -0.154893
  C     -1.564522   -2.118847    0.086178
  C     -0.759695   -2.803294    1.191662
  C     -1.170760   -1.604403    2.053030
  O     -0.973272   -1.237324    3.172030
  N     -2.064219   -1.022232    1.061254
  H      0.839818    2.032551    0.205600
  H     -0.769057    1.984909   -0.542895
  H     -0.595881    1.636227    1.182423
  H      0.529312   -0.072923   -1.105963
  H      0.885833   -0.211390    1.663885
  H     -1.901718   -0.245250   -0.900199
  H     -2.291224   -2.638565   -0.528424
  H     -1.245149   -3.718984    1.541750
  H      0.305256   -2.971539    1.046724

 Total Charge           Charge          ....    0
 Multiplicity           Mult            ....    1
 Number of Electrons    NEL             ....   68
 Basis Dimension        Dim             ....  333

ORBITAL ENERGIES
----------------

  NO   OCC          E(Eh)            E(eV)
   0   2.0000     -20.570779      -559.7594
   1   2.0000     -20.553329      -559.2845
   2   2.0000     -15.583918      -424.0600
   3   2.0000     -11.362835      -309.1985
   4   2.0000     -11.306239      -307.6584
   5   2.0000     -11.294861      -307.3488
   6   2.0000     -11.290611      -307.2331
   7   2.0000     -11.255081      -306.2663
   8   2.0000     -11.232447      -305.6504
   9   2.0000      -1.412262       -38.4296
  10   2.0000      -1.381352       -37.5885
  11   2.0000      -1.304687       -35.5023
  12   2.0000      -1.058493       -28.8031
  13   2.0000      -1.009224       -27.4624
  14   2.0000      -0.953199       -25.9379
  15   2.0000      -0.880654       -23.9638
  16   2.0000      -0.800129       -21.7726
  17   2.0000      -0.723029       -19.6746
  18   2.0000      -0.708413       -19.2769
  19   2.0000      -0.690744       -18.7961
  20   2.0000      -0.662357       -18.0236
  21   2.0000      -0.655746       -17.8438
  22   2.0000      -0.630223       -17.1492
  23   2.0000      -0.593535       -16.1509
  24   2.0000      -0.581649       -15.8275
  25   2.0000      -0.556075       -15.1316
  26   2.0000      -0.544213       -14.8088
  27   2.0000      -0.539532       -14.6814
  28   2.0000      -0.522833       -14.2270
  29   2.0000      -0.505928       -13.7670
  30   2.0000      -0.484014       -13.1707
  31   2.0000      -0.437804       -11.9133
  32   2.0000      -0.423856       -11.5337
  33   2.0000      -0.392893       -10.6911
  34   0.0000       0.129707         3.5295
  35   0.0000       0.139376         3.7926
  36   0.0000       0.152010         4.1364
  37   0.0000       0.160456         4.3662
  38   0.0000       0.181060         4.9269

MULLIKEN ATOMIC CHARGES
-----------------------
   0 C :   -0.426198
   1 C :    0.104721
   2 O :   -0.467680
   3 C :   -0.029867
   4 C :   -0.092600
   5 C :   -0.147308
   6 C :    0.083976
   7 O :   -0.252874
   8 N :   -0.206693
   9 H :    0.152286
  10 H :    0.131105
  11 H :    0.153503
  12 H :    0.104825
  13 H :    0.333267
  14 H :    0.128721
  15 H :    0.141028
  16 H :    0.142309
  17 H :    0.147480
Sum of atomic charges:   -0.0000000

LOEWDIN ATOMIC CHARGES
----------------------
   0 C :   -0.293642
   1 C :   -0.357340
   2 O :    0.008515
   3 C :   -0.216055
   4 C :   -0.168963
   5 C :   -0.201979
   6 C :   -0.401847
   7 O :    0.152906
   8 N :    0.158289
   9 H :    0.128489
  10 H :    0.129486
  11 H :    0.131418
  12 H :    0.152631
  13 H :    0.181048
  14 H :    0.162394
  15 H :    0.138034
  16 H :    0.152430
  17 H :    0.144187

  Mayer bond orders larger than 0.1
B(  0-C ,  1-C ) :   0.9566 B(  0-C ,  9-H ) :   0.9379 B(  0-C , 10-H ) :   0.9291
B(  0-C , 11-H ) :   0.9171 B(  1-C ,  2-O ) :   0.9364 B(  1-C ,  3-C ) :   0.8822
B(  1-C , 12-H ) :   0.9220 B(  2-O ,  6-C ) :   0.1194 B(  2-O , 13-H ) :   0.8299
B(  3-C ,  4-C ) :   0.9631 B(  3-C ,  8-N ) :   0.8638 B(  3-C , 14-H ) :   0.9114
B(  4-C ,  5-C ) :   0.9565 B(  4-C ,  8-N ) :   0.8122 B(  4-C , 15-H ) :   0.9020
B(  5-C ,  6-C ) :   0.9196 B(  5-C , 16-H ) :   0.9015 B(  5-C , 17-H ) :   0.8791
B(  6-C ,  7-O ) :   2.0433 B(  6-C ,  8-N ) :   0.9776

MP2 TOTAL ENERGY:     -438.342878548 Eh
FINAL SINGLE POINT ENERGY      -438.342878547603

DIPOLE MOMENT
-------------
                                X             Y             Z
Electronic contribution:     -1.89088      -3.80017       4.28941
Nuclear contribution   :      1.98240       3.72948      -5.52926
                        -----------------------------------------
Total Dipole Moment    :      0.09152      -0.07069      -1.23985
                        -----------------------------------------
Magnitude (a.u.)       :      1.24523
Magnitude (Debye)      :      3.16512

                             ****ORCA TERMINATED NORMALLY****
TOTAL RUN TIME: 0 days 0 hours 20 minutes 33 seconds 165 msec
