                         Program Version 3.0.3 - RELEASE   -
|  1> ! RI-MP2 RIJK def2-TZVP def2-TZVP/C def2-TZVP/JK TIGHTSCF
|  2> % maxcore 2000
|  3> % mp2 density relaxed end
|  4> *xyz 0 1
|  5>  O        0.0186071846     1.4331458600     0.0312078037
|  6>  C        0.0300143421     0.0003718232     0.0118214876
|  7>  C        0.9509991546    -0.5640942482     1.0670966107
|  8>  C        0.5230809135    -1.3364171161     2.0654593486
|  9>  C       -0.9380094345    -1.6467368307     2.2280650572
| 10>  C       -1.8176658976    -0.3797596174     2.5620434484
| 11>  C       -2.4054408686    -0.4396382992     1.1529081146
| 12>  C       -1.7184333618    -1.7795301518     0.8956290891
| 13>  C       -1.3718516117    -0.5930532948     0.0499273931
| 14>  H       -0.3782908811     1.6984760138     0.8680398394
| 15>  H        0.4605435811    -0.2324012389    -0.9709696831
| 16>  H        1.9989534843    -0.2930558832     0.9725587166
| 17>  H        1.2180362630    -1.7042282037     2.8161442501
| 18>  H       -1.1078249190    -2.4686951997     2.9239265493
| 19>  H       -2.5749397071    -0.6081208069     3.3168533594
| 20>  H       -1.2777678636     0.5221152513     2.8691609168
| 21>  H       -3.4154812915    -0.1422373407     0.8963671104
| 22>  H       -2.1194449162    -2.7039934509     0.4979083670
| 23>  H       -1.8540308106    -0.5970441160    -0.9244910290
| 24> *
| 25>
| 26>                          ****END OF INPUT****

CARTESIAN COORDINATES (ANGSTROEM)
---------------------------------
  O      0.018607    1.433146    0.031208
  C      0.030014    0.000372    0.011821
  C      0.950999   -0.564094    1.067097
  C      0.523081   -1.336417    2.065459
  C     -0.938009   -1.646737    2.228065
  C     -1.817666   -0.379760    2.562043
  C     -2.405441   -0.439638    1.152908
  C     -1.718433   -1.779530    0.895629
  C     -1.371852   -0.593053    0.049927
  H     -0.378291    1.698476    0.868040
  H      0.460544   -0.232401   -0.970970
  H      1.998953   -0.293056    0.972559
  H      1.218036   -1.704228    2.816144
  H     -1.107825   -2.468695    2.923927
  H     -2.574940   -0.608121    3.316853
  H     -1.277768    0.522115    2.869161
  H     -3.415481   -0.142237    0.896367
  H     -2.119445   -2.703993    0.497908
  H     -1.854031   -0.597044   -0.924491

 Total Charge           Charge          ....    0
 Multiplicity           Mult            ....    1
 Number of Electrons    NEL             ....   66
 Basis Dimension        Dim             ....  339

ORBITAL ENERGIES
----------------

  NO   OCC          E(Eh)            E(eV)
   0   2.0000     -20.548450      -559.1518
   1   2.0000     -11.281841      -306.9945
   2   2.0000     -11.240617      -305.8727
   3   2.0000     -11.237323      -305.7831
   4   2.0000     -11.236280      -305.7547
   5   2.0000     -11.234092      -305.6952
   6   2.0000     -11.233355      -305.6751
   7   2.0000     -11.229687      -305.5753
   8   2.0000     -11.222109      -305.3691
   9   2.0000      -1.352644       -36.8073
  10   2.0000      -1.202539       -32.7228
  11   2.0000      -1.063389       -28.9363
  12   2.0000      -1.016457       -27.6592
  13   2.0000      -0.916230       -24.9319
  14   2.0000      -0.880567       -23.9615
  15   2.0000      -0.815266       -22.1845
  16   2.0000      -0.748042       -20.3553
  17   2.0000      -0.720932       -19.6176
  18   2.0000      -0.686010       -18.6673
  19   2.0000      -0.660089       -17.9619
  20   2.0000      -0.630226       -17.1493
  21   2.0000      -0.614512       -16.7217
  22   2.0000      -0.603470       -16.4213
  23   2.0000      -0.573595       -15.6083
  24   2.0000      -0.543644       -14.7933
  25   2.0000      -0.516167       -14.0456
  26   2.0000      -0.504632       -13.7317
  27   2.0000      -0.488970       -13.3056
  28   2.0000      -0.466276       -12.6880
  29   2.0000      -0.437683       -11.9100
  30   2.0000      -0.408669       -11.1204
  31   2.0000      -0.377564       -10.2740
  32   2.0000      -0.350584        -9.5399
  33   0.0000       0.136487         3.7140
  34   0.0000       0.141458         3.8493
  35   0.0000       0.151948         4.1347
  36   0.0000       0.166608         4.5336
  37   0.0000       0.172658         4.6983

MULLIKEN ATOMIC CHARGES
-----------------------
   0 O :   -0.460938
   1 C :    0.150821
   2 C :   -0.199095
   3 C :   -0.255188
   4 C :    0.114160
   5 C :   -0.273829
   6 C :   -0.143115
   7 C :   -0.183260
   8 C :   -0.146199
   9 H :    0.312004
  10 H :    0.098483
  11 H :    0.121644
  12 H :    0.122062
  13 H :    0.124315
  14 H :    0.121650
  15 H :    0.110160
  16 H :    0.130098
  17 H :    0.135282
  18 H :    0.120943
Sum of atomic charges:    0.0000000

LOEWDIN ATOMIC CHARGES
----------------------
   0 O :   -0.022044
   1 C :   -0.309308
   2 C :   -0.147733
   3 C :   -0.142868
   4 C :   -0.178192
   5 C :   -0.188277
   6 C :   -0.169302
   7 C :   -0.128536
   8 C :   -0.168516
   9 H :    0.172193
  10 H :    0.154979
  11 H :    0.144424
  12 H :    0.142285
  13 H :    0.148857
  14 H :    0.137779
  15 H :    0.122013
  16 H :    0.136069
  17 H :    0.135108
  18 H :    0.161069

  Mayer bond orders larger than 0.1
B(  0-O ,  1-C ) :   0.8989 B(  0-O ,  9-H ) :   0.8422 B(  1-C ,  2-C ) :   0.9760
B(  1-C ,  8-C ) :   0.9317 B(  1-C , 10-H ) :   0.9158 B(  2-C ,  3-C ) :   1.7675
B(  2-C , 11-H ) :   0.9389 B(  3-C ,  4-C ) :   0.9302 B(  3-C , 12-H ) :   0.9290
B(  4-C ,  5-C ) :   0.8490 B(  4-C ,  7-C ) :   0.8830 B(  4-C , 13-H ) :   0.9288
B(  5-C ,  6-C ) :   0.9601 B(  5-C , 14-H ) :   0.9238 B(  5-C , 15-H ) :   0.9308
B(  6-C ,  7-C ) :   0.8354 B(  6-C ,  8-C ) :   0.8611 B(  6-C , 16-H ) :   0.9310
B(  7-C ,  8-C ) :   0.8665 B(  7-C , 17-H ) :   0.9141 B(  8-C , 18-H ) :   0.9315

MP2 TOTAL ENERGY:     -385.186280287 Eh
FINAL SINGLE POINT ENERGY      -385.186280286914

DIPOLE MOMENT
-------------
                                X             Y             Z
Electronic contribution:      1.16987       0.59628      -1.59073
Nuclear contribution   :     -1.57829      -1.13612       2.11017
                        -----------------------------------------
Total Dipole Moment    :     -0.40841      -0.53984       0.51944
                        -----------------------------------------
Magnitude (a.u.)       :      0.85326
Magnitude (Debye)      :      2.16881

                             ****ORCA TERMINATED NORMALLY****
TOTAL RUN TIME: 0 days 0 hours 25 minutes 29 seconds 535 msec
