                         Program Version 3.0.3 - RELEASE   -
|  1> ! RI-MP2 RIJK def2-TZVP def2-TZVP/C def2-TZVP/JK TIGHTSCF
|  2> % maxcore 2000
|  3> % mp2 density relaxed end
|  4> *xyz 0 1
|  5>  C        0.0367532178     1.5046174016     0.4171193524
|  6>  C       -0.0219729369     0.0466306868     0.0642142937
|  7>  C       -1.1439582644    -0.6778989517     0.0110240244
|  8>  C       -1.1986620470    -2.1308093521    -0.3410520100
|  9>  C        0.1327857547    -2.7849848097    -0.6516584715
| 10>  N        0.1651767646    -4.0194503033    -0.9601248641
| 11>  N        1.2419188911    -1.9478061274    -0.5690333340
| 12>  C        1.2814629254    -0.5964824643    -0.2400710079
| 13>  O        2.3428014385    -0.0046302599    -0.2127393213
| 14>  H        0.6724423257     1.6679729607     1.2930792110
| 15>  H        0.4828645897     2.0846810427    -0.3968924294
| 16>  H       -0.9614869326     1.8966893127     0.6257527239
| 17>  H       -2.0977384818    -0.2052245789     0.2342377172
| 18>  H       -1.6704900299    -2.6984757717     0.4709441296
| 19>  H       -1.8583978602    -2.2855496842    -1.2041773899
| 20>  H        1.1170064420    -4.3416726988    -1.1462057317
| 21>  H        2.1514686733    -2.3445017925    -0.7686684223
| 22> *
| 23>
| 24>                          ****END OF INPUT****

CARTESIAN COORDINATES (ANGSTROEM)
---------------------------------
  C      0.036753    1.504617    0.417119
  C     -0.021973    0.046631    0.064214
  C     -1.143958   -0.677899    0.011024
  C     -1.198662   -2.130809   -0.341052
  C      0.132786   -2.784985   -0.651658
  N      0.165177   -4.019450   -0.960125
  N      1.241919   -1.947806   -0.569033
  C      1.281463   -0.596482   -0.240071
  O      2.342801   -0.004630   -0.212739
  H      0.672442    1.667973    1.293079
  H      0.482865    2.084681   -0.396892
  H     -0.961487    1.896689    0.625753
  H     -2.097738   -0.205225    0.234238
  H     -1.670490   -2.698476    0.470944
  H     -1.858398   -2.285550   -1.204177
  H      1.117006   -4.341673   -1.146206
  H      2.151469   -2.344502   -0.768668

 Total Charge           Charge          ....    0
 Multiplicity           Mult            ....    1
 Number of Electrons    NEL             ....   66
 Basis Dimension        Dim             ....  327

ORBITAL ENERGIES
----------------

  NO   OCC          E(Eh)            E(eV)
   0   2.0000     -20.541212      -558.9548
   1   2.0000     -15.613303      -424.8596
   2   2.0000     -15.540653      -422.8827
   3   2.0000     -11.371909      -309.4454
   4   2.0000     -11.341299      -308.6124
   5   2.0000     -11.271124      -306.7029
   6   2.0000     -11.262904      -306.4792
   7   2.0000     -11.260153      -306.4043
   8   2.0000     -11.231729      -305.6309
   9   2.0000      -1.406471       -38.2720
  10   2.0000      -1.294270       -35.2189
  11   2.0000      -1.179870       -32.1059
  12   2.0000      -1.126201       -30.6455
  13   2.0000      -1.031335       -28.0641
  14   2.0000      -0.933308       -25.3966
  15   2.0000      -0.879167       -23.9234
  16   2.0000      -0.843417       -22.9505
  17   2.0000      -0.733558       -19.9611
  18   2.0000      -0.725216       -19.7341
  19   2.0000      -0.677148       -18.4261
  20   2.0000      -0.646393       -17.5893
  21   2.0000      -0.628722       -17.1084
  22   2.0000      -0.624575       -16.9956
  23   2.0000      -0.591831       -16.1045
  24   2.0000      -0.568304       -15.4643
  25   2.0000      -0.566430       -15.4133
  26   2.0000      -0.541556       -14.7365
  27   2.0000      -0.531498       -14.4628
  28   2.0000      -0.496618       -13.5137
  29   2.0000      -0.458254       -12.4697
  30   2.0000      -0.434512       -11.8237
  31   2.0000      -0.397640       -10.8203
  32   2.0000      -0.368044       -10.0150
  33   0.0000       0.088968         2.4209
  34   0.0000       0.125413         3.4127
  35   0.0000       0.140670         3.8278
  36   0.0000       0.153792         4.1849
  37   0.0000       0.156603         4.2614

MULLIKEN ATOMIC CHARGES
-----------------------
   0 C :   -0.372055
   1 C :    0.034611
   2 C :   -0.233835
   3 C :   -0.028796
   4 C :    0.009416
   5 N :   -0.350614
   6 N :   -0.250822
   7 C :    0.206245
   8 O :   -0.320884
   9 H :    0.148853
  10 H :    0.148831
  11 H :    0.131781
  12 H :    0.135482
  13 H :    0.152979
  14 H :    0.152986
  15 H :    0.199664
  16 H :    0.236157
Sum of atomic charges:   -0.0000000

LOEWDIN ATOMIC CHARGES
----------------------
   0 C :   -0.257577
   1 C :   -0.168867
   2 C :   -0.106195
   3 C :   -0.199990
   4 C :   -0.351481
   5 N :   -0.063748
   6 N :    0.169391
   7 C :   -0.384641
   8 O :    0.114980
   9 H :    0.138202
  10 H :    0.138199
  11 H :    0.128823
  12 H :    0.150893
  13 H :    0.168105
  14 H :    0.168097
  15 H :    0.157060
  16 H :    0.198751

  Mayer bond orders larger than 0.1
B(  0-C ,  1-C ) :   0.9119 B(  0-C ,  9-H ) :   0.9220 B(  0-C , 10-H ) :   0.9219
B(  0-C , 11-H ) :   0.9473 B(  1-C ,  2-C ) :   1.6889 B(  1-C ,  7-C ) :   0.9471
B(  2-C ,  3-C ) :   0.9283 B(  2-C , 12-H ) :   0.9212 B(  3-C ,  4-C ) :   0.9047
B(  3-C ,  5-N ) :  -0.1020 B(  3-C , 13-H ) :   0.8985 B(  3-C , 14-H ) :   0.8986
B(  4-C ,  5-N ) :   2.0863 B(  4-C ,  6-N ) :   1.0646 B(  5-N , 15-H ) :   0.8588
B(  6-N ,  7-C ) :   1.1126 B(  6-N , 16-H ) :   0.8518 B(  7-C ,  8-O ) :   2.0175

MP2 TOTAL ENERGY:     -417.359419685 Eh
FINAL SINGLE POINT ENERGY      -417.359419684514

DIPOLE MOMENT
-------------
                                X             Y             Z
Electronic contribution:      4.05617      -2.78622      -1.14062
Nuclear contribution   :     -4.65965       2.96195       1.25158
                        -----------------------------------------
Total Dipole Moment    :     -0.60349       0.17573       0.11096
                        -----------------------------------------
Magnitude (a.u.)       :      0.63827
Magnitude (Debye)      :      1.62235

                             ****ORCA TERMINATED NORMALLY****
TOTAL RUN TIME: 0 days 0 hours 17 minutes 36 seconds 638 msec
