                         Program Version 3.0.3 - RELEASE   -
|  1> ! RI-MP2 RIJK def2-TZVP def2-TZVP/C def2-TZVP/JK TIGHTSCF
|  2> % maxcore 2000
|  3> % mp2 density relaxed end
|  4> *xyz 0 1
|  5>  C       -0.1468640055     1.5477153438     0.0084275112
|  6>  C        0.0600791609     0.0317414656    -0.0471564243
|  7>  C        0.7014084412    -0.5369029474     1.2233886690
|  8>  C        0.9037002514    -2.0556960031     1.1746409961
|  9>  C        1.5373464703    -2.6266355650     2.4378307525
| 10>  C        0.7038988783    -2.6331241429     3.7798468148
| 11>  C        0.8589844285    -4.1581588108     3.8123566737
| 12>  O        0.2835638604    -4.6661873385     2.6018547694
| 13>  C        1.6238910892    -4.1605146480     2.5562269930
| 14>  H        0.8055480849     2.0729825125     0.1423592729
| 15>  H       -0.6071273401     1.9235571103    -0.9107987174
| 16>  H       -0.7971920025     1.8277569241     0.8447915299
| 17>  H       -0.9043351925    -0.4648615926    -0.2170219067
| 18>  H        0.6863449075    -0.2218920756    -0.9128242072
| 19>  H        1.6692873151    -0.0435879018     1.3927495237
| 20>  H        0.0766655566    -0.2783891269     2.0895826625
| 21>  H       -0.0584102977    -2.5558388141     1.0119039335
| 22>  H        1.5355742079    -2.3094112030     0.3116202634
| 23>  H        2.5201578615    -2.1756003628     2.6156873499
| 24>  H        1.2155381599    -2.1207862971     4.5977991315
| 25>  H       -0.3293016145    -2.2812595985     3.7177068200
| 26>  H        0.8910357313    -4.8296836104     4.6624985731
| 27>  H        2.3907060579    -4.8339249579     2.1890410752
| 28> *
| 29>
| 30>                          ****END OF INPUT****

CARTESIAN COORDINATES (ANGSTROEM)
---------------------------------
  C     -0.146864    1.547715    0.008428
  C      0.060079    0.031741   -0.047156
  C      0.701408   -0.536903    1.223389
  C      0.903700   -2.055696    1.174641
  C      1.537346   -2.626636    2.437831
  C      0.703899   -2.633124    3.779847
  C      0.858984   -4.158159    3.812357
  O      0.283564   -4.666187    2.601855
  C      1.623891   -4.160515    2.556227
  H      0.805548    2.072983    0.142359
  H     -0.607127    1.923557   -0.910799
  H     -0.797192    1.827757    0.844792
  H     -0.904335   -0.464862   -0.217022
  H      0.686345   -0.221892   -0.912824
  H      1.669287   -0.043588    1.392750
  H      0.076666   -0.278389    2.089583
  H     -0.058410   -2.555839    1.011904
  H      1.535574   -2.309411    0.311620
  H      2.520158   -2.175600    2.615687
  H      1.215538   -2.120786    4.597799
  H     -0.329302   -2.281260    3.717707
  H      0.891036   -4.829684    4.662499
  H      2.390706   -4.833925    2.189041

 Total Charge           Charge          ....    0
 Multiplicity           Mult            ....    1
 Number of Electrons    NEL             ....   70
 Basis Dimension        Dim             ....  363

ORBITAL ENERGIES
----------------

  NO   OCC          E(Eh)            E(eV)
   0   2.0000     -20.562493      -559.5339
   1   2.0000     -11.282310      -307.0073
   2   2.0000     -11.280166      -306.9489
   3   2.0000     -11.236587      -305.7631
   4   2.0000     -11.230346      -305.5933
   5   2.0000     -11.216710      -305.2222
   6   2.0000     -11.216014      -305.2033
   7   2.0000     -11.214485      -305.1617
   8   2.0000     -11.210636      -305.0569
   9   2.0000      -1.412965       -38.4487
  10   2.0000      -1.100729       -29.9524
  11   2.0000      -1.059303       -28.8251
  12   2.0000      -0.987673       -26.8760
  13   2.0000      -0.911780       -24.8108
  14   2.0000      -0.874135       -23.7864
  15   2.0000      -0.825459       -22.4619
  16   2.0000      -0.788682       -21.4611
  17   2.0000      -0.743933       -20.2434
  18   2.0000      -0.714624       -19.4459
  19   2.0000      -0.641170       -17.4471
  20   2.0000      -0.623527       -16.9670
  21   2.0000      -0.607305       -16.5256
  22   2.0000      -0.579573       -15.7710
  23   2.0000      -0.576335       -15.6829
  24   2.0000      -0.559864       -15.2347
  25   2.0000      -0.527130       -14.3439
  26   2.0000      -0.515810       -14.0359
  27   2.0000      -0.502587       -13.6761
  28   2.0000      -0.488769       -13.3001
  29   2.0000      -0.476751       -12.9731
  30   2.0000      -0.464957       -12.6521
  31   2.0000      -0.459906       -12.5147
  32   2.0000      -0.448120       -12.1940
  33   2.0000      -0.428001       -11.6465
  34   2.0000      -0.393468       -10.7068
  35   0.0000       0.136453         3.7131
  36   0.0000       0.152728         4.1559
  37   0.0000       0.160621         4.3707
  38   0.0000       0.169062         4.6004
  39   0.0000       0.176405         4.8002

MULLIKEN ATOMIC CHARGES
-----------------------
   0 C :   -0.382905
   1 C :   -0.178422
   2 C :   -0.237370
   3 C :   -0.303544
   4 C :    0.022778
   5 C :   -0.220229
   6 C :   -0.031609
   7 O :   -0.333141
   8 C :    0.007028
   9 H :    0.120142
  10 H :    0.132811
  11 H :    0.121117
  12 H :    0.107290
  13 H :    0.103712
  14 H :    0.102890
  15 H :    0.110275
  16 H :    0.136962
  17 H :    0.109591
  18 H :    0.103801
  19 H :    0.119218
  20 H :    0.116170
  21 H :    0.134875
  22 H :    0.138560
Sum of atomic charges:   -0.0000000

LOEWDIN ATOMIC CHARGES
----------------------
   0 C :   -0.322739
   1 C :   -0.297294
   2 C :   -0.270389
   3 C :   -0.251628
   4 C :   -0.211364
   5 C :   -0.199814
   6 C :   -0.247959
   7 O :    0.168815
   8 C :   -0.229116
   9 H :    0.119436
  10 H :    0.119989
  11 H :    0.119701
  12 H :    0.135047
  13 H :    0.133946
  14 H :    0.135284
  15 H :    0.136719
  16 H :    0.145345
  17 H :    0.140368
  18 H :    0.151542
  19 H :    0.134719
  20 H :    0.133105
  21 H :    0.127690
  22 H :    0.128597

  Mayer bond orders larger than 0.1
B(  0-C ,  1-C ) :   0.9218 B(  0-C ,  9-H ) :   0.9396 B(  0-C , 10-H ) :   0.9434
B(  0-C , 11-H ) :   0.9397 B(  1-C ,  2-C ) :   0.9350 B(  1-C , 12-H ) :   0.9338
B(  1-C , 13-H ) :   0.9344 B(  2-C ,  3-C ) :   0.9250 B(  2-C , 14-H ) :   0.9286
B(  2-C , 15-H ) :   0.9322 B(  3-C ,  4-C ) :   0.8964 B(  3-C , 16-H ) :   0.9326
B(  3-C , 17-H ) :   0.9308 B(  4-C ,  5-C ) :   0.9560 B(  4-C ,  8-C ) :   0.8821
B(  4-C , 18-H ) :   0.9122 B(  5-C ,  6-C ) :   0.9243 B(  5-C , 19-H ) :   0.9122
B(  5-C , 20-H ) :   0.9070 B(  6-C ,  7-O ) :   0.9285 B(  6-C ,  8-C ) :   0.9040
B(  6-C , 21-H ) :   0.9307 B(  7-O ,  8-C ) :   0.8977 B(  8-C , 22-H ) :   0.9233

MP2 TOTAL ENERGY:     -387.576387723 Eh
FINAL SINGLE POINT ENERGY      -387.576387722828

DIPOLE MOMENT
-------------
                                X             Y             Z
Electronic contribution:      1.25177     -12.02360       5.35310
Nuclear contribution   :     -0.70376      12.39790      -5.06101
                        -----------------------------------------
Total Dipole Moment    :      0.54801       0.37430       0.29209
                        -----------------------------------------
Magnitude (a.u.)       :      0.72507
Magnitude (Debye)      :      1.84299

                             ****ORCA TERMINATED NORMALLY****
TOTAL RUN TIME: 0 days 0 hours 17 minutes 50 seconds 60 msec
