                         Program Version 3.0.3 - RELEASE   -
|  1> ! RI-MP2 RIJK def2-TZVP def2-TZVP/C def2-TZVP/JK TIGHTSCF
|  2> % maxcore 2000
|  3> % mp2 density relaxed end
|  4> *xyz 0 1
|  5>  N       -0.0739192402     1.1495474860    -0.6551827841
|  6>  C        0.0098997754     0.0708233549    -0.0060592507
|  7>  C       -1.2455591517    -0.7088333828     0.3873373442
|  8>  N       -1.0970993069    -2.1768754669     0.2749310409
|  9>  C        0.0322688859    -2.4897631357     0.7168277537
| 10>  O        0.7553509943    -3.6496897410     0.6414670772
| 11>  C        2.0034822752    -2.8727095524     0.7727858803
| 12>  C        1.1708215711    -1.6248011521     1.1537540044
| 13>  O        1.2364171886    -0.4463948924     0.3732089829
| 14>  H        0.8524476659     1.5519233400    -0.8106848617
| 15>  H       -1.5296260443    -0.4292537709     1.4120250489
| 16>  H       -2.0462571344    -0.3725070996    -0.2697327528
| 17>  H        2.6528850839    -3.2936394185     1.5410425000
| 18>  H        2.5107849359    -2.7954005954    -0.1908068241
| 19>  H        1.2173548815    -1.3874048432     2.2214880208
| 20> *
| 21>
| 22>                          ****END OF INPUT****

CARTESIAN COORDINATES (ANGSTROEM)
---------------------------------
  N     -0.073919    1.149547   -0.655183
  C      0.009900    0.070823   -0.006059
  C     -1.245559   -0.708833    0.387337
  N     -1.097099   -2.176875    0.274931
  C      0.032269   -2.489763    0.716828
  O      0.755351   -3.649690    0.641467
  C      2.003482   -2.872710    0.772786
  C      1.170822   -1.624801    1.153754
  O      1.236417   -0.446395    0.373209
  H      0.852448    1.551923   -0.810685
  H     -1.529626   -0.429254    1.412025
  H     -2.046257   -0.372507   -0.269733
  H      2.652885   -3.293639    1.541043
  H      2.510785   -2.795401   -0.190807
  H      1.217355   -1.387405    2.221488

 Total Charge           Charge          ....    0
 Multiplicity           Mult            ....    1
 Number of Electrons    NEL             ....   66
 Basis Dimension        Dim             ....  315

ORBITAL ENERGIES
----------------

  NO   OCC          E(Eh)            E(eV)
   0   2.0000     -20.621589      -561.1420
   1   2.0000     -20.613845      -560.9312
   2   2.0000     -15.570175      -423.6860
   3   2.0000     -15.545633      -423.0182
   4   2.0000     -11.354009      -308.9583
   5   2.0000     -11.353949      -308.9567
   6   2.0000     -11.334536      -308.4284
   7   2.0000     -11.329235      -308.2842
   8   2.0000     -11.284362      -307.0631
   9   2.0000      -1.470231       -40.0070
  10   2.0000      -1.437659       -39.1207
  11   2.0000      -1.253269       -34.1032
  12   2.0000      -1.212301       -32.9884
  13   2.0000      -1.049929       -28.5700
  14   2.0000      -0.990242       -26.9459
  15   2.0000      -0.914900       -24.8957
  16   2.0000      -0.837127       -22.7794
  17   2.0000      -0.760397       -20.6915
  18   2.0000      -0.748318       -20.3628
  19   2.0000      -0.721320       -19.6281
  20   2.0000      -0.688011       -18.7217
  21   2.0000      -0.653733       -17.7890
  22   2.0000      -0.642862       -17.4932
  23   2.0000      -0.607668       -16.5355
  24   2.0000      -0.591371       -16.0920
  25   2.0000      -0.573798       -15.6138
  26   2.0000      -0.556528       -15.1439
  27   2.0000      -0.538940       -14.6653
  28   2.0000      -0.521488       -14.1904
  29   2.0000      -0.464329       -12.6350
  30   2.0000      -0.435012       -11.8373
  31   2.0000      -0.409951       -11.1553
  32   2.0000      -0.403125       -10.9696
  33   0.0000       0.121010         3.2928
  34   0.0000       0.134672         3.6646
  35   0.0000       0.154372         4.2007
  36   0.0000       0.161637         4.3984
  37   0.0000       0.171005         4.6533

MULLIKEN ATOMIC CHARGES
-----------------------
   0 N :   -0.352890
   1 C :    0.098299
   2 C :   -0.069785
   3 N :   -0.195238
   4 C :    0.126026
   5 O :   -0.246667
   6 C :   -0.016109
   7 C :   -0.007797
   8 O :   -0.255053
   9 H :    0.224207
  10 H :    0.138576
  11 H :    0.164474
  12 H :    0.131887
  13 H :    0.128264
  14 H :    0.131806
Sum of atomic charges:    0.0000000

LOEWDIN ATOMIC CHARGES
----------------------
   0 N :   -0.043838
   1 C :   -0.386191
   2 C :   -0.233121
   3 N :    0.120070
   4 C :   -0.376739
   5 O :    0.232602
   6 C :   -0.188292
   7 C :   -0.254158
   8 O :    0.250318
   9 H :    0.168884
  10 H :    0.146533
  11 H :    0.153713
  12 H :    0.126659
  13 H :    0.133351
  14 H :    0.150208

  Mayer bond orders larger than 0.1
B(  0-N ,  1-C ) :   2.0656 B(  0-N ,  9-H ) :   0.8544 B(  1-C ,  2-C ) :   0.9041
B(  1-C ,  8-O ) :   1.0309 B(  2-C ,  3-N ) :   0.8500 B(  2-C , 10-H ) :   0.9133
B(  2-C , 11-H ) :   0.9213 B(  3-N ,  4-C ) :   1.8645 B(  4-C ,  5-O ) :   1.0956
B(  4-C ,  7-C ) :   0.9493 B(  5-O ,  6-C ) :   0.8884 B(  6-C ,  7-C ) :   0.9421
B(  6-C , 12-H ) :   0.9181 B(  6-C , 13-H ) :   0.8959 B(  7-C ,  8-O ) :   0.9332
B(  7-C , 14-H ) :   0.9154

MP2 TOTAL ENERGY:     -453.188384093 Eh
FINAL SINGLE POINT ENERGY      -453.188384093399

DIPOLE MOMENT
-------------
                                X             Y             Z
Electronic contribution:     -0.30055      -1.63412      -0.42795
Nuclear contribution   :      1.52930       1.63858       1.37446
                        -----------------------------------------
Total Dipole Moment    :      1.22875       0.00446       0.94652
                        -----------------------------------------
Magnitude (a.u.)       :      1.55105
Magnitude (Debye)      :      3.94245

                             ****ORCA TERMINATED NORMALLY****
TOTAL RUN TIME: 0 days 0 hours 14 minutes 1 seconds 334 msec
