                         Program Version 3.0.3 - RELEASE   -
|  1> ! RI-MP2 RIJK def2-TZVP def2-TZVP/C def2-TZVP/JK TIGHTSCF
|  2> % maxcore 2000
|  3> % mp2 density relaxed end
|  4> *xyz 0 1
|  5>  O        0.0633806375     1.3910342480     0.0095546975
|  6>  C        0.0585977937     0.0156108128     0.0705718658
|  7>  C       -0.4098525082    -0.7440748010     1.2956718534
|  8>  O       -1.1127021291     0.0006669307     2.2595186571
|  9>  C       -2.4427161519     0.0707095875     1.7834678796
| 10>  O       -2.3524377651     0.1299375808     0.3667401015
| 11>  C       -1.2733304239    -0.7409266628     0.0359178972
| 12>  C       -1.5588251228    -1.8618683230    -0.7958168665
| 13>  C       -1.7696178936    -2.8090848263    -1.5067384035
| 14>  H       -0.8475287266     1.6789155803     0.1607839324
| 15>  H        0.8788597804    -0.4296579206    -0.4840401663
| 16>  H        0.0975725875    -1.6324530928     1.6563429296
| 17>  H       -3.0145439118    -0.8194189495     2.0896198139
| 18>  H       -2.9129193902     0.9865899208     2.1490149346
| 19>  H       -1.9625095158    -3.6428017648    -2.1357315662
| 20> *
| 21>
| 22>                          ****END OF INPUT****

CARTESIAN COORDINATES (ANGSTROEM)
---------------------------------
  O      0.063381    1.391034    0.009555
  C      0.058598    0.015611    0.070572
  C     -0.409853   -0.744075    1.295672
  O     -1.112702    0.000667    2.259519
  C     -2.442716    0.070710    1.783468
  O     -2.352438    0.129938    0.366740
  C     -1.273330   -0.740927    0.035918
  C     -1.558825   -1.861868   -0.795817
  C     -1.769618   -2.809085   -1.506738
  H     -0.847529    1.678916    0.160784
  H      0.878860   -0.429658   -0.484040
  H      0.097573   -1.632453    1.656343
  H     -3.014544   -0.819419    2.089620
  H     -2.912919    0.986590    2.149015
  H     -1.962510   -3.642802   -2.135732

 Total Charge           Charge          ....    0
 Multiplicity           Mult            ....    1
 Number of Electrons    NEL             ....   66
 Basis Dimension        Dim             ....  315

ORBITAL ENERGIES
----------------

  NO   OCC          E(Eh)            E(eV)
   0   2.0000     -20.598318      -560.5087
   1   2.0000     -20.589968      -560.2815
   2   2.0000     -20.573783      -559.8411
   3   2.0000     -11.352465      -308.9163
   4   2.0000     -11.326991      -308.2231
   5   2.0000     -11.311739      -307.8081
   6   2.0000     -11.308687      -307.7250
   7   2.0000     -11.251528      -306.1697
   8   2.0000     -11.243734      -305.9576
   9   2.0000      -1.474800       -40.1314
  10   2.0000      -1.386109       -37.7179
  11   2.0000      -1.361172       -37.0394
  12   2.0000      -1.146989       -31.2112
  13   2.0000      -1.041832       -28.3497
  14   2.0000      -0.931183       -25.3388
  15   2.0000      -0.882434       -24.0123
  16   2.0000      -0.837438       -22.7879
  17   2.0000      -0.789149       -21.4738
  18   2.0000      -0.738602       -20.0984
  19   2.0000      -0.718863       -19.5613
  20   2.0000      -0.678172       -18.4540
  21   2.0000      -0.660959       -17.9856
  22   2.0000      -0.643954       -17.5229
  23   2.0000      -0.617869       -16.8131
  24   2.0000      -0.585569       -15.9341
  25   2.0000      -0.572037       -15.5659
  26   2.0000      -0.559840       -15.2340
  27   2.0000      -0.521076       -14.1792
  28   2.0000      -0.494110       -13.4454
  29   2.0000      -0.461868       -12.5681
  30   2.0000      -0.428111       -11.6495
  31   2.0000      -0.391828       -10.6622
  32   2.0000      -0.371041       -10.0965
  33   0.0000       0.138075         3.7572
  34   0.0000       0.148885         4.0514
  35   0.0000       0.158000         4.2994
  36   0.0000       0.163138         4.4392
  37   0.0000       0.165549         4.5048

MULLIKEN ATOMIC CHARGES
-----------------------
   0 O :   -0.442743
   1 C :    0.052135
   2 C :    0.020278
   3 O :   -0.311626
   4 C :    0.113669
   5 O :   -0.334436
   6 C :   -0.051601
   7 C :   -0.015216
   8 C :   -0.077764
   9 H :    0.339151
  10 H :    0.133288
  11 H :    0.139140
  12 H :    0.098186
  13 H :    0.137157
  14 H :    0.200383
Sum of atomic charges:    0.0000000

LOEWDIN ATOMIC CHARGES
----------------------
   0 O :    0.031590
   1 C :   -0.267760
   2 C :   -0.227474
   3 O :    0.187819
   4 C :   -0.347589
   5 O :    0.200304
   6 C :   -0.285801
   7 C :   -0.072695
   8 C :   -0.067122
   9 H :    0.188192
  10 H :    0.151795
  11 H :    0.142396
  12 H :    0.113398
  13 H :    0.122863
  14 H :    0.130086

  Mayer bond orders larger than 0.1
B(  0-O ,  1-C ) :   0.9854 B(  0-O ,  9-H ) :   0.8111 B(  1-C ,  2-C ) :   0.8461
B(  1-C ,  6-C ) :   0.8810 B(  1-C , 10-H ) :   0.9327 B(  2-C ,  3-O ) :   0.9565
B(  2-C ,  6-C ) :   0.8516 B(  2-C , 11-H ) :   0.9088 B(  3-O ,  4-C ) :   0.9641
B(  4-C ,  5-O ) :   0.9295 B(  4-C , 12-H ) :   0.9149 B(  4-C , 13-H ) :   0.9276
B(  5-O ,  6-C ) :   0.9119 B(  6-C ,  7-C ) :   1.2087 B(  6-C ,  8-C ) :  -0.1610
B(  7-C ,  8-C ) :   2.6044 B(  8-C , 14-H ) :   0.8728

MP2 TOTAL ENERGY:     -456.945176470 Eh
FINAL SINGLE POINT ENERGY      -456.945176470354

DIPOLE MOMENT
-------------
                                X             Y             Z
Electronic contribution:      0.16043       0.52439      -0.61844
Nuclear contribution   :     -0.53492      -1.23828       0.73243
                        -----------------------------------------
Total Dipole Moment    :     -0.37449      -0.71389       0.11398
                        -----------------------------------------
Magnitude (a.u.)       :      0.81417
Magnitude (Debye)      :      2.06946

                             ****ORCA TERMINATED NORMALLY****
TOTAL RUN TIME: 0 days 0 hours 15 minutes 31 seconds 219 msec
