                         Program Version 3.0.3 - RELEASE   -
|  1> ! RI-MP2 RIJK def2-TZVP def2-TZVP/C def2-TZVP/JK TIGHTSCF
|  2> % maxcore 2000
|  3> % mp2 density relaxed end
|  4> *xyz 0 1
|  5>  C       -0.2195507655     1.4977914836     0.0786837913
|  6>  C        0.0083052820    -0.0179715494     0.0779713265
|  7>  C        0.6717031562    -0.5166752939    -1.2025081339
|  8>  C        0.8685642245    -2.0067932188    -1.4818957311
|  9>  N       -0.3398425797    -2.5767313103    -2.1994650861
| 10>  C       -1.2690598273    -1.4130284803    -2.3691750782
| 11>  C       -0.0642381328    -0.4865238804    -2.5802661393
| 12>  C        0.7126799028    -1.8224972409    -2.9434794189
| 13>  C        1.4491692411    -2.3127717149    -4.1423724658
| 14>  H        0.7237929365     2.0397797994    -0.0530243688
| 15>  H       -0.8888463466     1.8003858607    -0.7341436753
| 16>  H       -0.6677034230     1.8333822753     1.0188395662
| 17>  H        0.6479947648    -0.2932978097     0.9269683908
| 18>  H       -0.9424256767    -0.5364601353     0.2432560629
| 19>  H        1.6432781773    -0.0210185750    -1.3258127652
| 20>  H        1.4713616846    -2.7270323521    -0.9422911328
| 21>  H       -1.8484389371    -1.5732453936    -3.2825451141
| 22>  H       -1.9537833447    -1.2226618317    -1.5352928507
| 23>  H       -0.1204964428     0.4314485378    -3.1635769203
| 24>  H        2.3477623855    -1.7143610105    -4.3293408436
| 25>  H        1.7550320151    -3.3527695240    -3.9917773458
| 26>  H        0.8248247258    -2.2718983259    -5.0421129280
| 27> *
| 28>
| 29>                          ****END OF INPUT****

CARTESIAN COORDINATES (ANGSTROEM)
---------------------------------
  C     -0.219551    1.497791    0.078684
  C      0.008305   -0.017972    0.077971
  C      0.671703   -0.516675   -1.202508
  C      0.868564   -2.006793   -1.481896
  N     -0.339843   -2.576731   -2.199465
  C     -1.269060   -1.413028   -2.369175
  C     -0.064238   -0.486524   -2.580266
  C      0.712680   -1.822497   -2.943479
  C      1.449169   -2.312772   -4.142372
  H      0.723793    2.039780   -0.053024
  H     -0.888846    1.800386   -0.734144
  H     -0.667703    1.833382    1.018840
  H      0.647995   -0.293298    0.926968
  H     -0.942426   -0.536460    0.243256
  H      1.643278   -0.021019   -1.325813
  H      1.471362   -2.727032   -0.942291
  H     -1.848439   -1.573245   -3.282545
  H     -1.953783   -1.222662   -1.535293
  H     -0.120496    0.431449   -3.163577
  H      2.347762   -1.714361   -4.329341
  H      1.755032   -3.352770   -3.991777
  H      0.824825   -2.271898   -5.042113

 Total Charge           Charge          ....    0
 Multiplicity           Mult            ....    1
 Number of Electrons    NEL             ....   68
 Basis Dimension        Dim             ....  357

ORBITAL ENERGIES
----------------

  NO   OCC          E(Eh)            E(eV)
   0   2.0000     -15.551860      -423.1876
   1   2.0000     -11.261590      -306.4434
   2   2.0000     -11.250165      -306.1326
   3   2.0000     -11.247330      -306.0554
   4   2.0000     -11.236759      -305.7677
   5   2.0000     -11.233393      -305.6762
   6   2.0000     -11.224395      -305.4313
   7   2.0000     -11.218825      -305.2797
   8   2.0000     -11.215281      -305.1833
   9   2.0000      -1.306939       -35.5636
  10   2.0000      -1.067926       -29.0597
  11   2.0000      -1.003673       -27.3113
  12   2.0000      -0.986275       -26.8379
  13   2.0000      -0.969856       -26.3911
  14   2.0000      -0.871354       -23.7108
  15   2.0000      -0.797510       -21.7013
  16   2.0000      -0.749908       -20.4060
  17   2.0000      -0.706258       -19.2183
  18   2.0000      -0.686382       -18.6774
  19   2.0000      -0.633364       -17.2347
  20   2.0000      -0.599628       -16.3167
  21   2.0000      -0.596084       -16.2203
  22   2.0000      -0.577699       -15.7200
  23   2.0000      -0.567266       -15.4361
  24   2.0000      -0.554782       -15.0964
  25   2.0000      -0.533004       -14.5038
  26   2.0000      -0.519420       -14.1341
  27   2.0000      -0.505809       -13.7638
  28   2.0000      -0.480821       -13.0838
  29   2.0000      -0.452738       -12.3196
  30   2.0000      -0.432477       -11.7683
  31   2.0000      -0.417276       -11.3547
  32   2.0000      -0.398767       -10.8510
  33   2.0000      -0.359323        -9.7777
  34   0.0000       0.133171         3.6238
  35   0.0000       0.146481         3.9859
  36   0.0000       0.166623         4.5340
  37   0.0000       0.168337         4.5807
  38   0.0000       0.187384         5.0990

MULLIKEN ATOMIC CHARGES
-----------------------
   0 C :   -0.401474
   1 C :   -0.217282
   2 C :   -0.070182
   3 C :   -0.152839
   4 N :   -0.254222
   5 C :   -0.143970
   6 C :   -0.126289
   7 C :    0.161207
   8 C :   -0.414630
   9 H :    0.123538
  10 H :    0.126442
  11 H :    0.136356
  12 H :    0.112255
  13 H :    0.115179
  14 H :    0.106723
  15 H :    0.125101
  16 H :    0.119414
  17 H :    0.104996
  18 H :    0.132235
  19 H :    0.135224
  20 H :    0.146703
  21 H :    0.135515
Sum of atomic charges:   -0.0000000

LOEWDIN ATOMIC CHARGES
----------------------
   0 C :   -0.316396
   1 C :   -0.275097
   2 C :   -0.209305
   3 C :   -0.173190
   4 N :    0.133987
   5 C :   -0.236781
   6 C :   -0.147053
   7 C :   -0.216018
   8 C :   -0.276157
   9 H :    0.120869
  10 H :    0.120998
  11 H :    0.121057
  12 H :    0.139575
  13 H :    0.136648
  14 H :    0.161517
  15 H :    0.135565
  16 H :    0.133142
  17 H :    0.116895
  18 H :    0.130690
  19 H :    0.130742
  20 H :    0.137656
  21 H :    0.130657

  Mayer bond orders larger than 0.1
B(  0-C ,  1-C ) :   0.9169 B(  0-C ,  9-H ) :   0.9383 B(  0-C , 10-H ) :   0.9392
B(  0-C , 11-H ) :   0.9415 B(  1-C ,  2-C ) :   0.8827 B(  1-C , 12-H ) :   0.9328
B(  1-C , 13-H ) :   0.9329 B(  2-C ,  3-C ) :   0.9275 B(  2-C ,  6-C ) :   0.9473
B(  2-C , 14-H ) :   0.9134 B(  3-C ,  4-N ) :   0.9234 B(  3-C ,  7-C ) :   0.8249
B(  3-C , 15-H ) :   0.9326 B(  4-N ,  5-C ) :   0.9300 B(  4-N ,  7-C ) :   0.8076
B(  5-C ,  6-C ) :   0.9370 B(  5-C , 16-H ) :   0.9295 B(  5-C , 17-H ) :   0.9216
B(  6-C ,  7-C ) :   0.8894 B(  6-C , 18-H ) :   0.9008 B(  7-C ,  8-C ) :   0.7880
B(  8-C , 19-H ) :   0.9424 B(  8-C , 20-H ) :   0.9499 B(  8-C , 21-H ) :   0.9440

MP2 TOTAL ENERGY:     -366.494594632 Eh
FINAL SINGLE POINT ENERGY      -366.494594632286

DIPOLE MOMENT
-------------
                                X             Y             Z
Electronic contribution:     -0.10353      -4.93643      -1.85630
Nuclear contribution   :      0.41158       5.60299       1.74283
                        -----------------------------------------
Total Dipole Moment    :      0.30806       0.66655      -0.11347
                        -----------------------------------------
Magnitude (a.u.)       :      0.74301
Magnitude (Debye)      :      1.88859

                             ****ORCA TERMINATED NORMALLY****
TOTAL RUN TIME: 0 days 0 hours 21 minutes 40 seconds 622 msec
