                         Program Version 3.0.3 - RELEASE   -
|  1> ! RI-MP2 RIJK def2-TZVP def2-TZVP/C def2-TZVP/JK TIGHTSCF
|  2> % maxcore 2000
|  3> % mp2 density relaxed end
|  4> *xyz 0 1
|  5>  N        0.1186585769     1.3798144010     0.1196524147
|  6>  C       -0.0077858166    -0.0037445815     0.0334095218
|  7>  C       -1.1367891386    -0.8056665230     0.0551111642
|  8>  C       -0.6961204658    -2.1557852230     0.0626740840
|  9>  N       -1.5019526688    -3.2809877060     0.1296453539
| 10>  C        0.6959526183    -2.1438515880     0.0301352159
| 11>  N        1.0954378587    -0.7951542792    -0.0037808015
| 12>  C        1.5926878629    -3.2144741976    -0.0254113086
| 13>  N        2.3192906342    -4.1228290773    -0.0698827477
| 14>  H        0.7718270426     1.7735231765    -0.5471342766
| 15>  H       -0.7721124521     1.8511819777     0.0445048485
| 16>  H       -2.1594808845    -0.4614867556     0.0516550979
| 17>  H       -2.3948443107    -3.1880927924    -0.3321903247
| 18>  H       -1.0386112427    -4.1409092430    -0.1305912903
| 19>  H        2.0292739662    -0.4820834184     0.1989632785
| 20> *
| 21>
| 22>                          ****END OF INPUT****

CARTESIAN COORDINATES (ANGSTROEM)
---------------------------------
  N      0.118659    1.379814    0.119652
  C     -0.007786   -0.003745    0.033410
  C     -1.136789   -0.805667    0.055111
  C     -0.696120   -2.155785    0.062674
  N     -1.501953   -3.280988    0.129645
  C      0.695953   -2.143852    0.030135
  N      1.095438   -0.795154   -0.003781
  C      1.592688   -3.214474   -0.025411
  N      2.319291   -4.122829   -0.069883
  H      0.771827    1.773523   -0.547134
  H     -0.772112    1.851182    0.044505
  H     -2.159481   -0.461487    0.051655
  H     -2.394844   -3.188093   -0.332190
  H     -1.038611   -4.140909   -0.130591
  H      2.029274   -0.482083    0.198963

 Total Charge           Charge          ....    0
 Multiplicity           Mult            ....    1
 Number of Electrons    NEL             ....   64
 Basis Dimension        Dim             ....  315

ORBITAL ENERGIES
----------------

  NO   OCC          E(Eh)            E(eV)
   0   2.0000     -15.615465      -424.9184
   1   2.0000     -15.596376      -424.3990
   2   2.0000     -15.575753      -423.8378
   3   2.0000     -15.552450      -423.2037
   4   2.0000     -11.333653      -308.4044
   5   2.0000     -11.295708      -307.3719
   6   2.0000     -11.266039      -306.5645
   7   2.0000     -11.263254      -306.4887
   8   2.0000     -11.220578      -305.3274
   9   2.0000      -1.328926       -36.1619
  10   2.0000      -1.234527       -33.5932
  11   2.0000      -1.211161       -32.9574
  12   2.0000      -1.194955       -32.5164
  13   2.0000      -1.049882       -28.5687
  14   2.0000      -1.000007       -27.2116
  15   2.0000      -0.836915       -22.7736
  16   2.0000      -0.815146       -22.1812
  17   2.0000      -0.778306       -21.1788
  18   2.0000      -0.719324       -19.5738
  19   2.0000      -0.691521       -18.8172
  20   2.0000      -0.657340       -17.8871
  21   2.0000      -0.637741       -17.3538
  22   2.0000      -0.616632       -16.7794
  23   2.0000      -0.595861       -16.2142
  24   2.0000      -0.570133       -15.5141
  25   2.0000      -0.539530       -14.6813
  26   2.0000      -0.516831       -14.0637
  27   2.0000      -0.486673       -13.2431
  28   2.0000      -0.456467       -12.4211
  29   2.0000      -0.450809       -12.2671
  30   2.0000      -0.343849        -9.3566
  31   2.0000      -0.286149        -7.7865
  32   0.0000       0.109786         2.9874
  33   0.0000       0.126977         3.4552
  34   0.0000       0.135694         3.6924
  35   0.0000       0.144651         3.9361
  36   0.0000       0.162287         4.4160

MULLIKEN ATOMIC CHARGES
-----------------------
   0 N :   -0.523542
   1 C :    0.246013
   2 C :   -0.310610
   3 C :    0.134446
   4 N :   -0.513653
   5 C :    0.205849
   6 N :   -0.325136
   7 C :   -0.265350
   8 N :   -0.061560
   9 H :    0.256341
  10 H :    0.257169
  11 H :    0.132505
  12 H :    0.251489
  13 H :    0.257575
  14 H :    0.258465
Sum of atomic charges:    0.0000000

LOEWDIN ATOMIC CHARGES
----------------------
   0 N :   -0.081022
   1 C :   -0.323250
   2 C :   -0.166615
   3 C :   -0.238881
   4 N :   -0.059942
   5 C :   -0.225880
   6 N :    0.212663
   7 C :   -0.197882
   8 N :    0.050288
   9 H :    0.170398
  10 H :    0.175929
  11 H :    0.140860
  12 H :    0.170359
  13 H :    0.174656
  14 H :    0.198319

  Mayer bond orders larger than 0.1
B(  0-N ,  1-C ) :   1.0319 B(  0-N ,  9-H ) :   0.8685 B(  0-N , 10-H ) :   0.8819
B(  1-C ,  2-C ) :   1.4581 B(  1-C ,  6-N ) :   1.1940 B(  2-C ,  3-C ) :   1.3295
B(  2-C , 11-H ) :   0.9089 B(  3-C ,  4-N ) :   1.0505 B(  3-C ,  5-C ) :   1.4133
B(  4-N , 12-H ) :   0.8737 B(  4-N , 13-H ) :   0.8730 B(  5-C ,  6-N ) :   0.9983
B(  5-C ,  7-C ) :   0.8877 B(  6-N , 14-H ) :   0.8617 B(  7-C ,  8-N ) :   2.8768

MP2 TOTAL ENERGY:     -412.328612225 Eh
FINAL SINGLE POINT ENERGY      -412.328612225358

DIPOLE MOMENT
-------------
                                X             Y             Z
Electronic contribution:      3.69233      -3.01128       0.16427
Nuclear contribution   :     -4.73175       4.86416      -0.83678
                        -----------------------------------------
Total Dipole Moment    :     -1.03942       1.85287      -0.67251
                        -----------------------------------------
Magnitude (a.u.)       :      2.22841
Magnitude (Debye)      :      5.66416

                             ****ORCA TERMINATED NORMALLY****
TOTAL RUN TIME: 0 days 0 hours 15 minutes 21 seconds 940 msec
