                         Program Version 3.0.3 - RELEASE   -
|  1> ! RI-MP2 RIJK def2-TZVP def2-TZVP/C def2-TZVP/JK TIGHTSCF
|  2> % maxcore 2000
|  3> % mp2 density relaxed end
|  4> *xyz 0 1
|  5>  C       -0.0026326162     1.5310138116     0.0419706246
|  6>  C        0.0704572997     0.0005215492    -0.0011116833
|  7>  C        0.6552915234    -0.5361022654    -1.2819082875
|  8>  C        0.0418562118    -0.3829174362    -2.7053874157
|  9>  C        1.1095056685    -1.4695848299    -3.0333735811
| 10>  C        2.3954318290    -0.7059673451    -2.7006968265
| 11>  O        2.0015183020    -0.0562020949    -1.4736445129
| 12>  C        0.7765599848    -2.0455402389    -1.6155568810
| 13>  O        1.7417635863    -2.7520851808    -0.8866420316
| 14>  H        0.9905511250     1.9661549897    -0.0923882181
| 15>  H       -0.6505405732     1.9207190095    -0.7504970583
| 16>  H       -0.4040811702     1.8748591477     0.9998419834
| 17>  H        0.6854539366    -0.3694442930     0.8277254655
| 18>  H       -0.9291025034    -0.4315449217     0.1285196260
| 19>  H       -0.9855347872    -0.7427617382    -2.7869710760
| 20>  H        0.1541178442     0.5931726120    -3.1800763842
| 21>  H        1.0883111068    -2.0709400337    -3.9419509482
| 22>  H        3.2476872205    -1.3671815517    -2.5123356295
| 23>  H        2.6669490676     0.0412603739    -3.4552742918
| 24>  H       -0.2021307834    -2.5404754703    -1.6004758533
| 25>  H        1.7143076874    -3.6749527437    -1.1567956705
| 26> *
| 27>
| 28>                          ****END OF INPUT****

CARTESIAN COORDINATES (ANGSTROEM)
---------------------------------
  C     -0.002633    1.531014    0.041971
  C      0.070457    0.000522   -0.001112
  C      0.655292   -0.536102   -1.281908
  C      0.041856   -0.382917   -2.705387
  C      1.109506   -1.469585   -3.033374
  C      2.395432   -0.705967   -2.700697
  O      2.001518   -0.056202   -1.473645
  C      0.776560   -2.045540   -1.615557
  O      1.741764   -2.752085   -0.886642
  H      0.990551    1.966155   -0.092388
  H     -0.650541    1.920719   -0.750497
  H     -0.404081    1.874859    0.999842
  H      0.685454   -0.369444    0.827725
  H     -0.929103   -0.431545    0.128520
  H     -0.985535   -0.742762   -2.786971
  H      0.154118    0.593173   -3.180076
  H      1.088311   -2.070940   -3.941951
  H      3.247687   -1.367182   -2.512336
  H      2.666949    0.041260   -3.455274
  H     -0.202131   -2.540475   -1.600476
  H      1.714308   -3.674953   -1.156796

 Total Charge           Charge          ....    0
 Multiplicity           Mult            ....    1
 Number of Electrons    NEL             ....   70
 Basis Dimension        Dim             ....  351

ORBITAL ENERGIES
----------------

  NO   OCC          E(Eh)            E(eV)
   0   2.0000     -20.560841      -559.4889
   1   2.0000     -20.540990      -558.9488
   2   2.0000     -11.282724      -307.0185
   3   2.0000     -11.282128      -307.0023
   4   2.0000     -11.266041      -306.5646
   5   2.0000     -11.237219      -305.7803
   6   2.0000     -11.226177      -305.4798
   7   2.0000     -11.216834      -305.2256
   8   2.0000     -11.205870      -304.9272
   9   2.0000      -1.388638       -37.7868
  10   2.0000      -1.355107       -36.8743
  11   2.0000      -1.117529       -30.4095
  12   2.0000      -1.045436       -28.4478
  13   2.0000      -0.955126       -25.9903
  14   2.0000      -0.894472       -24.3398
  15   2.0000      -0.852875       -23.2079
  16   2.0000      -0.780325       -21.2337
  17   2.0000      -0.753758       -20.5108
  18   2.0000      -0.706110       -19.2142
  19   2.0000      -0.679150       -18.4806
  20   2.0000      -0.651890       -17.7388
  21   2.0000      -0.613800       -16.7023
  22   2.0000      -0.608074       -16.5465
  23   2.0000      -0.574967       -15.6457
  24   2.0000      -0.552403       -15.0317
  25   2.0000      -0.531194       -14.4545
  26   2.0000      -0.526046       -14.3144
  27   2.0000      -0.519759       -14.1434
  28   2.0000      -0.499765       -13.5993
  29   2.0000      -0.489339       -13.3156
  30   2.0000      -0.476364       -12.9625
  31   2.0000      -0.469869       -12.7858
  32   2.0000      -0.446104       -12.1391
  33   2.0000      -0.416801       -11.3417
  34   2.0000      -0.386223       -10.5097
  35   0.0000       0.130264         3.5447
  36   0.0000       0.143306         3.8996
  37   0.0000       0.163244         4.4421
  38   0.0000       0.169812         4.6208
  39   0.0000       0.192560         5.2398

MULLIKEN ATOMIC CHARGES
-----------------------
   0 C :   -0.406106
   1 C :   -0.227386
   2 C :    0.236241
   3 C :   -0.315197
   4 C :   -0.071408
   5 C :   -0.045803
   6 O :   -0.334748
   7 C :   -0.032898
   8 O :   -0.458628
   9 H :    0.149602
  10 H :    0.118609
  11 H :    0.131889
  12 H :    0.129411
  13 H :    0.101951
  14 H :    0.125021
  15 H :    0.129734
  16 H :    0.138595
  17 H :    0.098990
  18 H :    0.107481
  19 H :    0.105231
  20 H :    0.319420
Sum of atomic charges:    0.0000000

LOEWDIN ATOMIC CHARGES
----------------------
   0 C :   -0.311237
   1 C :   -0.251084
   2 C :   -0.304995
   3 C :   -0.180556
   4 C :   -0.212384
   5 C :   -0.263501
   6 O :    0.180597
   7 C :   -0.290144
   8 O :    0.003908
   9 H :    0.127717
  10 H :    0.119707
  11 H :    0.120005
  12 H :    0.150312
  13 H :    0.142398
  14 H :    0.138556
  15 H :    0.134657
  16 H :    0.132807
  17 H :    0.124492
  18 H :    0.121452
  19 H :    0.138776
  20 H :    0.178517

  Mayer bond orders larger than 0.1
B(  0-C ,  1-C ) :   0.9298 B(  0-C ,  9-H ) :   0.9375 B(  0-C , 10-H ) :   0.9361
B(  0-C , 11-H ) :   0.9413 B(  1-C ,  2-C ) :   0.8852 B(  1-C , 12-H ) :   0.9373
B(  1-C , 13-H ) :   0.9327 B(  2-C ,  3-C ) :   0.8993 B(  2-C ,  6-O ) :   0.9263
B(  2-C ,  7-C ) :   0.8587 B(  2-C ,  8-O ) :  -0.1135 B(  3-C ,  4-C ) :   0.8971
B(  3-C , 14-H ) :   0.9240 B(  3-C , 15-H ) :   0.9169 B(  4-C ,  5-C ) :   0.9412
B(  4-C ,  7-C ) :   0.8574 B(  4-C , 16-H ) :   0.9076 B(  5-C ,  6-O ) :   0.9387
B(  5-C , 17-H ) :   0.9164 B(  5-C , 18-H ) :   0.9250 B(  7-C ,  8-O ) :   1.1576
B(  7-C , 19-H ) :   0.9681 B(  8-O , 20-H ) :   0.8412

MP2 TOTAL ENERGY:     -423.513343688 Eh
FINAL SINGLE POINT ENERGY      -423.513343688207

DIPOLE MOMENT
-------------
                                X             Y             Z
Electronic contribution:      3.64776      -4.35263      -1.01994
Nuclear contribution   :     -4.29174       3.65429       0.35731
                        -----------------------------------------
Total Dipole Moment    :     -0.64398      -0.69834      -0.66263
                        -----------------------------------------
Magnitude (a.u.)       :      1.15822
Magnitude (Debye)      :      2.94396

                             ****ORCA TERMINATED NORMALLY****
TOTAL RUN TIME: 0 days 0 hours 18 minutes 54 seconds 564 msec
