                         Program Version 3.0.3 - RELEASE   -
|  1> ! RI-MP2 RIJK def2-TZVP def2-TZVP/C def2-TZVP/JK TIGHTSCF
|  2> % maxcore 2000
|  3> % mp2 density relaxed end
|  4> *xyz 0 1
|  5>  C       -0.1144723842     1.5069233872     0.0391297183
|  6>  C       -0.0392322745     0.0120796974     0.0068293551
|  7>  C       -0.0730796886    -0.7918572648    -1.1046909312
|  8>  N        0.0234358303    -2.1160869349    -0.6917311503
|  9>  C        0.1170591820    -2.1448114936     0.6642224948
| 10>  O        0.2229313151    -3.3132385740     1.3324733020
| 11>  C        0.0832127326    -0.8586351946     1.1460089163
| 12>  N        0.1650833926    -0.6009222428     2.5489227751
| 13>  H        0.7769458683     1.9530049412     0.4985143519
| 14>  H       -0.2044308226     1.9191691968    -0.9699828717
| 15>  H       -0.9768353500     1.8621591842     0.6177379039
| 16>  H       -0.1568618752    -0.5464379463    -2.1506558028
| 17>  H        0.0256976028    -2.9274695056    -1.2832868703
| 18>  H        0.2726756163    -3.0535432601     2.2649227632
| 19>  H       -0.6541697435    -0.1082238388     2.8930377305
| 20>  H        0.9684412586    -0.0245722113     2.7829804352
| 21> *
| 22>
| 23>                          ****END OF INPUT****

CARTESIAN COORDINATES (ANGSTROEM)
---------------------------------
  C     -0.114472    1.506923    0.039130
  C     -0.039232    0.012080    0.006829
  C     -0.073080   -0.791857   -1.104691
  N      0.023436   -2.116087   -0.691731
  C      0.117059   -2.144811    0.664222
  O      0.222931   -3.313239    1.332473
  C      0.083213   -0.858635    1.146009
  N      0.165083   -0.600922    2.548923
  H      0.776946    1.953005    0.498514
  H     -0.204431    1.919169   -0.969983
  H     -0.976835    1.862159    0.617738
  H     -0.156862   -0.546438   -2.150656
  H      0.025698   -2.927470   -1.283287
  H      0.272676   -3.053543    2.264923
  H     -0.654170   -0.108224    2.893038
  H      0.968441   -0.024572    2.782980

 Total Charge           Charge          ....    0
 Multiplicity           Mult            ....    1
 Number of Electrons    NEL             ....   60
 Basis Dimension        Dim             ....  296

ORBITAL ENERGIES
----------------

  NO   OCC          E(Eh)            E(eV)
   0   2.0000     -20.586572      -560.1891
   1   2.0000     -15.593218      -424.3130
   2   2.0000     -15.552725      -423.2112
   3   2.0000     -11.307571      -307.6947
   4   2.0000     -11.236979      -305.7737
   5   2.0000     -11.221779      -305.3601
   6   2.0000     -11.219501      -305.2982
   7   2.0000     -11.215442      -305.1877
   8   2.0000      -1.411525       -38.4095
   9   2.0000      -1.276136       -34.7254
  10   2.0000      -1.181605       -32.1531
  11   2.0000      -1.048557       -28.5327
  12   2.0000      -0.965107       -26.2619
  13   2.0000      -0.924762       -25.1641
  14   2.0000      -0.785775       -21.3820
  15   2.0000      -0.760056       -20.6822
  16   2.0000      -0.737293       -20.0628
  17   2.0000      -0.659172       -17.9370
  18   2.0000      -0.653078       -17.7712
  19   2.0000      -0.616481       -16.7753
  20   2.0000      -0.605859       -16.4863
  21   2.0000      -0.583382       -15.8746
  22   2.0000      -0.575435       -15.6584
  23   2.0000      -0.562264       -15.3000
  24   2.0000      -0.525012       -14.2863
  25   2.0000      -0.514132       -13.9902
  26   2.0000      -0.510697       -13.8968
  27   2.0000      -0.410989       -11.1836
  28   2.0000      -0.334811        -9.1107
  29   2.0000      -0.272451        -7.4138
  30   0.0000       0.124313         3.3827
  31   0.0000       0.147707         4.0193
  32   0.0000       0.164917         4.4876
  33   0.0000       0.191539         5.2120
  34   0.0000       0.192889         5.2488

MULLIKEN ATOMIC CHARGES
-----------------------
   0 C :   -0.445518
   1 C :    0.016449
   2 C :   -0.117281
   3 N :   -0.271625
   4 C :    0.204560
   5 O :   -0.443450
   6 C :    0.022833
   7 N :   -0.590179
   8 H :    0.130533
   9 H :    0.136593
  10 H :    0.130527
  11 H :    0.137985
  12 H :    0.247495
  13 H :    0.351105
  14 H :    0.244986
  15 H :    0.244987
Sum of atomic charges:    0.0000000

LOEWDIN ATOMIC CHARGES
----------------------
   0 C :   -0.280493
   1 C :   -0.211814
   2 C :   -0.225382
   3 N :    0.189597
   4 C :   -0.358425
   5 O :    0.061470
   6 C :   -0.279063
   7 N :   -0.131884
   8 H :    0.125857
   9 H :    0.130902
  10 H :    0.125855
  11 H :    0.131213
  12 H :    0.192599
  13 H :    0.206652
  14 H :    0.161458
  15 H :    0.161459

  Mayer bond orders larger than 0.1
B(  0-C ,  1-C ) :   0.8436 B(  0-C ,  8-H ) :   0.9404 B(  0-C ,  9-H ) :   0.9556
B(  0-C , 10-H ) :   0.9404 B(  1-C ,  2-C ) :   1.5274 B(  1-C ,  6-C ) :   1.1652
B(  2-C ,  3-N ) :   1.0637 B(  2-C , 11-H ) :   0.9134 B(  3-N ,  4-C ) :   1.1755
B(  3-N , 12-H ) :   0.8714 B(  4-C ,  5-O ) :   1.1452 B(  4-C ,  6-C ) :   1.4926
B(  5-O , 13-H ) :   0.8067 B(  6-C ,  7-N ) :   0.9924 B(  7-N , 14-H ) :   0.8949
B(  7-N , 15-H ) :   0.8949

MP2 TOTAL ENERGY:     -379.319732428 Eh
FINAL SINGLE POINT ENERGY      -379.319732427656

DIPOLE MOMENT
-------------
                                X             Y             Z
Electronic contribution:      0.32620      -6.77286      -0.35982
Nuclear contribution   :     -0.34638       7.08267       0.29526
                        -----------------------------------------
Total Dipole Moment    :     -0.02018       0.30981      -0.06456
                        -----------------------------------------
Magnitude (a.u.)       :      0.31711
Magnitude (Debye)      :      0.80604

                             ****ORCA TERMINATED NORMALLY****
TOTAL RUN TIME: 0 days 0 hours 11 minutes 50 seconds 536 msec
