                         Program Version 3.0.3 - RELEASE   -
|  1> ! RI-MP2 RIJK def2-TZVP def2-TZVP/C def2-TZVP/JK TIGHTSCF
|  2> % maxcore 2000
|  3> % mp2 density relaxed end
|  4> *xyz 0 1
|  5>  O       -0.0299542856     1.3628933618     0.0246639982
|  6>  C       -0.0372240165    -0.0254882558     0.0102002671
|  7>  C        1.0604597245    -0.6303647357     0.7264257990
|  8>  N        1.9295957655    -1.1404523505     1.2935006145
|  9>  C       -1.3446082518    -0.8283444369     0.0497836334
| 10>  C       -2.3693042856    -0.0402105033    -0.7543217239
| 11>  O       -1.4525693442     0.0454006709    -1.8955742945
| 12>  C       -0.5163581943    -0.7806472052    -1.2130929385
| 13>  H       -0.2308122130     1.6436605996    -0.8794281196
| 14>  H       -1.5305435327    -1.6210073782     0.7604568187
| 15>  H       -3.2521638991    -0.6218177424    -1.0313086687
| 16>  H       -2.6538545211     0.9455981631    -0.3769307343
| 17>  H        0.0607557839    -1.5009096874    -1.7804289813
| 18> *
| 19>
| 20>                          ****END OF INPUT****

CARTESIAN COORDINATES (ANGSTROEM)
---------------------------------
  O     -0.029954    1.362893    0.024664
  C     -0.037224   -0.025488    0.010200
  C      1.060460   -0.630365    0.726426
  N      1.929596   -1.140452    1.293501
  C     -1.344608   -0.828344    0.049784
  C     -2.369304   -0.040211   -0.754322
  O     -1.452569    0.045401   -1.895574
  C     -0.516358   -0.780647   -1.213093
  H     -0.230812    1.643661   -0.879428
  H     -1.530544   -1.621007    0.760457
  H     -3.252164   -0.621818   -1.031309
  H     -2.653855    0.945598   -0.376931
  H      0.060756   -1.500910   -1.780429

 Total Charge           Charge          ....    0
 Multiplicity           Mult            ....    1
 Number of Electrons    NEL             ....   58
 Basis Dimension        Dim             ....  278

ORBITAL ENERGIES
----------------

  NO   OCC          E(Eh)            E(eV)
   0   2.0000     -20.598285      -560.5078
   1   2.0000     -20.596856      -560.4689
   2   2.0000     -15.583416      -424.0463
   3   2.0000     -11.355762      -309.0060
   4   2.0000     -11.334119      -308.4171
   5   2.0000     -11.320470      -308.0457
   6   2.0000     -11.284567      -307.0687
   7   2.0000     -11.281820      -306.9939
   8   2.0000      -1.449073       -39.4313
   9   2.0000      -1.399321       -38.0774
  10   2.0000      -1.229606       -33.4593
  11   2.0000      -1.152289       -31.3554
  12   2.0000      -0.995027       -27.0760
  13   2.0000      -0.912413       -24.8280
  14   2.0000      -0.801235       -21.8027
  15   2.0000      -0.777810       -21.1653
  16   2.0000      -0.745860       -20.2959
  17   2.0000      -0.696408       -18.9502
  18   2.0000      -0.655835       -17.8462
  19   2.0000      -0.642620       -17.4866
  20   2.0000      -0.603302       -16.4167
  21   2.0000      -0.579162       -15.7598
  22   2.0000      -0.563669       -15.3382
  23   2.0000      -0.530871       -14.4457
  24   2.0000      -0.518489       -14.1088
  25   2.0000      -0.497765       -13.5449
  26   2.0000      -0.481262       -13.0958
  27   2.0000      -0.441241       -12.0068
  28   2.0000      -0.404294       -11.0014
  29   0.0000       0.123907         3.3717
  30   0.0000       0.138317         3.7638
  31   0.0000       0.150390         4.0923
  32   0.0000       0.161794         4.4026
  33   0.0000       0.175865         4.7855

MULLIKEN ATOMIC CHARGES
-----------------------
   0 O :   -0.445868
   1 C :    0.279964
   2 C :   -0.212739
   3 N :   -0.043198
   4 C :   -0.187004
   5 C :   -0.049100
   6 O :   -0.341792
   7 C :    0.047900
   8 H :    0.349604
   9 H :    0.171454
  10 H :    0.134226
  11 H :    0.140748
  12 H :    0.155806
Sum of atomic charges:    0.0000000

LOEWDIN ATOMIC CHARGES
----------------------
   0 O :    0.059064
   1 C :   -0.333857
   2 C :   -0.137601
   3 N :    0.081222
   4 C :   -0.140392
   5 C :   -0.219374
   6 O :    0.147840
   7 C :   -0.205368
   8 H :    0.196743
   9 H :    0.148932
  10 H :    0.132923
  11 H :    0.127878
  12 H :    0.141990

  Mayer bond orders larger than 0.1
B(  0-O ,  1-C ) :   1.0269 B(  0-O ,  8-H ) :   0.8093 B(  1-C ,  2-C ) :   0.9387
B(  1-C ,  4-C ) :   0.8423 B(  1-C ,  7-C ) :   0.8586 B(  2-C ,  3-N ) :   2.8561
B(  4-C ,  5-C ) :   0.9456 B(  4-C ,  7-C ) :   0.8838 B(  4-C ,  9-H ) :   0.8992
B(  5-C ,  6-O ) :   0.8824 B(  5-C , 10-H ) :   0.9183 B(  5-C , 11-H ) :   0.9214
B(  6-O ,  7-C ) :   0.9418 B(  7-C , 12-H ) :   0.9044

MP2 TOTAL ENERGY:     -397.901510342 Eh
FINAL SINGLE POINT ENERGY      -397.901510342444

DIPOLE MOMENT
-------------
                                X             Y             Z
Electronic contribution:      3.86737       0.01026       1.14612
Nuclear contribution   :     -5.32370      -0.12027      -1.87590
                        -----------------------------------------
Total Dipole Moment    :     -1.45633      -0.11001      -0.72977
                        -----------------------------------------
Magnitude (a.u.)       :      1.63265
Magnitude (Debye)      :      4.14988

                             ****ORCA TERMINATED NORMALLY****
TOTAL RUN TIME: 0 days 0 hours 10 minutes 7 seconds 653 msec
