                         Program Version 3.0.3 - RELEASE   -
|  1> ! RI-MP2 RIJK def2-TZVP def2-TZVP/C def2-TZVP/JK TIGHTSCF
|  2> % maxcore 2000
|  3> % mp2 density relaxed end
|  4> *xyz 0 1
|  5>  C        0.0077994515     1.4451425330     0.0109170572
|  6>  C       -0.0040848125    -0.0628926601    -0.0302648096
|  7>  O        1.0334474698    -0.7216510215    -0.0836164456
|  8>  C       -1.2803750259    -0.7663549004    -0.0062366755
|  9>  N       -2.4884558778    -0.1793163341     0.0521887943
| 10>  N       -3.3410405224    -1.1958703726     0.0524837630
| 11>  C       -2.7537987146    -2.4316843663    -0.0030333773
| 12>  C       -1.3970176345    -2.1848585165    -0.0428113856
| 13>  O       -0.3889846019    -3.0652407465    -0.1028422441
| 14>  H        1.0377414839     1.8025045775    -0.0039287730
| 15>  H       -0.5448482469     1.8481870665    -0.8436061150
| 16>  H       -0.5049291112     1.8014351407     0.9097475244
| 17>  H       -4.3279657099    -1.0006472781     0.0922085567
| 18>  H       -3.3250482502    -3.3440962613    -0.0093804538
| 19>  H        0.4224520427    -2.5172730004    -0.1150444262
| 20> *
| 21>
| 22>                          ****END OF INPUT****

CARTESIAN COORDINATES (ANGSTROEM)
---------------------------------
  C      0.007799    1.445143    0.010917
  C     -0.004085   -0.062893   -0.030265
  O      1.033447   -0.721651   -0.083616
  C     -1.280375   -0.766355   -0.006237
  N     -2.488456   -0.179316    0.052189
  N     -3.341041   -1.195870    0.052484
  C     -2.753799   -2.431684   -0.003033
  C     -1.397018   -2.184859   -0.042811
  O     -0.388985   -3.065241   -0.102842
  H      1.037741    1.802505   -0.003929
  H     -0.544848    1.848187   -0.843606
  H     -0.504929    1.801435    0.909748
  H     -4.327966   -1.000647    0.092209
  H     -3.325048   -3.344096   -0.009380
  H      0.422452   -2.517273   -0.115044

 Total Charge           Charge          ....    0
 Multiplicity           Mult            ....    1
 Number of Electrons    NEL             ....   66
 Basis Dimension        Dim             ....  315

ORBITAL ENERGIES
----------------

  NO   OCC          E(Eh)            E(eV)
   0   2.0000     -20.577905      -559.9533
   1   2.0000     -20.556973      -559.3837
   2   2.0000     -15.665165      -426.2708
   3   2.0000     -15.622721      -425.1158
   4   2.0000     -11.349510      -308.8359
   5   2.0000     -11.301656      -307.5337
   6   2.0000     -11.276705      -306.8548
   7   2.0000     -11.265567      -306.5517
   8   2.0000     -11.236917      -305.7720
   9   2.0000      -1.419234       -38.6193
  10   2.0000      -1.393834       -37.9282
  11   2.0000      -1.387219       -37.7481
  12   2.0000      -1.124518       -30.5997
  13   2.0000      -1.062038       -28.8995
  14   2.0000      -1.015540       -27.6342
  15   2.0000      -0.895749       -24.3746
  16   2.0000      -0.822663       -22.3858
  17   2.0000      -0.786846       -21.4112
  18   2.0000      -0.734473       -19.9860
  19   2.0000      -0.687456       -18.7066
  20   2.0000      -0.657595       -17.8941
  21   2.0000      -0.648774       -17.6540
  22   2.0000      -0.639220       -17.3941
  23   2.0000      -0.617454       -16.8018
  24   2.0000      -0.599467       -16.3123
  25   2.0000      -0.573257       -15.5991
  26   2.0000      -0.564129       -15.3507
  27   2.0000      -0.550581       -14.9821
  28   2.0000      -0.514672       -14.0049
  29   2.0000      -0.488435       -13.2910
  30   2.0000      -0.433418       -11.7939
  31   2.0000      -0.377056       -10.2602
  32   2.0000      -0.332034        -9.0351
  33   0.0000       0.086214         2.3460
  34   0.0000       0.124583         3.3901
  35   0.0000       0.145893         3.9700
  36   0.0000       0.165771         4.5109
  37   0.0000       0.178232         4.8499

MULLIKEN ATOMIC CHARGES
-----------------------
   0 C :   -0.383331
   1 C :    0.247924
   2 O :   -0.385818
   3 C :   -0.003637
   4 N :   -0.237826
   5 N :   -0.073720
   6 C :   -0.133901
   7 C :    0.156176
   8 O :   -0.434188
   9 H :    0.154644
  10 H :    0.152364
  11 H :    0.152755
  12 H :    0.263950
  13 H :    0.163765
  14 H :    0.360843
Sum of atomic charges:    0.0000000

LOEWDIN ATOMIC CHARGES
----------------------
   0 C :   -0.264514
   1 C :   -0.315477
   2 O :    0.109193
   3 C :   -0.259026
   4 N :    0.046051
   5 N :    0.141124
   6 C :   -0.206777
   7 C :   -0.288915
   8 O :    0.085142
   9 H :    0.133842
  10 H :    0.143010
  11 H :    0.142810
  12 H :    0.192502
  13 H :    0.140848
  14 H :    0.200186

  Mayer bond orders larger than 0.1
B(  0-C ,  1-C ) :   0.9709 B(  0-C ,  9-H ) :   0.9381 B(  0-C , 10-H ) :   0.9102
B(  0-C , 11-H ) :   0.9109 B(  1-C ,  2-O ) :   1.7643 B(  1-C ,  3-C ) :   0.9715
B(  3-C ,  4-N ) :   1.4222 B(  3-C ,  7-C ) :   1.1697 B(  4-N ,  5-N ) :   1.1241
B(  4-N ,  6-C ) :   0.1273 B(  5-N ,  6-C ) :   1.1448 B(  5-N , 12-H ) :   0.8707
B(  6-C ,  7-C ) :   1.4362 B(  6-C , 13-H ) :   0.9014 B(  7-C ,  8-O ) :   1.1530
B(  8-O , 14-H ) :   0.7668

MP2 TOTAL ENERGY:     -453.254053982 Eh
FINAL SINGLE POINT ENERGY      -453.254053981967

DIPOLE MOMENT
-------------
                                X             Y             Z
Electronic contribution:     -1.00034      -4.17498      -0.07917
Nuclear contribution   :     -0.35122       4.42751       0.13137
                        -----------------------------------------
Total Dipole Moment    :     -1.35156       0.25253       0.05220
                        -----------------------------------------
Magnitude (a.u.)       :      1.37594
Magnitude (Debye)      :      3.49736

                             ****ORCA TERMINATED NORMALLY****
TOTAL RUN TIME: 0 days 0 hours 14 minutes 25 seconds 537 msec
