                         Program Version 3.0.3 - RELEASE   -
|  1> ! RI-MP2 RIJK def2-TZVP def2-TZVP/C def2-TZVP/JK TIGHTSCF
|  2> % maxcore 2000
|  3> % mp2 density relaxed end
|  4> *xyz 0 1
|  5>  N        0.0567345611     1.3001542677     0.0072505682
|  6>  C       -0.0325287022    -0.0360545875     0.0010319424
|  7>  N       -1.1881290346    -0.6445110959     0.0042356554
|  8>  C       -1.0788626771    -2.0046134645    -0.0032045509
|  9>  N        0.0034208966    -2.7217790827    -0.0126904180
| 10>  C        1.2070156478    -2.0532946009    -0.0161030511
| 11>  N        2.3775561919    -2.5232418902    -0.0243982510
| 12>  O        1.1594348403    -0.6319282079    -0.0085450062
| 13>  H        0.9555759129     1.7492282312     0.0045264653
| 14>  H       -0.7915696484     1.8382773476     0.0145263688
| 15>  H       -2.0268607830    -2.5397178418    -0.0006409199
| 16>  H        2.3100540148    -3.5396649050    -0.0287876031
| 17> *
| 18>
| 19>                          ****END OF INPUT****

CARTESIAN COORDINATES (ANGSTROEM)
---------------------------------
  N      0.056735    1.300154    0.007251
  C     -0.032529   -0.036055    0.001032
  N     -1.188129   -0.644511    0.004236
  C     -1.078863   -2.004613   -0.003205
  N      0.003421   -2.721779   -0.012690
  C      1.207016   -2.053295   -0.016103
  N      2.377556   -2.523242   -0.024398
  O      1.159435   -0.631928   -0.008545
  H      0.955576    1.749228    0.004526
  H     -0.791570    1.838277    0.014526
  H     -2.026861   -2.539718   -0.000641
  H      2.310054   -3.539665   -0.028788

 Total Charge           Charge          ....    0
 Multiplicity           Mult            ....    1
 Number of Electrons    NEL             ....   58
 Basis Dimension        Dim             ....  272

ORBITAL ENERGIES
----------------

  NO   OCC          E(Eh)            E(eV)
   0   2.0000     -20.648366      -561.8706
   1   2.0000     -15.623378      -425.1337
   2   2.0000     -15.564715      -423.5374
   3   2.0000     -15.563602      -423.5071
   4   2.0000     -15.532614      -422.6639
   5   2.0000     -11.429600      -311.0152
   6   2.0000     -11.376372      -309.5668
   7   2.0000     -11.343286      -308.6665
   8   2.0000      -1.504919       -40.9509
   9   2.0000      -1.303316       -35.4650
  10   2.0000      -1.290649       -35.1203
  11   2.0000      -1.218298       -33.1516
  12   2.0000      -1.159546       -31.5528
  13   2.0000      -0.933414       -25.3995
  14   2.0000      -0.916105       -24.9285
  15   2.0000      -0.803636       -21.8680
  16   2.0000      -0.758515       -20.6402
  17   2.0000      -0.721260       -19.6265
  18   2.0000      -0.696388       -18.9497
  19   2.0000      -0.677511       -18.4360
  20   2.0000      -0.655007       -17.8236
  21   2.0000      -0.636641       -17.3239
  22   2.0000      -0.549668       -14.9572
  23   2.0000      -0.529581       -14.4106
  24   2.0000      -0.489300       -13.3145
  25   2.0000      -0.451336       -12.2815
  26   2.0000      -0.444678       -12.1003
  27   2.0000      -0.442256       -12.0344
  28   2.0000      -0.354400        -9.6437
  29   0.0000       0.093018         2.5312
  30   0.0000       0.117664         3.2018
  31   0.0000       0.162760         4.4289
  32   0.0000       0.168374         4.5817
  33   0.0000       0.178563         4.8590

MULLIKEN ATOMIC CHARGES
-----------------------
   0 N :   -0.467028
   1 C :    0.418063
   2 N :   -0.358047
   3 C :    0.082882
   4 N :   -0.292065
   5 C :    0.212210
   6 N :   -0.348905
   7 O :   -0.198692
   8 H :    0.285716
   9 H :    0.285557
  10 H :    0.140440
  11 H :    0.239867
Sum of atomic charges:    0.0000000

LOEWDIN ATOMIC CHARGES
----------------------
   0 N :    0.031979
   1 C :   -0.442717
   2 N :    0.063042
   3 C :   -0.273475
   4 N :    0.092119
   5 C :   -0.444815
   6 N :   -0.051417
   7 O :    0.332626
   8 H :    0.186207
   9 H :    0.189344
  10 H :    0.138987
  11 H :    0.178120

  Mayer bond orders larger than 0.1
B(  0-N ,  1-C ) :   1.2438 B(  0-N ,  8-H ) :   0.8558 B(  0-N ,  9-H ) :   0.8549
B(  1-C ,  2-N ) :   1.5324 B(  1-C ,  7-O ) :   1.1526 B(  2-N ,  3-C ) :   1.2062
B(  3-C ,  4-N ) :   1.6166 B(  3-C , 10-H ) :   0.9316 B(  4-N ,  5-C ) :   1.1647
B(  5-C ,  6-N ) :   2.0006 B(  5-C ,  7-O ) :   0.9028 B(  6-N , 11-H ) :   0.8479

MP2 TOTAL ENERGY:     -410.215424141 Eh
FINAL SINGLE POINT ENERGY      -410.215424141039

DIPOLE MOMENT
-------------
                                X             Y             Z
Electronic contribution:      0.20769      -0.51181      -0.00427
Nuclear contribution   :     -0.82933       1.88991       0.01452
                        -----------------------------------------
Total Dipole Moment    :     -0.62164       1.37811       0.01025
                        -----------------------------------------
Magnitude (a.u.)       :      1.51186
Magnitude (Debye)      :      3.84285

                             ****ORCA TERMINATED NORMALLY****
TOTAL RUN TIME: 0 days 0 hours 8 minutes 58 seconds 500 msec
