                         Program Version 3.0.3 - RELEASE   -
|  1> ! RI-MP2 RIJK def2-TZVP def2-TZVP/C def2-TZVP/JK TIGHTSCF
|  2> % maxcore 2000
|  3> % mp2 density relaxed end
|  4> *xyz 0 1
|  5>  C       -0.1319039908     1.2013153492    -0.8494539852
|  6>  C       -0.2087397778    -0.2853264948    -0.4577378262
|  7>  C        0.1093667009    -0.4527276147     1.0409941078
|  8>  C       -1.6478912222    -0.7887985711    -0.6927924872
|  9>  C        0.7246611301    -1.1510405974    -1.3522140775
| 10>  C        2.1539573843    -0.6922675228    -1.6154885991
| 11>  C        3.1239756796    -0.5571212563    -0.4590545034
| 12>  C        2.7118181498    -0.9655937661    -2.9529937477
| 13>  O        2.2795130282     0.3490789544    -2.6034189433
| 14>  H        0.8578649275     1.6244429692    -0.6572828071
| 15>  H       -0.3416748012     1.3416436585    -1.9139869442
| 16>  H       -0.8631987889     1.7837510926    -0.2777855382
| 17>  H       -0.6245014088     0.0887735739     1.6481113676
| 18>  H        0.0685998255    -1.5071200028     1.3374980950
| 19>  H        1.0963811849    -0.0686385218     1.3071662631
| 20>  H       -1.9516730106    -0.6500844534    -1.7360106915
| 21>  H       -1.7409264237    -1.8548438560    -0.4553769288
| 22>  H       -2.3587590177    -0.2441358686    -0.0620472031
| 23>  H        0.7637669432    -2.1670434283    -0.9346854385
| 24>  H        0.2471189695    -1.2412139179    -2.3343905205
| 25>  H        3.1295559498    -1.4624270592     0.1568241665
| 26>  H        4.1371335296    -0.3844548191    -0.8309709085
| 27>  H        2.8606324214     0.2867760034     0.1840790998
| 28>  H        3.7879313760    -1.0879469671    -3.0734291542
| 29>  H        2.1057217312    -1.4752018333    -3.7016002256
| 30> *
| 31>
| 32>                          ****END OF INPUT****

CARTESIAN COORDINATES (ANGSTROEM)
---------------------------------
  C     -0.131904    1.201315   -0.849454
  C     -0.208740   -0.285326   -0.457738
  C      0.109367   -0.452728    1.040994
  C     -1.647891   -0.788799   -0.692792
  C      0.724661   -1.151041   -1.352214
  C      2.153957   -0.692268   -1.615489
  C      3.123976   -0.557121   -0.459055
  C      2.711818   -0.965594   -2.952994
  O      2.279513    0.349079   -2.603419
  H      0.857865    1.624443   -0.657283
  H     -0.341675    1.341644   -1.913987
  H     -0.863199    1.783751   -0.277786
  H     -0.624501    0.088774    1.648111
  H      0.068600   -1.507120    1.337498
  H      1.096381   -0.068639    1.307166
  H     -1.951673   -0.650084   -1.736011
  H     -1.740926   -1.854844   -0.455377
  H     -2.358759   -0.244136   -0.062047
  H      0.763767   -2.167043   -0.934685
  H      0.247119   -1.241214   -2.334391
  H      3.129556   -1.462427    0.156824
  H      4.137134   -0.384455   -0.830971
  H      2.860632    0.286776    0.184079
  H      3.787931   -1.087947   -3.073429
  H      2.105722   -1.475202   -3.701600

 Total Charge           Charge          ....    0
 Multiplicity           Mult            ....    1
 Number of Electrons    NEL             ....   72
 Basis Dimension        Dim             ....  375

ORBITAL ENERGIES
----------------

  NO   OCC          E(Eh)            E(eV)
   0   2.0000     -20.558421      -559.4231
   1   2.0000     -11.289142      -307.1932
   2   2.0000     -11.274585      -306.7970
   3   2.0000     -11.235843      -305.7428
   4   2.0000     -11.224134      -305.4242
   5   2.0000     -11.222217      -305.3721
   6   2.0000     -11.209890      -305.0366
   7   2.0000     -11.209872      -305.0361
   8   2.0000     -11.202198      -304.8273
   9   2.0000      -1.403107       -38.1805
  10   2.0000      -1.106121       -30.0991
  11   2.0000      -1.020117       -27.7588
  12   2.0000      -0.946690       -25.7607
  13   2.0000      -0.926072       -25.1997
  14   2.0000      -0.924733       -25.1633
  15   2.0000      -0.898151       -24.4399
  16   2.0000      -0.782805       -21.3012
  17   2.0000      -0.730109       -19.8673
  18   2.0000      -0.670442       -18.2437
  19   2.0000      -0.644739       -17.5442
  20   2.0000      -0.623174       -16.9574
  21   2.0000      -0.606030       -16.4909
  22   2.0000      -0.588264       -16.0075
  23   2.0000      -0.583443       -15.8763
  24   2.0000      -0.559279       -15.2188
  25   2.0000      -0.541144       -14.7253
  26   2.0000      -0.537819       -14.6348
  27   2.0000      -0.521243       -14.1837
  28   2.0000      -0.508302       -13.8316
  29   2.0000      -0.505408       -13.7528
  30   2.0000      -0.498345       -13.5607
  31   2.0000      -0.474223       -12.9043
  32   2.0000      -0.457759       -12.4563
  33   2.0000      -0.452061       -12.3012
  34   2.0000      -0.430677       -11.7193
  35   2.0000      -0.406946       -11.0736
  36   0.0000       0.129140         3.5141
  37   0.0000       0.162006         4.4084
  38   0.0000       0.171539         4.6678
  39   0.0000       0.175896         4.7864
  40   0.0000       0.188754         5.1363

MULLIKEN ATOMIC CHARGES
-----------------------
   0 C :   -0.393202
   1 C :    0.083166
   2 C :   -0.408785
   3 C :   -0.401941
   4 C :   -0.263490
   5 C :    0.223574
   6 C :   -0.425635
   7 C :   -0.094212
   8 O :   -0.345958
   9 H :    0.131144
  10 H :    0.132090
  11 H :    0.124720
  12 H :    0.129898
  13 H :    0.127006
  14 H :    0.124537
  15 H :    0.130466
  16 H :    0.126517
  17 H :    0.129703
  18 H :    0.118655
  19 H :    0.121813
  20 H :    0.136734
  21 H :    0.139488
  22 H :    0.137433
  23 H :    0.107760
  24 H :    0.108519
Sum of atomic charges:    0.0000000

LOEWDIN ATOMIC CHARGES
----------------------
   0 C :   -0.267503
   1 C :   -0.341934
   2 C :   -0.273507
   3 C :   -0.274591
   4 C :   -0.188611
   5 C :   -0.341183
   6 C :   -0.268212
   7 C :   -0.254219
   8 O :    0.159159
   9 H :    0.125708
  10 H :    0.128848
  11 H :    0.123601
  12 H :    0.126004
  13 H :    0.124213
  14 H :    0.120811
  15 H :    0.124012
  16 H :    0.124037
  17 H :    0.124432
  18 H :    0.149649
  19 H :    0.154723
  20 H :    0.130728
  21 H :    0.130972
  22 H :    0.125854
  23 H :    0.118581
  24 H :    0.118427

  Mayer bond orders larger than 0.1
B(  0-C ,  1-C ) :   0.9371 B(  0-C ,  9-H ) :   0.9313 B(  0-C , 10-H ) :   0.9290
B(  0-C , 11-H ) :   0.9306 B(  1-C ,  2-C ) :   0.9223 B(  1-C ,  3-C ) :   0.9076
B(  1-C ,  4-C ) :   0.8901 B(  2-C , 12-H ) :   0.9376 B(  2-C , 13-H ) :   0.9362
B(  2-C , 14-H ) :   0.9312 B(  3-C , 15-H ) :   0.9346 B(  3-C , 16-H ) :   0.9335
B(  3-C , 17-H ) :   0.9385 B(  4-C ,  5-C ) :   0.9046 B(  4-C , 18-H ) :   0.9302
B(  4-C , 19-H ) :   0.9281 B(  5-C ,  6-C ) :   0.8932 B(  5-C ,  7-C ) :   0.9826
B(  5-C ,  8-O ) :   0.7801 B(  6-C , 20-H ) :   0.9385 B(  6-C , 21-H ) :   0.9311
B(  6-C , 22-H ) :   0.9421 B(  7-C ,  8-O ) :   0.9297 B(  7-C , 23-H ) :   0.9109
B(  7-C , 24-H ) :   0.8986

MP2 TOTAL ENERGY:     -388.810232215 Eh
FINAL SINGLE POINT ENERGY      -388.810232214552

DIPOLE MOMENT
-------------
                                X             Y             Z
Electronic contribution:      4.76161       0.55187      -5.62533
Nuclear contribution   :     -4.69817      -1.20805       5.87006
                        -----------------------------------------
Total Dipole Moment    :      0.06344      -0.65618       0.24472
                        -----------------------------------------
Magnitude (a.u.)       :      0.70320
Magnitude (Debye)      :      1.78739

                             ****ORCA TERMINATED NORMALLY****
TOTAL RUN TIME: 0 days 0 hours 24 minutes 16 seconds 329 msec
