                         Program Version 3.0.3 - RELEASE   -
|  1> ! RI-MP2 RIJK def2-TZVP def2-TZVP/C def2-TZVP/JK TIGHTSCF
|  2> % maxcore 2000
|  3> % mp2 density relaxed end
|  4> *xyz 0 1
|  5>  C        0.0589521041     1.4964085668    -0.2813043215
|  6>  C        1.2998758749     0.6981893841    -0.0548223961
|  7>  C        2.1682214234     0.8767234756     1.1851295173
|  8>  C        1.4082734825     0.6160609480     2.4792250759
|  9>  O        0.2814130842     1.5338349909     2.6480749678
| 10>  C       -0.6270943460     0.4354520575     2.6032771498
| 11>  C        0.4692088512    -0.5978930865     2.4828386367
| 12>  C       -0.4845262106    -0.3772127376     1.3342973394
| 13>  N       -0.0221952285     0.0684905798     0.0441696274
| 14>  H       -0.2155308047     2.2129069236     0.4841432115
| 15>  H       -0.2453360758     1.7484852034    -1.2947665694
| 16>  H        1.8547254312     0.3753405436    -0.9344042664
| 17>  H        3.0090001617     0.1725191038     1.1445451592
| 18>  H        2.6020525147     1.8832183707     1.2105980694
| 19>  H        2.0635641860     0.6748244120     3.3530919180
| 20>  H       -1.5249529216     0.4964075209     3.2074732535
| 21>  H        0.6442416914    -1.5429780429     2.9782062699
| 22>  H       -1.2490269382    -1.1481140935     1.2544957376
| 23> *
| 24>
| 25>                          ****END OF INPUT****

CARTESIAN COORDINATES (ANGSTROEM)
---------------------------------
  C      0.058952    1.496409   -0.281304
  C      1.299876    0.698189   -0.054822
  C      2.168221    0.876723    1.185130
  C      1.408273    0.616061    2.479225
  O      0.281413    1.533835    2.648075
  C     -0.627094    0.435452    2.603277
  C      0.469209   -0.597893    2.482839
  C     -0.484526   -0.377213    1.334297
  N     -0.022195    0.068491    0.044170
  H     -0.215531    2.212907    0.484143
  H     -0.245336    1.748485   -1.294767
  H      1.854725    0.375341   -0.934404
  H      3.009000    0.172519    1.144545
  H      2.602053    1.883218    1.210598
  H      2.063564    0.674824    3.353092
  H     -1.524953    0.496408    3.207473
  H      0.644242   -1.542978    2.978206
  H     -1.249027   -1.148114    1.254496

 Total Charge           Charge          ....    0
 Multiplicity           Mult            ....    1
 Number of Electrons    NEL             ....   66
 Basis Dimension        Dim             ....  333

ORBITAL ENERGIES
----------------

  NO   OCC          E(Eh)            E(eV)
   0   2.0000     -20.556408      -559.3683
   1   2.0000     -15.554670      -423.2641
   2   2.0000     -11.294770      -307.3463
   3   2.0000     -11.290768      -307.2374
   4   2.0000     -11.265316      -306.5448
   5   2.0000     -11.257001      -306.3186
   6   2.0000     -11.243064      -305.9393
   7   2.0000     -11.237323      -305.7831
   8   2.0000     -11.232597      -305.6545
   9   2.0000      -1.399391       -38.0794
  10   2.0000      -1.267006       -34.4770
  11   2.0000      -1.118096       -30.4249
  12   2.0000      -1.043494       -28.3949
  13   2.0000      -0.919494       -25.0207
  14   2.0000      -0.897912       -24.4334
  15   2.0000      -0.818103       -22.2617
  16   2.0000      -0.770282       -20.9604
  17   2.0000      -0.729900       -19.8616
  18   2.0000      -0.717144       -19.5145
  19   2.0000      -0.666588       -18.1388
  20   2.0000      -0.650803       -17.7093
  21   2.0000      -0.617227       -16.7956
  22   2.0000      -0.588904       -16.0249
  23   2.0000      -0.567325       -15.4377
  24   2.0000      -0.561281       -15.2732
  25   2.0000      -0.544365       -14.8129
  26   2.0000      -0.504665       -13.7326
  27   2.0000      -0.481005       -13.0888
  28   2.0000      -0.469099       -12.7648
  29   2.0000      -0.447797       -12.1852
  30   2.0000      -0.406722       -11.0675
  31   2.0000      -0.386596       -10.5198
  32   2.0000      -0.347011        -9.4426
  33   0.0000       0.140692         3.8284
  34   0.0000       0.161472         4.3939
  35   0.0000       0.174690         4.7536
  36   0.0000       0.179627         4.8879
  37   0.0000       0.191528         5.2117

MULLIKEN ATOMIC CHARGES
-----------------------
   0 C :   -0.189051
   1 C :   -0.053306
   2 C :   -0.212389
   3 C :    0.084577
   4 O :   -0.347371
   5 C :    0.078284
   6 C :   -0.217516
   7 C :   -0.078464
   8 N :   -0.212011
   9 H :    0.149919
  10 H :    0.119167
  11 H :    0.118925
  12 H :    0.120020
  13 H :    0.125723
  14 H :    0.115653
  15 H :    0.134274
  16 H :    0.144727
  17 H :    0.118838
Sum of atomic charges:   -0.0000000

LOEWDIN ATOMIC CHARGES
----------------------
   0 C :   -0.234210
   1 C :   -0.240118
   2 C :   -0.228568
   3 C :   -0.231943
   4 O :    0.163834
   5 C :   -0.231624
   6 C :   -0.154164
   7 C :   -0.239977
   8 N :    0.137575
   9 H :    0.132030
  10 H :    0.121435
  11 H :    0.140408
  12 H :    0.150203
  13 H :    0.149573
  14 H :    0.142931
  15 H :    0.130791
  16 H :    0.136573
  17 H :    0.155251

  Mayer bond orders larger than 0.1
B(  0-C ,  1-C ) :   0.9352 B(  0-C ,  8-N ) :   0.8712 B(  0-C ,  9-H ) :   0.9066
B(  0-C , 10-H ) :   0.9249 B(  1-C ,  2-C ) :   0.9464 B(  1-C ,  8-N ) :   0.9070
B(  1-C , 11-H ) :   0.9233 B(  2-C ,  3-C ) :   0.9466 B(  2-C , 12-H ) :   0.9142
B(  2-C , 13-H ) :   0.9107 B(  3-C ,  4-O ) :   0.9261 B(  3-C ,  6-C ) :   0.9384
B(  3-C , 14-H ) :   0.9200 B(  4-O ,  5-C ) :   0.9109 B(  5-C ,  6-C ) :   0.8845
B(  5-C ,  7-C ) :   0.8504 B(  5-C , 15-H ) :   0.9201 B(  6-C ,  7-C ) :   0.8735
B(  6-C , 16-H ) :   0.9060 B(  7-C ,  8-N ) :   1.0028 B(  7-C , 17-H ) :   0.9425

MP2 TOTAL ENERGY:     -401.183929851 Eh
FINAL SINGLE POINT ENERGY      -401.183929850991

DIPOLE MOMENT
-------------
                                X             Y             Z
Electronic contribution:     -1.83829      -0.19587       1.40087
Nuclear contribution   :      2.20143      -0.09389      -1.05349
                        -----------------------------------------
Total Dipole Moment    :      0.36314      -0.28977       0.34738
                        -----------------------------------------
Magnitude (a.u.)       :      0.58009
Magnitude (Debye)      :      1.47447

                             ****ORCA TERMINATED NORMALLY****
TOTAL RUN TIME: 0 days 0 hours 19 minutes 12 seconds 796 msec
