                         Program Version 3.0.3 - RELEASE   -
|  1> ! RI-MP2 RIJK def2-TZVP def2-TZVP/C def2-TZVP/JK TIGHTSCF
|  2> % maxcore 2000
|  3> % mp2 density relaxed end
|  4> *xyz 0 1
|  5>  N       -0.0973075328     1.4300825214    -0.0260837196
|  6>  C       -0.0350371583    -0.0333385930     0.0804327587
|  7>  C        0.7053463165    -0.3778465398     1.3812827613
|  8>  O        1.9955307688     0.1944616776     1.4054962111
|  9>  C       -1.4209164317    -0.6709726953    -0.0615501407
| 10>  C       -1.5265121757    -0.9267820477    -1.5728873354
| 11>  O       -0.1699546533    -1.1019229750    -2.0379241134
| 12>  C        0.7116663511    -0.6463885571    -1.1206177648
| 13>  O        1.9040874674    -0.7103760199    -1.2876154092
| 14>  H        0.8290494674     1.7933888893     0.1863829418
| 15>  H       -0.3307695998     1.7304407388    -0.9682228625
| 16>  H        0.1517683871     0.0439548074     2.2264126922
| 17>  H        0.7380772224    -1.4720441324     1.5011040602
| 18>  H        2.4509513543    -0.1355709769     0.6152494549
| 19>  H       -1.4574340877    -1.6214104371     0.4809148054
| 20>  H       -2.2096188999    -0.0187916290     0.3153651404
| 21>  H       -2.0800433522    -1.8309682241    -1.8322872833
| 22>  H       -1.9675888635    -0.0814502671    -2.1124795472
| 23> *
| 24>
| 25>                          ****END OF INPUT****

CARTESIAN COORDINATES (ANGSTROEM)
---------------------------------
  N     -0.097308    1.430083   -0.026084
  C     -0.035037   -0.033339    0.080433
  C      0.705346   -0.377847    1.381283
  O      1.995531    0.194462    1.405496
  C     -1.420916   -0.670973   -0.061550
  C     -1.526512   -0.926782   -1.572887
  O     -0.169955   -1.101923   -2.037924
  C      0.711666   -0.646389   -1.120618
  O      1.904087   -0.710376   -1.287615
  H      0.829049    1.793389    0.186383
  H     -0.330770    1.730441   -0.968223
  H      0.151768    0.043955    2.226413
  H      0.738077   -1.472044    1.501104
  H      2.450951   -0.135571    0.615249
  H     -1.457434   -1.621410    0.480915
  H     -2.209619   -0.018792    0.315365
  H     -2.080043   -1.830968   -1.832287
  H     -1.967589   -0.081450   -2.112480

 Total Charge           Charge          ....    0
 Multiplicity           Mult            ....    1
 Number of Electrons    NEL             ....   70
 Basis Dimension        Dim             ....  333

ORBITAL ENERGIES
----------------

  NO   OCC          E(Eh)            E(eV)
   0   2.0000     -20.616439      -561.0018
   1   2.0000     -20.556751      -559.3776
   2   2.0000     -20.556333      -559.3663
   3   2.0000     -15.564494      -423.5314
   4   2.0000     -11.388237      -309.8897
   5   2.0000     -11.314149      -307.8736
   6   2.0000     -11.296011      -307.3801
   7   2.0000     -11.290441      -307.2285
   8   2.0000     -11.255988      -306.2910
   9   2.0000      -1.473805       -40.1043
  10   2.0000      -1.383108       -37.6363
  11   2.0000      -1.364442       -37.1284
  12   2.0000      -1.215184       -33.0668
  13   2.0000      -1.072431       -29.1823
  14   2.0000      -1.000341       -27.2207
  15   2.0000      -0.919862       -25.0307
  16   2.0000      -0.849951       -23.1283
  17   2.0000      -0.776788       -21.1375
  18   2.0000      -0.726264       -19.7627
  19   2.0000      -0.715483       -19.4693
  20   2.0000      -0.691282       -18.8108
  21   2.0000      -0.672618       -18.3029
  22   2.0000      -0.661776       -18.0078
  23   2.0000      -0.621436       -16.9101
  24   2.0000      -0.609829       -16.5943
  25   2.0000      -0.592083       -16.1114
  26   2.0000      -0.576979       -15.7004
  27   2.0000      -0.575089       -15.6490
  28   2.0000      -0.538987       -14.6666
  29   2.0000      -0.522949       -14.2302
  30   2.0000      -0.501563       -13.6482
  31   2.0000      -0.474774       -12.9193
  32   2.0000      -0.467573       -12.7233
  33   2.0000      -0.452922       -12.3246
  34   2.0000      -0.403730       -10.9861
  35   0.0000       0.120029         3.2662
  36   0.0000       0.143129         3.8947
  37   0.0000       0.156300         4.2532
  38   0.0000       0.160934         4.3792
  39   0.0000       0.174597         4.7510

MULLIKEN ATOMIC CHARGES
-----------------------
   0 N :   -0.527888
   1 C :    0.099254
   2 C :   -0.016614
   3 O :   -0.479901
   4 C :   -0.307059
   5 C :   -0.058017
   6 O :   -0.209389
   7 C :    0.241260
   8 O :   -0.334971
   9 H :    0.254885
  10 H :    0.229421
  11 H :    0.125053
  12 H :    0.102425
  13 H :    0.338689
  14 H :    0.132360
  15 H :    0.151673
  16 H :    0.134870
  17 H :    0.123949
Sum of atomic charges:   -0.0000000

LOEWDIN ATOMIC CHARGES
----------------------
   0 N :   -0.102515
   1 C :   -0.350027
   2 C :   -0.305928
   3 O :   -0.037759
   4 C :   -0.212876
   5 C :   -0.256417
   6 O :    0.264608
   7 C :   -0.440401
   8 O :    0.119119
   9 H :    0.167870
  10 H :    0.157524
  11 H :    0.137959
  12 H :    0.125426
  13 H :    0.178857
  14 H :    0.148135
  15 H :    0.148685
  16 H :    0.130608
  17 H :    0.127132

  Mayer bond orders larger than 0.1
B(  0-N ,  1-C ) :   0.8860 B(  0-N ,  9-H ) :   0.8713 B(  0-N , 10-H ) :   0.8870
B(  1-C ,  2-C ) :   0.9110 B(  1-C ,  3-O ) :   0.1074 B(  1-C ,  4-C ) :   0.8756
B(  1-C ,  7-C ) :   0.9355 B(  2-C ,  3-O ) :   0.9352 B(  2-C , 11-H ) :   0.9335
B(  2-C , 12-H ) :   0.9136 B(  3-O , 13-H ) :   0.8078 B(  4-C ,  5-C ) :   0.9516
B(  4-C , 14-H ) :   0.9251 B(  4-C , 15-H ) :   0.9260 B(  5-C ,  6-O ) :   0.8560
B(  5-C , 16-H ) :   0.9299 B(  5-C , 17-H ) :   0.9278 B(  6-O ,  7-C ) :   1.1496
B(  7-C ,  8-O ) :   1.9031

MP2 TOTAL ENERGY:     -475.520772995 Eh
FINAL SINGLE POINT ENERGY      -475.520772995139

DIPOLE MOMENT
-------------
                                X             Y             Z
Electronic contribution:      4.42273      -1.22832      -3.49031
Nuclear contribution   :     -5.88713       1.03874       3.35099
                        -----------------------------------------
Total Dipole Moment    :     -1.46440      -0.18958      -0.13932
                        -----------------------------------------
Magnitude (a.u.)       :      1.48318
Magnitude (Debye)      :      3.76994

                             ****ORCA TERMINATED NORMALLY****
TOTAL RUN TIME: 0 days 0 hours 16 minutes 40 seconds 760 msec
