                         Program Version 3.0.3 - RELEASE   -
|  1> ! RI-MP2 RIJK def2-TZVP def2-TZVP/C def2-TZVP/JK TIGHTSCF
|  2> % maxcore 2000
|  3> % mp2 density relaxed end
|  4> *xyz 0 1
|  5>  O       -0.0540779311     1.3893230982    -0.0037216005
|  6>  C        0.0056164937    -0.0029302569     0.0262985064
|  7>  C       -0.4176366868    -0.7821747887    -1.2026502638
|  8>  C       -1.2883296518    -0.7640969397     0.0452329179
|  9>  N       -1.1152611462    -1.8337041470     0.9821779406
| 10>  C        0.1574850150    -1.9235577173     1.5038868642
| 11>  O        0.5783905983    -2.8251075461     2.1901793123
| 12>  C        0.9259297039    -0.6737976837     1.0334859291
| 13>  H        0.6981964047     1.7091746909    -0.5139435985
| 14>  H       -0.7596029148    -0.1819636808    -2.0388850608
| 15>  H        0.0925156826    -1.7048785708    -1.4613742725
| 16>  H       -2.2411812182    -0.2488109305     0.0423548534
| 17>  H       -1.7127653487    -2.6461060879     1.0042909160
| 18>  H        1.9021841204    -0.9726517020     0.6424251399
| 19>  H        1.0932300389    -0.0085251376     1.8868420264
| 20> *
| 21>
| 22>                          ****END OF INPUT****

CARTESIAN COORDINATES (ANGSTROEM)
---------------------------------
  O     -0.054078    1.389323   -0.003722
  C      0.005616   -0.002930    0.026299
  C     -0.417637   -0.782175   -1.202650
  C     -1.288330   -0.764097    0.045233
  N     -1.115261   -1.833704    0.982178
  C      0.157485   -1.923558    1.503887
  O      0.578391   -2.825108    2.190179
  C      0.925930   -0.673798    1.033486
  H      0.698196    1.709175   -0.513944
  H     -0.759603   -0.181964   -2.038885
  H      0.092516   -1.704879   -1.461374
  H     -2.241181   -0.248811    0.042355
  H     -1.712765   -2.646106    1.004291
  H      1.902184   -0.972652    0.642425
  H      1.093230   -0.008525    1.886842

 Total Charge           Charge          ....    0
 Multiplicity           Mult            ....    1
 Number of Electrons    NEL             ....   60
 Basis Dimension        Dim             ....  290

ORBITAL ENERGIES
----------------

  NO   OCC          E(Eh)            E(eV)
   0   2.0000     -20.582610      -560.0813
   1   2.0000     -20.522234      -558.4384
   2   2.0000     -15.587576      -424.1595
   3   2.0000     -11.353112      -308.9339
   4   2.0000     -11.308401      -307.7172
   5   2.0000     -11.282660      -307.0168
   6   2.0000     -11.248033      -306.0745
   7   2.0000     -11.245444      -306.0041
   8   2.0000      -1.397035       -38.0152
   9   2.0000      -1.384898       -37.6850
  10   2.0000      -1.266739       -34.4697
  11   2.0000      -1.116145       -30.3719
  12   2.0000      -1.019789       -27.7499
  13   2.0000      -0.862286       -23.4640
  14   2.0000      -0.810471       -22.0540
  15   2.0000      -0.797993       -21.7145
  16   2.0000      -0.728732       -19.8298
  17   2.0000      -0.683697       -18.6043
  18   2.0000      -0.652577       -17.7575
  19   2.0000      -0.631386       -17.1809
  20   2.0000      -0.623471       -16.9655
  21   2.0000      -0.611986       -16.6530
  22   2.0000      -0.578558       -15.7434
  23   2.0000      -0.562136       -15.2965
  24   2.0000      -0.551440       -15.0054
  25   2.0000      -0.514317       -13.9953
  26   2.0000      -0.467730       -12.7276
  27   2.0000      -0.425376       -11.5751
  28   2.0000      -0.414166       -11.2700
  29   2.0000      -0.375693       -10.2231
  30   0.0000       0.125602         3.4178
  31   0.0000       0.145071         3.9476
  32   0.0000       0.162780         4.4295
  33   0.0000       0.168136         4.5752
  34   0.0000       0.177326         4.8253

MULLIKEN ATOMIC CHARGES
-----------------------
   0 O :   -0.445950
   1 C :    0.135466
   2 C :   -0.310386
   3 C :    0.006144
   4 N :   -0.314055
   5 C :    0.168778
   6 O :   -0.327013
   7 C :   -0.191862
   8 H :    0.327678
   9 H :    0.140102
  10 H :    0.140789
  11 H :    0.148019
  12 H :    0.243863
  13 H :    0.135759
  14 H :    0.142667
Sum of atomic charges:    0.0000000

LOEWDIN ATOMIC CHARGES
----------------------
   0 O :    0.029507
   1 C :   -0.349245
   2 C :   -0.192260
   3 C :   -0.218893
   4 N :    0.138226
   5 C :   -0.429618
   6 O :    0.092533
   7 C :   -0.181004
   8 H :    0.185671
   9 H :    0.141251
  10 H :    0.138227
  11 H :    0.147362
  12 H :    0.187318
  13 H :    0.151252
  14 H :    0.159673

  Mayer bond orders larger than 0.1
B(  0-O ,  1-C ) :   1.0513 B(  0-O ,  8-H ) :   0.8373 B(  1-C ,  2-C ) :   0.8865
B(  1-C ,  3-C ) :   0.8688 B(  1-C ,  7-C ) :   0.9446 B(  2-C ,  3-C ) :   0.8781
B(  2-C ,  9-H ) :   0.9178 B(  2-C , 10-H ) :   0.9004 B(  3-C ,  4-N ) :   0.8986
B(  3-C , 11-H ) :   0.9131 B(  4-N ,  5-C ) :   1.1558 B(  4-N , 12-H ) :   0.8595
B(  5-C ,  6-O ) :   2.0166 B(  5-C ,  7-C ) :   0.9091 B(  7-C , 13-H ) :   0.9019
B(  7-C , 14-H ) :   0.9011

MP2 TOTAL ENERGY:     -399.176005967 Eh
FINAL SINGLE POINT ENERGY      -399.176005967355

DIPOLE MOMENT
-------------
                                X             Y             Z
Electronic contribution:     -0.26506      -1.52357       2.92423
Nuclear contribution   :      0.04077       2.15092      -4.17828
                        -----------------------------------------
Total Dipole Moment    :     -0.22429       0.62734      -1.25405
                        -----------------------------------------
Magnitude (a.u.)       :      1.42004
Magnitude (Debye)      :      3.60944

                             ****ORCA TERMINATED NORMALLY****
TOTAL RUN TIME: 0 days 0 hours 11 minutes 0 seconds 47 msec
