                         Program Version 3.0.3 - RELEASE   -
|  1> ! RI-MP2 RIJK def2-TZVP def2-TZVP/C def2-TZVP/JK TIGHTSCF
|  2> % maxcore 2000
|  3> % mp2 density relaxed end
|  4> *xyz 0 1
|  5>  C       -0.0132313562     1.5378321262    -0.0863400636
|  6>  C        0.1387683023     0.0305086837     0.0381803441
|  7>  O        0.5891261963    -0.4748562123    -1.2020345191
|  8>  C        0.7024703480    -1.8905823958    -1.2583252945
|  9>  C        0.8444762510    -2.3202899770    -2.7356464417
| 10>  C        1.9093314945    -3.4442031224    -2.7574473978
| 11>  C        2.5999693299    -3.2860097355    -1.4239480072
| 12>  C        1.9529301832    -2.4526984648    -0.6126300327
| 13>  H        0.9450919755     1.9994169748    -0.3409089099
| 14>  H       -0.7313290714     1.7862031386    -0.8730418633
| 15>  H       -0.3659840159     1.9664103576     0.8566384119
| 16>  H        0.8486125463    -0.2130846666     0.8455354974
| 17>  H       -0.8249276447    -0.4344008210     0.3092884468
| 18>  H       -0.1982729216    -2.3281142382    -0.7917875747
| 19>  H       -0.1073666968    -2.6201489567    -3.1792973263
| 20>  H        1.2046854245    -1.4448087723    -3.2832197973
| 21>  H        1.4486986127    -4.4382456143    -2.8391632276
| 22>  H        2.5994953012    -3.3593218990    -3.6046962410
| 23>  H        3.5053494130    -3.8279688098    -1.1706225955
| 24>  H        2.2437548381    -2.2113095652     0.4033659118
| 25> *
| 26>
| 27>                          ****END OF INPUT****

CARTESIAN COORDINATES (ANGSTROEM)
---------------------------------
  C     -0.013231    1.537832   -0.086340
  C      0.138768    0.030509    0.038180
  O      0.589126   -0.474856   -1.202035
  C      0.702470   -1.890582   -1.258325
  C      0.844476   -2.320290   -2.735646
  C      1.909331   -3.444203   -2.757447
  C      2.599969   -3.286010   -1.423948
  C      1.952930   -2.452698   -0.612630
  H      0.945092    1.999417   -0.340909
  H     -0.731329    1.786203   -0.873042
  H     -0.365984    1.966410    0.856638
  H      0.848613   -0.213085    0.845535
  H     -0.824928   -0.434401    0.309288
  H     -0.198273   -2.328114   -0.791788
  H     -0.107367   -2.620149   -3.179297
  H      1.204685   -1.444809   -3.283220
  H      1.448699   -4.438246   -2.839163
  H      2.599495   -3.359322   -3.604696
  H      3.505349   -3.827969   -1.170623
  H      2.243755   -2.211310    0.403366

 Total Charge           Charge          ....    0
 Multiplicity           Mult            ....    1
 Number of Electrons    NEL             ....   62
 Basis Dimension        Dim             ....  320

ORBITAL ENERGIES
----------------

  NO   OCC          E(Eh)            E(eV)
   0   2.0000     -20.546869      -559.1087
   1   2.0000     -11.277343      -306.8721
   2   2.0000     -11.271075      -306.7015
   3   2.0000     -11.227311      -305.5107
   4   2.0000     -11.224335      -305.4297
   5   2.0000     -11.218611      -305.2739
   6   2.0000     -11.215845      -305.1986
   7   2.0000     -11.211208      -305.0725
   8   2.0000      -1.368953       -37.2511
   9   2.0000      -1.126306       -30.6484
  10   2.0000      -1.016774       -27.6678
  11   2.0000      -0.966036       -26.2872
  12   2.0000      -0.933774       -25.4093
  13   2.0000      -0.831869       -22.6363
  14   2.0000      -0.787615       -21.4321
  15   2.0000      -0.734964       -19.9994
  16   2.0000      -0.681480       -18.5440
  17   2.0000      -0.673003       -18.3133
  18   2.0000      -0.636320       -17.3152
  19   2.0000      -0.599993       -16.3267
  20   2.0000      -0.580341       -15.7919
  21   2.0000      -0.557312       -15.1652
  22   2.0000      -0.532905       -14.5011
  23   2.0000      -0.521444       -14.1892
  24   2.0000      -0.498343       -13.5606
  25   2.0000      -0.489360       -13.3162
  26   2.0000      -0.486648       -13.2424
  27   2.0000      -0.478381       -13.0174
  28   2.0000      -0.463802       -12.6207
  29   2.0000      -0.411551       -11.1989
  30   2.0000      -0.351670        -9.5694
  31   0.0000       0.141387         3.8473
  32   0.0000       0.148389         4.0379
  33   0.0000       0.163588         4.4515
  34   0.0000       0.170150         4.6300
  35   0.0000       0.177896         4.8408

MULLIKEN ATOMIC CHARGES
-----------------------
   0 C :   -0.364120
   1 C :   -0.052908
   2 O :   -0.297727
   3 C :    0.144234
   4 C :   -0.226891
   5 C :   -0.183842
   6 C :   -0.144933
   7 C :   -0.236850
   8 H :    0.129903
   9 H :    0.128127
  10 H :    0.119612
  11 H :    0.088868
  12 H :    0.089371
  13 H :    0.070749
  14 H :    0.121815
  15 H :    0.123257
  16 H :    0.114853
  17 H :    0.120879
  18 H :    0.127957
  19 H :    0.127645
Sum of atomic charges:    0.0000000

LOEWDIN ATOMIC CHARGES
----------------------
   0 C :   -0.317727
   1 C :   -0.355665
   2 O :    0.174882
   3 C :   -0.300562
   4 C :   -0.213689
   5 C :   -0.243340
   6 C :   -0.154655
   7 C :   -0.151334
   8 H :    0.123931
   9 H :    0.123416
  10 H :    0.123175
  11 H :    0.114889
  12 H :    0.114989
  13 H :    0.135198
  14 H :    0.132212
  15 H :    0.146623
  16 H :    0.139579
  17 H :    0.136094
  18 H :    0.135828
  19 H :    0.136157

  Mayer bond orders larger than 0.1
B(  0-C ,  1-C ) :   0.9541 B(  0-C ,  8-H ) :   0.9366 B(  0-C ,  9-H ) :   0.9366
B(  0-C , 10-H ) :   0.9326 B(  1-C ,  2-O ) :   0.9279 B(  1-C , 11-H ) :   0.9216
B(  1-C , 12-H ) :   0.9226 B(  2-O ,  3-C ) :   0.9360 B(  3-C ,  4-C ) :   0.9313
B(  3-C ,  7-C ) :   0.9120 B(  3-C , 13-H ) :   0.9295 B(  4-C ,  5-C ) :   0.9450
B(  4-C , 14-H ) :   0.9338 B(  4-C , 15-H ) :   0.9249 B(  5-C ,  6-C ) :   0.9271
B(  5-C , 16-H ) :   0.9109 B(  5-C , 17-H ) :   0.9296 B(  6-C ,  7-C ) :   1.7875
B(  6-C , 18-H ) :   0.9233 B(  7-C , 19-H ) :   0.9190

MP2 TOTAL ENERGY:     -348.397910059 Eh
FINAL SINGLE POINT ENERGY      -348.397910058596

DIPOLE MOMENT
-------------
                                X             Y             Z
Electronic contribution:      1.82294      -2.66197      -0.87331
Nuclear contribution   :     -1.91370       2.37249       1.14238
                        -----------------------------------------
Total Dipole Moment    :     -0.09076      -0.28948       0.26906
                        -----------------------------------------
Magnitude (a.u.)       :      0.40550
Magnitude (Debye)      :      1.03070

                             ****ORCA TERMINATED NORMALLY****
TOTAL RUN TIME: 0 days 0 hours 12 minutes 3 seconds 115 msec
