                         Program Version 3.0.3 - RELEASE   -
|  1> ! RI-MP2 RIJK def2-TZVP def2-TZVP/C def2-TZVP/JK TIGHTSCF
|  2> % maxcore 2000
|  3> % mp2 density relaxed end
|  4> *xyz 0 1
|  5>  C        0.0947014100     1.4791078712     0.1857615212
|  6>  C       -0.0039059163    -0.0397146071    -0.0522412535
|  7>  C       -1.4069489474    -0.4737321133    -0.0433100294
|  8>  N       -2.5117550087    -0.8135271347    -0.0758075540
|  9>  C        0.6632738254    -0.5055500663    -1.3713296881
| 10>  N        0.0718900517     0.1809089825    -2.4968399410
| 11>  C        2.2084778327    -0.4606026695    -1.2924518691
| 12>  O        2.2763746007    -1.8739298086    -1.0323225953
| 13>  C        0.8918430445    -2.0494107572    -1.3930078307
| 14>  H        1.1443829870     1.7798921215     0.2357902797
| 15>  H       -0.3796252118     2.0260844646    -0.6299000193
| 16>  H       -0.3854809872     1.7523792298     1.1281955819
| 17>  H        0.5010069052    -0.5677559295     0.7657308634
| 18>  H        0.4795191660    -0.1432368298    -3.3679044815
| 19>  H       -0.9269897374    -0.0028983721    -2.5474801953
| 20>  H        2.6750510700    -0.1885266712    -2.2500092697
| 21>  H        2.6671123359     0.1316154589    -0.4932596851
| 22>  H        0.3459430845    -2.6640301173    -0.6684509322
| 23>  H        0.7779935553    -2.4847868418    -2.3959450819
| 24> *
| 25>
| 26>                          ****END OF INPUT****

CARTESIAN COORDINATES (ANGSTROEM)
---------------------------------
  C      0.094701    1.479108    0.185762
  C     -0.003906   -0.039715   -0.052241
  C     -1.406949   -0.473732   -0.043310
  N     -2.511755   -0.813527   -0.075808
  C      0.663274   -0.505550   -1.371330
  N      0.071890    0.180909   -2.496840
  C      2.208478   -0.460603   -1.292452
  O      2.276375   -1.873930   -1.032323
  C      0.891843   -2.049411   -1.393008
  H      1.144383    1.779892    0.235790
  H     -0.379625    2.026084   -0.629900
  H     -0.385481    1.752379    1.128196
  H      0.501007   -0.567756    0.765731
  H      0.479519   -0.143237   -3.367904
  H     -0.926990   -0.002898   -2.547480
  H      2.675051   -0.188527   -2.250009
  H      2.667112    0.131615   -0.493260
  H      0.345943   -2.664030   -0.668451
  H      0.777994   -2.484787   -2.395945

 Total Charge           Charge          ....    0
 Multiplicity           Mult            ....    1
 Number of Electrons    NEL             ....   68
 Basis Dimension        Dim             ....  339

ORBITAL ENERGIES
----------------

  NO   OCC          E(Eh)            E(eV)
   0   2.0000     -20.565227      -559.6083
   1   2.0000     -15.575649      -423.8349
   2   2.0000     -15.565760      -423.5659
   3   2.0000     -11.297696      -307.4259
   4   2.0000     -11.294806      -307.3473
   5   2.0000     -11.292670      -307.2892
   6   2.0000     -11.290954      -307.2425
   7   2.0000     -11.277751      -306.8832
   8   2.0000     -11.243056      -305.9391
   9   2.0000      -1.397929       -38.0396
  10   2.0000      -1.232870       -33.5481
  11   2.0000      -1.210922       -32.9509
  12   2.0000      -1.091754       -29.7081
  13   2.0000      -0.982126       -26.7250
  14   2.0000      -0.955321       -25.9956
  15   2.0000      -0.903907       -24.5966
  16   2.0000      -0.782438       -21.2912
  17   2.0000      -0.722740       -19.6667
  18   2.0000      -0.712132       -19.3781
  19   2.0000      -0.682354       -18.5678
  20   2.0000      -0.649064       -17.6619
  21   2.0000      -0.625165       -17.0116
  22   2.0000      -0.601388       -16.3646
  23   2.0000      -0.591253       -16.0888
  24   2.0000      -0.581324       -15.8186
  25   2.0000      -0.557508       -15.1706
  26   2.0000      -0.543463       -14.7884
  27   2.0000      -0.539954       -14.6929
  28   2.0000      -0.514865       -14.0102
  29   2.0000      -0.486015       -13.2251
  30   2.0000      -0.464247       -12.6328
  31   2.0000      -0.462384       -12.5821
  32   2.0000      -0.430870       -11.7246
  33   2.0000      -0.406467       -11.0605
  34   0.0000       0.115457         3.1417
  35   0.0000       0.144481         3.9315
  36   0.0000       0.152046         4.1374
  37   0.0000       0.160079         4.3560
  38   0.0000       0.177278         4.8240

MULLIKEN ATOMIC CHARGES
-----------------------
   0 C :   -0.379380
   1 C :    0.008343
   2 C :   -0.256012
   3 N :   -0.045807
   4 C :    0.153868
   5 N :   -0.569295
   6 C :   -0.043853
   7 O :   -0.325363
   8 C :   -0.035486
   9 H :    0.132185
  10 H :    0.153770
  11 H :    0.151630
  12 H :    0.154056
  13 H :    0.232682
  14 H :    0.250150
  15 H :    0.101719
  16 H :    0.106601
  17 H :    0.119212
  18 H :    0.090980
Sum of atomic charges:   -0.0000000

LOEWDIN ATOMIC CHARGES
----------------------
   0 C :   -0.259545
   1 C :   -0.231776
   2 C :   -0.175047
   3 N :    0.061357
   4 C :   -0.328611
   5 N :   -0.105658
   6 C :   -0.234521
   7 O :    0.119446
   8 C :   -0.238626
   9 H :    0.127727
  10 H :    0.134368
  11 H :    0.131213
  12 H :    0.185874
  13 H :    0.159991
  14 H :    0.167022
  15 H :    0.122706
  16 H :    0.121363
  17 H :    0.124556
  18 H :    0.118161

  Mayer bond orders larger than 0.1
B(  0-C ,  1-C ) :   0.8988 B(  0-C ,  9-H ) :   0.9322 B(  0-C , 10-H ) :   0.9219
B(  0-C , 11-H ) :   0.9340 B(  1-C ,  2-C ) :   0.9161 B(  1-C ,  4-C ) :   0.8480
B(  1-C , 12-H ) :   0.9149 B(  2-C ,  3-N ) :   2.8717 B(  4-C ,  5-N ) :   0.9293
B(  4-C ,  6-C ) :   0.9265 B(  4-C ,  8-C ) :   0.9591 B(  5-N , 13-H ) :   0.8814
B(  5-N , 14-H ) :   0.8703 B(  6-C ,  7-O ) :   0.9516 B(  6-C , 15-H ) :   0.9026
B(  6-C , 16-H ) :   0.9159 B(  7-O ,  8-C ) :   0.9418 B(  8-C , 17-H ) :   0.9131
B(  8-C , 18-H ) :   0.8972

MP2 TOTAL ENERGY:     -418.496092612 Eh
FINAL SINGLE POINT ENERGY      -418.496092612187

DIPOLE MOMENT
-------------
                                X             Y             Z
Electronic contribution:     -2.81616      -3.89421       0.98573
Nuclear contribution   :      3.61464       4.38944      -1.38083
                        -----------------------------------------
Total Dipole Moment    :      0.79848       0.49523      -0.39511
                        -----------------------------------------
Magnitude (a.u.)       :      1.01928
Magnitude (Debye)      :      2.59081

                             ****ORCA TERMINATED NORMALLY****
TOTAL RUN TIME: 0 days 0 hours 19 minutes 28 seconds 672 msec
