                         Program Version 3.0.3 - RELEASE   -
|  1> ! RI-MP2 RIJK def2-TZVP def2-TZVP/C def2-TZVP/JK TIGHTSCF
|  2> % maxcore 2000
|  3> % mp2 density relaxed end
|  4> *xyz 0 1
|  5>  C       -0.1820628579     1.4926985299     0.0273793333
|  6>  C       -0.0566985149    -0.0296977781     0.0335507148
|  7>  O       -1.3008570758    -0.6615834891    -0.1879142182
|  8>  C        1.0980001308    -0.5635031366    -0.8562865278
|  9>  O        1.1846919856    -0.7410593344    -2.0373315616
| 10>  C        1.9699544802    -0.9095631794     0.3622438822
| 11>  C        0.7262906751    -0.6258087277     1.2264640580
| 12>  C        0.6607147713    -0.2050827177     2.6631600619
| 13>  C        0.1332195726    -1.5568024438     2.2381285775
| 14>  H        0.7761225956     1.9784039971     0.2372766228
| 15>  H       -0.5333063279     1.8411968490    -0.9498463644
| 16>  H       -0.9037449477     1.8059135452     0.7879404036
| 17>  H       -1.5306554832    -0.5332560979    -1.1158213041
| 18>  H        2.3721349783    -1.9266742117     0.3716279254
| 19>  H        2.7979956683    -0.2047398474     0.5007905319
| 20>  H        1.5889460579    -0.1671178105     3.2245455941
| 21>  H       -0.0591396748     0.5579975357     2.9422246640
| 22>  H       -0.9406358523    -1.7015089874     2.2065369076
| 23>  H        0.7028423288    -2.4390681155     2.5122489288
| 24> *
| 25>
| 26>                          ****END OF INPUT****

CARTESIAN COORDINATES (ANGSTROEM)
---------------------------------
  C     -0.182063    1.492699    0.027379
  C     -0.056699   -0.029698    0.033551
  O     -1.300857   -0.661583   -0.187914
  C      1.098000   -0.563503   -0.856287
  O      1.184692   -0.741059   -2.037332
  C      1.969954   -0.909563    0.362244
  C      0.726291   -0.625809    1.226464
  C      0.660715   -0.205083    2.663160
  C      0.133220   -1.556802    2.238129
  H      0.776123    1.978404    0.237277
  H     -0.533306    1.841197   -0.949846
  H     -0.903745    1.805914    0.787940
  H     -1.530655   -0.533256   -1.115821
  H      2.372135   -1.926674    0.371628
  H      2.797996   -0.204740    0.500791
  H      1.588946   -0.167118    3.224546
  H     -0.059140    0.557998    2.942225
  H     -0.940636   -1.701509    2.206537
  H      0.702842   -2.439068    2.512249

 Total Charge           Charge          ....    0
 Multiplicity           Mult            ....    1
 Number of Electrons    NEL             ....   68
 Basis Dimension        Dim             ....  339

ORBITAL ENERGIES
----------------

  NO   OCC          E(Eh)            E(eV)
   0   2.0000     -20.569466      -559.7236
   1   2.0000     -20.561006      -559.4934
   2   2.0000     -11.333940      -308.4122
   3   2.0000     -11.302317      -307.5517
   4   2.0000     -11.249848      -306.1239
   5   2.0000     -11.245927      -306.0172
   6   2.0000     -11.235783      -305.7412
   7   2.0000     -11.232591      -305.6543
   8   2.0000     -11.232440      -305.6502
   9   2.0000      -1.405650       -38.2497
  10   2.0000      -1.374978       -37.4151
  11   2.0000      -1.176382       -32.0110
  12   2.0000      -1.075919       -29.2773
  13   2.0000      -0.997234       -27.1361
  14   2.0000      -0.878667       -23.9097
  15   2.0000      -0.832736       -22.6599
  16   2.0000      -0.783630       -21.3237
  17   2.0000      -0.736919       -20.0526
  18   2.0000      -0.689082       -18.7509
  19   2.0000      -0.678436       -18.4612
  20   2.0000      -0.651046       -17.7159
  21   2.0000      -0.627791       -17.0831
  22   2.0000      -0.616726       -16.7820
  23   2.0000      -0.599999       -16.3268
  24   2.0000      -0.572647       -15.5825
  25   2.0000      -0.561925       -15.2908
  26   2.0000      -0.544920       -14.8280
  27   2.0000      -0.523300       -14.2397
  28   2.0000      -0.511433       -13.9168
  29   2.0000      -0.505861       -13.7652
  30   2.0000      -0.454727       -12.3737
  31   2.0000      -0.425375       -11.5751
  32   2.0000      -0.417486       -11.3604
  33   2.0000      -0.389301       -10.5934
  34   0.0000       0.124470         3.3870
  35   0.0000       0.127561         3.4711
  36   0.0000       0.152447         4.1483
  37   0.0000       0.162046         4.4095
  38   0.0000       0.165595         4.5061

MULLIKEN ATOMIC CHARGES
-----------------------
   0 C :   -0.431734
   1 C :    0.341522
   2 O :   -0.464442
   3 C :    0.027076
   4 O :   -0.249640
   5 C :   -0.192479
   6 C :   -0.037005
   7 C :   -0.275871
   8 C :   -0.276884
   9 H :    0.133882
  10 H :    0.138001
  11 H :    0.139234
  12 H :    0.328731
  13 H :    0.140436
  14 H :    0.137865
  15 H :    0.130078
  16 H :    0.132911
  17 H :    0.148304
  18 H :    0.130014
Sum of atomic charges:    0.0000000

LOEWDIN ATOMIC CHARGES
----------------------
   0 C :   -0.264308
   1 C :   -0.326223
   2 O :    0.023851
   3 C :   -0.267774
   4 O :    0.166543
   5 C :   -0.164489
   6 C :   -0.192745
   7 C :   -0.203480
   8 C :   -0.192635
   9 H :    0.133075
  10 H :    0.129104
  11 H :    0.131141
  12 H :    0.185868
  13 H :    0.145830
  14 H :    0.149593
  15 H :    0.134628
  16 H :    0.136194
  17 H :    0.141257
  18 H :    0.134571

  Mayer bond orders larger than 0.1
B(  0-C ,  1-C ) :   0.8930 B(  0-C ,  9-H ) :   0.9229 B(  0-C , 10-H ) :   0.9242
B(  0-C , 11-H ) :   0.9380 B(  1-C ,  2-O ) :   1.0043 B(  1-C ,  3-C ) :   0.8041
B(  1-C ,  5-C ) :  -0.1390 B(  1-C ,  6-C ) :   0.8645 B(  2-O , 12-H ) :   0.8314
B(  3-C ,  4-O ) :   2.0508 B(  3-C ,  5-C ) :   0.9161 B(  5-C ,  6-C ) :   0.9047
B(  5-C , 13-H ) :   0.8927 B(  5-C , 14-H ) :   0.8909 B(  6-C ,  7-C ) :   0.8420
B(  6-C ,  8-C ) :   0.8546 B(  7-C ,  8-C ) :   0.9400 B(  7-C , 15-H ) :   0.9250
B(  7-C , 16-H ) :   0.9230 B(  8-C , 17-H ) :   0.9191 B(  8-C , 18-H ) :   0.9260

MP2 TOTAL ENERGY:     -422.308534419 Eh
FINAL SINGLE POINT ENERGY      -422.308534419102

DIPOLE MOMENT
-------------
                                X             Y             Z
Electronic contribution:      0.22868      -2.69286      -6.12767
Nuclear contribution   :     -0.07491       3.12110       6.76941
                        -----------------------------------------
Total Dipole Moment    :      0.15377       0.42824       0.64174
                        -----------------------------------------
Magnitude (a.u.)       :      0.78668
Magnitude (Debye)      :      1.99957

                             ****ORCA TERMINATED NORMALLY****
TOTAL RUN TIME: 0 days 0 hours 20 minutes 22 seconds 606 msec
