                         Program Version 3.0.3 - RELEASE   -
|  1> ! RI-MP2 RIJK def2-TZVP def2-TZVP/C def2-TZVP/JK TIGHTSCF
|  2> % maxcore 2000
|  3> % mp2 density relaxed end
|  4> *xyz 0 1
|  5>  C        0.4702069630     1.5926704606     0.0825561206
|  6>  C        0.0425741623     0.1181028840    -0.0049508784
|  7>  C        0.7155733322    -0.6579685751    -1.1517711779
|  8>  O        0.9745307863     0.1713252567    -2.2644360234
|  9>  C        1.9845479619    -1.1992245970    -0.4649022477
| 10>  O        1.6107055403    -1.4112227946     0.9011926234
| 11>  C        0.5074117936    -0.6572511470     1.2134575368
| 12>  N       -0.0240928842    -0.6147141456     2.3563817010
| 13>  H        1.5547192608     1.6976688121     0.1846686120
| 14>  H        0.1647058329     2.1299042035    -0.8174106351
| 15>  H        0.0012878303     2.0511627332     0.9560903306
| 16>  H       -1.0461591045     0.0688473158    -0.0674714672
| 17>  H        0.0732028389    -1.5036716646    -1.4366631379
| 18>  H        1.2379608871    -0.3832169308    -3.0048736237
| 19>  H        2.3419671262    -2.1500505007    -0.8695204257
| 20>  H        2.7902135915    -0.4572557662    -0.5289282703
| 21>  H        0.4917578513    -1.2006141645     3.0155785228
| 22> *
| 23>
| 24>                          ****END OF INPUT****

CARTESIAN COORDINATES (ANGSTROEM)
---------------------------------
  C      0.470207    1.592670    0.082556
  C      0.042574    0.118103   -0.004951
  C      0.715573   -0.657969   -1.151771
  O      0.974531    0.171325   -2.264436
  C      1.984548   -1.199225   -0.464902
  O      1.610706   -1.411223    0.901193
  C      0.507412   -0.657251    1.213458
  N     -0.024093   -0.614714    2.356382
  H      1.554719    1.697669    0.184669
  H      0.164706    2.129904   -0.817411
  H      0.001288    2.051163    0.956090
  H     -1.046159    0.068847   -0.067471
  H      0.073203   -1.503672   -1.436663
  H      1.237961   -0.383217   -3.004874
  H      2.341967   -2.150051   -0.869520
  H      2.790214   -0.457256   -0.528928
  H      0.491758   -1.200614    3.015579

 Total Charge           Charge          ....    0
 Multiplicity           Mult            ....    1
 Number of Electrons    NEL             ....   62
 Basis Dimension        Dim             ....  302

ORBITAL ENERGIES
----------------

  NO   OCC          E(Eh)            E(eV)
   0   2.0000     -20.595278      -560.4260
   1   2.0000     -20.579331      -559.9921
   2   2.0000     -15.528321      -422.5471
   3   2.0000     -11.332880      -308.3833
   4   2.0000     -11.302586      -307.5590
   5   2.0000     -11.295894      -307.3769
   6   2.0000     -11.247247      -306.0531
   7   2.0000     -11.221075      -305.3410
   8   2.0000      -1.431750       -38.9599
   9   2.0000      -1.385724       -37.7075
  10   2.0000      -1.193431       -32.4749
  11   2.0000      -1.086189       -29.5567
  12   2.0000      -0.989429       -26.9237
  13   2.0000      -0.916335       -24.9347
  14   2.0000      -0.826904       -22.5012
  15   2.0000      -0.767067       -20.8729
  16   2.0000      -0.734312       -19.9817
  17   2.0000      -0.699798       -19.0425
  18   2.0000      -0.664654       -18.0861
  19   2.0000      -0.647013       -17.6061
  20   2.0000      -0.604827       -16.4582
  21   2.0000      -0.595656       -16.2086
  22   2.0000      -0.585015       -15.9191
  23   2.0000      -0.548281       -14.9195
  24   2.0000      -0.544855       -14.8263
  25   2.0000      -0.516603       -14.0575
  26   2.0000      -0.498155       -13.5555
  27   2.0000      -0.474906       -12.9228
  28   2.0000      -0.451102       -12.2751
  29   2.0000      -0.429248       -11.6804
  30   2.0000      -0.395375       -10.7587
  31   0.0000       0.116402         3.1675
  32   0.0000       0.150147         4.0857
  33   0.0000       0.157165         4.2767
  34   0.0000       0.166762         4.5378
  35   0.0000       0.184590         5.0229

MULLIKEN ATOMIC CHARGES
-----------------------
   0 C :   -0.426422
   1 C :    0.061363
   2 C :    0.018197
   3 O :   -0.454404
   4 C :   -0.075692
   5 O :   -0.253759
   6 C :    0.081752
   7 N :   -0.375944
   8 H :    0.124607
   9 H :    0.149737
  10 H :    0.154795
  11 H :    0.118828
  12 H :    0.099524
  13 H :    0.321096
  14 H :    0.122079
  15 H :    0.112210
  16 H :    0.222033
Sum of atomic charges:    0.0000000

LOEWDIN ATOMIC CHARGES
----------------------
   0 C :   -0.271898
   1 C :   -0.216006
   2 C :   -0.327874
   3 O :   -0.002733
   4 C :   -0.264627
   5 O :    0.232038
   6 C :   -0.384240
   7 N :   -0.056163
   8 H :    0.126053
   9 H :    0.129308
  10 H :    0.132383
  11 H :    0.164582
  12 H :    0.138825
  13 H :    0.178954
  14 H :    0.125286
  15 H :    0.127820
  16 H :    0.168293

  Mayer bond orders larger than 0.1
B(  0-C ,  1-C ) :   0.9152 B(  0-C ,  8-H ) :   0.9261 B(  0-C ,  9-H ) :   0.9306
B(  0-C , 10-H ) :   0.9352 B(  1-C ,  2-C ) :   0.8966 B(  1-C ,  6-C ) :   0.8817
B(  1-C , 11-H ) :   0.9138 B(  2-C ,  3-O ) :   1.0308 B(  2-C ,  4-C ) :   0.9283
B(  2-C , 12-H ) :   0.9407 B(  3-O , 13-H ) :   0.8426 B(  4-C ,  5-O ) :   0.8967
B(  4-C , 14-H ) :   0.9271 B(  4-C , 15-H ) :   0.9130 B(  5-O ,  6-C ) :   1.0735
B(  6-C ,  7-N ) :   2.0800 B(  7-N , 16-H ) :   0.8556

MP2 TOTAL ENERGY:     -400.372264598 Eh
FINAL SINGLE POINT ENERGY      -400.372264598319

DIPOLE MOMENT
-------------
                                X             Y             Z
Electronic contribution:      0.23895      -3.52143       1.58084
Nuclear contribution   :      0.30059       3.00248      -2.76270
                        -----------------------------------------
Total Dipole Moment    :      0.53954      -0.51894      -1.18186
                        -----------------------------------------
Magnitude (a.u.)       :      1.39900
Magnitude (Debye)      :      3.55597

                             ****ORCA TERMINATED NORMALLY****
TOTAL RUN TIME: 0 days 0 hours 12 minutes 13 seconds 18 msec
