                         Program Version 3.0.3 - RELEASE   -
|  1> ! RI-MP2 RIJK def2-TZVP def2-TZVP/C def2-TZVP/JK TIGHTSCF
|  2> % maxcore 2000
|  3> % mp2 density relaxed end
|  4> *xyz 0 1
|  5>  C       -0.6551770159     1.4863069485    -0.3024317648
|  6>  C        0.0473612419     0.1739266744    -0.0149470864
|  7>  C        0.8804410525    -0.5131478070    -1.1718982931
|  8>  C        2.0357211650    -0.4029686120    -0.2002547904
|  9>  N        3.1854614586    -0.8745282150     0.2325793652
| 10>  C        3.2000869689    -0.4443468293     1.5440632436
| 11>  O        4.2773423211    -0.6687624419     2.3269395603
| 12>  C        2.0493071597     0.2273330006     1.9162996021
| 13>  N        1.3387965229     0.2853696287     0.7246187449
| 14>  H        0.0248284777     2.1926195088    -0.7877047712
| 15>  H       -1.5117764979     1.3167145216    -0.9629539974
| 16>  H       -1.0260630242     1.9434744180     0.6203053820
| 17>  H       -0.6248849578    -0.5392748230     0.4730040827
| 18>  H        0.5616207839    -1.5301724653    -1.4123510528
| 19>  H        0.9560351660     0.0699661137    -2.0937560466
| 20>  H        4.9045694997    -1.1594308251     1.7821019132
| 21>  H        1.7759940779     0.7293974744     2.8265386787
| 22> *
| 23>
| 24>                          ****END OF INPUT****

CARTESIAN COORDINATES (ANGSTROEM)
---------------------------------
  C     -0.655177    1.486307   -0.302432
  C      0.047361    0.173927   -0.014947
  C      0.880441   -0.513148   -1.171898
  C      2.035721   -0.402969   -0.200255
  N      3.185461   -0.874528    0.232579
  C      3.200087   -0.444347    1.544063
  O      4.277342   -0.668762    2.326940
  C      2.049307    0.227333    1.916300
  N      1.338797    0.285370    0.724619
  H      0.024828    2.192620   -0.787705
  H     -1.511776    1.316715   -0.962954
  H     -1.026063    1.943474    0.620305
  H     -0.624885   -0.539275    0.473004
  H      0.561621   -1.530172   -1.412351
  H      0.956035    0.069966   -2.093756
  H      4.904569   -1.159431    1.782102
  H      1.775994    0.729397    2.826539

 Total Charge           Charge          ....    0
 Multiplicity           Mult            ....    1
 Number of Electrons    NEL             ....   66
 Basis Dimension        Dim             ....  327

ORBITAL ENERGIES
----------------

  NO   OCC          E(Eh)            E(eV)
   0   2.0000     -20.576945      -559.9272
   1   2.0000     -15.598766      -424.4640
   2   2.0000     -15.543277      -422.9541
   3   2.0000     -11.308300      -307.7145
   4   2.0000     -11.305328      -307.6336
   5   2.0000     -11.297533      -307.4215
   6   2.0000     -11.263422      -306.4933
   7   2.0000     -11.239857      -305.8521
   8   2.0000     -11.237097      -305.7770
   9   2.0000      -1.405906       -38.2566
  10   2.0000      -1.350503       -36.7490
  11   2.0000      -1.190444       -32.3936
  12   2.0000      -1.077503       -29.3203
  13   2.0000      -1.007504       -27.4156
  14   2.0000      -0.928095       -25.2547
  15   2.0000      -0.853583       -23.2272
  16   2.0000      -0.799855       -21.7652
  17   2.0000      -0.752247       -20.4697
  18   2.0000      -0.712721       -19.3941
  19   2.0000      -0.677802       -18.4439
  20   2.0000      -0.663668       -18.0593
  21   2.0000      -0.614420       -16.7192
  22   2.0000      -0.599946       -16.3254
  23   2.0000      -0.585911       -15.9434
  24   2.0000      -0.566567       -15.4171
  25   2.0000      -0.550611       -14.9829
  26   2.0000      -0.537497       -14.6260
  27   2.0000      -0.525664       -14.3040
  28   2.0000      -0.512699       -13.9513
  29   2.0000      -0.487936       -13.2774
  30   2.0000      -0.441113       -12.0033
  31   2.0000      -0.382660       -10.4127
  32   2.0000      -0.292809        -7.9677
  33   0.0000       0.125336         3.4106
  34   0.0000       0.155503         4.2315
  35   0.0000       0.161725         4.4008
  36   0.0000       0.168001         4.5715
  37   0.0000       0.171268         4.6604

MULLIKEN ATOMIC CHARGES
-----------------------
   0 C :   -0.391711
   1 C :    0.006019
   2 C :   -0.179733
   3 C :    0.068096
   4 N :   -0.322393
   5 C :    0.240582
   6 O :   -0.442321
   7 C :   -0.215909
   8 N :   -0.054352
   9 H :    0.138828
  10 H :    0.136398
  11 H :    0.139075
  12 H :    0.119797
  13 H :    0.133330
  14 H :    0.134433
  15 H :    0.341854
  16 H :    0.148006
Sum of atomic charges:    0.0000000

LOEWDIN ATOMIC CHARGES
----------------------
   0 C :   -0.292376
   1 C :   -0.210324
   2 C :   -0.173471
   3 C :   -0.302545
   4 N :    0.091902
   5 C :   -0.392830
   6 O :    0.063491
   7 C :   -0.227039
   8 N :    0.293220
   9 H :    0.130364
  10 H :    0.131069
  11 H :    0.129246
  12 H :    0.146875
  13 H :    0.140171
  14 H :    0.138248
  15 H :    0.199046
  16 H :    0.134953

  Mayer bond orders larger than 0.1
B(  0-C ,  1-C ) :   0.9106 B(  0-C ,  9-H ) :   0.9347 B(  0-C , 10-H ) :   0.9316
B(  0-C , 11-H ) :   0.9332 B(  1-C ,  2-C ) :   0.9294 B(  1-C ,  8-N ) :   0.8363
B(  1-C , 12-H ) :   0.9150 B(  2-C ,  3-C ) :   0.9429 B(  2-C , 13-H ) :   0.9011
B(  2-C , 14-H ) :   0.9209 B(  3-C ,  4-N ) :   1.5922 B(  3-C ,  8-N ) :   1.1852
B(  4-N ,  5-C ) :   1.2429 B(  5-C ,  6-O ) :   1.0846 B(  5-C ,  7-C ) :   1.4806
B(  6-O , 15-H ) :   0.8188 B(  7-C ,  8-N ) :   1.0818 B(  7-C , 16-H ) :   0.9158

MP2 TOTAL ENERGY:     -417.309854022 Eh
FINAL SINGLE POINT ENERGY      -417.309854022365

DIPOLE MOMENT
-------------
                                X             Y             Z
Electronic contribution:      7.68098      -3.12480       3.49122
Nuclear contribution   :     -8.97678       3.40402      -3.93208
                        -----------------------------------------
Total Dipole Moment    :     -1.29580       0.27922      -0.44086
                        -----------------------------------------
Magnitude (a.u.)       :      1.39693
Magnitude (Debye)      :      3.55072

                             ****ORCA TERMINATED NORMALLY****
TOTAL RUN TIME: 0 days 0 hours 16 minutes 8 seconds 831 msec
