                         Program Version 3.0.3 - RELEASE   -
|  1> ! RI-MP2 RIJK def2-TZVP def2-TZVP/C def2-TZVP/JK TIGHTSCF
|  2> % maxcore 2000
|  3> % mp2 density relaxed end
|  4> *xyz 0 1
|  5>  C       -0.0181864786     1.5230347250    -0.0450208332
|  6>  C       -0.0016843851     0.0184254000     0.0062734815
|  7>  N        0.4255345980    -0.7580811160    -1.2396385570
|  8>  C       -0.2562761390    -1.8982390127    -0.5068809879
|  9>  C        0.6603557046    -2.0092968800     0.7048842121
| 10>  C        0.8305510138    -0.7297739915     1.0489069338
| 11>  C       -1.3321483958    -0.8542069720     0.0203818608
| 12>  C       -2.1564806032    -1.0960852063     1.2770377976
| 13>  O       -2.1773264054    -0.3721694707    -1.0135283503
| 14>  H        0.9643718376     1.9045218712    -0.3401588637
| 15>  H       -0.7598481605     1.8749293626    -0.7676490920
| 16>  H       -0.2689479859     1.9465157044     0.9334495188
| 17>  H       -0.2180552820    -0.4737080702    -1.9825242191
| 18>  H       -0.5263867167    -2.7905153247    -1.0728060170
| 19>  H        1.0290988999    -2.9161993587     1.1615920021
| 20>  H        1.3814106542    -0.2841016294     1.8649988654
| 21>  H       -1.5493069622    -1.4391628648     2.1139625693
| 22>  H       -2.6726223510    -0.1750575996     1.5676445580
| 23>  H       -2.9222015642    -1.8597780447     1.0844342147
| 24>  H       -3.0049361285    -0.8617806017    -0.9812340240
| 25> *
| 26>
| 27>                          ****END OF INPUT****

CARTESIAN COORDINATES (ANGSTROEM)
---------------------------------
  C     -0.018186    1.523035   -0.045021
  C     -0.001684    0.018425    0.006273
  N      0.425535   -0.758081   -1.239639
  C     -0.256276   -1.898239   -0.506881
  C      0.660356   -2.009297    0.704884
  C      0.830551   -0.729774    1.048907
  C     -1.332148   -0.854207    0.020382
  C     -2.156481   -1.096085    1.277038
  O     -2.177326   -0.372169   -1.013528
  H      0.964372    1.904522   -0.340159
  H     -0.759848    1.874929   -0.767649
  H     -0.268948    1.946516    0.933450
  H     -0.218055   -0.473708   -1.982524
  H     -0.526387   -2.790515   -1.072806
  H      1.029099   -2.916199    1.161592
  H      1.381411   -0.284102    1.864999
  H     -1.549307   -1.439163    2.113963
  H     -2.672622   -0.175058    1.567645
  H     -2.922202   -1.859778    1.084434
  H     -3.004936   -0.861781   -0.981234

 Total Charge           Charge          ....    0
 Multiplicity           Mult            ....    1
 Number of Electrons    NEL             ....   68
 Basis Dimension        Dim             ....  345

ORBITAL ENERGIES
----------------

  NO   OCC          E(Eh)            E(eV)
   0   2.0000     -20.563936      -559.5732
   1   2.0000     -15.534664      -422.7197
   2   2.0000     -11.295600      -307.3689
   3   2.0000     -11.267035      -306.5916
   4   2.0000     -11.260802      -306.4220
   5   2.0000     -11.224900      -305.4451
   6   2.0000     -11.222965      -305.3924
   7   2.0000     -11.222611      -305.3828
   8   2.0000     -11.213595      -305.1374
   9   2.0000      -1.378871       -37.5210
  10   2.0000      -1.249423       -33.9985
  11   2.0000      -1.047694       -28.5092
  12   2.0000      -1.004538       -27.3349
  13   2.0000      -0.998565       -27.1723
  14   2.0000      -0.885970       -24.1085
  15   2.0000      -0.866036       -23.5660
  16   2.0000      -0.761304       -20.7161
  17   2.0000      -0.726031       -19.7563
  18   2.0000      -0.670719       -18.2512
  19   2.0000      -0.656880       -17.8746
  20   2.0000      -0.644057       -17.5257
  21   2.0000      -0.612520       -16.6675
  22   2.0000      -0.580295       -15.7906
  23   2.0000      -0.571493       -15.5511
  24   2.0000      -0.564633       -15.3644
  25   2.0000      -0.550083       -14.9685
  26   2.0000      -0.531833       -14.4719
  27   2.0000      -0.503963       -13.7135
  28   2.0000      -0.488293       -13.2871
  29   2.0000      -0.479306       -13.0426
  30   2.0000      -0.469208       -12.7678
  31   2.0000      -0.400624       -10.9015
  32   2.0000      -0.378741       -10.3061
  33   2.0000      -0.340568        -9.2673
  34   0.0000       0.124966         3.4005
  35   0.0000       0.138129         3.7587
  36   0.0000       0.159417         4.3380
  37   0.0000       0.170739         4.6460
  38   0.0000       0.179639         4.8882

MULLIKEN ATOMIC CHARGES
-----------------------
   0 C :   -0.442777
   1 C :    0.213244
   2 N :   -0.336479
   3 C :    0.011011
   4 C :   -0.241924
   5 C :   -0.257153
   6 C :    0.194689
   7 C :   -0.451089
   8 O :   -0.468535
   9 H :    0.149279
  10 H :    0.152404
  11 H :    0.127952
  12 H :    0.211017
  13 H :    0.137981
  14 H :    0.132122
  15 H :    0.128741
  16 H :    0.152073
  17 H :    0.146199
  18 H :    0.121500
  19 H :    0.319744
Sum of atomic charges:   -0.0000000

LOEWDIN ATOMIC CHARGES
----------------------
   0 C :   -0.272979
   1 C :   -0.257493
   2 N :    0.031314
   3 C :   -0.204366
   4 C :   -0.126873
   5 C :   -0.107894
   6 C :   -0.310118
   7 C :   -0.287322
   8 O :    0.009482
   9 H :    0.134838
  10 H :    0.133023
  11 H :    0.130407
  12 H :    0.164361
  13 H :    0.128673
  14 H :    0.133088
  15 H :    0.135594
  16 H :    0.133272
  17 H :    0.130433
  18 H :    0.124698
  19 H :    0.177864

  Mayer bond orders larger than 0.1
B(  0-C ,  1-C ) :   0.8333 B(  0-C ,  9-H ) :   0.9441 B(  0-C , 10-H ) :   0.9503
B(  0-C , 11-H ) :   0.9308 B(  1-C ,  2-N ) :   0.9619 B(  1-C ,  5-C ) :   0.9046
B(  1-C ,  6-C ) :   0.8771 B(  2-N ,  3-C ) :   0.9812 B(  2-N , 12-H ) :   0.8676
B(  3-C ,  4-C ) :   0.8867 B(  3-C ,  6-C ) :   0.9365 B(  3-C , 13-H ) :   0.8916
B(  4-C ,  5-C ) :   1.7462 B(  4-C , 14-H ) :   0.9362 B(  5-C , 15-H ) :   0.9430
B(  6-C ,  7-C ) :   0.9264 B(  6-C ,  8-O ) :   1.0306 B(  7-C , 16-H ) :   0.9321
B(  7-C , 17-H ) :   0.9351 B(  7-C , 18-H ) :   0.9195 B(  8-O , 19-H ) :   0.8372

MP2 TOTAL ENERGY:     -402.418671028 Eh
FINAL SINGLE POINT ENERGY      -402.418671027700

DIPOLE MOMENT
-------------
                                X             Y             Z
Electronic contribution:      1.77213      -2.31740      -2.73881
Nuclear contribution   :     -2.69564       2.02816       3.32806
                        -----------------------------------------
Total Dipole Moment    :     -0.92351      -0.28924       0.58925
                        -----------------------------------------
Magnitude (a.u.)       :      1.13303
Magnitude (Debye)      :      2.87993

                             ****ORCA TERMINATED NORMALLY****
TOTAL RUN TIME: 0 days 0 hours 21 minutes 46 seconds 324 msec
