                         Program Version 3.0.3 - RELEASE   -
|  1> ! RI-MP2 RIJK def2-TZVP def2-TZVP/C def2-TZVP/JK TIGHTSCF
|  2> % maxcore 2000
|  3> % mp2 density relaxed end
|  4> *xyz 0 1
|  5>  C       -0.0315947695     1.5074309654     0.0245678414
|  6>  C        0.0100739040     0.0081987106    -0.0045270312
|  7>  C        0.1521054258    -0.7150861520    -1.1592965818
|  8>  N        0.1988983258    -2.0599953160    -1.1529597507
|  9>  N        0.1043873367    -2.8403673071    -0.0511982373
| 10>  C       -0.0499368790    -2.1987982482     1.0794871609
| 11>  N       -0.2049745583    -2.8859290370     2.2415797478
| 12>  C       -0.0929018903    -0.7194134361     1.2303787317
| 13>  O       -0.1990511244    -0.2194634155     2.3550086834
| 14>  H        0.0667376330     1.9348489346    -0.9772656525
| 15>  H       -0.9698768375     1.8611747499     0.4653779779
| 16>  H        0.7708970699     1.9043337707     0.6555584587
| 17>  H        0.2399751503    -0.2531915597    -2.1373617133
| 18>  H        0.3093682228    -2.5799300984    -2.0070579849
| 19>  H        0.0685213093    -3.8528830827     2.2773034901
| 20>  H       -0.1113093687    -2.3121969185     3.0673358198
| 21> *
| 22>
| 23>                          ****END OF INPUT****

CARTESIAN COORDINATES (ANGSTROEM)
---------------------------------
  C     -0.031595    1.507431    0.024568
  C      0.010074    0.008199   -0.004527
  C      0.152105   -0.715086   -1.159297
  N      0.198898   -2.059995   -1.152960
  N      0.104387   -2.840367   -0.051198
  C     -0.049937   -2.198798    1.079487
  N     -0.204975   -2.885929    2.241580
  C     -0.092902   -0.719413    1.230379
  O     -0.199051   -0.219463    2.355009
  H      0.066738    1.934849   -0.977266
  H     -0.969877    1.861175    0.465378
  H      0.770897    1.904334    0.655558
  H      0.239975   -0.253192   -2.137362
  H      0.309368   -2.579930   -2.007058
  H      0.068521   -3.852883    2.277303
  H     -0.111309   -2.312197    3.067336

 Total Charge           Charge          ....    0
 Multiplicity           Mult            ....    1
 Number of Electrons    NEL             ....   66
 Basis Dimension        Dim             ....  321

ORBITAL ENERGIES
----------------

  NO   OCC          E(Eh)            E(eV)
   0   2.0000     -20.515719      -558.2611
   1   2.0000     -15.650452      -425.8705
   2   2.0000     -15.604333      -424.6155
   3   2.0000     -15.565657      -423.5631
   4   2.0000     -11.321110      -308.0631
   5   2.0000     -11.319482      -308.0188
   6   2.0000     -11.311210      -307.7937
   7   2.0000     -11.237157      -305.7786
   8   2.0000     -11.223789      -305.4148
   9   2.0000      -1.380443       -37.5638
  10   2.0000      -1.353237       -36.8235
  11   2.0000      -1.235941       -33.6317
  12   2.0000      -1.125870       -30.6365
  13   2.0000      -1.083676       -29.4883
  14   2.0000      -0.961005       -26.1503
  15   2.0000      -0.886785       -24.1307
  16   2.0000      -0.848713       -23.0946
  17   2.0000      -0.764244       -20.7961
  18   2.0000      -0.755553       -20.5596
  19   2.0000      -0.682083       -18.5604
  20   2.0000      -0.651905       -17.7392
  21   2.0000      -0.643245       -17.5036
  22   2.0000      -0.632293       -17.2056
  23   2.0000      -0.589924       -16.0527
  24   2.0000      -0.567566       -15.4443
  25   2.0000      -0.556027       -15.1303
  26   2.0000      -0.538283       -14.6474
  27   2.0000      -0.531181       -14.4542
  28   2.0000      -0.493819       -13.4375
  29   2.0000      -0.484045       -13.1715
  30   2.0000      -0.405346       -11.0300
  31   2.0000      -0.374942       -10.2027
  32   2.0000      -0.303237        -8.2515
  33   0.0000       0.098316         2.6753
  34   0.0000       0.120520         3.2795
  35   0.0000       0.139545         3.7972
  36   0.0000       0.149094         4.0571
  37   0.0000       0.158993         4.3264

MULLIKEN ATOMIC CHARGES
-----------------------
   0 C :   -0.389630
   1 C :   -0.011307
   2 C :   -0.049368
   3 N :   -0.092621
   4 N :   -0.208195
   5 C :    0.132896
   6 N :   -0.484394
   7 C :    0.152443
   8 O :   -0.413519
   9 H :    0.123979
  10 H :    0.150402
  11 H :    0.150039
  12 H :    0.142098
  13 H :    0.262007
  14 H :    0.253047
  15 H :    0.282121
Sum of atomic charges:    0.0000000

LOEWDIN ATOMIC CHARGES
----------------------
   0 C :   -0.260015
   1 C :   -0.178046
   2 C :   -0.196645
   3 N :    0.121124
   4 N :    0.043877
   5 C :   -0.331615
   6 N :   -0.017857
   7 C :   -0.341529
   8 O :    0.058603
   9 H :    0.125956
  10 H :    0.138271
  11 H :    0.138294
  12 H :    0.148509
  13 H :    0.196644
  14 H :    0.170133
  15 H :    0.184296

  Mayer bond orders larger than 0.1
B(  0-C ,  1-C ) :   0.9106 B(  0-C ,  9-H ) :   0.9445 B(  0-C , 10-H ) :   0.9254
B(  0-C , 11-H ) :   0.9235 B(  1-C ,  2-C ) :   1.4499 B(  1-C ,  7-C ) :   1.1316
B(  2-C ,  3-N ) :   1.2380 B(  2-C , 12-H ) :   0.8952 B(  3-N ,  4-N ) :   0.9982
B(  3-N , 13-H ) :   0.8748 B(  4-N ,  5-C ) :   1.6231 B(  5-C ,  6-N ) :   1.1666
B(  5-C ,  7-C ) :   0.9960 B(  6-N , 14-H ) :   0.8666 B(  6-N , 15-H ) :   0.8372
B(  7-C ,  8-O ) :   1.7989

MP2 TOTAL ENERGY:     -433.385909968 Eh
FINAL SINGLE POINT ENERGY      -433.385909967547

DIPOLE MOMENT
-------------
                                X             Y             Z
Electronic contribution:     -0.03101      -4.78397       0.78695
Nuclear contribution   :      0.43195       4.31286      -2.26466
                        -----------------------------------------
Total Dipole Moment    :      0.40094      -0.47111      -1.47772
                        -----------------------------------------
Magnitude (a.u.)       :      1.60198
Magnitude (Debye)      :      4.07191

                             ****ORCA TERMINATED NORMALLY****
TOTAL RUN TIME: 0 days 0 hours 16 minutes 58 seconds 987 msec
