                         Program Version 3.0.3 - RELEASE   -
|  1> ! RI-MP2 RIJK def2-TZVP def2-TZVP/C def2-TZVP/JK TIGHTSCF
|  2> % maxcore 2000
|  3> % mp2 density relaxed end
|  4> *xyz 0 1
|  5>  C        0.2251932672     1.4464755754     0.2719167716
|  6>  C       -0.2420559575     0.0591839795    -0.1844178979
|  7>  C        0.5296880039    -0.4804011441    -1.3791796788
|  8>  C        0.3671284129     0.2807426663    -2.6801904823
|  9>  N        1.8781601769    -0.9995473764    -1.0318045014
| 10>  C        0.8365665848    -1.9288531442    -1.4503864868
| 11>  C        0.3449592915    -3.1175117512    -0.6300717100
| 12>  O        0.3017091263    -3.9382215764    -1.8213112100
| 13>  C        0.8294820160    -2.8798160877    -2.6463991138
| 14>  H        1.2967182953     1.4317904907     0.4935677611
| 15>  H        0.0455285230     2.2115136118    -0.4902030456
| 16>  H       -0.3045367362     1.7563127929     1.1776762882
| 17>  H       -0.1278610195    -0.6442652543     0.6468297099
| 18>  H       -1.3115145499     0.0834488366    -0.4321590794
| 19>  H        0.7481927458     1.3035238941    -2.5915428171
| 20>  H        0.9073075207    -0.2051514990    -3.4987899179
| 21>  H       -0.6881028898     0.3455620993    -2.9688422304
| 22>  H        2.5344957422    -0.8379074257    -1.7939201973
| 23>  H        1.0649465291    -3.4920525002     0.1080454997
| 24>  H       -0.6430417424    -3.0215680002    -0.1628317207
| 25>  H        0.1563562034    -2.6266579518    -3.4760436292
| 26>  H        1.8203340865    -3.1285635654    -3.0529548920
| 27> *
| 28>
| 29>                          ****END OF INPUT****

CARTESIAN COORDINATES (ANGSTROEM)
---------------------------------
  C      0.225193    1.446476    0.271917
  C     -0.242056    0.059184   -0.184418
  C      0.529688   -0.480401   -1.379180
  C      0.367128    0.280743   -2.680190
  N      1.878160   -0.999547   -1.031805
  C      0.836567   -1.928853   -1.450386
  C      0.344959   -3.117512   -0.630072
  O      0.301709   -3.938222   -1.821311
  C      0.829482   -2.879816   -2.646399
  H      1.296718    1.431790    0.493568
  H      0.045529    2.211514   -0.490203
  H     -0.304537    1.756313    1.177676
  H     -0.127861   -0.644265    0.646830
  H     -1.311515    0.083449   -0.432159
  H      0.748193    1.303524   -2.591543
  H      0.907308   -0.205151   -3.498790
  H     -0.688103    0.345562   -2.968842
  H      2.534496   -0.837907   -1.793920
  H      1.064947   -3.492053    0.108045
  H     -0.643042   -3.021568   -0.162832
  H      0.156356   -2.626658   -3.476044
  H      1.820334   -3.128564   -3.052955

 Total Charge           Charge          ....    0
 Multiplicity           Mult            ....    1
 Number of Electrons    NEL             ....   70
 Basis Dimension        Dim             ....  357

ORBITAL ENERGIES
----------------

  NO   OCC          E(Eh)            E(eV)
   0   2.0000     -20.549988      -559.1936
   1   2.0000     -15.557932      -423.3529
   2   2.0000     -11.283230      -307.0323
   3   2.0000     -11.276547      -306.8504
   4   2.0000     -11.270351      -306.6819
   5   2.0000     -11.266617      -306.5802
   6   2.0000     -11.231392      -305.6217
   7   2.0000     -11.226701      -305.4941
   8   2.0000     -11.214687      -305.1671
   9   2.0000      -1.380595       -37.5679
  10   2.0000      -1.268407       -34.5151
  11   2.0000      -1.049213       -28.5505
  12   2.0000      -0.983728       -26.7686
  13   2.0000      -0.963642       -26.2220
  14   2.0000      -0.940248       -25.5854
  15   2.0000      -0.880617       -23.9628
  16   2.0000      -0.797791       -21.7090
  17   2.0000      -0.725557       -19.7434
  18   2.0000      -0.684128       -18.6161
  19   2.0000      -0.673200       -18.3187
  20   2.0000      -0.650706       -17.7066
  21   2.0000      -0.616580       -16.7780
  22   2.0000      -0.584877       -15.9153
  23   2.0000      -0.581326       -15.8187
  24   2.0000      -0.568043       -15.4572
  25   2.0000      -0.549893       -14.9634
  26   2.0000      -0.545272       -14.8376
  27   2.0000      -0.528448       -14.3798
  28   2.0000      -0.508243       -13.8300
  29   2.0000      -0.493735       -13.4352
  30   2.0000      -0.467858       -12.7311
  31   2.0000      -0.456795       -12.4300
  32   2.0000      -0.438713       -11.9380
  33   2.0000      -0.420905       -11.4534
  34   2.0000      -0.376151       -10.2356
  35   0.0000       0.122886         3.3439
  36   0.0000       0.157013         4.2725
  37   0.0000       0.159011         4.3269
  38   0.0000       0.164980         4.4893
  39   0.0000       0.180487         4.9113

MULLIKEN ATOMIC CHARGES
-----------------------
   0 C :   -0.432002
   1 C :   -0.193910
   2 C :    0.146207
   3 C :   -0.421603
   4 N :   -0.379834
   5 C :   -0.058292
   6 C :   -0.000533
   7 O :   -0.328104
   8 C :    0.002428
   9 H :    0.144975
  10 H :    0.124328
  11 H :    0.136396
  12 H :    0.115622
  13 H :    0.110198
  14 H :    0.149365
  15 H :    0.129186
  16 H :    0.140016
  17 H :    0.214710
  18 H :    0.101161
  19 H :    0.102030
  20 H :    0.103180
  21 H :    0.094476
Sum of atomic charges:   -0.0000000

LOEWDIN ATOMIC CHARGES
----------------------
   0 C :   -0.312213
   1 C :   -0.246323
   2 C :   -0.292082
   3 C :   -0.268691
   4 N :    0.048039
   5 C :   -0.269620
   6 C :   -0.228684
   7 O :    0.115379
   8 C :   -0.242516
   9 H :    0.127067
  10 H :    0.118353
  11 H :    0.121931
  12 H :    0.146318
  13 H :    0.140814
  14 H :    0.129718
  15 H :    0.127910
  16 H :    0.133088
  17 H :    0.167148
  18 H :    0.123179
  19 H :    0.120475
  20 H :    0.121013
  21 H :    0.119696

  Mayer bond orders larger than 0.1
B(  0-C ,  1-C ) :   0.9149 B(  0-C ,  9-H ) :   0.9382 B(  0-C , 10-H ) :   0.9388
B(  0-C , 11-H ) :   0.9406 B(  1-C ,  2-C ) :   0.8873 B(  1-C , 12-H ) :   0.9332
B(  1-C , 13-H ) :   0.9348 B(  2-C ,  3-C ) :   0.9171 B(  2-C ,  4-N ) :   0.9027
B(  2-C ,  5-C ) :   0.8663 B(  3-C , 14-H ) :   0.9378 B(  3-C , 15-H ) :   0.9303
B(  3-C , 16-H ) :   0.9297 B(  4-N ,  5-C ) :   0.9608 B(  4-N , 17-H ) :   0.8635
B(  5-C ,  6-C ) :   0.9453 B(  5-C ,  8-C ) :   0.9785 B(  6-C ,  7-O ) :   0.9576
B(  6-C , 18-H ) :   0.9023 B(  6-C , 19-H ) :   0.9132 B(  7-O ,  8-C ) :   0.9723
B(  8-C , 20-H ) :   0.9038 B(  8-C , 21-H ) :   0.9046

MP2 TOTAL ENERGY:     -403.614266204 Eh
FINAL SINGLE POINT ENERGY      -403.614266204187

DIPOLE MOMENT
-------------
                                X             Y             Z
Electronic contribution:      1.59012      -8.43340      -1.10125
Nuclear contribution   :     -1.68451       9.22923       0.69370
                        -----------------------------------------
Total Dipole Moment    :     -0.09439       0.79583      -0.40755
                        -----------------------------------------
Magnitude (a.u.)       :      0.89908
Magnitude (Debye)      :      2.28528

                             ****ORCA TERMINATED NORMALLY****
TOTAL RUN TIME: 0 days 0 hours 18 minutes 28 seconds 192 msec
