                         Program Version 3.0.3 - RELEASE   -
|  1> ! RI-MP2 RIJK def2-TZVP def2-TZVP/C def2-TZVP/JK TIGHTSCF
|  2> % maxcore 2000
|  3> % mp2 density relaxed end
|  4> *xyz 0 1
|  5>  C       -0.0977352225     1.5342682856     0.1705274833
|  6>  C        0.0052909508     0.0186183433    -0.0136868563
|  7>  C        0.7316764577    -0.4624125405    -1.3051578677
|  8>  C        0.7475775114    -2.0201060956    -1.2903399711
|  9>  C        1.4420255477    -2.6931435703    -2.4763053212
| 10>  C        0.0144660420     0.0670085458    -2.5676229238
| 11>  O       -1.3181016069    -0.4229114756    -2.5579330228
| 12>  C        2.1046586813     0.0506104302    -1.3260449938
| 13>  C        3.2315764883     0.4717559247    -1.3432453820
| 14>  H        0.8858179464     2.0106563919     0.1158490004
| 15>  H       -0.7423965478     1.9929161825    -0.5854212060
| 16>  H       -0.5304023742     1.7667157503     1.1485759647
| 17>  H        0.5360174399    -0.4154140508     0.8410501913
| 18>  H       -0.9974982683    -0.4190298314    -0.0247561307
| 19>  H        1.2338573073    -2.3334623953    -0.3597628682
| 20>  H       -0.2932136593    -2.3534368945    -1.2366908481
| 21>  H        0.9030547782    -2.5229199531    -3.4132965962
| 22>  H        2.4658462775    -2.3271546570    -2.5993833813
| 23>  H        1.4878372640    -3.7756500819    -2.3217287383
| 24>  H        0.0388412637     1.1650479197    -2.5633058320
| 25>  H        0.5594381175    -0.2684728839    -3.4602197107
| 26>  H       -1.7644905023    -0.0964013860    -3.3440458437
| 27>  H        4.2270402075     0.8414514420    -1.3548378358
| 28> *
| 29>
| 30>                          ****END OF INPUT****

CARTESIAN COORDINATES (ANGSTROEM)
---------------------------------
  C     -0.097735    1.534268    0.170527
  C      0.005291    0.018618   -0.013687
  C      0.731676   -0.462413   -1.305158
  C      0.747578   -2.020106   -1.290340
  C      1.442026   -2.693144   -2.476305
  C      0.014466    0.067009   -2.567623
  O     -1.318102   -0.422911   -2.557933
  C      2.104659    0.050610   -1.326045
  C      3.231576    0.471756   -1.343245
  H      0.885818    2.010656    0.115849
  H     -0.742397    1.992916   -0.585421
  H     -0.530402    1.766716    1.148576
  H      0.536017   -0.415414    0.841050
  H     -0.997498   -0.419030   -0.024756
  H      1.233857   -2.333462   -0.359763
  H     -0.293214   -2.353437   -1.236691
  H      0.903055   -2.522920   -3.413297
  H      2.465846   -2.327155   -2.599383
  H      1.487837   -3.775650   -2.321729
  H      0.038841    1.165048   -2.563306
  H      0.559438   -0.268473   -3.460220
  H     -1.764491   -0.096401   -3.344046
  H      4.227040    0.841451   -1.354838

 Total Charge           Charge          ....    0
 Multiplicity           Mult            ....    1
 Number of Electrons    NEL             ....   70
 Basis Dimension        Dim             ....  363

ORBITAL ENERGIES
----------------

  NO   OCC          E(Eh)            E(eV)
   0   2.0000     -20.561062      -559.4949
   1   2.0000     -11.279473      -306.9301
   2   2.0000     -11.256727      -306.3111
   3   2.0000     -11.228406      -305.5405
   4   2.0000     -11.219335      -305.2936
   5   2.0000     -11.219315      -305.2931
   6   2.0000     -11.217747      -305.2504
   7   2.0000     -11.207268      -304.9653
   8   2.0000     -11.207234      -304.9643
   9   2.0000      -1.366529       -37.1851
  10   2.0000      -1.120823       -30.4991
  11   2.0000      -1.014098       -27.5950
  12   2.0000      -1.010713       -27.5029
  13   2.0000      -0.959038       -26.0968
  14   2.0000      -0.891653       -24.2631
  15   2.0000      -0.818919       -22.2839
  16   2.0000      -0.799347       -21.7513
  17   2.0000      -0.712674       -19.3929
  18   2.0000      -0.699698       -19.0397
  19   2.0000      -0.656505       -17.8644
  20   2.0000      -0.634375       -17.2622
  21   2.0000      -0.601668       -16.3722
  22   2.0000      -0.582884       -15.8611
  23   2.0000      -0.567565       -15.4442
  24   2.0000      -0.556395       -15.1403
  25   2.0000      -0.548367       -14.9218
  26   2.0000      -0.530994       -14.4491
  27   2.0000      -0.494127       -13.4459
  28   2.0000      -0.483085       -13.1454
  29   2.0000      -0.479597       -13.0505
  30   2.0000      -0.467246       -12.7144
  31   2.0000      -0.459669       -12.5082
  32   2.0000      -0.442415       -12.0387
  33   2.0000      -0.382253       -10.4016
  34   2.0000      -0.380401       -10.3512
  35   0.0000       0.125659         3.4194
  36   0.0000       0.151133         4.1125
  37   0.0000       0.166239         4.5236
  38   0.0000       0.166666         4.5352
  39   0.0000       0.174035         4.7357

MULLIKEN ATOMIC CHARGES
-----------------------
   0 C :   -0.438757
   1 C :   -0.205621
   2 C :    0.157095
   3 C :   -0.205697
   4 C :   -0.438672
   5 C :   -0.159024
   6 O :   -0.472976
   7 C :   -0.136894
   8 C :   -0.167492
   9 H :    0.142803
  10 H :    0.130240
  11 H :    0.135267
  12 H :    0.115768
  13 H :    0.134422
  14 H :    0.115771
  15 H :    0.134417
  16 H :    0.130113
  17 H :    0.142824
  18 H :    0.135285
  19 H :    0.123219
  20 H :    0.123230
  21 H :    0.318005
  22 H :    0.186675
Sum of atomic charges:   -0.0000000

LOEWDIN ATOMIC CHARGES
----------------------
   0 C :   -0.313651
   1 C :   -0.234066
   2 C :   -0.272802
   3 C :   -0.234076
   4 C :   -0.313660
   5 C :   -0.294106
   6 O :   -0.037014
   7 C :   -0.067523
   8 C :   -0.100040
   9 H :    0.126446
  10 H :    0.120419
  11 H :    0.122808
  12 H :    0.143176
  13 H :    0.145887
  14 H :    0.143183
  15 H :    0.145882
  16 H :    0.120381
  17 H :    0.126453
  18 H :    0.122811
  19 H :    0.124088
  20 H :    0.124081
  21 H :    0.175047
  22 H :    0.126276

  Mayer bond orders larger than 0.1
B(  0-C ,  1-C ) :   0.9202 B(  0-C ,  9-H ) :   0.9353 B(  0-C , 10-H ) :   0.9411
B(  0-C , 11-H ) :   0.9398 B(  1-C ,  2-C ) :   0.8560 B(  1-C , 12-H ) :   0.9271
B(  1-C , 13-H ) :   0.9259 B(  2-C ,  3-C ) :   0.8560 B(  2-C ,  5-C ) :   0.8860
B(  2-C ,  7-C ) :   1.1738 B(  3-C ,  4-C ) :   0.9202 B(  3-C , 14-H ) :   0.9271
B(  3-C , 15-H ) :   0.9259 B(  4-C , 16-H ) :   0.9411 B(  4-C , 17-H ) :   0.9353
B(  4-C , 18-H ) :   0.9398 B(  5-C ,  6-O ) :   1.0079 B(  5-C , 19-H ) :   0.9304
B(  5-C , 20-H ) :   0.9302 B(  6-O , 21-H ) :   0.8454 B(  7-C ,  8-C ) :   2.5791
B(  8-C , 22-H ) :   0.8888

MP2 TOTAL ENERGY:     -387.585491303 Eh
FINAL SINGLE POINT ENERGY      -387.585491302833

DIPOLE MOMENT
-------------
                                X             Y             Z
Electronic contribution:      1.31527       1.35454      -1.39469
Nuclear contribution   :     -1.38544      -1.11639       0.96973
                        -----------------------------------------
Total Dipole Moment    :     -0.07017       0.23815      -0.42497
                        -----------------------------------------
Magnitude (a.u.)       :      0.49218
Magnitude (Debye)      :      1.25101

                             ****ORCA TERMINATED NORMALLY****
TOTAL RUN TIME: 0 days 0 hours 23 minutes 17 seconds 3 msec
