                         Program Version 3.0.3 - RELEASE   -
|  1> ! RI-MP2 RIJK def2-TZVP def2-TZVP/C def2-TZVP/JK TIGHTSCF
|  2> % maxcore 2000
|  3> % mp2 density relaxed end
|  4> *xyz 0 1
|  5>  O        0.0749203146     1.3769690135    -0.0581465054
|  6>  C        0.0116794209    -0.0098391061    -0.0556243878
|  7>  C        0.2131667308    -0.8094390403    -1.3496272966
|  8>  C       -0.4439523034    -1.9489231540    -0.5148759939
|  9>  C        0.6611702374    -2.2171041831     0.5322570560
| 10>  C        0.7503037719    -0.7696996710     1.0804854016
| 11>  O       -0.1218210894    -0.6178268890     2.2081641990
| 12>  C       -1.4444280103    -0.9162341306     1.7126701547
| 13>  C       -1.2974316877    -0.8334415668     0.1956603483
| 14>  H        0.0388403366     1.6679831488     0.8611484736
| 15>  H       -0.4319890273    -0.4416683472    -2.1508997023
| 16>  H        1.2298905881    -0.9631339137    -1.7231703368
| 17>  H       -0.9151572990    -2.8035185861    -0.9973535577
| 18>  H        0.3877000222    -2.9186924403     1.3245152776
| 19>  H        1.5883353056    -2.5642075279     0.0670471104
| 20>  H        1.7362443612    -0.4016016034     1.3652363368
| 21>  H       -1.7699208552    -1.9042199249     2.0656051616
| 22>  H       -2.1407212455    -0.1691612738     2.1100173657
| 23>  H       -2.1717413114    -0.5072040140    -0.3660612847
| 24> *
| 25>
| 26>                          ****END OF INPUT****

CARTESIAN COORDINATES (ANGSTROEM)
---------------------------------
  O      0.074920    1.376969   -0.058147
  C      0.011679   -0.009839   -0.055624
  C      0.213167   -0.809439   -1.349627
  C     -0.443952   -1.948923   -0.514876
  C      0.661170   -2.217104    0.532257
  C      0.750304   -0.769700    1.080485
  O     -0.121821   -0.617827    2.208164
  C     -1.444428   -0.916234    1.712670
  C     -1.297432   -0.833442    0.195660
  H      0.038840    1.667983    0.861148
  H     -0.431989   -0.441668   -2.150900
  H      1.229891   -0.963134   -1.723170
  H     -0.915157   -2.803519   -0.997354
  H      0.387700   -2.918692    1.324515
  H      1.588335   -2.564208    0.067047
  H      1.736244   -0.401602    1.365236
  H     -1.769921   -1.904220    2.065605
  H     -2.140721   -0.169161    2.110017
  H     -2.171741   -0.507204   -0.366061

 Total Charge           Charge          ....    0
 Multiplicity           Mult            ....    1
 Number of Electrons    NEL             ....   68
 Basis Dimension        Dim             ....  339

ORBITAL ENERGIES
----------------

  NO   OCC          E(Eh)            E(eV)
   0   2.0000     -20.562461      -559.5330
   1   2.0000     -20.553875      -559.2994
   2   2.0000     -11.287209      -307.1406
   3   2.0000     -11.280150      -306.9485
   4   2.0000     -11.274997      -306.8083
   5   2.0000     -11.242185      -305.9154
   6   2.0000     -11.232539      -305.6529
   7   2.0000     -11.227297      -305.5103
   8   2.0000     -11.226609      -305.4916
   9   2.0000      -1.390920       -37.8489
  10   2.0000      -1.361669       -37.0529
  11   2.0000      -1.176577       -32.0163
  12   2.0000      -1.010710       -27.5028
  13   2.0000      -0.955199       -25.9923
  14   2.0000      -0.922700       -25.1079
  15   2.0000      -0.846790       -23.0423
  16   2.0000      -0.769277       -20.9331
  17   2.0000      -0.747847       -20.3499
  18   2.0000      -0.721650       -19.6371
  19   2.0000      -0.678791       -18.4709
  20   2.0000      -0.663549       -18.0561
  21   2.0000      -0.611633       -16.6434
  22   2.0000      -0.594691       -16.1824
  23   2.0000      -0.577526       -15.7153
  24   2.0000      -0.565348       -15.3839
  25   2.0000      -0.546791       -14.8789
  26   2.0000      -0.530430       -14.4337
  27   2.0000      -0.516339       -14.0503
  28   2.0000      -0.489000       -13.3064
  29   2.0000      -0.477491       -12.9932
  30   2.0000      -0.457737       -12.4557
  31   2.0000      -0.439782       -11.9671
  32   2.0000      -0.424740       -11.5577
  33   2.0000      -0.378375       -10.2961
  34   0.0000       0.138509         3.7690
  35   0.0000       0.154642         4.2080
  36   0.0000       0.163852         4.4586
  37   0.0000       0.169907         4.6234
  38   0.0000       0.189062         5.1446

MULLIKEN ATOMIC CHARGES
-----------------------
   0 O :   -0.458550
   1 C :    0.149892
   2 C :   -0.248505
   3 C :   -0.084398
   4 C :   -0.290264
   5 C :    0.041629
   6 O :   -0.326875
   7 C :   -0.096318
   8 C :   -0.114941
   9 H :    0.328519
  10 H :    0.124333
  11 H :    0.116252
  12 H :    0.132857
  13 H :    0.131179
  14 H :    0.122903
  15 H :    0.125161
  16 H :    0.103523
  17 H :    0.116397
  18 H :    0.127209
Sum of atomic charges:   -0.0000000

LOEWDIN ATOMIC CHARGES
----------------------
   0 O :    0.027156
   1 C :   -0.328006
   2 C :   -0.173022
   3 C :   -0.178406
   4 C :   -0.203826
   5 C :   -0.258528
   6 O :    0.147242
   7 C :   -0.273064
   8 C :   -0.170151
   9 H :    0.187801
  10 H :    0.143421
  11 H :    0.128699
  12 H :    0.133312
  13 H :    0.139693
  14 H :    0.137810
  15 H :    0.139505
  16 H :    0.123501
  17 H :    0.126017
  18 H :    0.150847

  Mayer bond orders larger than 0.1
B(  0-O ,  1-C ) :   1.0189 B(  0-O ,  9-H ) :   0.8290 B(  1-C ,  2-C ) :   0.9261
B(  1-C ,  5-C ) :   0.9434 B(  1-C ,  8-C ) :   0.8477 B(  2-C ,  3-C ) :   0.9064
B(  2-C , 10-H ) :   0.9211 B(  2-C , 11-H ) :   0.9196 B(  3-C ,  4-C ) :   0.8992
B(  3-C ,  8-C ) :   0.8892 B(  3-C , 12-H ) :   0.9098 B(  4-C ,  5-C ) :   0.9023
B(  4-C , 13-H ) :   0.9200 B(  4-C , 14-H ) :   0.9213 B(  5-C ,  6-O ) :   0.9306
B(  5-C , 15-H ) :   0.9248 B(  6-O ,  7-C ) :   0.9227 B(  7-C ,  8-C ) :   0.9586
B(  7-C , 16-H ) :   0.9154 B(  7-C , 17-H ) :   0.9288 B(  8-C , 18-H ) :   0.9083

MP2 TOTAL ENERGY:     -422.325303181 Eh
FINAL SINGLE POINT ENERGY      -422.325303181027

DIPOLE MOMENT
-------------
                                X             Y             Z
Electronic contribution:      0.44705       3.19259       1.62402
Nuclear contribution   :     -0.66933      -3.66781      -1.76301
                        -----------------------------------------
Total Dipole Moment    :     -0.22228      -0.47522      -0.13899
                        -----------------------------------------
Magnitude (a.u.)       :      0.54273
Magnitude (Debye)      :      1.37951

                             ****ORCA TERMINATED NORMALLY****
TOTAL RUN TIME: 0 days 0 hours 18 minutes 51 seconds 513 msec
