                         Program Version 3.0.3 - RELEASE   -
|  1> ! RI-MP2 RIJK def2-TZVP def2-TZVP/C def2-TZVP/JK TIGHTSCF
|  2> % maxcore 2000
|  3> % mp2 density relaxed end
|  4> *xyz 0 1
|  5>  C        0.0656477341     1.6132453135     0.1519255592
|  6>  C        0.0483000954     0.0818208003     0.1245639281
|  7>  C       -1.3604863374    -0.5230792592    -0.0354097645
|  8>  C       -2.0483268329    -0.2360636819    -1.3585677386
|  9>  C       -2.5440122318    -1.3321013024    -1.9446530868
| 10>  C       -3.3006263209    -1.4139553681    -3.2332494494
| 11>  C       -2.2098491609    -2.5545528239    -1.1454341757
| 12>  C       -0.7273644934    -2.8592883848    -1.0465131388
| 13>  C       -1.4028926850    -2.0545649229     0.0364532031
| 14>  H        1.0791537774     1.9924828963     0.3166689489
| 15>  H       -0.2954974870     2.0392609663    -0.7897549276
| 16>  H       -0.5691096872     2.0026710689     0.9560935384
| 17>  H        0.6920730864    -0.2806779202    -0.6855088761
| 18>  H        0.4833734049    -0.3000177552     1.0569464472
| 19>  H       -1.9755405766    -0.1173141127     0.7844381398
| 20>  H       -2.1137206041     0.7627637858    -1.7770423365
| 21>  H       -3.4398508528    -0.4272862421    -3.6833916270
| 22>  H       -2.7815185446    -2.0533080947    -3.9585946789
| 23>  H       -4.2921697328    -1.8597066609    -3.0814261639
| 24>  H       -2.9241672117    -3.3682768104    -1.0700528176
| 25>  H       -0.4380720277    -3.8730155583    -0.7879701092
| 26>  H       -0.0638510328    -2.3651630648    -1.7485956235
| 27>  H       -1.5016336085    -2.5194457384     1.0107481995
| 28> *
| 29>
| 30>                          ****END OF INPUT****

CARTESIAN COORDINATES (ANGSTROEM)
---------------------------------
  C      0.065648    1.613245    0.151926
  C      0.048300    0.081821    0.124564
  C     -1.360486   -0.523079   -0.035410
  C     -2.048327   -0.236064   -1.358568
  C     -2.544012   -1.332101   -1.944653
  C     -3.300626   -1.413955   -3.233249
  C     -2.209849   -2.554553   -1.145434
  C     -0.727364   -2.859288   -1.046513
  C     -1.402893   -2.054565    0.036453
  H      1.079154    1.992483    0.316669
  H     -0.295497    2.039261   -0.789755
  H     -0.569110    2.002671    0.956094
  H      0.692073   -0.280678   -0.685509
  H      0.483373   -0.300018    1.056946
  H     -1.975541   -0.117314    0.784438
  H     -2.113721    0.762764   -1.777042
  H     -3.439851   -0.427286   -3.683392
  H     -2.781519   -2.053308   -3.958595
  H     -4.292170   -1.859707   -3.081426
  H     -2.924167   -3.368277   -1.070053
  H     -0.438072   -3.873016   -0.787970
  H     -0.063851   -2.365163   -1.748596
  H     -1.501634   -2.519446    1.010748

 Total Charge           Charge          ....    0
 Multiplicity           Mult            ....    1
 Number of Electrons    NEL             ....   68
 Basis Dimension        Dim             ....  363

ORBITAL ENERGIES
----------------

  NO   OCC          E(Eh)            E(eV)
   0   2.0000     -11.227203      -305.5077
   1   2.0000     -11.225191      -305.4530
   2   2.0000     -11.224756      -305.4411
   3   2.0000     -11.223054      -305.3948
   4   2.0000     -11.221355      -305.3486
   5   2.0000     -11.219169      -305.2891
   6   2.0000     -11.214733      -305.1684
   7   2.0000     -11.209363      -305.0223
   8   2.0000     -11.207040      -304.9591
   9   2.0000      -1.178380       -32.0653
  10   2.0000      -1.053961       -28.6797
  11   2.0000      -1.039603       -28.2890
  12   2.0000      -0.964729       -26.2516
  13   2.0000      -0.901251       -24.5243
  14   2.0000      -0.825844       -22.4724
  15   2.0000      -0.819825       -22.3086
  16   2.0000      -0.747032       -20.3278
  17   2.0000      -0.710963       -19.3463
  18   2.0000      -0.674067       -18.3423
  19   2.0000      -0.613415       -16.6919
  20   2.0000      -0.600048       -16.3281
  21   2.0000      -0.576294       -15.6818
  22   2.0000      -0.564505       -15.3610
  23   2.0000      -0.562250       -15.2996
  24   2.0000      -0.551758       -15.0141
  25   2.0000      -0.539186       -14.6720
  26   2.0000      -0.509870       -13.8743
  27   2.0000      -0.486361       -13.2345
  28   2.0000      -0.479874       -13.0580
  29   2.0000      -0.471209       -12.8223
  30   2.0000      -0.448282       -12.1984
  31   2.0000      -0.428533       -11.6610
  32   2.0000      -0.393068       -10.6959
  33   2.0000      -0.318877        -8.6771
  34   0.0000       0.140141         3.8134
  35   0.0000       0.148308         4.0357
  36   0.0000       0.160121         4.3571
  37   0.0000       0.168286         4.5793
  38   0.0000       0.170750         4.6463

MULLIKEN ATOMIC CHARGES
-----------------------
   0 C :   -0.403554
   1 C :   -0.188516
   2 C :    0.032369
   3 C :   -0.309228
   4 C :    0.061877
   5 C :   -0.452395
   6 C :   -0.083781
   7 C :   -0.297679
   8 C :   -0.086824
   9 H :    0.133441
  10 H :    0.124585
  11 H :    0.123883
  12 H :    0.102968
  13 H :    0.109979
  14 H :    0.092727
  15 H :    0.116001
  16 H :    0.136713
  17 H :    0.140500
  18 H :    0.138824
  19 H :    0.123672
  20 H :    0.126147
  21 H :    0.134264
  22 H :    0.124028
Sum of atomic charges:   -0.0000000

LOEWDIN ATOMIC CHARGES
----------------------
   0 C :   -0.319699
   1 C :   -0.265385
   2 C :   -0.214719
   3 C :   -0.117996
   4 C :   -0.169305
   5 C :   -0.271418
   6 C :   -0.158787
   7 C :   -0.197136
   8 C :   -0.161617
   9 H :    0.120781
  10 H :    0.118782
  11 H :    0.120467
  12 H :    0.136145
  13 H :    0.138007
  14 H :    0.158809
  15 H :    0.137023
  16 H :    0.129429
  17 H :    0.131553
  18 H :    0.131057
  19 H :    0.143601
  20 H :    0.132496
  21 H :    0.134781
  22 H :    0.143130

  Mayer bond orders larger than 0.1
B(  0-C ,  1-C ) :   0.9164 B(  0-C ,  9-H ) :   0.9417 B(  0-C , 10-H ) :   0.9400
B(  0-C , 11-H ) :   0.9391 B(  1-C ,  2-C ) :   0.8924 B(  1-C , 12-H ) :   0.9245
B(  1-C , 13-H ) :   0.9370 B(  2-C ,  3-C ) :   0.9434 B(  2-C ,  8-C ) :   0.9314
B(  2-C , 14-H ) :   0.9087 B(  3-C ,  4-C ) :   1.7435 B(  3-C , 15-H ) :   0.9242
B(  4-C ,  5-C ) :   0.8820 B(  4-C ,  6-C ) :   0.9275 B(  5-C , 16-H ) :   0.9520
B(  5-C , 17-H ) :   0.9312 B(  5-C , 18-H ) :   0.9338 B(  6-C ,  7-C ) :   0.8624
B(  6-C ,  8-C ) :   0.8780 B(  6-C , 19-H ) :   0.9228 B(  7-C ,  8-C ) :   0.8857
B(  7-C , 20-H ) :   0.9256 B(  7-C , 21-H ) :   0.9254 B(  8-C , 22-H ) :   0.9277

MP2 TOTAL ENERGY:     -350.510574288 Eh
FINAL SINGLE POINT ENERGY      -350.510574287967

DIPOLE MOMENT
-------------
                                X             Y             Z
Electronic contribution:     -2.37781      -3.46572       0.26955
Nuclear contribution   :      2.34659       3.37435      -0.25860
                        -----------------------------------------
Total Dipole Moment    :     -0.03122      -0.09137       0.01096
                        -----------------------------------------
Magnitude (a.u.)       :      0.09717
Magnitude (Debye)      :      0.24699

                             ****ORCA TERMINATED NORMALLY****
TOTAL RUN TIME: 0 days 0 hours 35 minutes 15 seconds 391 msec
