                         Program Version 3.0.3 - RELEASE   -
|  1> ! RI-MP2 RIJK def2-TZVP def2-TZVP/C def2-TZVP/JK TIGHTSCF
|  2> % maxcore 2000
|  3> % mp2 density relaxed end
|  4> *xyz 0 1
|  5>  C       -0.2237764497     1.4787292649     0.0739911401
|  6>  C        0.2701536419     0.0288799116     0.1427403855
|  7>  C        0.6180904708    -0.5497353721    -1.2209899740
|  8>  C        1.7450659162     0.1323944842    -1.9748485109
|  9>  C        0.4012907083    -2.0261734119    -1.4619107464
| 10>  N       -0.5187114503    -1.0358661389    -1.9800464926
| 11>  C       -0.8405374482    -0.7496660864    -3.2989157494
| 12>  C       -1.2885613547    -1.9488009651    -4.1153238121
| 13>  O       -0.8287825915     0.3843590056    -3.7303814788
| 14>  H        0.5634164159     2.1592040327    -0.2642334207
| 15>  H       -1.0622774547     1.5660849901    -0.6235602290
| 16>  H       -0.5571793075     1.8214645332     1.0579547503
| 17>  H        1.1531776070    -0.0399385243     0.7912226258
| 18>  H       -0.5055729824    -0.5993188478     0.5938784432
| 19>  H        2.6309447244     0.2097978720    -1.3360078318
| 20>  H        2.0187848210    -0.4266924522    -2.8735534562
| 21>  H        1.4530423990     1.1355837265    -2.2930387273
| 22>  H        1.0674425797    -2.5246457252    -2.1638827650
| 23>  H        0.0232428538    -2.6616251254    -0.6638199362
| 24>  H       -0.4160471698    -2.5247428262    -4.4444626769
| 25>  H       -1.9207529234    -2.6176705990    -3.5254675006
| 26>  H       -1.8262074359    -1.5990796962    -4.9967036868
| 27> *
| 28>
| 29>                          ****END OF INPUT****

CARTESIAN COORDINATES (ANGSTROEM)
---------------------------------
  C     -0.223776    1.478729    0.073991
  C      0.270154    0.028880    0.142740
  C      0.618090   -0.549735   -1.220990
  C      1.745066    0.132394   -1.974849
  C      0.401291   -2.026173   -1.461911
  N     -0.518711   -1.035866   -1.980046
  C     -0.840537   -0.749666   -3.298916
  C     -1.288561   -1.948801   -4.115324
  O     -0.828783    0.384359   -3.730381
  H      0.563416    2.159204   -0.264233
  H     -1.062277    1.566085   -0.623560
  H     -0.557179    1.821465    1.057955
  H      1.153178   -0.039939    0.791223
  H     -0.505573   -0.599319    0.593878
  H      2.630945    0.209798   -1.336008
  H      2.018785   -0.426692   -2.873553
  H      1.453042    1.135584   -2.293039
  H      1.067443   -2.524646   -2.163883
  H      0.023243   -2.661625   -0.663820
  H     -0.416047   -2.524743   -4.444463
  H     -1.920753   -2.617671   -3.525468
  H     -1.826207   -1.599080   -4.996704

 Total Charge           Charge          ....    0
 Multiplicity           Mult            ....    1
 Number of Electrons    NEL             ....   70
 Basis Dimension        Dim             ....  357

ORBITAL ENERGIES
----------------

  NO   OCC          E(Eh)            E(eV)
   0   2.0000     -20.522667      -558.4502
   1   2.0000     -15.575361      -423.8271
   2   2.0000     -11.349183      -308.8270
   3   2.0000     -11.281909      -306.9964
   4   2.0000     -11.273202      -306.7594
   5   2.0000     -11.233862      -305.6889
   6   2.0000     -11.226959      -305.5011
   7   2.0000     -11.222244      -305.3728
   8   2.0000     -11.210776      -305.0607
   9   2.0000      -1.385668       -37.7059
  10   2.0000      -1.289030       -35.0763
  11   2.0000      -1.064898       -28.9773
  12   2.0000      -1.013671       -27.5834
  13   2.0000      -0.975609       -26.5477
  14   2.0000      -0.936853       -25.4931
  15   2.0000      -0.866360       -23.5749
  16   2.0000      -0.798825       -21.7371
  17   2.0000      -0.708334       -19.2747
  18   2.0000      -0.674833       -18.3631
  19   2.0000      -0.665940       -18.1212
  20   2.0000      -0.633759       -17.2455
  21   2.0000      -0.605998       -16.4900
  22   2.0000      -0.601253       -16.3609
  23   2.0000      -0.584026       -15.8921
  24   2.0000      -0.563849       -15.3431
  25   2.0000      -0.562226       -15.2990
  26   2.0000      -0.542214       -14.7544
  27   2.0000      -0.525705       -14.3052
  28   2.0000      -0.515405       -14.0249
  29   2.0000      -0.499198       -13.5839
  30   2.0000      -0.480544       -13.0763
  31   2.0000      -0.472333       -12.8528
  32   2.0000      -0.462450       -12.5839
  33   2.0000      -0.410528       -11.1710
  34   2.0000      -0.384599       -10.4655
  35   0.0000       0.128105         3.4859
  36   0.0000       0.147526         4.0144
  37   0.0000       0.163593         4.4516
  38   0.0000       0.169427         4.6103
  39   0.0000       0.172726         4.7001

MULLIKEN ATOMIC CHARGES
-----------------------
   0 C :   -0.427144
   1 C :   -0.192899
   2 C :    0.167767
   3 C :   -0.403141
   4 C :   -0.208591
   5 N :   -0.200598
   6 C :    0.236592
   7 C :   -0.403634
   8 O :   -0.336355
   9 H :    0.129258
  10 H :    0.149403
  11 H :    0.133420
  12 H :    0.108766
  13 H :    0.110596
  14 H :    0.137463
  15 H :    0.126252
  16 H :    0.167236
  17 H :    0.133585
  18 H :    0.130327
  19 H :    0.135257
  20 H :    0.148765
  21 H :    0.157673
Sum of atomic charges:    0.0000000

LOEWDIN ATOMIC CHARGES
----------------------
   0 C :   -0.309007
   1 C :   -0.247632
   2 C :   -0.284577
   3 C :   -0.261447
   4 C :   -0.201706
   5 N :    0.209221
   6 C :   -0.453264
   7 C :   -0.276558
   8 O :    0.110257
   9 H :    0.121230
  10 H :    0.129680
  11 H :    0.121238
  12 H :    0.140229
  13 H :    0.144214
  14 H :    0.131131
  15 H :    0.129920
  16 H :    0.136474
  17 H :    0.128364
  18 H :    0.127305
  19 H :    0.134684
  20 H :    0.134399
  21 H :    0.135846

  Mayer bond orders larger than 0.1
B(  0-C ,  1-C ) :   0.9274 B(  0-C ,  9-H ) :   0.9386 B(  0-C , 10-H ) :   0.9347
B(  0-C , 11-H ) :   0.9377 B(  1-C ,  2-C ) :   0.9060 B(  1-C , 12-H ) :   0.9306
B(  1-C , 13-H ) :   0.9268 B(  2-C ,  3-C ) :   0.9263 B(  2-C ,  4-C ) :   0.9052
B(  2-C ,  5-N ) :   0.8096 B(  3-C , 14-H ) :   0.9307 B(  3-C , 15-H ) :   0.9244
B(  3-C , 16-H ) :   0.9355 B(  4-C ,  5-N ) :   0.8802 B(  4-C , 17-H ) :   0.9205
B(  4-C , 18-H ) :   0.9081 B(  5-N ,  6-C ) :   1.0537 B(  6-C ,  7-C ) :   0.9192
B(  6-C ,  8-O ) :   1.9471 B(  7-C , 19-H ) :   0.9086 B(  7-C , 20-H ) :   0.9274
B(  7-C , 21-H ) :   0.9381

MP2 TOTAL ENERGY:     -403.670052966 Eh
FINAL SINGLE POINT ENERGY      -403.670052966206

DIPOLE MOMENT
-------------
                                X             Y             Z
Electronic contribution:     -2.81282      -0.86765      -4.01156
Nuclear contribution   :      3.37594      -0.13771       4.55659
                        -----------------------------------------
Total Dipole Moment    :      0.56311      -1.00536       0.54503
                        -----------------------------------------
Magnitude (a.u.)       :      1.27472
Magnitude (Debye)      :      3.24007

                             ****ORCA TERMINATED NORMALLY****
TOTAL RUN TIME: 0 days 0 hours 20 minutes 24 seconds 124 msec
