                         Program Version 3.0.3 - RELEASE   -
|  1> ! RI-MP2 RIJK def2-TZVP def2-TZVP/C def2-TZVP/JK TIGHTSCF
|  2> % maxcore 2000
|  3> % mp2 density relaxed end
|  4> *xyz 0 1
|  5>  O        0.0166200077    -0.0200091619    -0.1622510974
|  6>  C       -0.0058360545     1.1761829414    -0.0444163147
|  7>  N       -1.0286043965     2.0784048624     0.1278483212
|  8>  C       -0.1750498215     3.2812517572     0.0776792416
|  9>  C       -0.1996603880     4.2132220521     1.2498572165
| 10>  C        0.8940772075     4.4652246306     1.9694127934
| 11>  C        2.2034178232     3.7492869994     1.7441595796
| 12>  C        1.9655338731     2.3209826225     1.2255004242
| 13>  C        1.0493534619     2.3122698899    -0.0050138347
| 14>  H       -2.0305050175     1.9589516105     0.0877757357
| 15>  H       -0.3302447856     3.8469170882    -0.8513059363
| 16>  H       -1.1322280269     4.7334697975     1.4562835675
| 17>  H        0.8553416506     5.2038449230     2.7662043355
| 18>  H        2.8279936285     4.3156930592     1.0379583839
| 19>  H        2.7720624836     3.7123738306     2.6797262969
| 20>  H        2.9128241359     1.8271195791     0.9911091755
| 21>  H        1.4982572347     1.7416934109     2.0291011617
| 22>  H        1.6144313036     2.4069985273    -0.9351058999
| 23> *
| 24>
| 25>                          ****END OF INPUT****

CARTESIAN COORDINATES (ANGSTROEM)
---------------------------------
  O      0.016620   -0.020009   -0.162251
  C     -0.005836    1.176183   -0.044416
  N     -1.028604    2.078405    0.127848
  C     -0.175050    3.281252    0.077679
  C     -0.199660    4.213222    1.249857
  C      0.894077    4.465225    1.969413
  C      2.203418    3.749287    1.744160
  C      1.965534    2.320983    1.225500
  C      1.049353    2.312270   -0.005014
  H     -2.030505    1.958952    0.087776
  H     -0.330245    3.846917   -0.851306
  H     -1.132228    4.733470    1.456284
  H      0.855342    5.203845    2.766204
  H      2.827994    4.315693    1.037958
  H      2.772062    3.712374    2.679726
  H      2.912824    1.827120    0.991109
  H      1.498257    1.741693    2.029101
  H      1.614431    2.406999   -0.935106

 Total Charge           Charge          ....    0
 Multiplicity           Mult            ....    1
 Number of Electrons    NEL             ....   66
 Basis Dimension        Dim             ....  333

ORBITAL ENERGIES
----------------

  NO   OCC          E(Eh)            E(eV)
   0   2.0000     -20.521137      -558.4085
   1   2.0000     -15.580923      -423.9785
   2   2.0000     -11.345779      -308.7343
   3   2.0000     -11.285911      -307.1052
   4   2.0000     -11.249473      -306.1137
   5   2.0000     -11.242270      -305.9177
   6   2.0000     -11.239048      -305.8301
   7   2.0000     -11.236766      -305.7679
   8   2.0000     -11.235861      -305.7433
   9   2.0000      -1.382973       -37.6326
  10   2.0000      -1.266991       -34.4766
  11   2.0000      -1.116165       -30.3724
  12   2.0000      -1.032967       -28.1084
  13   2.0000      -0.992835       -27.0164
  14   2.0000      -0.887773       -24.1575
  15   2.0000      -0.859339       -23.3838
  16   2.0000      -0.769624       -20.9425
  17   2.0000      -0.720421       -19.6036
  18   2.0000      -0.691405       -18.8141
  19   2.0000      -0.670874       -18.2554
  20   2.0000      -0.658107       -17.9080
  21   2.0000      -0.611249       -16.6329
  22   2.0000      -0.605596       -16.4791
  23   2.0000      -0.570073       -15.5125
  24   2.0000      -0.563819       -15.3423
  25   2.0000      -0.550373       -14.9764
  26   2.0000      -0.524695       -14.2777
  27   2.0000      -0.504093       -13.7171
  28   2.0000      -0.483682       -13.1617
  29   2.0000      -0.459441       -12.5020
  30   2.0000      -0.408075       -11.1043
  31   2.0000      -0.396093       -10.7782
  32   2.0000      -0.367306        -9.9949
  33   0.0000       0.125712         3.4208
  34   0.0000       0.130977         3.5641
  35   0.0000       0.157041         4.2733
  36   0.0000       0.160176         4.3586
  37   0.0000       0.170172         4.6306

MULLIKEN ATOMIC CHARGES
-----------------------
   0 O :   -0.314367
   1 C :    0.189647
   2 N :   -0.358265
   3 C :    0.120485
   4 C :   -0.237242
   5 C :   -0.160600
   6 C :   -0.173324
   7 C :   -0.291771
   8 C :   -0.030441
   9 H :    0.232428
  10 H :    0.117794
  11 H :    0.124248
  12 H :    0.128051
  13 H :    0.124260
  14 H :    0.131645
  15 H :    0.135603
  16 H :    0.135240
  17 H :    0.126608
Sum of atomic charges:    0.0000000

LOEWDIN ATOMIC CHARGES
----------------------
   0 O :    0.100274
   1 C :   -0.424854
   2 N :    0.141864
   3 C :   -0.211549
   4 C :   -0.160479
   5 C :   -0.155178
   6 C :   -0.248047
   7 C :   -0.225355
   8 C :   -0.156520
   9 H :    0.169366
  10 H :    0.147520
  11 H :    0.143252
  12 H :    0.143087
  13 H :    0.146584
  14 H :    0.144191
  15 H :    0.142047
  16 H :    0.150368
  17 H :    0.153430

  Mayer bond orders larger than 0.1
B(  0-O ,  1-C ) :   2.0409 B(  1-C ,  2-N ) :   1.1602 B(  1-C ,  8-C ) :   0.8451
B(  2-N ,  3-C ) :   0.8483 B(  2-N ,  9-H ) :   0.8592 B(  3-C ,  4-C ) :   0.9127
B(  3-C ,  8-C ) :   0.9247 B(  3-C , 10-H ) :   0.9278 B(  4-C ,  5-C ) :   1.8085
B(  4-C , 11-H ) :   0.9209 B(  5-C ,  6-C ) :   0.9357 B(  5-C , 12-H ) :   0.9252
B(  6-C ,  7-C ) :   0.9161 B(  6-C , 13-H ) :   0.9128 B(  6-C , 14-H ) :   0.9324
B(  7-C ,  8-C ) :   0.8879 B(  7-C , 15-H ) :   0.9368 B(  7-C , 16-H ) :   0.9291
B(  8-C , 17-H ) :   0.8994

MP2 TOTAL ENERGY:     -401.287431966 Eh
FINAL SINGLE POINT ENERGY      -401.287431966024

DIPOLE MOMENT
-------------
                                X             Y             Z
Electronic contribution:     -4.09232      -4.61817      -2.79410
Nuclear contribution   :      4.04470       6.11703       2.96913
                        -----------------------------------------
Total Dipole Moment    :     -0.04762       1.49886       0.17503
                        -----------------------------------------
Magnitude (a.u.)       :      1.50979
Magnitude (Debye)      :      3.83759

                             ****ORCA TERMINATED NORMALLY****
TOTAL RUN TIME: 0 days 0 hours 19 minutes 21 seconds 38 msec
