                         Program Version 3.0.3 - RELEASE   -
|  1> ! RI-MP2 RIJK def2-TZVP def2-TZVP/C def2-TZVP/JK TIGHTSCF
|  2> % maxcore 2000
|  3> % mp2 density relaxed end
|  4> *xyz 0 1
|  5>  O       -0.2055277727     0.0053829123    -0.5342959682
|  6>  C       -0.0869280858     1.1770017058    -0.2502912759
|  7>  N       -1.0960027940     2.0315993783     0.0991180531
|  8>  C       -0.6729822637     3.3628778668     0.4963810970
|  9>  C        0.7543887003     3.4490289853    -0.0942259532
| 10>  C        1.2271561531     1.9823280786    -0.1815258623
| 11>  C        2.0435342383     1.5255294676     1.0128741291
| 12>  C        2.8995918394     0.3230617325     0.9159972854
| 13>  N        3.5095072204     1.6647620782     1.0203779807
| 14>  H       -2.0286448949     1.6782221662     0.2438785155
| 15>  H       -1.3359878640     4.1314369287     0.0868637255
| 16>  H       -0.6679749431     3.4776313168     1.5894456584
| 17>  H        0.7056594512     3.8851857160    -1.0957611430
| 18>  H        1.4130725098     4.0742308912     0.5122024924
| 19>  H        1.8000543214     1.7830642317    -1.0926503033
| 20>  H        1.5927726023     1.7536165735     1.9782887326
| 21>  H        3.0462111150    -0.3148665121     1.7822289748
| 22>  H        2.9259033723    -0.1959117810    -0.0378483139
| 23>  H        3.8304927450     1.9641584137     0.1018126855
| 24> *
| 25>
| 26>                          ****END OF INPUT****

CARTESIAN COORDINATES (ANGSTROEM)
---------------------------------
  O     -0.205528    0.005383   -0.534296
  C     -0.086928    1.177002   -0.250291
  N     -1.096003    2.031599    0.099118
  C     -0.672982    3.362878    0.496381
  C      0.754389    3.449029   -0.094226
  C      1.227156    1.982328   -0.181526
  C      2.043534    1.525529    1.012874
  C      2.899592    0.323062    0.915997
  N      3.509507    1.664762    1.020378
  H     -2.028645    1.678222    0.243879
  H     -1.335988    4.131437    0.086864
  H     -0.667975    3.477631    1.589446
  H      0.705659    3.885186   -1.095761
  H      1.413073    4.074231    0.512202
  H      1.800054    1.783064   -1.092650
  H      1.592773    1.753617    1.978289
  H      3.046211   -0.314867    1.782229
  H      2.925903   -0.195912   -0.037848
  H      3.830493    1.964158    0.101813

 Total Charge           Charge          ....    0
 Multiplicity           Mult            ....    1
 Number of Electrons    NEL             ....   68
 Basis Dimension        Dim             ....  339

ORBITAL ENERGIES
----------------

  NO   OCC          E(Eh)            E(eV)
   0   2.0000     -20.517937      -558.3215
   1   2.0000     -15.586071      -424.1185
   2   2.0000     -15.559803      -423.4038
   3   2.0000     -11.347399      -308.7784
   4   2.0000     -11.281810      -306.9937
   5   2.0000     -11.267134      -306.5943
   6   2.0000     -11.253865      -306.2332
   7   2.0000     -11.252898      -306.2069
   8   2.0000     -11.246453      -306.0315
   9   2.0000      -1.382490       -37.6195
  10   2.0000      -1.264432       -34.4070
  11   2.0000      -1.251471       -34.0543
  12   2.0000      -1.071118       -29.1466
  13   2.0000      -0.986646       -26.8480
  14   2.0000      -0.896238       -24.3879
  15   2.0000      -0.851625       -23.1739
  16   2.0000      -0.824573       -22.4378
  17   2.0000      -0.786166       -21.3927
  18   2.0000      -0.695144       -18.9158
  19   2.0000      -0.687326       -18.7031
  20   2.0000      -0.657226       -17.8840
  21   2.0000      -0.639639       -17.4055
  22   2.0000      -0.622477       -16.9385
  23   2.0000      -0.586826       -15.9684
  24   2.0000      -0.566671       -15.4199
  25   2.0000      -0.556042       -15.1307
  26   2.0000      -0.548031       -14.9127
  27   2.0000      -0.518031       -14.0963
  28   2.0000      -0.490913       -13.3584
  29   2.0000      -0.480768       -13.0824
  30   2.0000      -0.463250       -12.6057
  31   2.0000      -0.418875       -11.3982
  32   2.0000      -0.398347       -10.8396
  33   2.0000      -0.384247       -10.4559
  34   0.0000       0.125671         3.4197
  35   0.0000       0.135122         3.6769
  36   0.0000       0.156192         4.2502
  37   0.0000       0.163251         4.4423
  38   0.0000       0.173176         4.7124

MULLIKEN ATOMIC CHARGES
-----------------------
   0 O :   -0.337623
   1 C :    0.181915
   2 N :   -0.303521
   3 C :   -0.116562
   4 C :   -0.254824
   5 C :   -0.017071
   6 C :   -0.097053
   7 C :   -0.178150
   8 N :   -0.361026
   9 H :    0.239842
  10 H :    0.128394
  11 H :    0.119915
  12 H :    0.128555
  13 H :    0.148123
  14 H :    0.113263
  15 H :    0.125301
  16 H :    0.124366
  17 H :    0.139354
  18 H :    0.216803
Sum of atomic charges:    0.0000000

LOEWDIN ATOMIC CHARGES
----------------------
   0 O :    0.088200
   1 C :   -0.428213
   2 N :    0.119870
   3 C :   -0.267539
   4 C :   -0.218781
   5 C :   -0.206354
   6 C :   -0.258558
   7 C :   -0.255156
   8 N :   -0.020845
   9 H :    0.183427
  10 H :    0.129233
  11 H :    0.125838
  12 H :    0.141623
  13 H :    0.142725
  14 H :    0.162786
  15 H :    0.146473
  16 H :    0.125535
  17 H :    0.127021
  18 H :    0.162715

  Mayer bond orders larger than 0.1
B(  0-O ,  1-C ) :   2.0170 B(  1-C ,  2-N ) :   1.1851 B(  1-C ,  5-C ) :   0.8584
B(  2-N ,  3-C ) :   0.8868 B(  2-N ,  9-H ) :   0.8639 B(  3-C ,  4-C ) :   0.9519
B(  3-C , 10-H ) :   0.9308 B(  3-C , 11-H ) :   0.9283 B(  4-C ,  5-C ) :   0.8773
B(  4-C , 12-H ) :   0.9295 B(  4-C , 13-H ) :   0.9332 B(  5-C ,  6-C ) :   0.9452
B(  5-C , 14-H ) :   0.9060 B(  6-C ,  7-C ) :   0.9519 B(  6-C ,  8-N ) :   0.9423
B(  6-C , 15-H ) :   0.9010 B(  7-C ,  8-N ) :   0.9236 B(  7-C , 16-H ) :   0.9226
B(  7-C , 17-H ) :   0.9158 B(  8-N , 18-H ) :   0.8747

MP2 TOTAL ENERGY:     -418.519956154 Eh
FINAL SINGLE POINT ENERGY      -418.519956153892

DIPOLE MOMENT
-------------
                                X             Y             Z
Electronic contribution:     -2.48880      -3.53125      -1.31613
Nuclear contribution   :      1.94921       4.75734       1.27649
                        -----------------------------------------
Total Dipole Moment    :     -0.53959       1.22610      -0.03964
                        -----------------------------------------
Magnitude (a.u.)       :      1.34016
Magnitude (Debye)      :      3.40642

                             ****ORCA TERMINATED NORMALLY****
TOTAL RUN TIME: 0 days 0 hours 16 minutes 55 seconds 28 msec
