                         Program Version 3.0.3 - RELEASE   -
|  1> ! RI-MP2 RIJK def2-TZVP def2-TZVP/C def2-TZVP/JK TIGHTSCF
|  2> % maxcore 2000
|  3> % mp2 density relaxed end
|  4> *xyz 0 1
|  5>  C       -0.0650243982     1.2807947805    -0.3102801785
|  6>  C        0.1116642541    -0.1674966847     0.0578856907
|  7>  N       -1.1196133682    -0.9895170059     0.2475995753
|  8>  C       -0.6884596440    -1.3956244460     1.6180015830
|  9>  C        0.6965164517    -0.7733531339     1.3640787131
| 10>  O        1.5849954489    -1.6230001983     0.6096873835
| 11>  C        1.2055135313    -1.0185859000    -0.6477371380
| 12>  C        0.6959728870    -2.0080543509    -1.6751567696
| 13>  O        0.5500373284    -1.7217985458    -2.8357349015
| 14>  H        0.8956194309     1.8036222125    -0.3385181745
| 15>  H       -0.5217247983     1.3647604077    -1.3033509279
| 16>  H       -0.7141037592     1.7941063699     0.4077072188
| 17>  H       -1.9740340402    -0.4455402237     0.2263285951
| 18>  H       -1.2301202219    -0.8918706782     2.4286847677
| 19>  H       -0.7003189111    -2.4757106122     1.7923334036
| 20>  H        1.2071614109    -0.2384270754     2.1674601379
| 21>  H        2.0247061879    -0.4277815282    -1.0776772799
| 22>  H        0.4592437299    -3.0128288775    -1.2675815588
| 23> *
| 24>
| 25>                          ****END OF INPUT****

CARTESIAN COORDINATES (ANGSTROEM)
---------------------------------
  C     -0.065024    1.280795   -0.310280
  C      0.111664   -0.167497    0.057886
  N     -1.119613   -0.989517    0.247600
  C     -0.688460   -1.395624    1.618002
  C      0.696516   -0.773353    1.364079
  O      1.584995   -1.623000    0.609687
  C      1.205514   -1.018586   -0.647737
  C      0.695973   -2.008054   -1.675157
  O      0.550037   -1.721799   -2.835735
  H      0.895619    1.803622   -0.338518
  H     -0.521725    1.364760   -1.303351
  H     -0.714104    1.794106    0.407707
  H     -1.974034   -0.445540    0.226329
  H     -1.230120   -0.891871    2.428685
  H     -0.700319   -2.475711    1.792333
  H      1.207161   -0.238427    2.167460
  H      2.024706   -0.427782   -1.077677
  H      0.459244   -3.012829   -1.267582

 Total Charge           Charge          ....    0
 Multiplicity           Mult            ....    1
 Number of Electrons    NEL             ....   68
 Basis Dimension        Dim             ....  333

ORBITAL ENERGIES
----------------

  NO   OCC          E(Eh)            E(eV)
   0   2.0000     -20.567368      -559.6665
   1   2.0000     -20.553502      -559.2892
   2   2.0000     -15.559192      -423.3871
   3   2.0000     -11.326628      -308.2132
   4   2.0000     -11.296459      -307.3923
   5   2.0000     -11.294895      -307.3497
   6   2.0000     -11.287924      -307.1600
   7   2.0000     -11.267403      -306.6016
   8   2.0000     -11.239819      -305.8510
   9   2.0000      -1.407490       -38.2998
  10   2.0000      -1.389119       -37.7999
  11   2.0000      -1.235851       -33.6292
  12   2.0000      -1.041667       -28.3452
  13   2.0000      -0.987912       -26.8825
  14   2.0000      -0.952614       -25.9219
  15   2.0000      -0.884735       -24.0749
  16   2.0000      -0.803317       -21.8594
  17   2.0000      -0.755511       -20.5585
  18   2.0000      -0.687103       -18.6970
  19   2.0000      -0.673633       -18.3305
  20   2.0000      -0.671020       -18.2594
  21   2.0000      -0.647962       -17.6319
  22   2.0000      -0.618567       -16.8321
  23   2.0000      -0.591339       -16.0911
  24   2.0000      -0.583506       -15.8780
  25   2.0000      -0.571852       -15.5609
  26   2.0000      -0.558317       -15.1926
  27   2.0000      -0.538180       -14.6446
  28   2.0000      -0.518599       -14.1118
  29   2.0000      -0.488938       -13.3047
  30   2.0000      -0.458323       -12.4716
  31   2.0000      -0.426336       -11.6012
  32   2.0000      -0.414811       -11.2876
  33   2.0000      -0.381253       -10.3744
  34   0.0000       0.117788         3.2052
  35   0.0000       0.132109         3.5949
  36   0.0000       0.152050         4.1375
  37   0.0000       0.164826         4.4852
  38   0.0000       0.177322         4.8252

MULLIKEN ATOMIC CHARGES
-----------------------
   0 C :   -0.397798
   1 C :    0.155805
   2 N :   -0.385198
   3 C :   -0.125160
   4 C :   -0.004682
   5 O :   -0.326714
   6 C :    0.097909
   7 C :    0.087762
   8 O :   -0.267980
   9 H :    0.139896
  10 H :    0.159658
  11 H :    0.133062
  12 H :    0.208272
  13 H :    0.113432
  14 H :    0.115099
  15 H :    0.110121
  16 H :    0.099325
  17 H :    0.087192
Sum of atomic charges:    0.0000000

LOEWDIN ATOMIC CHARGES
----------------------
   0 C :   -0.274077
   1 C :   -0.271228
   2 N :    0.018817
   3 C :   -0.247131
   4 C :   -0.224085
   5 O :    0.164651
   6 C :   -0.237391
   7 C :   -0.267888
   8 O :    0.135672
   9 H :    0.134130
  10 H :    0.139117
  11 H :    0.128784
  12 H :    0.159969
  13 H :    0.124051
  14 H :    0.126196
  15 H :    0.127834
  16 H :    0.146960
  17 H :    0.115616

  Mayer bond orders larger than 0.1
B(  0-C ,  1-C ) :   0.8874 B(  0-C ,  9-H ) :   0.9262 B(  0-C , 10-H ) :   0.9314
B(  0-C , 11-H ) :   0.9308 B(  1-C ,  2-N ) :   1.0864 B(  1-C ,  4-C ) :   0.9366
B(  1-C ,  6-C ) :   0.9257 B(  2-N ,  3-C ) :   0.9556 B(  2-N , 12-H ) :   0.8819
B(  3-C ,  4-C ) :   0.9341 B(  3-C , 13-H ) :   0.9134 B(  3-C , 14-H ) :   0.9072
B(  4-C ,  5-O ) :   0.9535 B(  4-C , 15-H ) :   0.9259 B(  5-O ,  6-C ) :   0.9428
B(  6-C ,  7-C ) :   0.8442 B(  6-C , 16-H ) :   0.8943 B(  7-C ,  8-O ) :   1.9851
B(  7-C , 17-H ) :   0.9293

MP2 TOTAL ENERGY:     -438.318936724 Eh
FINAL SINGLE POINT ENERGY      -438.318936723844

DIPOLE MOMENT
-------------
                                X             Y             Z
Electronic contribution:      2.82572      -4.53680      -3.22019
Nuclear contribution   :     -3.25565       5.50454       4.43002
                        -----------------------------------------
Total Dipole Moment    :     -0.42994       0.96774       1.20983
                        -----------------------------------------
Magnitude (a.u.)       :      1.60781
Magnitude (Debye)      :      4.08674

                             ****ORCA TERMINATED NORMALLY****
TOTAL RUN TIME: 0 days 0 hours 19 minutes 31 seconds 217 msec
