                         Program Version 3.0.3 - RELEASE   -
|  1> ! RI-MP2 RIJK def2-TZVP def2-TZVP/C def2-TZVP/JK TIGHTSCF
|  2> % maxcore 2000
|  3> % mp2 density relaxed end
|  4> *xyz 0 1
|  5>  C       -0.0917624481     1.4373107348     0.0424997031
|  6>  N       -0.0008411889    -0.0143077103     0.0034907244
|  7>  C        0.0347662407    -0.7025585620     1.2818804786
|  8>  C        0.0430365737    -0.6300711468    -1.2072238545
|  9>  O        0.0135021768    -0.0761455545    -2.2888434678
| 10>  C        0.1349047458    -2.1051230901    -1.1585898051
| 11>  N        0.2071065445    -3.2575705005    -1.2097092704
| 12>  H        0.7704993247     1.8568356358     0.5734543569
| 13>  H       -0.1102966559     1.8121165805    -0.9793963039
| 14>  H       -1.0046167758     1.7458785177     0.5649063561
| 15>  H       -0.8721008893    -0.4828534110     1.8574970709
| 16>  H        0.1018176386    -1.7802116440     1.1341579783
| 17>  H        0.9017339233    -0.3738373496     1.8669611333
| 18> *
| 19>
| 20>                          ****END OF INPUT****

CARTESIAN COORDINATES (ANGSTROEM)
---------------------------------
  C     -0.091762    1.437311    0.042500
  N     -0.000841   -0.014308    0.003491
  C      0.034766   -0.702559    1.281880
  C      0.043037   -0.630071   -1.207224
  O      0.013502   -0.076146   -2.288843
  C      0.134905   -2.105123   -1.158590
  N      0.207107   -3.257571   -1.209709
  H      0.770499    1.856836    0.573454
  H     -0.110297    1.812117   -0.979396
  H     -1.004617    1.745879    0.564906
  H     -0.872101   -0.482853    1.857497
  H      0.101818   -1.780212    1.134158
  H      0.901734   -0.373837    1.866961

 Total Charge           Charge          ....    0
 Multiplicity           Mult            ....    1
 Number of Electrons    NEL             ....   52
 Basis Dimension        Dim             ....  253

ORBITAL ENERGIES
----------------

  NO   OCC          E(Eh)            E(eV)
   0   2.0000     -20.556489      -559.3705
   1   2.0000     -15.627328      -425.2412
   2   2.0000     -15.605584      -424.6495
   3   2.0000     -11.411582      -310.5249
   4   2.0000     -11.297809      -307.4290
   5   2.0000     -11.292312      -307.2794
   6   2.0000     -11.280875      -306.9682
   7   2.0000      -1.424916       -38.7739
   8   2.0000      -1.286826       -35.0163
   9   2.0000      -1.242642       -33.8140
  10   2.0000      -1.010944       -27.5092
  11   2.0000      -0.993157       -27.0252
  12   2.0000      -0.871619       -23.7180
  13   2.0000      -0.750310       -20.4170
  14   2.0000      -0.691105       -18.8059
  15   2.0000      -0.686907       -18.6917
  16   2.0000      -0.631299       -17.1785
  17   2.0000      -0.595411       -16.2019
  18   2.0000      -0.588449       -16.0125
  19   2.0000      -0.585183       -15.9236
  20   2.0000      -0.581860       -15.8332
  21   2.0000      -0.564482       -15.3603
  22   2.0000      -0.506749       -13.7894
  23   2.0000      -0.488663       -13.2972
  24   2.0000      -0.468707       -12.7542
  25   2.0000      -0.405917       -11.0456
  26   0.0000       0.088383         2.4050
  27   0.0000       0.116955         3.1825
  28   0.0000       0.160487         4.3671
  29   0.0000       0.173647         4.7252
  30   0.0000       0.174003         4.7349

MULLIKEN ATOMIC CHARGES
-----------------------
   0 C :   -0.319549
   1 N :   -0.096150
   2 C :   -0.322976
   3 C :    0.331794
   4 O :   -0.330319
   5 C :   -0.160664
   6 N :   -0.050067
   7 H :    0.144336
   8 H :    0.188280
   9 H :    0.144299
  10 H :    0.146383
  11 H :    0.178210
  12 H :    0.146423
Sum of atomic charges:    0.0000000

LOEWDIN ATOMIC CHARGES
----------------------
   0 C :   -0.274293
   1 N :    0.167563
   2 C :   -0.276691
   3 C :   -0.452624
   4 O :    0.123248
   5 C :   -0.141753
   6 N :    0.085615
   7 H :    0.122934
   8 H :    0.138070
   9 H :    0.122925
  10 H :    0.123169
  11 H :    0.138666
  12 H :    0.123171

  Mayer bond orders larger than 0.1
B(  0-C ,  1-N ) :   0.8606 B(  0-C ,  7-H ) :   0.9299 B(  0-C ,  8-H ) :   0.9208
B(  0-C ,  9-H ) :   0.9299 B(  1-N ,  2-C ) :   0.8920 B(  1-N ,  3-C ) :   1.2406
B(  2-C , 10-H ) :   0.9288 B(  2-C , 11-H ) :   0.9168 B(  2-C , 12-H ) :   0.9288
B(  3-C ,  4-O ) :   1.8907 B(  3-C ,  5-C ) :   0.8634 B(  5-C ,  6-N ) :   2.8000

MP2 TOTAL ENERGY:     -340.099565174 Eh
FINAL SINGLE POINT ENERGY      -340.099565174088

DIPOLE MOMENT
-------------
                                X             Y             Z
Electronic contribution:      0.36434      -5.30763      -6.46758
Nuclear contribution   :     -0.44881       6.52245       8.18100
                        -----------------------------------------
Total Dipole Moment    :     -0.08446       1.21482       1.71342
                        -----------------------------------------
Magnitude (a.u.)       :      2.10208
Magnitude (Debye)      :      5.34306

                             ****ORCA TERMINATED NORMALLY****
TOTAL RUN TIME: 0 days 0 hours 7 minutes 34 seconds 53 msec
