                         Program Version 3.0.3 - RELEASE   -
|  1> ! RI-MP2 RIJK def2-TZVP def2-TZVP/C def2-TZVP/JK TIGHTSCF
|  2> % maxcore 2000
|  3> % mp2 density relaxed end
|  4> *xyz 0 1
|  5>  O       -0.0201319660     1.4573813729     0.0101019492
|  6>  C        0.0016847769     0.0357997984     0.0022473556
|  7>  C       -1.3636669119    -0.4748110109     0.0125505641
|  8>  C       -2.4790283486    -0.9197020212     0.0208245052
|  9>  H        0.8944691103     1.7573655258     0.0032736346
| 10>  H        0.5197902843    -0.3517541277    -0.8898030248
| 11>  H        0.5367045842    -0.3612766093     0.8800089415
| 12>  H       -3.4677350191    -1.3073700880     0.0281812045
| 13> *
| 14>
| 15>                          ****END OF INPUT****

CARTESIAN COORDINATES (ANGSTROEM)
---------------------------------
  O     -0.020132    1.457381    0.010102
  C      0.001685    0.035800    0.002247
  C     -1.363667   -0.474811    0.012551
  C     -2.479028   -0.919702    0.020825
  H      0.894469    1.757366    0.003274
  H      0.519790   -0.351754   -0.889803
  H      0.536705   -0.361277    0.880009
  H     -3.467735   -1.307370    0.028181

 Total Charge           Charge          ....    0
 Multiplicity           Mult            ....    1
 Number of Electrons    NEL             ....   30
 Basis Dimension        Dim             ....  148

ORBITAL ENERGIES
----------------

  NO   OCC          E(Eh)            E(eV)
   0   2.0000     -20.570918      -559.7631
   1   2.0000     -11.312571      -307.8307
   2   2.0000     -11.235426      -305.7315
   3   2.0000     -11.227298      -305.5103
   4   2.0000      -1.375105       -37.4185
   5   2.0000      -1.051606       -28.6156
   6   2.0000      -0.946343       -25.7513
   7   2.0000      -0.730430       -19.8760
   8   2.0000      -0.711006       -19.3475
   9   2.0000      -0.651634       -17.7319
  10   2.0000      -0.642181       -17.4746
  11   2.0000      -0.540311       -14.7026
  12   2.0000      -0.477286       -12.9876
  13   2.0000      -0.399927       -10.8826
  14   2.0000      -0.388401       -10.5689
  15   0.0000       0.120438         3.2773
  16   0.0000       0.170187         4.6310
  17   0.0000       0.171063         4.6549
  18   0.0000       0.176557         4.8044
  19   0.0000       0.197098         5.3633

MULLIKEN ATOMIC CHARGES
-----------------------
   0 O :   -0.448916
   1 C :   -0.187418
   2 C :   -0.020299
   3 C :   -0.108885
   4 H :    0.318289
   5 H :    0.127317
   6 H :    0.127323
   7 H :    0.192588
Sum of atomic charges:    0.0000000

LOEWDIN ATOMIC CHARGES
----------------------
   0 O :   -0.040242
   1 C :   -0.335640
   2 C :   -0.107546
   3 C :   -0.088364
   4 H :    0.175097
   5 H :    0.134519
   6 H :    0.134519
   7 H :    0.127656

  Mayer bond orders larger than 0.1
B(  0-O ,  1-C ) :   1.0899 B(  0-O ,  4-H ) :   0.8467 B(  1-C ,  2-C ) :   1.0203
B(  1-C ,  5-H ) :   0.9427 B(  1-C ,  6-H ) :   0.9426 B(  2-C ,  3-C ) :   2.6584
B(  3-C ,  7-H ) :   0.9061

MP2 TOTAL ENERGY:     -191.487866673 Eh
FINAL SINGLE POINT ENERGY      -191.487866673030

DIPOLE MOMENT
-------------
                                X             Y             Z
Electronic contribution:     -1.11539       0.36886       0.01259
Nuclear contribution   :      1.80132      -0.67761      -0.02061
                        -----------------------------------------
Total Dipole Moment    :      0.68593      -0.30875      -0.00802
                        -----------------------------------------
Magnitude (a.u.)       :      0.75226
Magnitude (Debye)      :      1.91208

                             ****ORCA TERMINATED NORMALLY****
TOTAL RUN TIME: 0 days 0 hours 1 minutes 9 seconds 762 msec
