                         Program Version 3.0.3 - RELEASE   -
|  1> ! RI-MP2 RIJK def2-TZVP def2-TZVP/C def2-TZVP/JK TIGHTSCF
|  2> % maxcore 2000
|  3> % mp2 density relaxed end
|  4> *xyz 0 1
|  5>  C       -0.0289580118     1.4294036278     0.0086475308
|  6>  O       -0.0377564626    -0.0035384844     0.0051692628
|  7>  C       -1.2095365050    -0.6361248988     0.0122968118
|  8>  C       -1.2229840726    -2.0043085309     0.0089882434
|  9>  C       -2.4585905830    -2.7147031322     0.0164693653
| 10>  O       -2.6957099851    -3.8854465847     0.0150106615
| 11>  O       -3.6174215772    -1.8270413410     0.0271018732
| 12>  C       -3.4576329244    -0.5187722265     0.0291774792
| 13>  N       -2.3479274335     0.1328099797     0.0226416198
| 14>  H        1.0257861276     1.7048774969     0.0010503778
| 15>  H       -0.5309273911     1.8276450269    -0.8761206090
| 16>  H       -0.5169156076     1.8232122140     0.9031968050
| 17>  H       -0.3062831648    -2.5764845586     0.0006887028
| 18>  H       -4.4051595090     0.0152102617     0.0374698155
| 19> *
| 20>
| 21>                          ****END OF INPUT****

CARTESIAN COORDINATES (ANGSTROEM)
---------------------------------
  C     -0.028958    1.429404    0.008648
  O     -0.037756   -0.003538    0.005169
  C     -1.209537   -0.636125    0.012297
  C     -1.222984   -2.004309    0.008988
  C     -2.458591   -2.714703    0.016469
  O     -2.695710   -3.885447    0.015011
  O     -3.617422   -1.827041    0.027102
  C     -3.457633   -0.518772    0.029177
  N     -2.347927    0.132810    0.022642
  H      1.025786    1.704877    0.001050
  H     -0.530927    1.827645   -0.876121
  H     -0.516916    1.823212    0.903197
  H     -0.306283   -2.576485    0.000689
  H     -4.405160    0.015210    0.037470

 Total Charge           Charge          ....    0
 Multiplicity           Mult            ....    1
 Number of Electrons    NEL             ....   66
 Basis Dimension        Dim             ....  309

ORBITAL ENERGIES
----------------

  NO   OCC          E(Eh)            E(eV)
   0   2.0000     -20.649437      -561.8998
   1   2.0000     -20.619996      -561.0986
   2   2.0000     -20.543520      -559.0176
   3   2.0000     -15.591819      -424.2750
   4   2.0000     -11.396788      -310.1224
   5   2.0000     -11.396217      -310.1068
   6   2.0000     -11.383045      -309.7484
   7   2.0000     -11.300916      -307.5136
   8   2.0000     -11.237536      -305.7889
   9   2.0000      -1.496900       -40.7327
  10   2.0000      -1.457107       -39.6499
  11   2.0000      -1.392493       -37.8916
  12   2.0000      -1.271299       -34.5938
  13   2.0000      -1.089728       -29.6530
  14   2.0000      -0.983916       -26.7737
  15   2.0000      -0.938333       -25.5333
  16   2.0000      -0.877029       -23.8652
  17   2.0000      -0.775636       -21.1061
  18   2.0000      -0.757209       -20.6047
  19   2.0000      -0.705244       -19.1907
  20   2.0000      -0.694774       -18.9058
  21   2.0000      -0.675825       -18.3901
  22   2.0000      -0.664383       -18.0788
  23   2.0000      -0.652709       -17.7611
  24   2.0000      -0.614712       -16.7272
  25   2.0000      -0.574423       -15.6308
  26   2.0000      -0.550314       -14.9748
  27   2.0000      -0.543319       -14.7845
  28   2.0000      -0.542997       -14.7757
  29   2.0000      -0.483239       -13.1496
  30   2.0000      -0.468935       -12.7604
  31   2.0000      -0.462180       -12.5766
  32   2.0000      -0.352824        -9.6008
  33   0.0000       0.076221         2.0741
  34   0.0000       0.138512         3.7691
  35   0.0000       0.149993         4.0815
  36   0.0000       0.162898         4.4327
  37   0.0000       0.176378         4.7995

MULLIKEN ATOMIC CHARGES
-----------------------
   0 C :   -0.208248
   1 O :   -0.243714
   2 C :    0.351314
   3 C :   -0.319385
   4 C :    0.292888
   5 O :   -0.279235
   6 O :   -0.165568
   7 C :    0.141861
   8 N :   -0.316560
   9 H :    0.152926
  10 H :    0.140925
  11 H :    0.140901
  12 H :    0.154769
  13 H :    0.157126
Sum of atomic charges:    0.0000000

LOEWDIN ATOMIC CHARGES
----------------------
   0 C :   -0.304470
   1 O :    0.260700
   2 C :   -0.330420
   3 C :   -0.139153
   4 C :   -0.419434
   5 O :    0.148040
   6 O :    0.315792
   7 C :   -0.302366
   8 N :    0.118986
   9 H :    0.117663
  10 H :    0.114232
  11 H :    0.114229
  12 H :    0.164581
  13 H :    0.141621

  Mayer bond orders larger than 0.1
B(  0-C ,  1-O ) :   0.8285 B(  0-C ,  9-H ) :   0.9334 B(  0-C , 10-H ) :   0.9352
B(  0-C , 11-H ) :   0.9352 B(  1-O ,  2-C ) :   1.1521 B(  2-C ,  3-C ) :   1.4141
B(  2-C ,  8-N ) :   1.0652 B(  3-C ,  4-C ) :   1.1389 B(  3-C , 12-H ) :   0.9292
B(  4-C ,  5-O ) :   2.0106 B(  4-C ,  6-O ) :   0.8744 B(  6-O ,  7-C ) :   1.1881
B(  7-C ,  8-N ) :   1.6394 B(  7-C , 13-H ) :   0.9253

MP2 TOTAL ENERGY:     -473.115162198 Eh
FINAL SINGLE POINT ENERGY      -473.115162198214

DIPOLE MOMENT
-------------
                                X             Y             Z
Electronic contribution:     -4.01708      -6.05961       0.01489
Nuclear contribution   :      4.40016       7.76569      -0.01339
                        -----------------------------------------
Total Dipole Moment    :      0.38308       1.70608       0.00150
                        -----------------------------------------
Magnitude (a.u.)       :      1.74856
Magnitude (Debye)      :      4.44449

                             ****ORCA TERMINATED NORMALLY****
TOTAL RUN TIME: 0 days 0 hours 13 minutes 55 seconds 24 msec
