                         Program Version 3.0.3 - RELEASE   -
|  1> ! RI-MP2 RIJK def2-TZVP def2-TZVP/C def2-TZVP/JK TIGHTSCF
|  2> % maxcore 2000
|  3> % mp2 density relaxed end
|  4> *xyz 0 1
|  5>  C       -0.0141878915     1.5403575065    -0.1144005813
|  6>  C       -0.0164843533     0.0447394426     0.1343402124
|  7>  O       -0.0548215074    -0.4594721409     1.2356842710
|  8>  N        0.0298971546    -0.7131998125    -1.0249380403
|  9>  C        0.0380211296    -2.0943639841    -1.0698536019
| 10>  N        0.0834357655    -2.7256438866    -2.2156700773
| 11>  O        0.0776272485    -4.0580034495    -1.8913391554
| 12>  N        0.0285021430    -4.2421779016    -0.5428415486
| 13>  C        0.0032718376    -3.0524810233    -0.0116830673
| 14>  H        0.8895996428     1.8442714260    -0.6527643949
| 15>  H       -0.8786722808     1.8361285739    -0.7179052039
| 16>  H       -0.0519192331     2.0527487943     0.8456672142
| 17>  H        0.0608734446    -0.2479637167    -1.9198725343
| 18>  H       -0.0368400502    -2.8869034782     1.0498141676
| 19> *
| 20>
| 21>                          ****END OF INPUT****

CARTESIAN COORDINATES (ANGSTROEM)
---------------------------------
  C     -0.014188    1.540358   -0.114401
  C     -0.016484    0.044739    0.134340
  O     -0.054822   -0.459472    1.235684
  N      0.029897   -0.713200   -1.024938
  C      0.038021   -2.094364   -1.069854
  N      0.083436   -2.725644   -2.215670
  O      0.077627   -4.058003   -1.891339
  N      0.028502   -4.242178   -0.542842
  C      0.003272   -3.052481   -0.011683
  H      0.889600    1.844271   -0.652764
  H     -0.878672    1.836129   -0.717905
  H     -0.051919    2.052749    0.845667
  H      0.060873   -0.247964   -1.919873
  H     -0.036840   -2.886903    1.049814

 Total Charge           Charge          ....    0
 Multiplicity           Mult            ....    1
 Number of Electrons    NEL             ....   66
 Basis Dimension        Dim             ....  309

ORBITAL ENERGIES
----------------

  NO   OCC          E(Eh)            E(eV)
   0   2.0000     -20.677642      -562.6672
   1   2.0000     -20.557434      -559.3962
   2   2.0000     -15.661430      -426.1692
   3   2.0000     -15.643846      -425.6907
   4   2.0000     -15.636134      -425.4808
   5   2.0000     -11.391705      -309.9841
   6   2.0000     -11.345716      -308.7326
   7   2.0000     -11.293654      -307.3160
   8   2.0000     -11.265253      -306.5431
   9   2.0000      -1.544008       -42.0146
  10   2.0000      -1.425352       -38.7858
  11   2.0000      -1.300018       -35.3753
  12   2.0000      -1.207140       -32.8479
  13   2.0000      -1.160991       -31.5922
  14   2.0000      -1.036354       -28.2006
  15   2.0000      -0.888325       -24.1725
  16   2.0000      -0.881211       -23.9790
  17   2.0000      -0.816574       -22.2201
  18   2.0000      -0.748578       -20.3698
  19   2.0000      -0.707684       -19.2571
  20   2.0000      -0.696700       -18.9582
  21   2.0000      -0.694640       -18.9021
  22   2.0000      -0.650706       -17.7066
  23   2.0000      -0.628951       -17.1146
  24   2.0000      -0.597860       -16.2686
  25   2.0000      -0.581899       -15.8343
  26   2.0000      -0.574407       -15.6304
  27   2.0000      -0.529729       -14.4147
  28   2.0000      -0.506354       -13.7786
  29   2.0000      -0.492681       -13.4065
  30   2.0000      -0.464247       -12.6328
  31   2.0000      -0.434892       -11.8340
  32   2.0000      -0.388827       -10.5805
  33   0.0000       0.089613         2.4385
  34   0.0000       0.107419         2.9230
  35   0.0000       0.143697         3.9102
  36   0.0000       0.161641         4.3985
  37   0.0000       0.176478         4.8022

MULLIKEN ATOMIC CHARGES
-----------------------
   0 C :   -0.447231
   1 C :    0.342171
   2 O :   -0.353045
   3 N :   -0.330111
   4 C :    0.199170
   5 N :   -0.120769
   6 O :   -0.010657
   7 N :   -0.077793
   8 C :   -0.135269
   9 H :    0.155955
  10 H :    0.155961
  11 H :    0.167176
  12 H :    0.259036
  13 H :    0.195407
Sum of atomic charges:    0.0000000

LOEWDIN ATOMIC CHARGES
----------------------
   0 C :   -0.272602
   1 C :   -0.442808
   2 O :    0.115569
   3 N :    0.158171
   4 C :   -0.353274
   5 N :    0.031183
   6 O :    0.203175
   7 N :    0.027327
   8 C :   -0.244096
   9 H :    0.137586
  10 H :    0.137589
  11 H :    0.141512
  12 H :    0.206379
  13 H :    0.154289

  Mayer bond orders larger than 0.1
B(  0-C ,  1-C ) :   0.9137 B(  0-C ,  9-H ) :   0.9175 B(  0-C , 10-H ) :   0.9175
B(  0-C , 11-H ) :   0.9379 B(  1-C ,  2-O ) :   1.9065 B(  1-C ,  3-N ) :   1.0549
B(  3-N ,  4-C ) :   1.0063 B(  3-N , 12-H ) :   0.8576 B(  4-C ,  5-N ) :   1.5672
B(  4-C ,  8-C ) :   1.2433 B(  5-N ,  6-O ) :   0.9331 B(  5-N ,  7-N ) :   0.1234
B(  6-O ,  7-N ) :   0.9578 B(  7-N ,  8-C ) :   1.5825 B(  8-C , 13-H ) :   0.8963

MP2 TOTAL ENERGY:     -469.239339361 Eh
FINAL SINGLE POINT ENERGY      -469.239339361242

DIPOLE MOMENT
-------------
                                X             Y             Z
Electronic contribution:      0.10956      -8.78012      -1.85775
Nuclear contribution   :     -0.10655      10.52859       1.55427
                        -----------------------------------------
Total Dipole Moment    :      0.00302       1.74847      -0.30348
                        -----------------------------------------
Magnitude (a.u.)       :      1.77462
Magnitude (Debye)      :      4.51071

                             ****ORCA TERMINATED NORMALLY****
TOTAL RUN TIME: 0 days 0 hours 13 minutes 35 seconds 952 msec
