                         Program Version 3.0.3 - RELEASE   -
|  1> ! RI-MP2 RIJK def2-TZVP def2-TZVP/C def2-TZVP/JK TIGHTSCF
|  2> % maxcore 2000
|  3> % mp2 density relaxed end
|  4> *xyz 0 1
|  5>  C        0.0068469415     1.4911879534     0.2473491062
|  6>  C       -0.1038553215    -0.0226532365     0.0469930114
|  7>  C       -1.5417997881    -0.5462875448    -0.1502301310
|  8>  C       -2.1696849538    -0.0351828821    -1.4502522087
|  9>  C       -1.5853886333    -2.0937244624    -0.0492695383
| 10>  C       -2.0029871635    -2.3500486095     1.4057496245
| 11>  C       -2.9237665215    -1.1567021633     1.6611389576
| 12>  O       -2.3402973841    -0.0691305993     0.9588530058
| 13>  H        1.0370205960     1.7742391471     0.4848140957
| 14>  H       -0.2860531285     2.0464252353    -0.6490581274
| 15>  H       -0.6372423263     1.8123217595     1.0696007852
| 16>  H        0.4990633186    -0.3351497405    -0.8154913717
| 17>  H        0.3205736160    -0.5298037377     0.9225526682
| 18>  H       -1.6033824974    -0.3842851578    -2.3208082638
| 19>  H       -3.1975042752    -0.3989308943    -1.5428911894
| 20>  H       -2.1974553485     1.0570315701    -1.4730409252
| 21>  H       -2.3392369568    -2.4959823864    -0.7344046040
| 22>  H       -0.6262384438    -2.5476909701    -0.3105891269
| 23>  H       -2.4975561798    -3.3138442181     1.5511037834
| 24>  H       -1.1365563993    -2.3095906386     2.0740712923
| 25>  H       -3.9398507016    -1.3633234445     1.2854213527
| 26>  H       -3.0069354091    -0.8780632094     2.7166376435
| 27> *
| 28>
| 29>                          ****END OF INPUT****

CARTESIAN COORDINATES (ANGSTROEM)
---------------------------------
  C      0.006847    1.491188    0.247349
  C     -0.103855   -0.022653    0.046993
  C     -1.541800   -0.546288   -0.150230
  C     -2.169685   -0.035183   -1.450252
  C     -1.585389   -2.093724   -0.049270
  C     -2.002987   -2.350049    1.405750
  C     -2.923767   -1.156702    1.661139
  O     -2.340297   -0.069131    0.958853
  H      1.037021    1.774239    0.484814
  H     -0.286053    2.046425   -0.649058
  H     -0.637242    1.812322    1.069601
  H      0.499063   -0.335150   -0.815491
  H      0.320574   -0.529804    0.922553
  H     -1.603382   -0.384285   -2.320808
  H     -3.197504   -0.398931   -1.542891
  H     -2.197455    1.057032   -1.473041
  H     -2.339237   -2.495982   -0.734405
  H     -0.626238   -2.547691   -0.310589
  H     -2.497556   -3.313844    1.551104
  H     -1.136556   -2.309591    2.074071
  H     -3.939851   -1.363323    1.285421
  H     -3.006935   -0.878063    2.716638

 Total Charge           Charge          ....    0
 Multiplicity           Mult            ....    1
 Number of Electrons    NEL             ....   64
 Basis Dimension        Dim             ....  332

ORBITAL ENERGIES
----------------

  NO   OCC          E(Eh)            E(eV)
   0   2.0000     -20.537870      -558.8639
   1   2.0000     -11.278269      -306.8973
   2   2.0000     -11.266808      -306.5854
   3   2.0000     -11.222368      -305.3762
   4   2.0000     -11.221124      -305.3423
   5   2.0000     -11.214521      -305.1626
   6   2.0000     -11.208095      -304.9878
   7   2.0000     -11.202542      -304.8367
   8   2.0000      -1.364085       -37.1186
   9   2.0000      -1.074190       -29.2302
  10   2.0000      -1.045575       -28.4515
  11   2.0000      -0.982575       -26.7372
  12   2.0000      -0.914705       -24.8904
  13   2.0000      -0.847383       -23.0585
  14   2.0000      -0.809258       -22.0210
  15   2.0000      -0.739807       -20.1312
  16   2.0000      -0.665324       -18.1044
  17   2.0000      -0.660936       -17.9850
  18   2.0000      -0.616892       -16.7865
  19   2.0000      -0.595767       -16.2116
  20   2.0000      -0.583140       -15.8680
  21   2.0000      -0.568069       -15.4579
  22   2.0000      -0.542955       -14.7746
  23   2.0000      -0.528207       -14.3733
  24   2.0000      -0.517366       -14.0782
  25   2.0000      -0.497394       -13.5348
  26   2.0000      -0.492447       -13.4002
  27   2.0000      -0.489645       -13.3239
  28   2.0000      -0.462570       -12.5872
  29   2.0000      -0.455683       -12.3998
  30   2.0000      -0.440646       -11.9906
  31   2.0000      -0.399767       -10.8782
  32   0.0000       0.133115         3.6223
  33   0.0000       0.156425         4.2565
  34   0.0000       0.161111         4.3841
  35   0.0000       0.173730         4.7274
  36   0.0000       0.193189         5.2569

MULLIKEN ATOMIC CHARGES
-----------------------
   0 C :   -0.421847
   1 C :   -0.208547
   2 C :    0.268663
   3 C :   -0.447736
   4 C :   -0.254479
   5 C :   -0.240012
   6 C :   -0.037667
   7 O :   -0.339128
   8 H :    0.130961
   9 H :    0.120098
  10 H :    0.147359
  11 H :    0.104540
  12 H :    0.105078
  13 H :    0.125064
  14 H :    0.128061
  15 H :    0.140643
  16 H :    0.121061
  17 H :    0.127407
  18 H :    0.124431
  19 H :    0.109854
  20 H :    0.083468
  21 H :    0.112729
Sum of atomic charges:   -0.0000000

LOEWDIN ATOMIC CHARGES
----------------------
   0 C :   -0.318512
   1 C :   -0.256436
   2 C :   -0.350328
   3 C :   -0.273374
   4 C :   -0.220137
   5 C :   -0.265209
   6 C :   -0.312996
   7 O :    0.182192
   8 H :    0.119834
   9 H :    0.118010
  10 H :    0.126949
  11 H :    0.138341
  12 H :    0.139866
  13 H :    0.126549
  14 H :    0.125311
  15 H :    0.126381
  16 H :    0.140517
  17 H :    0.140210
  18 H :    0.135266
  19 H :    0.136063
  20 H :    0.117607
  21 H :    0.123899

  Mayer bond orders larger than 0.1
B(  0-C ,  1-C ) :   0.9228 B(  0-C ,  8-H ) :   0.9398 B(  0-C ,  9-H ) :   0.9395
B(  0-C , 10-H ) :   0.9359 B(  1-C ,  2-C ) :   0.9207 B(  1-C , 11-H ) :   0.9283
B(  1-C , 12-H ) :   0.9284 B(  2-C ,  3-C ) :   0.8927 B(  2-C ,  4-C ) :   0.8719
B(  2-C ,  7-O ) :   0.8533 B(  3-C , 13-H ) :   0.9358 B(  3-C , 14-H ) :   0.9348
B(  3-C , 15-H ) :   0.9442 B(  4-C ,  5-C ) :   0.9360 B(  4-C , 16-H ) :   0.9350
B(  4-C , 17-H ) :   0.9271 B(  5-C ,  6-C ) :   0.9609 B(  5-C , 18-H ) :   0.9259
B(  5-C , 19-H ) :   0.9224 B(  6-C ,  7-O ) :   0.9550 B(  6-C , 20-H ) :   0.9249
B(  6-C , 21-H ) :   0.9259

MP2 TOTAL ENERGY:     -349.622411480 Eh
FINAL SINGLE POINT ENERGY      -349.622411479789

DIPOLE MOMENT
-------------
                                X             Y             Z
Electronic contribution:     -2.32578      -0.77012       2.16055
Nuclear contribution   :      2.42922       0.17838      -2.26331
                        -----------------------------------------
Total Dipole Moment    :      0.10345      -0.59175      -0.10276
                        -----------------------------------------
Magnitude (a.u.)       :      0.60945
Magnitude (Debye)      :      1.54909

                             ****ORCA TERMINATED NORMALLY****
TOTAL RUN TIME: 0 days 0 hours 15 minutes 38 seconds 90 msec
