                         Program Version 3.0.3 - RELEASE   -
|  1> ! RI-MP2 RIJK def2-TZVP def2-TZVP/C def2-TZVP/JK TIGHTSCF
|  2> % maxcore 2000
|  3> % mp2 density relaxed end
|  4> *xyz 0 1
|  5>  C       -0.1766955531     1.5049327877    -0.1353247703
|  6>  N        0.0038804912     0.0709502272     0.0430262732
|  7>  C        1.3365841634    -0.4821798886    -0.1572748425
|  8>  C        0.7324268492    -0.4327500792     1.2075521473
|  9>  C        1.3009283001     0.4507227213     2.2736880591
| 10>  C        0.6614417843     0.4793443388     3.6148173440
| 11>  N        1.9717907585    -0.1671921265     3.4313532463
| 12>  H        0.7143681185     2.1129324421     0.0850570245
| 13>  H       -0.4580865118     1.6917888397    -1.1765283282
| 14>  H       -0.9950646703     1.8507024130     0.5039968581
| 15>  H        1.3943105608    -1.4144872997    -0.7135620295
| 16>  H        2.1532039076     0.2136714640    -0.3522705186
| 17>  H        0.3007242487    -1.3515692191     1.6107704257
| 18>  H        1.8028496908     1.3496135811     1.9269358903
| 19>  H        0.6779610088     1.3871657250     4.2111658845
| 20>  H       -0.2140584557    -0.1474560438     3.7674825653
| 21>  H        1.8556418690    -1.1781583730     3.3940227408
| 22> *
| 23>
| 24>                          ****END OF INPUT****

CARTESIAN COORDINATES (ANGSTROEM)
---------------------------------
  C     -0.176696    1.504933   -0.135325
  N      0.003880    0.070950    0.043026
  C      1.336584   -0.482180   -0.157275
  C      0.732427   -0.432750    1.207552
  C      1.300928    0.450723    2.273688
  C      0.661442    0.479344    3.614817
  N      1.971791   -0.167192    3.431353
  H      0.714368    2.112932    0.085057
  H     -0.458087    1.691789   -1.176528
  H     -0.995065    1.850702    0.503997
  H      1.394311   -1.414487   -0.713562
  H      2.153204    0.213671   -0.352271
  H      0.300724   -1.351569    1.610770
  H      1.802850    1.349614    1.926936
  H      0.677961    1.387166    4.211166
  H     -0.214058   -0.147456    3.767483
  H      1.855642   -1.178158    3.394023

 Total Charge           Charge          ....    0
 Multiplicity           Mult            ....    1
 Number of Electrons    NEL             ....   54
 Basis Dimension        Dim             ....  277

ORBITAL ENERGIES
----------------

  NO   OCC          E(Eh)            E(eV)
   0   2.0000     -15.561443      -423.4484
   1   2.0000     -15.561025      -423.4370
   2   2.0000     -11.266399      -306.5743
   3   2.0000     -11.265189      -306.5414
   4   2.0000     -11.256848      -306.3144
   5   2.0000     -11.254878      -306.2608
   6   2.0000     -11.248969      -306.1000
   7   2.0000      -1.282737       -34.9050
   8   2.0000      -1.255139       -34.1541
   9   2.0000      -1.000719       -27.2309
  10   2.0000      -0.921291       -25.0696
  11   2.0000      -0.873395       -23.7663
  12   2.0000      -0.834104       -22.6971
  13   2.0000      -0.785665       -21.3790
  14   2.0000      -0.690070       -18.7777
  15   2.0000      -0.676923       -18.4200
  16   2.0000      -0.627782       -17.0828
  17   2.0000      -0.601939       -16.3796
  18   2.0000      -0.591409       -16.0930
  19   2.0000      -0.561049       -15.2669
  20   2.0000      -0.516827       -14.0636
  21   2.0000      -0.502429       -13.6718
  22   2.0000      -0.493522       -13.4294
  23   2.0000      -0.452817       -12.3218
  24   2.0000      -0.447777       -12.1846
  25   2.0000      -0.407158       -11.0793
  26   2.0000      -0.357449        -9.7267
  27   0.0000       0.142947         3.8898
  28   0.0000       0.149314         4.0630
  29   0.0000       0.166746         4.5374
  30   0.0000       0.179110         4.8738
  31   0.0000       0.191861         5.2208

MULLIKEN ATOMIC CHARGES
-----------------------
   0 C :   -0.290505
   1 N :   -0.215696
   2 C :   -0.183620
   3 C :   -0.082365
   4 C :   -0.031014
   5 C :   -0.193593
   6 N :   -0.355119
   7 H :    0.105017
   8 H :    0.143568
   9 H :    0.136219
  10 H :    0.127538
  11 H :    0.120489
  12 H :    0.115411
  13 H :    0.130712
  14 H :    0.124326
  15 H :    0.130040
  16 H :    0.218593
Sum of atomic charges:   -0.0000000

LOEWDIN ATOMIC CHARGES
----------------------
   0 C :   -0.330068
   1 N :    0.090069
   2 C :   -0.244064
   3 C :   -0.259375
   4 C :   -0.270665
   5 C :   -0.265419
   6 N :   -0.014145
   7 H :    0.104049
   8 H :    0.119632
   9 H :    0.119492
  10 H :    0.123848
  11 H :    0.125491
  12 H :    0.145238
  13 H :    0.143921
  14 H :    0.124318
  15 H :    0.122641
  16 H :    0.165038

  Mayer bond orders larger than 0.1
B(  0-C ,  1-N ) :   0.8852 B(  0-C ,  7-H ) :   0.9298 B(  0-C ,  8-H ) :   0.9367
B(  0-C ,  9-H ) :   0.9382 B(  1-N ,  2-C ) :   0.8944 B(  1-N ,  3-C ) :   0.9359
B(  2-C ,  3-C ) :   0.9426 B(  2-C , 10-H ) :   0.9185 B(  2-C , 11-H ) :   0.9221
B(  3-C ,  4-C ) :   0.9482 B(  3-C , 12-H ) :   0.8950 B(  4-C ,  5-C ) :   0.9472
B(  4-C ,  6-N ) :   0.9528 B(  4-C , 13-H ) :   0.8962 B(  5-C ,  6-N ) :   0.9281
B(  5-C , 14-H ) :   0.9192 B(  5-C , 15-H ) :   0.9199 B(  6-N , 16-H ) :   0.8774

MP2 TOTAL ENERGY:     -305.294033307 Eh
FINAL SINGLE POINT ENERGY      -305.294033307065

DIPOLE MOMENT
-------------
                                X             Y             Z
Electronic contribution:      0.79340      -2.09684       1.16605
Nuclear contribution   :     -0.98103       2.18090      -1.29968
                        -----------------------------------------
Total Dipole Moment    :     -0.18764       0.08406      -0.13364
                        -----------------------------------------
Magnitude (a.u.)       :      0.24522
Magnitude (Debye)      :      0.62330

                             ****ORCA TERMINATED NORMALLY****
TOTAL RUN TIME: 0 days 0 hours 7 minutes 51 seconds 931 msec
