                         Program Version 3.0.3 - RELEASE   -
|  1> ! RI-MP2 RIJK def2-TZVP def2-TZVP/C def2-TZVP/JK TIGHTSCF
|  2> % maxcore 2000
|  3> % mp2 density relaxed end
|  4> *xyz 0 1
|  5>  C       -0.1221931418     1.5180542700     0.3039412097
|  6>  C        0.0581248563     0.0460031838     0.0095486144
|  7>  C        0.5377105502    -0.6094060816    -1.2283460350
|  8>  C        1.6816904695     0.0941789220    -1.9597610554
|  9>  C        1.4233597822     1.3237069165    -2.8265842379
| 10>  C        2.7007945037     1.8734931197    -3.4507804867
| 11>  O        2.3533380359     3.0064560480    -4.2316759827
| 12>  C        2.3919025560     0.1643263852    -0.5780261338
| 13>  N        1.3370936883    -0.6915743806     0.0787095706
| 14>  H       -1.1084439466     1.8466561457    -0.0405614116
| 15>  H       -0.0743156443     1.6891393032     1.3852840705
| 16>  H        0.6208280556     2.1605962453    -0.1674796217
| 17>  H       -0.7039565726    -0.5546594545     0.5067805804
| 18>  H        0.0257306816    -1.4826229681    -1.6252581109
| 19>  H        2.2013092795    -0.6532016771    -2.5705087251
| 20>  H        0.7280817665     1.0610804748    -3.6338265812
| 21>  H        0.9454151895     2.1262305939    -2.2574610031
| 22>  H        3.4183974036     2.1416291484    -2.6574845581
| 23>  H        3.1780405705     1.0939175320    -4.0678977539
| 24>  H        3.1572876060     3.3627311310    -4.6206999107
| 25>  H        3.3533233283    -0.3512335532    -0.5427655012
| 26>  H        2.5158507819     1.1544441056    -0.1276545566
| 27> *
| 28>
| 29>                          ****END OF INPUT****

CARTESIAN COORDINATES (ANGSTROEM)
---------------------------------
  C     -0.122193    1.518054    0.303941
  C      0.058125    0.046003    0.009549
  C      0.537711   -0.609406   -1.228346
  C      1.681690    0.094179   -1.959761
  C      1.423360    1.323707   -2.826584
  C      2.700795    1.873493   -3.450780
  O      2.353338    3.006456   -4.231676
  C      2.391903    0.164326   -0.578026
  N      1.337094   -0.691574    0.078710
  H     -1.108444    1.846656   -0.040561
  H     -0.074316    1.689139    1.385284
  H      0.620828    2.160596   -0.167480
  H     -0.703957   -0.554659    0.506781
  H      0.025731   -1.482623   -1.625258
  H      2.201309   -0.653202   -2.570509
  H      0.728082    1.061080   -3.633827
  H      0.945415    2.126231   -2.257461
  H      3.418397    2.141629   -2.657485
  H      3.178041    1.093918   -4.067898
  H      3.157288    3.362731   -4.620700
  H      3.353323   -0.351234   -0.542766
  H      2.515851    1.154444   -0.127655

 Total Charge           Charge          ....    0
 Multiplicity           Mult            ....    1
 Number of Electrons    NEL             ....   70
 Basis Dimension        Dim             ....  357

ORBITAL ENERGIES
----------------

  NO   OCC          E(Eh)            E(eV)
   0   2.0000     -20.557982      -559.4111
   1   2.0000     -15.552827      -423.2139
   2   2.0000     -11.278743      -306.9102
   3   2.0000     -11.259323      -306.3818
   4   2.0000     -11.256052      -306.2928
   5   2.0000     -11.250291      -306.1360
   6   2.0000     -11.237019      -305.7748
   7   2.0000     -11.222166      -305.3706
   8   2.0000     -11.221157      -305.3432
   9   2.0000      -1.362025       -37.0626
  10   2.0000      -1.280193       -34.8358
  11   2.0000      -1.063704       -28.9449
  12   2.0000      -1.007591       -27.4180
  13   2.0000      -0.951811       -25.9001
  14   2.0000      -0.922937       -25.1144
  15   2.0000      -0.828277       -22.5386
  16   2.0000      -0.772518       -21.0213
  17   2.0000      -0.738971       -20.1084
  18   2.0000      -0.694189       -18.8899
  19   2.0000      -0.691627       -18.8201
  20   2.0000      -0.647714       -17.6252
  21   2.0000      -0.614894       -16.7321
  22   2.0000      -0.598884       -16.2965
  23   2.0000      -0.573643       -15.6096
  24   2.0000      -0.570163       -15.5149
  25   2.0000      -0.557475       -15.1697
  26   2.0000      -0.544197       -14.8083
  27   2.0000      -0.513905       -13.9841
  28   2.0000      -0.506172       -13.7736
  29   2.0000      -0.487889       -13.2761
  30   2.0000      -0.453041       -12.3279
  31   2.0000      -0.445832       -12.1317
  32   2.0000      -0.439703       -11.9649
  33   2.0000      -0.411280       -11.1915
  34   2.0000      -0.359166        -9.7734
  35   0.0000       0.130303         3.5457
  36   0.0000       0.143737         3.9113
  37   0.0000       0.153637         4.1807
  38   0.0000       0.166020         4.5176
  39   0.0000       0.173384         4.7180

MULLIKEN ATOMIC CHARGES
-----------------------
   0 C :   -0.383449
   1 C :   -0.026634
   2 C :   -0.056480
   3 C :   -0.103283
   4 C :   -0.183655
   5 C :   -0.072480
   6 O :   -0.464509
   7 C :   -0.191034
   8 N :   -0.235458
   9 H :    0.138494
  10 H :    0.140471
  11 H :    0.127334
  12 H :    0.110691
  13 H :    0.124978
  14 H :    0.101027
  15 H :    0.117027
  16 H :    0.108711
  17 H :    0.095929
  18 H :    0.094382
  19 H :    0.315461
  20 H :    0.125996
  21 H :    0.116482
Sum of atomic charges:    0.0000000

LOEWDIN ATOMIC CHARGES
----------------------
   0 C :   -0.296731
   1 C :   -0.276714
   2 C :   -0.178230
   3 C :   -0.230267
   4 C :   -0.252993
   5 C :   -0.350273
   6 O :   -0.050866
   7 C :   -0.229676
   8 N :    0.106703
   9 H :    0.132147
  10 H :    0.129569
  11 H :    0.120287
  12 H :    0.153707
  13 H :    0.131687
  14 H :    0.157897
  15 H :    0.145000
  16 H :    0.140459
  17 H :    0.114752
  18 H :    0.114470
  19 H :    0.171964
  20 H :    0.126340
  21 H :    0.120769

  Mayer bond orders larger than 0.1
B(  0-C ,  1-C ) :   0.8863 B(  0-C ,  9-H ) :   0.9293 B(  0-C , 10-H ) :   0.9355
B(  0-C , 11-H ) :   0.9375 B(  1-C ,  2-C ) :   0.9540 B(  1-C ,  8-N ) :   0.9074
B(  1-C , 12-H ) :   0.9292 B(  2-C ,  3-C ) :   0.9142 B(  2-C ,  8-N ) :   0.8688
B(  2-C , 13-H ) :   0.8986 B(  3-C ,  4-C ) :   0.9142 B(  3-C ,  7-C ) :   0.9641
B(  3-C , 14-H ) :   0.9225 B(  4-C ,  5-C ) :   0.9278 B(  4-C , 15-H ) :   0.9232
B(  4-C , 16-H ) :   0.9229 B(  5-C ,  6-O ) :   1.0222 B(  5-C , 17-H ) :   0.9329
B(  5-C , 18-H ) :   0.9310 B(  6-O , 19-H ) :   0.8488 B(  7-C ,  8-N ) :   0.9353
B(  7-C , 20-H ) :   0.9169 B(  7-C , 21-H ) :   0.9363

MP2 TOTAL ENERGY:     -403.605075830 Eh
FINAL SINGLE POINT ENERGY      -403.605075829605

DIPOLE MOMENT
-------------
                                X             Y             Z
Electronic contribution:      0.41599      -2.38088      -0.77823
Nuclear contribution   :     -0.01617       2.70080       0.38019
                        -----------------------------------------
Total Dipole Moment    :      0.39983       0.31992      -0.39804
                        -----------------------------------------
Magnitude (a.u.)       :      0.64857
Magnitude (Debye)      :      1.64854

                             ****ORCA TERMINATED NORMALLY****
TOTAL RUN TIME: 0 days 0 hours 19 minutes 7 seconds 919 msec
