                         Program Version 3.0.3 - RELEASE   -
|  1> ! RI-MP2 RIJK def2-TZVP def2-TZVP/C def2-TZVP/JK TIGHTSCF
|  2> % maxcore 2000
|  3> % mp2 density relaxed end
|  4> *xyz 0 1
|  5>  C        0.1008482909     1.4135207463     0.2014701377
|  6>  C        0.2811520236    -0.0920673039     0.0073761583
|  7>  C        0.8187585547    -0.4348578819    -1.3811115144
|  8>  O        0.6306230004     0.2755024390    -2.3534582991
|  9>  N        1.5102195013    -1.6127010739    -1.4507585688
| 10>  C        2.0147372518    -2.1576874062    -2.6971245539
| 11>  C        1.3806058763    -3.4900461454    -3.0139894743
| 12>  C        2.1492736372    -4.5958274512    -3.5939920898
| 13>  O        1.8191028400    -4.5894986376    -2.2036622163
| 14>  H        1.0652748472     1.9299616406     0.1936914494
| 15>  H       -0.5002306385     1.8264369112    -0.6109044703
| 16>  H       -0.3926845081     1.6257118036     1.1539104412
| 17>  H        0.9336863690    -0.5156208310     0.7799949630
| 18>  H       -0.6862764341    -0.6018549519     0.1107266264
| 19>  H        1.6096337616    -2.1766368550    -0.6218924568
| 20>  H        1.7821960849    -1.4228894335    -3.4723239534
| 21>  H        3.1039499620    -2.2789077061    -2.6470338844
| 22>  H        0.3025626645    -3.4653284400    -3.1775456774
| 23>  H        1.6415732208    -5.3497386327    -4.1931723427
| 24>  H        3.2046011344    -4.4543113503    -3.8240906743
| 25> *
| 26>
| 27>                          ****END OF INPUT****

CARTESIAN COORDINATES (ANGSTROEM)
---------------------------------
  C      0.100848    1.413521    0.201470
  C      0.281152   -0.092067    0.007376
  C      0.818759   -0.434858   -1.381112
  O      0.630623    0.275502   -2.353458
  N      1.510220   -1.612701   -1.450759
  C      2.014737   -2.157687   -2.697125
  C      1.380606   -3.490046   -3.013989
  C      2.149274   -4.595827   -3.593992
  O      1.819103   -4.589499   -2.203662
  H      1.065275    1.929962    0.193691
  H     -0.500231    1.826437   -0.610904
  H     -0.392685    1.625712    1.153910
  H      0.933686   -0.515621    0.779995
  H     -0.686276   -0.601855    0.110727
  H      1.609634   -2.176637   -0.621892
  H      1.782196   -1.422889   -3.472324
  H      3.103950   -2.278908   -2.647034
  H      0.302563   -3.465328   -3.177546
  H      1.641573   -5.349739   -4.193172
  H      3.204601   -4.454311   -3.824091

 Total Charge           Charge          ....    0
 Multiplicity           Mult            ....    1
 Number of Electrons    NEL             ....   70
 Basis Dimension        Dim             ....  345

ORBITAL ENERGIES
----------------

  NO   OCC          E(Eh)            E(eV)
   0   2.0000     -20.576045      -559.9027
   1   2.0000     -20.513844      -558.2101
   2   2.0000     -15.583622      -424.0519
   3   2.0000     -11.347089      -308.7700
   4   2.0000     -11.294656      -307.3432
   5   2.0000     -11.291861      -307.2672
   6   2.0000     -11.270889      -306.6965
   7   2.0000     -11.241516      -305.8972
   8   2.0000     -11.216674      -305.2212
   9   2.0000      -1.419143       -38.6168
  10   2.0000      -1.379890       -37.5487
  11   2.0000      -1.231819       -33.5195
  12   2.0000      -1.055612       -28.7247
  13   2.0000      -1.002368       -27.2758
  14   2.0000      -0.921997       -25.0888
  15   2.0000      -0.876407       -23.8482
  16   2.0000      -0.825310       -22.4578
  17   2.0000      -0.785471       -21.3738
  18   2.0000      -0.720002       -19.5922
  19   2.0000      -0.683126       -18.5888
  20   2.0000      -0.666672       -18.1411
  21   2.0000      -0.651920       -17.7396
  22   2.0000      -0.625072       -17.0091
  23   2.0000      -0.599493       -16.3130
  24   2.0000      -0.583831       -15.8868
  25   2.0000      -0.564945       -15.3729
  26   2.0000      -0.533245       -14.5103
  27   2.0000      -0.530639       -14.4394
  28   2.0000      -0.519081       -14.1249
  29   2.0000      -0.511812       -13.9271
  30   2.0000      -0.490972       -13.3600
  31   2.0000      -0.464155       -12.6303
  32   2.0000      -0.454751       -12.3744
  33   2.0000      -0.419362       -11.4114
  34   2.0000      -0.393007       -10.6943
  35   0.0000       0.129318         3.5189
  36   0.0000       0.154205         4.1961
  37   0.0000       0.160026         4.3545
  38   0.0000       0.167796         4.5660
  39   0.0000       0.178179         4.8485

MULLIKEN ATOMIC CHARGES
-----------------------
   0 C :   -0.383805
   1 C :   -0.232342
   2 C :    0.293683
   3 O :   -0.387277
   4 N :   -0.336241
   5 C :   -0.132942
   6 C :    0.023297
   7 C :   -0.078880
   8 O :   -0.343556
   9 H :    0.123986
  10 H :    0.149795
  11 H :    0.130781
  12 H :    0.114187
  13 H :    0.131902
  14 H :    0.245734
  15 H :    0.162496
  16 H :    0.137263
  17 H :    0.138221
  18 H :    0.124148
  19 H :    0.119551
Sum of atomic charges:   -0.0000000

LOEWDIN ATOMIC CHARGES
----------------------
   0 C :   -0.310221
   1 C :   -0.265421
   2 C :   -0.452472
   3 O :    0.076599
   4 N :    0.109305
   5 C :   -0.262926
   6 C :   -0.294940
   7 C :   -0.263670
   8 O :    0.133354
   9 H :    0.123919
  10 H :    0.130453
  11 H :    0.120098
  12 H :    0.137775
  13 H :    0.150373
  14 H :    0.189246
  15 H :    0.156138
  16 H :    0.139783
  17 H :    0.140011
  18 H :    0.121448
  19 H :    0.121148

  Mayer bond orders larger than 0.1
B(  0-C ,  1-C ) :   0.9361 B(  0-C ,  9-H ) :   0.9365 B(  0-C , 10-H ) :   0.9330
B(  0-C , 11-H ) :   0.9383 B(  1-C ,  2-C ) :   0.9166 B(  1-C , 12-H ) :   0.9305
B(  1-C , 13-H ) :   0.9039 B(  2-C ,  3-O ) :   1.8731 B(  2-C ,  4-N ) :   1.1665
B(  4-N ,  5-C ) :   0.8205 B(  4-N , 14-H ) :   0.8709 B(  5-C ,  6-C ) :   0.9332
B(  5-C , 15-H ) :   0.9198 B(  5-C , 16-H ) :   0.9242 B(  6-C ,  7-C ) :   0.9858
B(  6-C ,  8-O ) :   0.8567 B(  6-C , 17-H ) :   0.9117 B(  7-C ,  8-O ) :   0.9097
B(  7-C , 18-H ) :   0.9218 B(  7-C , 19-H ) :   0.9071

MP2 TOTAL ENERGY:     -439.573848721 Eh
FINAL SINGLE POINT ENERGY      -439.573848720879

DIPOLE MOMENT
-------------
                                X             Y             Z
Electronic contribution:      1.23376      -4.20111      -3.29280
Nuclear contribution   :     -0.94564       3.52189       3.50594
                        -----------------------------------------
Total Dipole Moment    :      0.28812      -0.67921       0.21314
                        -----------------------------------------
Magnitude (a.u.)       :      0.76797
Magnitude (Debye)      :      1.95202

                             ****ORCA TERMINATED NORMALLY****
TOTAL RUN TIME: 0 days 0 hours 14 minutes 38 seconds 520 msec
