                         Program Version 3.0.3 - RELEASE   -
|  1> ! RI-MP2 RIJK def2-TZVP def2-TZVP/C def2-TZVP/JK TIGHTSCF
|  2> % maxcore 2000
|  3> % mp2 density relaxed end
|  4> *xyz 0 1
|  5>  C       -0.0901922836     1.5789665488    -0.0545072634
|  6>  C       -0.0040478658     0.0509916604    -0.0146694026
|  7>  C        0.6817742288    -0.5837837739    -1.2467171698
|  8>  C        1.3000230660    -1.9140828295    -0.7490846274
|  9>  C        1.5306501398    -1.7277883620     0.7453804718
| 10>  C        2.2489702540    -0.4747902652     1.2223244951
| 11>  O        2.9645438361     0.3731437037     0.3658324998
| 12>  C        0.7474566517    -0.5118725758     1.1914968947
| 13>  O        0.0645769067    -0.5479957372     2.4124030770
| 14>  H        0.9085736236     2.0198625353    -0.1215973280
| 15>  H       -0.6753113713     1.9187566406    -0.9155801213
| 16>  H       -0.5801453099     1.9723671995     0.8441444879
| 17>  H       -1.0208256445    -0.3550948507     0.0765462994
| 18>  H       -0.0232608573    -0.7391566430    -2.0685807811
| 19>  H        1.4685593493     0.0813747975    -1.6072993001
| 20>  H        0.6021438726    -2.7468855520    -0.8925372217
| 21>  H        2.2134522329    -2.1715589390    -1.2973784804
| 22>  H        1.5988050623    -2.6025344591     1.3835349869
| 23>  H        2.6636996787    -0.5542733741     2.2280803842
| 24>  H        3.7656782396    -0.0866778033     0.0929375643
| 25>  H        0.0744582702     0.3409754591     2.7842106648
| 26> *
| 27>
| 28>                          ****END OF INPUT****

CARTESIAN COORDINATES (ANGSTROEM)
---------------------------------
  C     -0.090192    1.578967   -0.054507
  C     -0.004048    0.050992   -0.014669
  C      0.681774   -0.583784   -1.246717
  C      1.300023   -1.914083   -0.749085
  C      1.530650   -1.727788    0.745380
  C      2.248970   -0.474790    1.222324
  O      2.964544    0.373144    0.365832
  C      0.747457   -0.511873    1.191497
  O      0.064577   -0.547996    2.412403
  H      0.908574    2.019863   -0.121597
  H     -0.675311    1.918757   -0.915580
  H     -0.580145    1.972367    0.844144
  H     -1.020826   -0.355095    0.076546
  H     -0.023261   -0.739157   -2.068581
  H      1.468559    0.081375   -1.607299
  H      0.602144   -2.746886   -0.892537
  H      2.213452   -2.171559   -1.297378
  H      1.598805   -2.602534    1.383535
  H      2.663700   -0.554273    2.228080
  H      3.765678   -0.086678    0.092938
  H      0.074458    0.340975    2.784211

 Total Charge           Charge          ....    0
 Multiplicity           Mult            ....    1
 Number of Electrons    NEL             ....   70
 Basis Dimension        Dim             ....  351

ORBITAL ENERGIES
----------------

  NO   OCC          E(Eh)            E(eV)
   0   2.0000     -20.565609      -559.6187
   1   2.0000     -20.560193      -559.4713
   2   2.0000     -11.279468      -306.9299
   3   2.0000     -11.277582      -306.8786
   4   2.0000     -11.224510      -305.4344
   5   2.0000     -11.223979      -305.4200
   6   2.0000     -11.223057      -305.3949
   7   2.0000     -11.212756      -305.1146
   8   2.0000     -11.208134      -304.9888
   9   2.0000      -1.379521       -37.5387
  10   2.0000      -1.363980       -37.1158
  11   2.0000      -1.154017       -31.4024
  12   2.0000      -1.042090       -28.3567
  13   2.0000      -0.989811       -26.9341
  14   2.0000      -0.886321       -24.1180
  15   2.0000      -0.841542       -22.8995
  16   2.0000      -0.773311       -21.0429
  17   2.0000      -0.749022       -20.3819
  18   2.0000      -0.717474       -19.5235
  19   2.0000      -0.677636       -18.4394
  20   2.0000      -0.631221       -17.1764
  21   2.0000      -0.624157       -16.9842
  22   2.0000      -0.606135       -16.4938
  23   2.0000      -0.597614       -16.2619
  24   2.0000      -0.564639       -15.3646
  25   2.0000      -0.557252       -15.1636
  26   2.0000      -0.530249       -14.4288
  27   2.0000      -0.512701       -13.9513
  28   2.0000      -0.504672       -13.7328
  29   2.0000      -0.492486       -13.4012
  30   2.0000      -0.467064       -12.7095
  31   2.0000      -0.459157       -12.4943
  32   2.0000      -0.445329       -12.1180
  33   2.0000      -0.386534       -10.5181
  34   2.0000      -0.381497       -10.3811
  35   0.0000       0.128185         3.4881
  36   0.0000       0.140855         3.8329
  37   0.0000       0.160951         4.3797
  38   0.0000       0.169712         4.6181
  39   0.0000       0.186006         5.0615

MULLIKEN ATOMIC CHARGES
-----------------------
   0 C :   -0.436454
   1 C :   -0.040750
   2 C :   -0.201923
   3 C :   -0.265522
   4 C :   -0.096052
   5 C :   -0.060283
   6 O :   -0.469408
   7 C :    0.179814
   8 O :   -0.456594
   9 H :    0.153556
  10 H :    0.132016
  11 H :    0.112609
  12 H :    0.093235
  13 H :    0.119466
  14 H :    0.116922
  15 H :    0.119910
  16 H :    0.111411
  17 H :    0.129306
  18 H :    0.111348
  19 H :    0.323289
  20 H :    0.324104
Sum of atomic charges:   -0.0000000

LOEWDIN ATOMIC CHARGES
----------------------
   0 C :   -0.293794
   1 C :   -0.231647
   2 C :   -0.224295
   3 C :   -0.232401
   4 C :   -0.170000
   5 C :   -0.285161
   6 O :   -0.002291
   7 C :   -0.311117
   8 O :    0.024483
   9 H :    0.129133
  10 H :    0.123997
  11 H :    0.118663
  12 H :    0.159315
  13 H :    0.131917
  14 H :    0.138726
  15 H :    0.141687
  16 H :    0.132914
  17 H :    0.147779
  18 H :    0.138785
  19 H :    0.181164
  20 H :    0.182143

  Mayer bond orders larger than 0.1
B(  0-C ,  1-C ) :   0.8814 B(  0-C ,  9-H ) :   0.9362 B(  0-C , 10-H ) :   0.9387
B(  0-C , 11-H ) :   0.9384 B(  1-C ,  2-C ) :   0.9037 B(  1-C ,  7-C ) :   0.9355
B(  1-C , 12-H ) :   0.9267 B(  2-C ,  3-C ) :   0.9313 B(  2-C , 13-H ) :   0.9203
B(  2-C , 14-H ) :   0.9245 B(  3-C ,  4-C ) :   0.9213 B(  3-C , 15-H ) :   0.9283
B(  3-C , 16-H ) :   0.9351 B(  4-C ,  5-C ) :   0.8847 B(  4-C ,  7-C ) :   0.8339
B(  4-C , 17-H ) :   0.9096 B(  5-C ,  6-O ) :   1.0295 B(  5-C ,  7-C ) :   0.8697
B(  5-C , 18-H ) :   0.9668 B(  6-O , 19-H ) :   0.8408 B(  7-C ,  8-O ) :   0.9942
B(  8-O , 20-H ) :   0.8394

MP2 TOTAL ENERGY:     -423.525128998 Eh
FINAL SINGLE POINT ENERGY      -423.525128998180

DIPOLE MOMENT
-------------
                                X             Y             Z
Electronic contribution:      2.09064      -1.59283       4.42882
Nuclear contribution   :     -1.66856       1.55044      -4.60066
                        -----------------------------------------
Total Dipole Moment    :      0.42208      -0.04239      -0.17184
                        -----------------------------------------
Magnitude (a.u.)       :      0.45768
Magnitude (Debye)      :      1.16333

                             ****ORCA TERMINATED NORMALLY****
TOTAL RUN TIME: 0 days 0 hours 18 minutes 57 seconds 669 msec
