                         Program Version 3.0.3 - RELEASE   -
|  1> ! RI-MP2 RIJK def2-TZVP def2-TZVP/C def2-TZVP/JK TIGHTSCF
|  2> % maxcore 2000
|  3> % mp2 density relaxed end
|  4> *xyz 0 1
|  5>  O       -0.0256268815     1.3194533686    -0.1499144661
|  6>  C       -0.0133775301    -0.0836480871    -0.0189758571
|  7>  C        0.1728236496    -0.6053637129     1.4352101377
|  8>  N       -1.2629998671    -1.0617518714     1.5287851959
|  9>  C       -1.4371571244    -0.6159552584     0.0760872604
| 10>  C       -1.4438903871    -2.0341537484     0.4534485851
| 11>  C       -0.5688488453    -3.2152592528     0.0307905686
| 12>  O       -1.7323285852    -4.0651014350    -0.0420721360
| 13>  C       -2.6098851233    -3.0141996259     0.4244382081
| 14>  H        0.8841722233     1.6331711265    -0.1284112253
| 15>  H        0.6172353404    -0.5468316809    -0.7926952681
| 16>  H        0.9072453725    -1.3985804847     1.6123299221
| 17>  H        0.3408400130     0.2176312372     2.1324878092
| 18>  H       -2.3156927225    -0.0787228917    -0.2671641218
| 19>  H       -0.0578886788    -3.1296687665    -0.9366953348
| 20>  H        0.1468009964    -3.5618004878     0.7884443326
| 21>  H       -3.0392940684    -3.2329777311     1.4093776781
| 22>  H       -3.4132868313    -2.8018468977    -0.2908742484
| 23> *
| 24>
| 25>                          ****END OF INPUT****

CARTESIAN COORDINATES (ANGSTROEM)
---------------------------------
  O     -0.025627    1.319453   -0.149914
  C     -0.013378   -0.083648   -0.018976
  C      0.172824   -0.605364    1.435210
  N     -1.263000   -1.061752    1.528785
  C     -1.437157   -0.615955    0.076087
  C     -1.443890   -2.034154    0.453449
  C     -0.568849   -3.215259    0.030791
  O     -1.732329   -4.065101   -0.042072
  C     -2.609885   -3.014200    0.424438
  H      0.884172    1.633171   -0.128411
  H      0.617235   -0.546832   -0.792695
  H      0.907245   -1.398580    1.612330
  H      0.340840    0.217631    2.132488
  H     -2.315693   -0.078723   -0.267164
  H     -0.057889   -3.129669   -0.936695
  H      0.146801   -3.561800    0.788444
  H     -3.039294   -3.232978    1.409378
  H     -3.413287   -2.801847   -0.290874

 Total Charge           Charge          ....    0
 Multiplicity           Mult            ....    1
 Number of Electrons    NEL             ....   68
 Basis Dimension        Dim             ....  333

ORBITAL ENERGIES
----------------

  NO   OCC          E(Eh)            E(eV)
   0   2.0000     -20.573482      -559.8329
   1   2.0000     -20.555171      -559.3346
   2   2.0000     -15.570070      -423.6831
   3   2.0000     -11.301480      -307.5289
   4   2.0000     -11.289093      -307.1918
   5   2.0000     -11.282630      -307.0160
   6   2.0000     -11.276645      -306.8531
   7   2.0000     -11.269385      -306.6556
   8   2.0000     -11.264911      -306.5338
   9   2.0000      -1.388208       -37.7751
  10   2.0000      -1.382604       -37.6226
  11   2.0000      -1.294369       -35.2216
  12   2.0000      -1.020370       -27.7657
  13   2.0000      -0.955177       -25.9917
  14   2.0000      -0.944497       -25.7011
  15   2.0000      -0.922817       -25.1111
  16   2.0000      -0.770085       -20.9551
  17   2.0000      -0.753756       -20.5108
  18   2.0000      -0.720283       -19.5999
  19   2.0000      -0.682165       -18.5627
  20   2.0000      -0.670938       -18.2572
  21   2.0000      -0.656103       -17.8535
  22   2.0000      -0.647076       -17.6078
  23   2.0000      -0.592401       -16.1201
  24   2.0000      -0.573896       -15.6165
  25   2.0000      -0.558397       -15.1947
  26   2.0000      -0.537823       -14.6349
  27   2.0000      -0.526040       -14.3143
  28   2.0000      -0.483660       -13.1610
  29   2.0000      -0.473897       -12.8954
  30   2.0000      -0.460829       -12.5398
  31   2.0000      -0.426754       -11.6126
  32   2.0000      -0.418237       -11.3808
  33   2.0000      -0.372202       -10.1281
  34   0.0000       0.125237         3.4079
  35   0.0000       0.147525         4.0144
  36   0.0000       0.165035         4.4908
  37   0.0000       0.166647         4.5347
  38   0.0000       0.172664         4.6984

MULLIKEN ATOMIC CHARGES
-----------------------
   0 O :   -0.459436
   1 C :    0.029765
   2 C :   -0.144791
   3 N :   -0.243317
   4 C :   -0.104525
   5 C :    0.051323
   6 C :    0.011483
   7 O :   -0.327889
   8 C :   -0.019841
   9 H :    0.319773
  10 H :    0.094297
  11 H :    0.114829
  12 H :    0.124437
  13 H :    0.142565
  14 H :    0.101181
  15 H :    0.099723
  16 H :    0.107134
  17 H :    0.103290
Sum of atomic charges:   -0.0000000

LOEWDIN ATOMIC CHARGES
----------------------
   0 O :   -0.007756
   1 C :   -0.323806
   2 C :   -0.228575
   3 N :    0.138167
   4 C :   -0.152565
   5 C :   -0.280699
   6 C :   -0.235009
   7 O :    0.117735
   8 C :   -0.217568
   9 H :    0.178134
  10 H :    0.124460
  11 H :    0.120169
  12 H :    0.133591
  13 H :    0.141798
  14 H :    0.121559
  15 H :    0.122751
  16 H :    0.125655
  17 H :    0.121960

  Mayer bond orders larger than 0.1
B(  0-O ,  1-C ) :   1.0470 B(  0-O ,  9-H ) :   0.8417 B(  1-C ,  2-C ) :   0.9606
B(  1-C ,  4-C ) :   0.9128 B(  1-C , 10-H ) :   0.9571 B(  2-C ,  3-N ) :   0.9189
B(  2-C , 11-H ) :   0.9277 B(  2-C , 12-H ) :   0.9050 B(  3-N ,  4-C ) :   0.9234
B(  3-N ,  5-C ) :   0.8539 B(  4-C ,  5-C ) :   0.8379 B(  4-C , 13-H ) :   0.8974
B(  5-C ,  6-C ) :   0.9613 B(  5-C ,  8-C ) :   0.9807 B(  6-C ,  7-O ) :   0.9664
B(  6-C , 14-H ) :   0.9023 B(  6-C , 15-H ) :   0.9071 B(  7-O ,  8-C ) :   0.9578
B(  8-C , 16-H ) :   0.9030 B(  8-C , 17-H ) :   0.9125

MP2 TOTAL ENERGY:     -438.278361927 Eh
FINAL SINGLE POINT ENERGY      -438.278361926806

DIPOLE MOMENT
-------------
                                X             Y             Z
Electronic contribution:     -1.58293       0.12846      -0.20685
Nuclear contribution   :      2.58368       0.30376      -0.06902
                        -----------------------------------------
Total Dipole Moment    :      1.00075       0.43222      -0.27586
                        -----------------------------------------
Magnitude (a.u.)       :      1.12446
Magnitude (Debye)      :      2.85815

                             ****ORCA TERMINATED NORMALLY****
TOTAL RUN TIME: 0 days 0 hours 16 minutes 41 seconds 267 msec
