                         Program Version 3.0.3 - RELEASE   -
|  1> ! RI-MP2 RIJK def2-TZVP def2-TZVP/C def2-TZVP/JK TIGHTSCF
|  2> % maxcore 2000
|  3> % mp2 density relaxed end
|  4> *xyz 0 1
|  5>  C       -0.5590664925     1.3491865191     0.0130268729
|  6>  C        0.1074010492    -0.0233322278    -0.0265996974
|  7>  C        1.1908400292    -0.1903197063    -1.1274496926
|  8>  C        2.2216009993    -1.0909005724    -0.4879324117
|  9>  C        2.0169808449    -1.2371997346     0.8207454414
| 10>  C        0.8205083560    -0.4720026890     1.2607679131
| 11>  C        0.7460693591     0.2111352711     2.5642253766
| 12>  O        0.0142331090    -0.9930181743     2.3288259564
| 13>  H        0.1717144103     2.1425322938     0.2053590956
| 14>  H       -1.0478768941     1.5699270959    -0.9415410462
| 15>  H       -1.3262454908     1.3952916978     0.7927347587
| 16>  H       -0.6668684850    -0.7808142141    -0.2016245559
| 17>  H        0.7832821063    -0.6022525996    -2.0576404446
| 18>  H        1.6367748308     0.7794147476    -1.3917482776
| 19>  H        3.0426773743    -1.5269611022    -1.0460616164
| 20>  H        2.6239237817    -1.8071330525     1.5141741483
| 21>  H        1.5765829525     0.1263281105     3.2655492598
| 22>  H        0.1459267898     1.1132075371     2.6720876597
| 23> *
| 24>
| 25>                          ****END OF INPUT****

CARTESIAN COORDINATES (ANGSTROEM)
---------------------------------
  C     -0.559066    1.349187    0.013027
  C      0.107401   -0.023332   -0.026600
  C      1.190840   -0.190320   -1.127450
  C      2.221601   -1.090901   -0.487932
  C      2.016981   -1.237200    0.820745
  C      0.820508   -0.472003    1.260768
  C      0.746069    0.211135    2.564225
  O      0.014233   -0.993018    2.328826
  H      0.171714    2.142532    0.205359
  H     -1.047877    1.569927   -0.941541
  H     -1.326245    1.395292    0.792735
  H     -0.666868   -0.780814   -0.201625
  H      0.783282   -0.602253   -2.057640
  H      1.636775    0.779415   -1.391748
  H      3.042677   -1.526961   -1.046062
  H      2.623924   -1.807133    1.514174
  H      1.576583    0.126328    3.265549
  H      0.145927    1.113208    2.672088

 Total Charge           Charge          ....    0
 Multiplicity           Mult            ....    1
 Number of Electrons    NEL             ....   60
 Basis Dimension        Dim             ....  308

ORBITAL ENERGIES
----------------

  NO   OCC          E(Eh)            E(eV)
   0   2.0000     -20.560739      -559.4862
   1   2.0000     -11.288869      -307.1857
   2   2.0000     -11.277190      -306.8679
   3   2.0000     -11.235984      -305.7467
   4   2.0000     -11.235087      -305.7223
   5   2.0000     -11.231532      -305.6255
   6   2.0000     -11.227912      -305.5270
   7   2.0000     -11.219552      -305.2995
   8   2.0000      -1.404472       -38.2176
   9   2.0000      -1.137656       -30.9572
  10   2.0000      -1.022703       -27.8292
  11   2.0000      -0.948401       -25.8073
  12   2.0000      -0.903315       -24.5805
  13   2.0000      -0.885077       -24.0842
  14   2.0000      -0.772091       -21.0097
  15   2.0000      -0.738548       -20.0969
  16   2.0000      -0.684006       -18.6127
  17   2.0000      -0.655942       -17.8491
  18   2.0000      -0.626317       -17.0429
  19   2.0000      -0.611234       -16.6325
  20   2.0000      -0.562108       -15.2957
  21   2.0000      -0.556682       -15.1481
  22   2.0000      -0.538921       -14.6648
  23   2.0000      -0.519237       -14.1291
  24   2.0000      -0.498114       -13.5544
  25   2.0000      -0.489144       -13.3103
  26   2.0000      -0.474476       -12.9111
  27   2.0000      -0.451741       -12.2925
  28   2.0000      -0.427762       -11.6400
  29   2.0000      -0.347230        -9.4486
  30   0.0000       0.133399         3.6300
  31   0.0000       0.149791         4.0760
  32   0.0000       0.164462         4.4752
  33   0.0000       0.172995         4.7074
  34   0.0000       0.176687         4.8079

MULLIKEN ATOMIC CHARGES
-----------------------
   0 C :   -0.445845
   1 C :   -0.011506
   2 C :   -0.190434
   3 C :   -0.158734
   4 C :   -0.219295
   5 C :    0.197454
   6 C :   -0.086791
   7 O :   -0.336834
   8 H :    0.129354
   9 H :    0.139222
  10 H :    0.145375
  11 H :    0.099902
  12 H :    0.125523
  13 H :    0.113982
  14 H :    0.132171
  15 H :    0.136544
  16 H :    0.113866
  17 H :    0.116046
Sum of atomic charges:    0.0000000

LOEWDIN ATOMIC CHARGES
----------------------
   0 C :   -0.294449
   1 C :   -0.212507
   2 C :   -0.213052
   3 C :   -0.140967
   4 C :   -0.120640
   5 C :   -0.283031
   6 C :   -0.241389
   7 O :    0.162167
   8 H :    0.123659
   9 H :    0.125888
  10 H :    0.127038
  11 H :    0.164321
  12 H :    0.138109
  13 H :    0.143798
  14 H :    0.137165
  15 H :    0.144043
  16 H :    0.119652
  17 H :    0.120196

  Mayer bond orders larger than 0.1
B(  0-C ,  1-C ) :   0.9075 B(  0-C ,  8-H ) :   0.9325 B(  0-C ,  9-H ) :   0.9376
B(  0-C , 10-H ) :   0.9414 B(  1-C ,  2-C ) :   0.9448 B(  1-C ,  5-C ) :   0.8984
B(  1-C , 11-H ) :   0.9198 B(  2-C ,  3-C ) :   0.9277 B(  2-C , 12-H ) :   0.9265
B(  2-C , 13-H ) :   0.9052 B(  3-C ,  4-C ) :   1.7775 B(  3-C , 14-H ) :   0.9246
B(  4-C ,  5-C ) :   0.9308 B(  4-C , 15-H ) :   0.9203 B(  5-C ,  6-C ) :   0.9699
B(  5-C ,  7-O ) :   0.8478 B(  6-C ,  7-O ) :   0.9042 B(  6-C , 16-H ) :   0.9123
B(  6-C , 17-H ) :   0.9010

MP2 TOTAL ENERGY:     -347.186897831 Eh
FINAL SINGLE POINT ENERGY      -347.186897831167

DIPOLE MOMENT
-------------
                                X             Y             Z
Electronic contribution:      1.22584      -4.34697       3.41167
Nuclear contribution   :     -0.81019       4.88306      -3.83896
                        -----------------------------------------
Total Dipole Moment    :      0.41565       0.53609      -0.42729
                        -----------------------------------------
Magnitude (a.u.)       :      0.80171
Magnitude (Debye)      :      2.03778

                             ****ORCA TERMINATED NORMALLY****
TOTAL RUN TIME: 0 days 0 hours 13 minutes 59 seconds 674 msec
