                         Program Version 3.0.3 - RELEASE   -
|  1> ! RI-MP2 RIJK def2-TZVP def2-TZVP/C def2-TZVP/JK TIGHTSCF
|  2> % maxcore 2000
|  3> % mp2 density relaxed end
|  4> *xyz 0 1
|  5>  O        0.3349433287     1.2289904148     0.2012516072
|  6>  C        0.1037522955    -0.1346743802    -0.0572984290
|  7>  C       -1.3991838368    -0.4445816027    -0.0279623868
|  8>  N       -2.0156113174     0.1077522541     1.1921929843
|  9>  C       -3.4089123558     0.5007954349     0.9396198151
| 10>  C       -3.4362849313     0.8664547144    -0.5354940117
| 11>  O       -4.2743844142     1.4810951715    -1.1329840331
| 12>  C       -2.1576695267     0.2416234058    -1.1585641520
| 13>  O       -1.8636465475     0.2749670972    -2.3202841672
| 14>  H       -0.2439927787     1.4456213474     0.9462714211
| 15>  H        0.4902309935    -0.3599596805    -1.0561345324
| 16>  H        0.6232974633    -0.7852373089     0.6662545561
| 17>  H       -1.5529875675    -1.5319768831    -0.1479004184
| 18>  H       -1.9311617151    -0.5202067142     1.9809175921
| 19>  H       -4.1401340704    -0.3117276470     1.0944250861
| 20>  H       -3.7167305794     1.3451863365     1.5633264386
| 21> *
| 22>
| 23>                          ****END OF INPUT****

CARTESIAN COORDINATES (ANGSTROEM)
---------------------------------
  O      0.334943    1.228990    0.201252
  C      0.103752   -0.134674   -0.057298
  C     -1.399184   -0.444582   -0.027962
  N     -2.015611    0.107752    1.192193
  C     -3.408912    0.500795    0.939620
  C     -3.436285    0.866455   -0.535494
  O     -4.274384    1.481095   -1.132984
  C     -2.157670    0.241623   -1.158564
  O     -1.863647    0.274967   -2.320284
  H     -0.243993    1.445621    0.946271
  H      0.490231   -0.359960   -1.056135
  H      0.623297   -0.785237    0.666255
  H     -1.552988   -1.531977   -0.147900
  H     -1.931162   -0.520207    1.980918
  H     -4.140134   -0.311728    1.094425
  H     -3.716731    1.345186    1.563326

 Total Charge           Charge          ....    0
 Multiplicity           Mult            ....    1
 Number of Electrons    NEL             ....   68
 Basis Dimension        Dim             ....  321

ORBITAL ENERGIES
----------------

  NO   OCC          E(Eh)            E(eV)
   0   2.0000     -20.587404      -560.2118
   1   2.0000     -20.586362      -560.1834
   2   2.0000     -20.561884      -559.5173
   3   2.0000     -15.594471      -424.3471
   4   2.0000     -11.359060      -309.0958
   5   2.0000     -11.355981      -309.0120
   6   2.0000     -11.298396      -307.4450
   7   2.0000     -11.297515      -307.4210
   8   2.0000     -11.294035      -307.3263
   9   2.0000      -1.437114       -39.1059
  10   2.0000      -1.412739       -38.4426
  11   2.0000      -1.374163       -37.3929
  12   2.0000      -1.265545       -34.4372
  13   2.0000      -1.044702       -28.4278
  14   2.0000      -1.009690       -27.4751
  15   2.0000      -0.922792       -25.1104
  16   2.0000      -0.824870       -22.4458
  17   2.0000      -0.752827       -20.4855
  18   2.0000      -0.727581       -19.7985
  19   2.0000      -0.706546       -19.2261
  20   2.0000      -0.691304       -18.8113
  21   2.0000      -0.656828       -17.8732
  22   2.0000      -0.649414       -17.6715
  23   2.0000      -0.634301       -17.2602
  24   2.0000      -0.625250       -17.0139
  25   2.0000      -0.607559       -16.5325
  26   2.0000      -0.577582       -15.7168
  27   2.0000      -0.563398       -15.3308
  28   2.0000      -0.521008       -14.1773
  29   2.0000      -0.515230       -14.0201
  30   2.0000      -0.499359       -13.5882
  31   2.0000      -0.465922       -12.6784
  32   2.0000      -0.422049       -11.4845
  33   2.0000      -0.401788       -10.9332
  34   0.0000       0.044743         1.2175
  35   0.0000       0.109286         2.9738
  36   0.0000       0.145255         3.9526
  37   0.0000       0.153358         4.1731
  38   0.0000       0.168895         4.5959

MULLIKEN ATOMIC CHARGES
-----------------------
   0 O :   -0.478361
   1 C :   -0.001363
   2 C :   -0.017394
   3 N :   -0.433377
   4 C :   -0.106128
   5 C :    0.139718
   6 O :   -0.225088
   7 C :    0.154581
   8 O :   -0.228119
   9 H :    0.325811
  10 H :    0.128959
  11 H :    0.103552
  12 H :    0.124540
  13 H :    0.226345
  14 H :    0.138422
  15 H :    0.147902
Sum of atomic charges:   -0.0000000

LOEWDIN ATOMIC CHARGES
----------------------
   0 O :   -0.035553
   1 C :   -0.330258
   2 C :   -0.282080
   3 N :    0.001685
   4 C :   -0.262294
   5 C :   -0.286006
   6 O :    0.204345
   7 C :   -0.266540
   8 O :    0.213854
   9 H :    0.172364
  10 H :    0.138754
  11 H :    0.118133
  12 H :    0.155968
  13 H :    0.171530
  14 H :    0.141836
  15 H :    0.144263

  Mayer bond orders larger than 0.1
B(  0-O ,  1-C ) :   0.9341 B(  0-O ,  9-H ) :   0.8153 B(  1-C ,  2-C ) :   0.9263
B(  1-C , 10-H ) :   0.9265 B(  1-C , 11-H ) :   0.9226 B(  2-C ,  3-N ) :   0.9136
B(  2-C ,  7-C ) :   0.8542 B(  2-C , 12-H ) :   0.8899 B(  3-N ,  4-C ) :   0.8965
B(  3-N , 13-H ) :   0.8761 B(  4-C ,  5-C ) :   0.9197 B(  4-C , 14-H ) :   0.9057
B(  4-C , 15-H ) :   0.9101 B(  5-C ,  6-O ) :   2.0175 B(  5-C ,  7-C ) :   0.8511
B(  7-C ,  8-O ) :   2.0054

MP2 TOTAL ENERGY:     -474.282105358 Eh
FINAL SINGLE POINT ENERGY      -474.282105358496

DIPOLE MOMENT
-------------
                                X             Y             Z
Electronic contribution:     -3.40367       2.44156      -5.00937
Nuclear contribution   :      3.16429      -3.75077       6.76040
                        -----------------------------------------
Total Dipole Moment    :     -0.23938      -1.30921       1.75103
                        -----------------------------------------
Magnitude (a.u.)       :      2.19941
Magnitude (Debye)      :      5.59047

                             ****ORCA TERMINATED NORMALLY****
TOTAL RUN TIME: 0 days 0 hours 25 minutes 51 seconds 817 msec
