                         Program Version 3.0.3 - RELEASE   -
|  1> ! RI-MP2 RIJK def2-TZVP def2-TZVP/C def2-TZVP/JK TIGHTSCF
|  2> % maxcore 2000
|  3> % mp2 density relaxed end
|  4> *xyz 0 1
|  5>  O       -0.1623519599     0.0064665834     0.1547155525
|  6>  C       -0.1261223921     1.1926158581     0.0233063790
|  7>  C       -1.1529707409     2.2834029932    -0.3264393091
|  8>  C        0.0417851030     3.2552582104    -0.5703126869
|  9>  C        1.0258794915     2.2298983735     0.0620726538
| 10>  C        1.6369423312     2.5336420380     1.4643427173
| 11>  N        3.0895847242     2.4131364332     1.2765327871
| 12>  C        3.2529830895     2.0560095145     0.0752439127
| 13>  O        2.1718647246     1.8934810009    -0.7330511510
| 14>  H       -1.8012380555     2.0580760920    -1.1760795668
| 15>  H       -1.7830719856     2.5467280945     0.5291316512
| 16>  H        0.2550116532     3.4018493015    -1.6306930451
| 17>  H       -0.0079107032     4.2254625784    -0.0730948404
| 18>  H        1.3790933624     3.5374427692     1.8173313982
| 19>  H        1.3067617631     1.8155333597     2.2224880945
| 20>  H        4.2036571744     1.8587404396    -0.4063653070
| 21> *
| 22>
| 23>                          ****END OF INPUT****

CARTESIAN COORDINATES (ANGSTROEM)
---------------------------------
  O     -0.162352    0.006467    0.154716
  C     -0.126122    1.192616    0.023306
  C     -1.152971    2.283403   -0.326439
  C      0.041785    3.255258   -0.570313
  C      1.025879    2.229898    0.062073
  C      1.636942    2.533642    1.464343
  N      3.089585    2.413136    1.276533
  C      3.252983    2.056010    0.075244
  O      2.171865    1.893481   -0.733051
  H     -1.801238    2.058076   -1.176080
  H     -1.783072    2.546728    0.529132
  H      0.255012    3.401849   -1.630693
  H     -0.007911    4.225463   -0.073095
  H      1.379093    3.537443    1.817331
  H      1.306762    1.815533    2.222488
  H      4.203657    1.858740   -0.406365

 Total Charge           Charge          ....    0
 Multiplicity           Mult            ....    1
 Number of Electrons    NEL             ....   66
 Basis Dimension        Dim             ....  321

ORBITAL ENERGIES
----------------

  NO   OCC          E(Eh)            E(eV)
   0   2.0000     -20.611099      -560.8565
   1   2.0000     -20.568919      -559.7087
   2   2.0000     -15.560727      -423.4289
   3   2.0000     -11.343410      -308.6699
   4   2.0000     -11.341657      -308.6222
   5   2.0000     -11.318498      -307.9920
   6   2.0000     -11.277873      -306.8865
   7   2.0000     -11.255557      -306.2793
   8   2.0000     -11.253477      -306.2227
   9   2.0000      -1.455375       -39.6028
  10   2.0000      -1.409238       -38.3473
  11   2.0000      -1.226473       -33.3740
  12   2.0000      -1.150928       -31.3183
  13   2.0000      -1.005441       -27.3594
  14   2.0000      -0.896227       -24.3876
  15   2.0000      -0.873866       -23.7791
  16   2.0000      -0.829582       -22.5741
  17   2.0000      -0.746398       -20.3105
  18   2.0000      -0.705768       -19.2049
  19   2.0000      -0.682710       -18.5775
  20   2.0000      -0.678697       -18.4683
  21   2.0000      -0.651828       -17.7371
  22   2.0000      -0.613301       -16.6888
  23   2.0000      -0.590880       -16.0786
  24   2.0000      -0.583038       -15.8653
  25   2.0000      -0.552069       -15.0226
  26   2.0000      -0.545998       -14.8574
  27   2.0000      -0.520175       -14.1547
  28   2.0000      -0.511168       -13.9096
  29   2.0000      -0.502223       -13.6662
  30   2.0000      -0.451375       -12.2825
  31   2.0000      -0.419699       -11.4206
  32   2.0000      -0.384435       -10.4610
  33   0.0000       0.109695         2.9850
  34   0.0000       0.128758         3.5037
  35   0.0000       0.152519         4.1502
  36   0.0000       0.157450         4.2844
  37   0.0000       0.169703         4.6179

MULLIKEN ATOMIC CHARGES
-----------------------
   0 O :   -0.229592
   1 C :    0.042623
   2 C :   -0.211611
   3 C :   -0.305930
   4 C :    0.325151
   5 C :   -0.174031
   6 N :   -0.258514
   7 C :    0.096605
   8 O :   -0.271197
   9 H :    0.145643
  10 H :    0.145840
  11 H :    0.138233
  12 H :    0.134807
  13 H :    0.128384
  14 H :    0.141845
  15 H :    0.151745
Sum of atomic charges:   -0.0000000

LOEWDIN ATOMIC CHARGES
----------------------
   0 O :    0.185197
   1 C :   -0.282830
   2 C :   -0.206193
   3 C :   -0.193807
   4 C :   -0.254811
   5 C :   -0.226302
   6 N :    0.069782
   7 C :   -0.335531
   8 O :    0.261058
   9 H :    0.143426
  10 H :    0.148469
  11 H :    0.143682
  12 H :    0.132117
  13 H :    0.137075
  14 H :    0.142062
  15 H :    0.136604

  Mayer bond orders larger than 0.1
B(  0-O ,  1-C ) :   2.0639 B(  1-C ,  2-C ) :   0.9002 B(  1-C ,  4-C ) :   0.7677
B(  2-C ,  3-C ) :   0.9479 B(  2-C ,  4-C ) :  -0.1250 B(  2-C ,  9-H ) :   0.9075
B(  2-C , 10-H ) :   0.8964 B(  3-C ,  4-C ) :   0.8982 B(  3-C , 11-H ) :   0.9124
B(  3-C , 12-H ) :   0.9279 B(  4-C ,  5-C ) :   0.9041 B(  4-C ,  8-O ) :   0.8657
B(  5-C ,  6-N ) :   0.9417 B(  5-C , 13-H ) :   0.9155 B(  5-C , 14-H ) :   0.9161
B(  6-N ,  7-C ) :   1.8311 B(  7-C ,  8-O ) :   1.0524 B(  7-C , 15-H ) :   0.9206

MP2 TOTAL ENERGY:     -437.171302157 Eh
FINAL SINGLE POINT ENERGY      -437.171302157030

DIPOLE MOMENT
-------------
                                X             Y             Z
Electronic contribution:      3.18451      -4.26945      -0.52517
Nuclear contribution   :     -3.75441       5.27359       0.21692
                        -----------------------------------------
Total Dipole Moment    :     -0.56990       1.00414      -0.30825
                        -----------------------------------------
Magnitude (a.u.)       :      1.19503
Magnitude (Debye)      :      3.03754

                             ****ORCA TERMINATED NORMALLY****
TOTAL RUN TIME: 0 days 0 hours 16 minutes 50 seconds 489 msec
