                         Program Version 3.0.3 - RELEASE   -
|  1> ! RI-MP2 RIJK def2-TZVP def2-TZVP/C def2-TZVP/JK TIGHTSCF
|  2> % maxcore 2000
|  3> % mp2 density relaxed end
|  4> *xyz 0 1
|  5>  C       -0.0004126985     1.4731809148    -0.1965890571
|  6>  N       -0.1179971725     0.0288432792    -0.2761177609
|  7>  C       -1.1666435026    -0.6549811665     0.2586852208
|  8>  O       -2.1067766793    -0.1155112505     0.8181940216
|  9>  C       -1.0693419973    -2.1814868504     0.1434464158
| 10>  C       -0.4553283708    -2.7516984105     1.4339600011
| 11>  C       -2.4909890760    -2.7307953940    -0.1127660266
| 12>  C       -2.5197509074    -4.1854271343    -0.2318508265
| 13>  N       -2.5228513366    -5.3371509891    -0.3299443610
| 14>  H        0.8864320387     1.7704041638     0.3738267151
| 15>  H        0.0570774433     1.9209315032    -1.1943718104
| 16>  H       -0.8916168844     1.8434451126     0.3108488737
| 17>  H        0.6164837235    -0.4914288898    -0.7264853091
| 18>  H       -0.4309951905    -2.4516365849    -0.7060601163
| 19>  H       -1.0586083629    -2.4625343591     2.2997971323
| 20>  H       -0.4079512768    -3.8429588317     1.3902285103
| 21>  H        0.5586099095    -2.3700545101     1.5842032035
| 22>  H       -3.1443834028    -2.4097239706     0.7039978927
| 23>  H       -2.9054399967    -2.2976791920    -1.0293993191
| 24> *
| 25>
| 26>                          ****END OF INPUT****

CARTESIAN COORDINATES (ANGSTROEM)
---------------------------------
  C     -0.000413    1.473181   -0.196589
  N     -0.117997    0.028843   -0.276118
  C     -1.166644   -0.654981    0.258685
  O     -2.106777   -0.115511    0.818194
  C     -1.069342   -2.181487    0.143446
  C     -0.455328   -2.751698    1.433960
  C     -2.490989   -2.730795   -0.112766
  C     -2.519751   -4.185427   -0.231851
  N     -2.522851   -5.337151   -0.329944
  H      0.886432    1.770404    0.373827
  H      0.057077    1.920932   -1.194372
  H     -0.891617    1.843445    0.310849
  H      0.616484   -0.491429   -0.726485
  H     -0.430995   -2.451637   -0.706060
  H     -1.058608   -2.462534    2.299797
  H     -0.407951   -3.842959    1.390229
  H      0.558610   -2.370055    1.584203
  H     -3.144383   -2.409724    0.703998
  H     -2.905440   -2.297679   -1.029399

 Total Charge           Charge          ....    0
 Multiplicity           Mult            ....    1
 Number of Electrons    NEL             ....   68
 Basis Dimension        Dim             ....  339

ORBITAL ENERGIES
----------------

  NO   OCC          E(Eh)            E(eV)
   0   2.0000     -20.529320      -558.6312
   1   2.0000     -15.600758      -424.5182
   2   2.0000     -15.569269      -423.6613
   3   2.0000     -11.362685      -309.1944
   4   2.0000     -11.282216      -307.0047
   5   2.0000     -11.275625      -306.8253
   6   2.0000     -11.274078      -306.7833
   7   2.0000     -11.270418      -306.6837
   8   2.0000     -11.240692      -305.8748
   9   2.0000      -1.396019       -37.9876
  10   2.0000      -1.244882       -33.8750
  11   2.0000      -1.219960       -33.1968
  12   2.0000      -1.116361       -30.3777
  13   2.0000      -0.999182       -27.1891
  14   2.0000      -0.966785       -26.3075
  15   2.0000      -0.875483       -23.8231
  16   2.0000      -0.799384       -21.7523
  17   2.0000      -0.729386       -19.8476
  18   2.0000      -0.686603       -18.6834
  19   2.0000      -0.670501       -18.2453
  20   2.0000      -0.647915       -17.6307
  21   2.0000      -0.636141       -17.3103
  22   2.0000      -0.610361       -16.6088
  23   2.0000      -0.593813       -16.1585
  24   2.0000      -0.569081       -15.4855
  25   2.0000      -0.558700       -15.2030
  26   2.0000      -0.549448       -14.9512
  27   2.0000      -0.541439       -14.7333
  28   2.0000      -0.528580       -14.3834
  29   2.0000      -0.513952       -13.9853
  30   2.0000      -0.460541       -12.5320
  31   2.0000      -0.456997       -12.4355
  32   2.0000      -0.432035       -11.7563
  33   2.0000      -0.407546       -11.0899
  34   0.0000       0.108421         2.9503
  35   0.0000       0.143749         3.9116
  36   0.0000       0.151346         4.1183
  37   0.0000       0.154620         4.2074
  38   0.0000       0.169588         4.6147

MULLIKEN ATOMIC CHARGES
-----------------------
   0 C :   -0.288634
   1 N :   -0.324286
   2 C :    0.279697
   3 O :   -0.384320
   4 C :   -0.063377
   5 C :   -0.424700
   6 C :   -0.160530
   7 C :   -0.175109
   8 N :   -0.059405
   9 H :    0.138638
  10 H :    0.138736
  11 H :    0.179989
  12 H :    0.241975
  13 H :    0.107790
  14 H :    0.151535
  15 H :    0.163787
  16 H :    0.130121
  17 H :    0.186265
  18 H :    0.161828
Sum of atomic charges:   -0.0000000

LOEWDIN ATOMIC CHARGES
----------------------
   0 C :   -0.309005
   1 N :    0.088538
   2 C :   -0.439970
   3 O :    0.082270
   4 C :   -0.236817
   5 C :   -0.274297
   6 C :   -0.218325
   7 C :   -0.194172
   8 N :    0.053295
   9 H :    0.116573
  10 H :    0.116876
  11 H :    0.135779
  12 H :    0.185708
  13 H :    0.155429
  14 H :    0.134585
  15 H :    0.133823
  16 H :    0.125814
  17 H :    0.174991
  18 H :    0.168906

  Mayer bond orders larger than 0.1
B(  0-C ,  1-N ) :   0.8462 B(  0-C ,  9-H ) :   0.9353 B(  0-C , 10-H ) :   0.9335
B(  0-C , 11-H ) :   0.9265 B(  1-N ,  2-C ) :   1.1954 B(  1-N , 12-H ) :   0.8736
B(  2-C ,  3-O ) :   1.8801 B(  2-C ,  4-C ) :   0.8723 B(  4-C ,  5-C ) :   0.8929
B(  4-C ,  6-C ) :   0.9053 B(  4-C , 13-H ) :   0.9250 B(  5-C , 14-H ) :   0.9320
B(  5-C , 15-H ) :   0.9309 B(  5-C , 16-H ) :   0.9301 B(  6-C ,  7-C ) :   0.9012
B(  6-C , 17-H ) :   0.9106 B(  6-C , 18-H ) :   0.9069 B(  7-C ,  8-N ) :   2.8825

MP2 TOTAL ENERGY:     -418.556224050 Eh
FINAL SINGLE POINT ENERGY      -418.556224050346

DIPOLE MOMENT
-------------
                                X             Y             Z
Electronic contribution:     -4.90701      -4.82207      -1.55677
Nuclear contribution   :      6.32503       6.21849       1.10061
                        -----------------------------------------
Total Dipole Moment    :      1.41802       1.39641      -0.45616
                        -----------------------------------------
Magnitude (a.u.)       :      2.04177
Magnitude (Debye)      :      5.18978

                             ****ORCA TERMINATED NORMALLY****
TOTAL RUN TIME: 0 days 0 hours 16 minutes 21 seconds 798 msec
