                         Program Version 3.0.3 - RELEASE   -
|  1> ! RI-MP2 RIJK def2-TZVP def2-TZVP/C def2-TZVP/JK TIGHTSCF
|  2> % maxcore 2000
|  3> % mp2 density relaxed end
|  4> *xyz 0 1
|  5>  C       -0.2927772993     1.5788723891    -0.0188009914
|  6>  C        0.0268018499     0.0893273014     0.0668437814
|  7>  C        0.5839935942    -0.6247122135    -1.1676578433
|  8>  C        1.9458416122    -0.1730749878    -1.4983778175
|  9>  N        1.7908516385    -1.1763878403    -0.4218572343
| 10>  C        1.2965376724    -0.4403080161     0.8103596029
| 11>  C        2.3241702142     0.4706293189     1.4588446680
| 12>  O        3.4511109443    -0.2794532924     1.8798952621
| 13>  H        0.5437945347     2.1646464208    -0.4098787690
| 14>  H       -1.1510119905     1.7485193503    -0.6781143440
| 15>  H       -0.5497735747     1.9821769215     0.9665362605
| 16>  H       -0.8530015713    -0.4389163754     0.4446655202
| 17>  H        0.0053159494    -1.2514833331    -1.8393146142
| 18>  H        2.4101790539    -0.5953371283    -2.3842027496
| 19>  H        2.2694250657     0.8374092329    -1.2664360040
| 20>  H        1.0296872910    -1.2075138490     1.5423705367
| 21>  H        2.6231728985     1.2899685332     0.7870568864
| 22>  H        1.8980126517     0.9340863084     2.3560017958
| 23>  H        3.6830024951    -0.8647012005     1.1489133530
| 24> *
| 25>
| 26>                          ****END OF INPUT****

CARTESIAN COORDINATES (ANGSTROEM)
---------------------------------
  C     -0.292777    1.578872   -0.018801
  C      0.026802    0.089327    0.066844
  C      0.583994   -0.624712   -1.167658
  C      1.945842   -0.173075   -1.498378
  N      1.790852   -1.176388   -0.421857
  C      1.296538   -0.440308    0.810360
  C      2.324170    0.470629    1.458845
  O      3.451111   -0.279453    1.879895
  H      0.543795    2.164646   -0.409879
  H     -1.151012    1.748519   -0.678114
  H     -0.549774    1.982177    0.966536
  H     -0.853002   -0.438916    0.444666
  H      0.005316   -1.251483   -1.839315
  H      2.410179   -0.595337   -2.384203
  H      2.269425    0.837409   -1.266436
  H      1.029687   -1.207514    1.542371
  H      2.623173    1.289969    0.787057
  H      1.898013    0.934086    2.356002
  H      3.683002   -0.864701    1.148913

 Total Charge           Charge          ....    0
 Multiplicity           Mult            ....    1
 Number of Electrons    NEL             ....   62
 Basis Dimension        Dim             ....  314

ORBITAL ENERGIES
----------------

  NO   OCC          E(Eh)            E(eV)
   0   2.0000     -20.549854      -559.1900
   1   2.0000     -15.564012      -423.5183
   2   2.0000     -11.274431      -306.7929
   3   2.0000     -11.267223      -306.5967
   4   2.0000     -11.261153      -306.4315
   5   2.0000     -11.260066      -306.4020
   6   2.0000     -11.245731      -306.0119
   7   2.0000     -11.226903      -305.4996
   8   2.0000      -1.356937       -36.9241
   9   2.0000      -1.290354       -35.1123
  10   2.0000      -1.053086       -28.6559
  11   2.0000      -0.996750       -27.1229
  12   2.0000      -0.916085       -24.9279
  13   2.0000      -0.886521       -24.1235
  14   2.0000      -0.807821       -21.9819
  15   2.0000      -0.735688       -20.0191
  16   2.0000      -0.707701       -19.2575
  17   2.0000      -0.674031       -18.3413
  18   2.0000      -0.644321       -17.5329
  19   2.0000      -0.617043       -16.7906
  20   2.0000      -0.584738       -15.9115
  21   2.0000      -0.577504       -15.7147
  22   2.0000      -0.566245       -15.4083
  23   2.0000      -0.538481       -14.6528
  24   2.0000      -0.536510       -14.5992
  25   2.0000      -0.511949       -13.9308
  26   2.0000      -0.464544       -12.6409
  27   2.0000      -0.458207       -12.4685
  28   2.0000      -0.440146       -11.9770
  29   2.0000      -0.414727       -11.2853
  30   2.0000      -0.376974       -10.2580
  31   0.0000       0.130335         3.5466
  32   0.0000       0.148965         4.0535
  33   0.0000       0.158636         4.3167
  34   0.0000       0.172709         4.6997
  35   0.0000       0.192172         5.2293

MULLIKEN ATOMIC CHARGES
-----------------------
   0 C :   -0.408501
   1 C :   -0.047570
   2 C :   -0.083438
   3 C :   -0.166208
   4 N :   -0.277980
   5 C :   -0.084712
   6 C :    0.011239
   7 O :   -0.474373
   8 H :    0.122260
   9 H :    0.137422
  10 H :    0.135285
  11 H :    0.110923
  12 H :    0.129650
  13 H :    0.135364
  14 H :    0.128052
  15 H :    0.113362
  16 H :    0.078160
  17 H :    0.113479
  18 H :    0.327587
Sum of atomic charges:   -0.0000000

LOEWDIN ATOMIC CHARGES
----------------------
   0 C :   -0.294065
   1 C :   -0.228823
   2 C :   -0.195916
   3 C :   -0.254159
   4 N :    0.096859
   5 C :   -0.243129
   6 C :   -0.332654
   7 O :   -0.043350
   8 H :    0.120994
   9 H :    0.127567
  10 H :    0.125911
  11 H :    0.154290
  12 H :    0.132489
  13 H :    0.134086
  14 H :    0.123202
  15 H :    0.150535
  16 H :    0.114327
  17 H :    0.132382
  18 H :    0.179454

  Mayer bond orders larger than 0.1
B(  0-C ,  1-C ) :   0.9108 B(  0-C ,  8-H ) :   0.9355 B(  0-C ,  9-H ) :   0.9348
B(  0-C , 10-H ) :   0.9376 B(  1-C ,  2-C ) :   0.9191 B(  1-C ,  5-C ) :   0.9321
B(  1-C , 11-H ) :   0.9297 B(  2-C ,  3-C ) :   0.9410 B(  2-C ,  4-N ) :   0.9083
B(  2-C , 12-H ) :   0.9038 B(  3-C ,  4-N ) :   0.8472 B(  3-C , 13-H ) :   0.9324
B(  3-C , 14-H ) :   0.9108 B(  4-N ,  5-C ) :   0.8968 B(  5-C ,  6-C ) :   0.9816
B(  5-C , 15-H ) :   0.9191 B(  6-C ,  7-O ) :   0.9302 B(  6-C , 16-H ) :   0.9002
B(  6-C , 17-H ) :   0.9335 B(  7-O , 18-H ) :   0.8343

MP2 TOTAL ENERGY:     -364.394251007 Eh
FINAL SINGLE POINT ENERGY      -364.394251006618

DIPOLE MOMENT
-------------
                                X             Y             Z
Electronic contribution:      2.87993      -4.29414       0.63471
Nuclear contribution   :     -3.65941       4.80598      -1.23524
                        -----------------------------------------
Total Dipole Moment    :     -0.77948       0.51184      -0.60053
                        -----------------------------------------
Magnitude (a.u.)       :      1.10914
Magnitude (Debye)      :      2.81921

                             ****ORCA TERMINATED NORMALLY****
TOTAL RUN TIME: 0 days 0 hours 13 minutes 57 seconds 314 msec
