                         Program Version 3.0.3 - RELEASE   -
|  1> ! RI-MP2 RIJK def2-TZVP def2-TZVP/C def2-TZVP/JK TIGHTSCF
|  2> % maxcore 2000
|  3> % mp2 density relaxed end
|  4> *xyz 0 1
|  5>  C       -0.3048364425     1.4036364589    -0.0065165257
|  6>  N       -0.1523816189    -0.0377564168    -0.0238899815
|  7>  C        0.4732959555    -0.5740413777    -0.9735063122
|  8>  C        1.3480210888    -0.1460352996    -2.1855249497
|  9>  O        2.3724141222     0.7902481979    -1.9542311295
| 10>  C        1.8198854716    -1.6170447321    -2.1728608730
| 11>  C        2.9211057998    -2.0143126971    -1.1578924963
| 12>  C        1.7809311387    -2.5114614839    -0.2211785327
| 13>  N        0.7437209786    -1.9608220437    -1.1627019967
| 14>  H        0.2972307035     1.8336952344     0.8031283005
| 15>  H       -0.0292942735     1.9095423558    -0.9455764186
| 16>  H       -1.3495849219     1.6528695610     0.2087965713
| 17>  H        0.7665701970     0.0957095279    -3.0861689870
| 18>  H        1.9891508011     1.6724835265    -1.9518905904
| 19>  H        1.7999981335    -2.1551434325    -3.1223538706
| 20>  H        3.6210410170    -2.7766144614    -1.5037694532
| 21>  H        3.4822058309    -1.1592550355    -0.7769472760
| 22>  H        1.7014810198    -3.5986107520    -0.1448789400
| 23>  H        1.7205622388    -2.0739678300     0.7778554611
| 24> *
| 25>
| 26>                          ****END OF INPUT****

CARTESIAN COORDINATES (ANGSTROEM)
---------------------------------
  C     -0.304836    1.403636   -0.006517
  N     -0.152382   -0.037756   -0.023890
  C      0.473296   -0.574041   -0.973506
  C      1.348021   -0.146035   -2.185525
  O      2.372414    0.790248   -1.954231
  C      1.819885   -1.617045   -2.172861
  C      2.921106   -2.014313   -1.157892
  C      1.780931   -2.511461   -0.221179
  N      0.743721   -1.960822   -1.162702
  H      0.297231    1.833695    0.803128
  H     -0.029294    1.909542   -0.945576
  H     -1.349585    1.652870    0.208797
  H      0.766570    0.095710   -3.086169
  H      1.989151    1.672484   -1.951891
  H      1.799998   -2.155143   -3.122354
  H      3.621041   -2.776614   -1.503769
  H      3.482206   -1.159255   -0.776947
  H      1.701481   -3.598611   -0.144879
  H      1.720562   -2.073968    0.777855

 Total Charge           Charge          ....    0
 Multiplicity           Mult            ....    1
 Number of Electrons    NEL             ....   68
 Basis Dimension        Dim             ....  339

ORBITAL ENERGIES
----------------

  NO   OCC          E(Eh)            E(eV)
   0   2.0000     -20.579155      -559.9873
   1   2.0000     -15.556479      -423.3133
   2   2.0000     -15.542747      -422.9397
   3   2.0000     -11.305519      -307.6388
   4   2.0000     -11.300855      -307.5119
   5   2.0000     -11.267585      -306.6066
   6   2.0000     -11.260461      -306.4127
   7   2.0000     -11.251049      -306.1566
   8   2.0000     -11.231820      -305.6334
   9   2.0000      -1.389017       -37.7971
  10   2.0000      -1.294835       -35.2343
  11   2.0000      -1.204190       -32.7677
  12   2.0000      -1.025179       -27.8965
  13   2.0000      -0.986224       -26.8365
  14   2.0000      -0.930740       -25.3267
  15   2.0000      -0.859661       -23.3926
  16   2.0000      -0.797192       -21.6927
  17   2.0000      -0.732702       -19.9378
  18   2.0000      -0.699566       -19.0362
  19   2.0000      -0.677406       -18.4332
  20   2.0000      -0.664436       -18.0802
  21   2.0000      -0.635167       -17.2838
  22   2.0000      -0.595375       -16.2010
  23   2.0000      -0.582547       -15.8519
  24   2.0000      -0.579186       -15.7605
  25   2.0000      -0.542731       -14.7685
  26   2.0000      -0.530062       -14.4237
  27   2.0000      -0.525278       -14.2935
  28   2.0000      -0.489255       -13.3133
  29   2.0000      -0.482693       -13.1347
  30   2.0000      -0.458821       -12.4851
  31   2.0000      -0.425549       -11.5798
  32   2.0000      -0.385380       -10.4867
  33   2.0000      -0.354395        -9.6436
  34   0.0000       0.116306         3.1648
  35   0.0000       0.148434         4.0391
  36   0.0000       0.160630         4.3710
  37   0.0000       0.170397         4.6367
  38   0.0000       0.177029         4.8172

MULLIKEN ATOMIC CHARGES
-----------------------
   0 C :   -0.250804
   1 N :   -0.222379
   2 C :    0.061551
   3 C :   -0.042025
   4 O :   -0.448081
   5 C :    0.039347
   6 C :   -0.284228
   7 C :   -0.146576
   8 N :   -0.139048
   9 H :    0.143114
  10 H :    0.067001
  11 H :    0.146195
  12 H :    0.116296
  13 H :    0.323667
  14 H :    0.116143
  15 H :    0.124145
  16 H :    0.145420
  17 H :    0.125486
  18 H :    0.124776
Sum of atomic charges:   -0.0000000

LOEWDIN ATOMIC CHARGES
----------------------
   0 C :   -0.332086
   1 N :    0.093209
   2 C :   -0.306343
   3 C :   -0.289550
   4 O :   -0.002170
   5 C :   -0.180650
   6 C :   -0.221394
   7 C :   -0.226724
   8 N :    0.161863
   9 H :    0.120004
  10 H :    0.096347
  11 H :    0.119860
  12 H :    0.137804
  13 H :    0.175709
  14 H :    0.132212
  15 H :    0.129373
  16 H :    0.140045
  17 H :    0.125984
  18 H :    0.126507

  Mayer bond orders larger than 0.1
B(  0-C ,  1-N ) :   0.8716 B(  0-C ,  9-H ) :   0.9281 B(  0-C , 10-H ) :   0.9254
B(  0-C , 11-H ) :   0.9363 B(  1-N ,  2-C ) :   1.9154 B(  2-C ,  3-C ) :   0.8786
B(  2-C ,  8-N ) :   1.0299 B(  3-C ,  4-O ) :   1.0439 B(  3-C ,  5-C ) :   0.9219
B(  3-C , 12-H ) :   0.9193 B(  4-O , 13-H ) :   0.8390 B(  5-C ,  6-C ) :   0.9325
B(  5-C ,  8-N ) :   0.9126 B(  5-C , 14-H ) :   0.8990 B(  6-C ,  7-C ) :   0.9572
B(  6-C , 15-H ) :   0.9265 B(  6-C , 16-H ) :   0.9096 B(  7-C ,  8-N ) :   0.8765
B(  7-C , 17-H ) :   0.9237 B(  7-C , 18-H ) :   0.9288

MP2 TOTAL ENERGY:     -418.445965835 Eh
FINAL SINGLE POINT ENERGY      -418.445965835035

DIPOLE MOMENT
-------------
                                X             Y             Z
Electronic contribution:     -1.00930      -1.48077      -1.62084
Nuclear contribution   :      1.47233       2.06573       1.14463
                        -----------------------------------------
Total Dipole Moment    :      0.46303       0.58497      -0.47620
                        -----------------------------------------
Magnitude (a.u.)       :      0.88507
Magnitude (Debye)      :      2.24968

                             ****ORCA TERMINATED NORMALLY****
TOTAL RUN TIME: 0 days 0 hours 20 minutes 8 seconds 593 msec
