                         Program Version 3.0.3 - RELEASE   -
|  1> ! RI-MP2 RIJK def2-TZVP def2-TZVP/C def2-TZVP/JK TIGHTSCF
|  2> % maxcore 2000
|  3> % mp2 density relaxed end
|  4> *xyz 0 1
|  5>  C        0.3393644519     1.4738545118    -0.5090585712
|  6>  C        0.0162031675     0.0727414709    -0.0560518214
|  7>  O        1.1082313033    -0.8417865459     0.0968979706
|  8>  C        0.3512431874    -0.4921570342     1.2634186988
|  9>  C        1.0649147642     0.2334075296     2.3751661228
| 10>  C        0.0983408406     0.8613053371     3.4141678866
| 11>  C        0.8344031283     0.7976758066     4.7849960077
| 12>  C        2.2100244631     0.1520316199     4.4938394717
| 13>  C        1.9747503203    -0.6765918266     3.2238452865
| 14>  H        1.1953220567     1.8889920607     0.0262755390
| 15>  H        0.5768099009     1.4777933808    -1.5781865710
| 16>  H       -0.5230433221     2.1321590502    -0.3566170664
| 17>  H       -0.8452523266    -0.3685183940    -0.5636721486
| 18>  H       -0.2906648931    -1.3039417510     1.6205406657
| 19>  H        1.6908608228     1.0203649636     1.9414890775
| 20>  H       -0.1805569177     1.8809638609     3.1345587591
| 21>  H       -0.8333580674     0.2851705471     3.4538679787
| 22>  H        0.9352836509     1.7840286094     5.2458869637
| 23>  H        0.2673109810     0.1810417498     5.4893902335
| 24>  H        2.9563350587     0.9292491980     4.2895893814
| 25>  H        2.5859573576    -0.4403381011     5.3327775608
| 26>  H        1.4404498659    -1.6042628595     3.4714510385
| 27>  H        2.8932044458    -0.9577279941     2.7020084661
| 28> *
| 29>
| 30>                          ****END OF INPUT****

CARTESIAN COORDINATES (ANGSTROEM)
---------------------------------
  C      0.339364    1.473855   -0.509059
  C      0.016203    0.072741   -0.056052
  O      1.108231   -0.841787    0.096898
  C      0.351243   -0.492157    1.263419
  C      1.064915    0.233408    2.375166
  C      0.098341    0.861305    3.414168
  C      0.834403    0.797676    4.784996
  C      2.210024    0.152032    4.493839
  C      1.974750   -0.676592    3.223845
  H      1.195322    1.888992    0.026276
  H      0.576810    1.477793   -1.578187
  H     -0.523043    2.132159   -0.356617
  H     -0.845252   -0.368518   -0.563672
  H     -0.290665   -1.303942    1.620541
  H      1.690861    1.020365    1.941489
  H     -0.180557    1.880964    3.134559
  H     -0.833358    0.285171    3.453868
  H      0.935284    1.784029    5.245887
  H      0.267311    0.181042    5.489390
  H      2.956335    0.929249    4.289589
  H      2.585957   -0.440338    5.332778
  H      1.440450   -1.604263    3.471451
  H      2.893204   -0.957728    2.702008

 Total Charge           Charge          ....    0
 Multiplicity           Mult            ....    1
 Number of Electrons    NEL             ....   70
 Basis Dimension        Dim             ....  363

ORBITAL ENERGIES
----------------

  NO   OCC          E(Eh)            E(eV)
   0   2.0000     -20.555596      -559.3462
   1   2.0000     -11.281390      -306.9822
   2   2.0000     -11.277375      -306.8730
   3   2.0000     -11.226537      -305.4896
   4   2.0000     -11.222952      -305.3921
   5   2.0000     -11.221415      -305.3502
   6   2.0000     -11.218761      -305.2780
   7   2.0000     -11.216885      -305.2269
   8   2.0000     -11.215516      -305.1897
   9   2.0000      -1.400158       -38.1002
  10   2.0000      -1.123472       -30.5712
  11   2.0000      -1.009067       -27.4581
  12   2.0000      -0.990322       -26.9480
  13   2.0000      -0.961234       -26.1565
  14   2.0000      -0.879333       -23.9279
  15   2.0000      -0.814245       -22.1567
  16   2.0000      -0.779599       -21.2140
  17   2.0000      -0.756251       -20.5786
  18   2.0000      -0.689576       -18.7643
  19   2.0000      -0.653879       -17.7929
  20   2.0000      -0.645037       -17.5524
  21   2.0000      -0.594372       -16.1737
  22   2.0000      -0.584533       -15.9060
  23   2.0000      -0.575487       -15.6598
  24   2.0000      -0.561659       -15.2835
  25   2.0000      -0.542493       -14.7620
  26   2.0000      -0.515006       -14.0140
  27   2.0000      -0.490380       -13.3439
  28   2.0000      -0.479654       -13.0520
  29   2.0000      -0.472227       -12.8499
  30   2.0000      -0.470544       -12.8042
  31   2.0000      -0.462757       -12.5922
  32   2.0000      -0.454871       -12.3777
  33   2.0000      -0.433570       -11.7980
  34   2.0000      -0.406276       -11.0553
  35   0.0000       0.131471         3.5775
  36   0.0000       0.148733         4.0472
  37   0.0000       0.151886         4.1330
  38   0.0000       0.175740         4.7821
  39   0.0000       0.183637         4.9970

MULLIKEN ATOMIC CHARGES
-----------------------
   0 C :   -0.388741
   1 C :    0.052155
   2 O :   -0.344455
   3 C :    0.034455
   4 C :   -0.051186
   5 C :   -0.287205
   6 C :   -0.214888
   7 C :   -0.205581
   8 C :   -0.232196
   9 H :    0.134361
  10 H :    0.141196
  11 H :    0.127738
  12 H :    0.103086
  13 H :    0.117088
  14 H :    0.085673
  15 H :    0.120536
  16 H :    0.114601
  17 H :    0.116507
  18 H :    0.112523
  19 H :    0.104571
  20 H :    0.123411
  21 H :    0.104024
  22 H :    0.132328
Sum of atomic charges:    0.0000000

LOEWDIN ATOMIC CHARGES
----------------------
   0 C :   -0.296577
   1 C :   -0.292309
   2 O :    0.156778
   3 C :   -0.255658
   4 C :   -0.238348
   5 C :   -0.223776
   6 C :   -0.252874
   7 C :   -0.260814
   8 C :   -0.230778
   9 H :    0.125799
  10 H :    0.129960
  11 H :    0.129702
  12 H :    0.135028
  13 H :    0.139884
  14 H :    0.155460
  15 H :    0.133137
  16 H :    0.136858
  17 H :    0.131025
  18 H :    0.133175
  19 H :    0.135523
  20 H :    0.131420
  21 H :    0.139714
  22 H :    0.137670

  Mayer bond orders larger than 0.1
B(  0-C ,  1-C ) :   0.8849 B(  0-C ,  9-H ) :   0.9425 B(  0-C , 10-H ) :   0.9356
B(  0-C , 11-H ) :   0.9256 B(  1-C ,  2-O ) :   0.9105 B(  1-C ,  3-C ) :   0.9982
B(  1-C , 12-H ) :   0.9212 B(  2-O ,  3-C ) :   0.8647 B(  3-C ,  4-C ) :   0.8936
B(  3-C , 13-H ) :   0.8986 B(  4-C ,  5-C ) :   0.9175 B(  4-C ,  8-C ) :   0.9323
B(  4-C , 14-H ) :   0.9204 B(  5-C ,  6-C ) :   0.9243 B(  5-C , 15-H ) :   0.9304
B(  5-C , 16-H ) :   0.9291 B(  6-C ,  7-C ) :   0.9341 B(  6-C , 17-H ) :   0.9325
B(  6-C , 18-H ) :   0.9359 B(  7-C ,  8-C ) :   0.9303 B(  7-C , 19-H ) :   0.9288
B(  7-C , 20-H ) :   0.9332 B(  8-C , 21-H ) :   0.9290 B(  8-C , 22-H ) :   0.9265

MP2 TOTAL ENERGY:     -387.615858975 Eh
FINAL SINGLE POINT ENERGY      -387.615858975388

DIPOLE MOMENT
-------------
                                X             Y             Z
Electronic contribution:      0.12303      -3.63098      -4.21831
Nuclear contribution   :     -0.56445       4.11226       4.57533
                        -----------------------------------------
Total Dipole Moment    :     -0.44142       0.48128       0.35702
                        -----------------------------------------
Magnitude (a.u.)       :      0.74427
Magnitude (Debye)      :      1.89180

                             ****ORCA TERMINATED NORMALLY****
TOTAL RUN TIME: 0 days 0 hours 18 minutes 58 seconds 652 msec
