                         Program Version 3.0.3 - RELEASE   -
|  1> ! RI-MP2 RIJK def2-TZVP def2-TZVP/C def2-TZVP/JK TIGHTSCF
|  2> % maxcore 2000
|  3> % mp2 density relaxed end
|  4> *xyz 0 1
|  5>  O        0.5524852866     0.2685892926    -0.9655922798
|  6>  C       -0.0846620107    -0.4452018289     0.0329407341
|  7>  C        0.6024435710    -0.2863386320     1.3827305201
|  8>  N        1.6605936484     0.4022417158     1.4451791725
|  9>  O        0.0166426764    -0.8755600234     2.4494320614
| 10>  C       -1.2142774829    -1.5846667611     2.2137821735
| 11>  C       -2.2099062119    -0.7298626184     1.4337998750
| 12>  C       -1.5736789509    -0.0834424334     0.2009698311
| 13>  O       -2.1700600556     0.6353128893    -0.5520227158
| 14>  H        1.2993885004     0.7120778721    -0.5282368213
| 15>  H       -0.0837794205    -1.5291938794    -0.2026582120
| 16>  H        2.0341830799     0.4592443739     2.3914402768
| 17>  H       -0.9961696777    -2.5244609785     1.6916577626
| 18>  H       -1.5903899733    -1.8336443259     3.2071722000
| 19>  H       -3.0726347352    -1.3283292402     1.1232047427
| 20>  H       -2.5952847638     0.0811500875     2.0617720892
| 21> *
| 22>
| 23>                          ****END OF INPUT****

CARTESIAN COORDINATES (ANGSTROEM)
---------------------------------
  O      0.552485    0.268589   -0.965592
  C     -0.084662   -0.445202    0.032941
  C      0.602444   -0.286339    1.382731
  N      1.660594    0.402242    1.445179
  O      0.016643   -0.875560    2.449432
  C     -1.214277   -1.584667    2.213782
  C     -2.209906   -0.729863    1.433800
  C     -1.573679   -0.083442    0.200970
  O     -2.170060    0.635313   -0.552023
  H      1.299389    0.712078   -0.528237
  H     -0.083779   -1.529194   -0.202658
  H      2.034183    0.459244    2.391440
  H     -0.996170   -2.524461    1.691658
  H     -1.590390   -1.833644    3.207172
  H     -3.072635   -1.328329    1.123205
  H     -2.595285    0.081150    2.061772

 Total Charge           Charge          ....    0
 Multiplicity           Mult            ....    1
 Number of Electrons    NEL             ....   68
 Basis Dimension        Dim             ....  321

ORBITAL ENERGIES
----------------

  NO   OCC          E(Eh)            E(eV)
   0   2.0000     -20.624384      -561.2180
   1   2.0000     -20.563148      -559.5517
   2   2.0000     -20.562503      -559.5342
   3   2.0000     -15.558076      -423.3568
   4   2.0000     -11.366450      -309.2968
   5   2.0000     -11.349152      -308.8261
   6   2.0000     -11.326672      -308.2144
   7   2.0000     -11.320978      -308.0595
   8   2.0000     -11.267272      -306.5981
   9   2.0000      -1.459639       -39.7188
  10   2.0000      -1.412573       -38.4381
  11   2.0000      -1.379884       -37.5485
  12   2.0000      -1.220953       -33.2238
  13   2.0000      -1.092975       -29.7414
  14   2.0000      -1.019464       -27.7410
  15   2.0000      -0.920644       -25.0520
  16   2.0000      -0.830465       -22.5981
  17   2.0000      -0.762010       -20.7353
  18   2.0000      -0.746749       -20.3201
  19   2.0000      -0.718106       -19.5407
  20   2.0000      -0.709350       -19.3024
  21   2.0000      -0.651401       -17.7255
  22   2.0000      -0.649327       -17.6691
  23   2.0000      -0.640360       -17.4251
  24   2.0000      -0.617494       -16.8029
  25   2.0000      -0.612157       -16.6576
  26   2.0000      -0.571651       -15.5554
  27   2.0000      -0.544327       -14.8119
  28   2.0000      -0.523373       -14.2417
  29   2.0000      -0.495661       -13.4876
  30   2.0000      -0.486214       -13.2306
  31   2.0000      -0.468956       -12.7609
  32   2.0000      -0.433648       -11.8002
  33   2.0000      -0.407320       -11.0837
  34   0.0000       0.110366         3.0032
  35   0.0000       0.121623         3.3095
  36   0.0000       0.152988         4.1630
  37   0.0000       0.156152         4.2491
  38   0.0000       0.165955         4.5159

MULLIKEN ATOMIC CHARGES
-----------------------
   0 O :   -0.451876
   1 C :    0.140421
   2 C :    0.169367
   3 N :   -0.451312
   4 O :   -0.240033
   5 C :   -0.114896
   6 C :   -0.226982
   7 C :    0.126136
   8 O :   -0.241400
   9 H :    0.347577
  10 H :    0.120828
  11 H :    0.228963
  12 H :    0.134783
  13 H :    0.148959
  14 H :    0.155335
  15 H :    0.154129
Sum of atomic charges:   -0.0000000

LOEWDIN ATOMIC CHARGES
----------------------
   0 O :    0.029830
   1 C :   -0.315233
   2 C :   -0.397991
   3 N :   -0.060177
   4 O :    0.249486
   5 C :   -0.274988
   6 C :   -0.231786
   7 C :   -0.305982
   8 O :    0.187378
   9 H :    0.190840
  10 H :    0.166922
  11 H :    0.171859
  12 H :    0.130159
  13 H :    0.137653
  14 H :    0.160416
  15 H :    0.161613

  Mayer bond orders larger than 0.1
B(  0-O ,  1-C ) :   1.1547 B(  0-O ,  9-H ) :   0.7911 B(  1-C ,  2-C ) :   0.8728
B(  1-C ,  7-C ) :   0.8278 B(  1-C , 10-H ) :   0.9235 B(  2-C ,  3-N ) :   1.9104
B(  2-C ,  4-O ) :   1.1027 B(  3-N , 11-H ) :   0.8562 B(  4-O ,  5-C ) :   0.8534
B(  5-C ,  6-C ) :   0.9313 B(  5-C , 12-H ) :   0.9348 B(  5-C , 13-H ) :   0.9262
B(  6-C ,  7-C ) :   0.8723 B(  6-C , 14-H ) :   0.9064 B(  6-C , 15-H ) :   0.9039
B(  7-C ,  8-O ) :   2.0313

MP2 TOTAL ENERGY:     -474.298505503 Eh
FINAL SINGLE POINT ENERGY      -474.298505502889

DIPOLE MOMENT
-------------
                                X             Y             Z
Electronic contribution:      1.20665       2.44735      -2.14320
Nuclear contribution   :     -1.57290      -3.66939       3.61835
                        -----------------------------------------
Total Dipole Moment    :     -0.36625      -1.22204       1.47515
                        -----------------------------------------
Magnitude (a.u.)       :      1.95028
Magnitude (Debye)      :      4.95722

                             ****ORCA TERMINATED NORMALLY****
TOTAL RUN TIME: 0 days 0 hours 14 minutes 50 seconds 282 msec
