                         Program Version 3.0.3 - RELEASE   -
|  1> ! RI-MP2 RIJK def2-TZVP def2-TZVP/C def2-TZVP/JK TIGHTSCF
|  2> % maxcore 2000
|  3> % mp2 density relaxed end
|  4> *xyz 0 1
|  5>  N       -0.0984020647     1.3220141968     0.0818852781
|  6>  C       -0.0424737480    -0.0415420746     0.2237320797
|  7>  O        0.9918644879    -0.6181132930     0.5128807053
|  8>  C       -1.3229485344    -0.7573543873    -0.0348066329
|  9>  C       -1.4340287172    -2.0852638201     0.0661755203
| 10>  C       -2.8118887313    -2.5698213514    -0.2854268845
| 11>  C       -3.6598469396    -1.2690150990    -0.3285816942
| 12>  O       -4.3372085947    -1.0377117651     0.9010390030
| 13>  C       -2.6286667386    -0.1270157597    -0.4775426173
| 14>  H        0.7169676229     1.8405917314     0.3667412233
| 15>  H       -0.9764560246     1.8099811780     0.0467077426
| 16>  H       -0.6118136222    -2.7326187018     0.3456183562
| 17>  H       -2.8091521582    -3.0835248533    -1.2572870462
| 18>  H       -3.2174561868    -3.2846417433     0.4415581654
| 19>  H       -4.3777041870    -1.2797159817    -1.1599401964
| 20>  H       -4.9421755463    -1.7712462467     1.0509396629
| 21>  H       -2.9509540183     0.7187262832     0.1408017115
| 22>  H       -2.5686247088     0.2289523178    -1.5139865967
| 23> *
| 24>
| 25>                          ****END OF INPUT****

CARTESIAN COORDINATES (ANGSTROEM)
---------------------------------
  N     -0.098402    1.322014    0.081885
  C     -0.042474   -0.041542    0.223732
  O      0.991864   -0.618113    0.512881
  C     -1.322949   -0.757354   -0.034807
  C     -1.434029   -2.085264    0.066176
  C     -2.811889   -2.569821   -0.285427
  C     -3.659847   -1.269015   -0.328582
  O     -4.337209   -1.037712    0.901039
  C     -2.628667   -0.127016   -0.477543
  H      0.716968    1.840592    0.366741
  H     -0.976456    1.809981    0.046708
  H     -0.611814   -2.732619    0.345618
  H     -2.809152   -3.083525   -1.257287
  H     -3.217456   -3.284642    0.441558
  H     -4.377704   -1.279716   -1.159940
  H     -4.942176   -1.771246    1.050940
  H     -2.950954    0.718726    0.140802
  H     -2.568625    0.228952   -1.513987

 Total Charge           Charge          ....    0
 Multiplicity           Mult            ....    1
 Number of Electrons    NEL             ....   68
 Basis Dimension        Dim             ....  333

ORBITAL ENERGIES
----------------

  NO   OCC          E(Eh)            E(eV)
   0   2.0000     -20.564081      -559.5771
   1   2.0000     -20.508091      -558.0535
   2   2.0000     -15.578633      -423.9162
   3   2.0000     -11.348369      -308.8048
   4   2.0000     -11.295132      -307.3562
   5   2.0000     -11.245260      -305.9991
   6   2.0000     -11.240834      -305.8787
   7   2.0000     -11.239302      -305.8370
   8   2.0000     -11.236192      -305.7523
   9   2.0000      -1.373177       -37.3661
  10   2.0000      -1.371219       -37.3128
  11   2.0000      -1.205845       -32.8127
  12   2.0000      -1.141219       -31.0542
  13   2.0000      -0.987540       -26.8723
  14   2.0000      -0.977783       -26.6068
  15   2.0000      -0.843764       -22.9600
  16   2.0000      -0.804605       -21.8944
  17   2.0000      -0.746329       -20.3086
  18   2.0000      -0.722187       -19.6517
  19   2.0000      -0.706993       -19.2382
  20   2.0000      -0.673067       -18.3151
  21   2.0000      -0.624366       -16.9899
  22   2.0000      -0.619052       -16.8453
  23   2.0000      -0.584164       -15.8959
  24   2.0000      -0.573766       -15.6130
  25   2.0000      -0.550780       -14.9875
  26   2.0000      -0.546343       -14.8668
  27   2.0000      -0.541735       -14.7414
  28   2.0000      -0.519092       -14.1252
  29   2.0000      -0.486754       -13.2452
  30   2.0000      -0.449562       -12.2332
  31   2.0000      -0.421116       -11.4592
  32   2.0000      -0.411636       -11.2012
  33   2.0000      -0.358127        -9.7451
  34   0.0000       0.110872         3.0170
  35   0.0000       0.122304         3.3281
  36   0.0000       0.136791         3.7223
  37   0.0000       0.167221         4.5503
  38   0.0000       0.170646         4.6435

MULLIKEN ATOMIC CHARGES
-----------------------
   0 N :   -0.473408
   1 C :    0.232829
   2 O :   -0.353761
   3 C :   -0.032171
   4 C :   -0.154804
   5 C :   -0.184470
   6 C :    0.075443
   7 O :   -0.474649
   8 C :   -0.209159
   9 H :    0.256551
  10 H :    0.259086
  11 H :    0.157767
  12 H :    0.120095
  13 H :    0.112769
  14 H :    0.097229
  15 H :    0.312495
  16 H :    0.124653
  17 H :    0.133505
Sum of atomic charges:   -0.0000000

LOEWDIN ATOMIC CHARGES
----------------------
   0 N :   -0.017660
   1 C :   -0.447168
   2 O :    0.083435
   3 C :   -0.138594
   4 C :   -0.087195
   5 C :   -0.227446
   6 C :   -0.312088
   7 O :   -0.021816
   8 C :   -0.200139
   9 H :    0.173241
  10 H :    0.168384
  11 H :    0.150087
  12 H :    0.145852
  13 H :    0.139880
  14 H :    0.127997
  15 H :    0.173090
  16 H :    0.144663
  17 H :    0.145478

  Mayer bond orders larger than 0.1
B(  0-N ,  1-C ) :   1.1799 B(  0-N ,  9-H ) :   0.8620 B(  0-N , 10-H ) :   0.8677
B(  1-C ,  2-O ) :   2.0026 B(  1-C ,  3-C ) :   0.8964 B(  2-O ,  3-C ) :  -0.1166
B(  3-C ,  4-C ) :   1.7131 B(  3-C ,  8-C ) :   0.9229 B(  4-C ,  5-C ) :   0.9264
B(  4-C , 11-H ) :   0.9136 B(  5-C ,  6-C ) :   0.9364 B(  5-C , 12-H ) :   0.8911
B(  5-C , 13-H ) :   0.9250 B(  6-C ,  7-O ) :   0.9940 B(  6-C ,  8-C ) :   0.8990
B(  6-C , 14-H ) :   0.9537 B(  7-O , 15-H ) :   0.8466 B(  8-C , 16-H ) :   0.9147
B(  8-C , 17-H ) :   0.9040

MP2 TOTAL ENERGY:     -438.412160499 Eh
FINAL SINGLE POINT ENERGY      -438.412160499497

DIPOLE MOMENT
-------------
                                X             Y             Z
Electronic contribution:      4.46622       0.80867       1.72128
Nuclear contribution   :     -5.78984      -0.57758      -2.23395
                        -----------------------------------------
Total Dipole Moment    :     -1.32362       0.23108      -0.51267
                        -----------------------------------------
Magnitude (a.u.)       :      1.43812
Magnitude (Debye)      :      3.65541

                             ****ORCA TERMINATED NORMALLY****
TOTAL RUN TIME: 0 days 0 hours 17 minutes 3 seconds 129 msec
