                         Program Version 3.0.3 - RELEASE   -
|  1> ! RI-MP2 RIJK def2-TZVP def2-TZVP/C def2-TZVP/JK TIGHTSCF
|  2> % maxcore 2000
|  3> % mp2 density relaxed end
|  4> *xyz 0 1
|  5>  C        0.1568588702     1.3898241641     0.6446032994
|  6>  C        0.9776040946     2.2333780000    -0.2883787094
|  7>  C        1.7224815492     1.9690020995    -1.3832899140
|  8>  C        2.1499672676     0.8981938455    -2.2962336778
|  9>  C        2.2733491880    -0.4511215553    -2.5073273233
| 10>  C        1.9822015873    -1.7356618200    -1.9075742175
| 11>  C        1.2394086260    -2.0802944746    -0.8267466692
| 12>  C        0.6381738526    -1.0783516357    -0.0640877131
| 13>  C        0.2778806320    -0.0186839572     0.3845274122
| 14>  H        0.4575913668     1.6256376416     1.6769075652
| 15>  H       -0.8914708263     1.7225285414     0.5836236119
| 16>  H        0.9380980117     3.2863209659    -0.0136402002
| 17>  H        2.1358561696     2.8982980676    -1.7755141659
| 18>  H        2.5950400468     1.4095847071    -3.1498074806
| 19>  H        2.7796881323    -0.6237128799    -3.4566288684
| 20>  H        2.4179461114    -2.5637658911    -2.4626723420
| 21>  H        1.1181805502    -3.1271531889    -0.5678130573
| 22> *
| 23>
| 24>                          ****END OF INPUT****

CARTESIAN COORDINATES (ANGSTROEM)
---------------------------------
  C      0.156859    1.389824    0.644603
  C      0.977604    2.233378   -0.288379
  C      1.722482    1.969002   -1.383290
  C      2.149967    0.898194   -2.296234
  C      2.273349   -0.451122   -2.507327
  C      1.982202   -1.735662   -1.907574
  C      1.239409   -2.080294   -0.826747
  C      0.638174   -1.078352   -0.064088
  C      0.277881   -0.018684    0.384527
  H      0.457591    1.625638    1.676908
  H     -0.891471    1.722529    0.583624
  H      0.938098    3.286321   -0.013640
  H      2.135856    2.898298   -1.775514
  H      2.595040    1.409585   -3.149807
  H      2.779688   -0.623713   -3.456629
  H      2.417946   -2.563766   -2.462672
  H      1.118181   -3.127153   -0.567813

 Total Charge           Charge          ....    0
 Multiplicity           Mult            ....    1
 Number of Electrons    NEL             ....   62
 Basis Dimension        Dim             ....  327

ORBITAL ENERGIES
----------------

  NO   OCC          E(Eh)            E(eV)
   0   2.0000     -11.262607      -306.4711
   1   2.0000     -11.254870      -306.2606
   2   2.0000     -11.252424      -306.1940
   3   2.0000     -11.252027      -306.1832
   4   2.0000     -11.247664      -306.0645
   5   2.0000     -11.245528      -306.0064
   6   2.0000     -11.243403      -305.9485
   7   2.0000     -11.228217      -305.5353
   8   2.0000     -11.222154      -305.3703
   9   2.0000      -1.124568       -30.6011
  10   2.0000      -1.090387       -29.6709
  11   2.0000      -1.064194       -28.9582
  12   2.0000      -0.981353       -26.7040
  13   2.0000      -0.971568       -26.4377
  14   2.0000      -0.864853       -23.5339
  15   2.0000      -0.811803       -22.0903
  16   2.0000      -0.705105       -19.1869
  17   2.0000      -0.687822       -18.7166
  18   2.0000      -0.681537       -18.5456
  19   2.0000      -0.633239       -17.2313
  20   2.0000      -0.608950       -16.5704
  21   2.0000      -0.608292       -16.5525
  22   2.0000      -0.570760       -15.5312
  23   2.0000      -0.547807       -14.9066
  24   2.0000      -0.500308       -13.6141
  25   2.0000      -0.489036       -13.3073
  26   2.0000      -0.475426       -12.9370
  27   2.0000      -0.429714       -11.6931
  28   2.0000      -0.377310       -10.2671
  29   2.0000      -0.351391        -9.5618
  30   2.0000      -0.291007        -7.9187
  31   0.0000       0.054541         1.4841
  32   0.0000       0.134650         3.6640
  33   0.0000       0.145409         3.9568
  34   0.0000       0.149487         4.0677
  35   0.0000       0.163239         4.4419

MULLIKEN ATOMIC CHARGES
-----------------------
   0 C :   -0.144343
   1 C :   -0.161150
   2 C :   -0.150920
   3 C :   -0.106489
   4 C :   -0.165197
   5 C :   -0.063383
   6 C :   -0.181227
   7 C :   -0.045733
   8 C :   -0.026705
   9 H :    0.155453
  10 H :    0.157124
  11 H :    0.123720
  12 H :    0.115889
  13 H :    0.113937
  14 H :    0.115410
  15 H :    0.122997
  16 H :    0.140617
Sum of atomic charges:    0.0000000

LOEWDIN ATOMIC CHARGES
----------------------
   0 C :   -0.246610
   1 C :   -0.153236
   2 C :   -0.175684
   3 C :   -0.156454
   4 C :   -0.158579
   5 C :   -0.150219
   6 C :   -0.146110
   7 C :   -0.058744
   8 C :   -0.043479
   9 H :    0.173463
  10 H :    0.173908
  11 H :    0.150456
  12 H :    0.162135
  13 H :    0.161229
  14 H :    0.159880
  15 H :    0.153008
  16 H :    0.155035

  Mayer bond orders larger than 0.1
B(  0-C ,  1-C ) :   0.9296 B(  0-C ,  8-C ) :   0.9779 B(  0-C ,  9-H ) :   0.9075
B(  0-C , 10-H ) :   0.9007 B(  1-C ,  2-C ) :   1.7182 B(  1-C , 11-H ) :   0.9136
B(  2-C ,  3-C ) :   1.0522 B(  2-C , 12-H ) :   0.9184 B(  3-C ,  4-C ) :   1.6132
B(  3-C , 13-H ) :   0.9200 B(  4-C ,  5-C ) :   1.0834 B(  4-C , 14-H ) :   0.9162
B(  5-C ,  6-C ) :   1.6332 B(  5-C , 15-H ) :   0.9166 B(  6-C ,  7-C ) :   1.1276
B(  6-C , 16-H ) :   0.9178 B(  7-C ,  8-C ) :   2.4643

MP2 TOTAL ENERGY:     -346.830087485 Eh
FINAL SINGLE POINT ENERGY      -346.830087484746

DIPOLE MOMENT
-------------
                                X             Y             Z
Electronic contribution:     -1.20353      -2.84348       1.60626
Nuclear contribution   :      1.22372       3.16619      -1.60387
                        -----------------------------------------
Total Dipole Moment    :      0.02019       0.32272       0.00239
                        -----------------------------------------
Magnitude (a.u.)       :      0.32336
Magnitude (Debye)      :      0.82191

                             ****ORCA TERMINATED NORMALLY****
TOTAL RUN TIME: 0 days 0 hours 17 minutes 30 seconds 724 msec
