                         Program Version 3.0.3 - RELEASE   -
|  1> ! RI-MP2 RIJK def2-TZVP def2-TZVP/C def2-TZVP/JK TIGHTSCF
|  2> % maxcore 2000
|  3> % mp2 density relaxed end
|  4> *xyz 0 1
|  5>  O       -0.5742327066     0.6880734522    -0.7031263810
|  6>  C        0.3155436084     0.8295302919     0.0879683385
|  7>  C        1.4107029387     1.8620010363    -0.0173619293
|  8>  C        1.8574449868     2.4614299560     1.2709688662
|  9>  O        2.6180987241     1.4433735919     0.6582944172
| 10>  C        1.5543163041     2.5824327651    -1.2509908361
| 11>  C        1.6592220880     3.1750285588    -2.2898789247
| 12>  H        0.4264096957     0.1999936070     0.9981902441
| 13>  H        2.2782609277     3.4639842218     1.2353425169
| 14>  H        1.3473212670     2.1862268939     2.1939456067
| 15>  H        1.7515750061     3.6956869750    -3.2113552886
| 16> *
| 17>
| 18>                          ****END OF INPUT****

CARTESIAN COORDINATES (ANGSTROEM)
---------------------------------
  O     -0.574233    0.688073   -0.703126
  C      0.315544    0.829530    0.087968
  C      1.410703    1.862001   -0.017362
  C      1.857445    2.461430    1.270969
  O      2.618099    1.443374    0.658294
  C      1.554316    2.582433   -1.250991
  C      1.659222    3.175029   -2.289879
  H      0.426410    0.199994    0.998190
  H      2.278261    3.463984    1.235343
  H      1.347321    2.186227    2.193946
  H      1.751575    3.695687   -3.211355

 Total Charge           Charge          ....    0
 Multiplicity           Mult            ....    1
 Number of Electrons    NEL             ....   50
 Basis Dimension        Dim             ....  241

ORBITAL ENERGIES
----------------

  NO   OCC          E(Eh)            E(eV)
   0   2.0000     -20.612760      -560.9017
   1   2.0000     -20.578096      -559.9585
   2   2.0000     -11.354286      -308.9658
   3   2.0000     -11.344961      -308.7121
   4   2.0000     -11.325743      -308.1891
   5   2.0000     -11.253110      -306.2127
   6   2.0000     -11.248467      -306.0864
   7   2.0000      -1.458262       -39.6813
   8   2.0000      -1.416616       -38.5481
   9   2.0000      -1.073405       -29.2088
  10   2.0000      -0.992821       -27.0160
  11   2.0000      -0.928856       -25.2754
  12   2.0000      -0.859333       -23.3836
  13   2.0000      -0.743518       -20.2322
  14   2.0000      -0.718286       -19.5456
  15   2.0000      -0.713240       -19.4083
  16   2.0000      -0.666327       -18.1317
  17   2.0000      -0.625702       -17.0262
  18   2.0000      -0.605836       -16.4856
  19   2.0000      -0.567144       -15.4328
  20   2.0000      -0.511501       -13.9186
  21   2.0000      -0.488936       -13.3046
  22   2.0000      -0.451945       -12.2981
  23   2.0000      -0.414844       -11.2885
  24   2.0000      -0.396780       -10.7969
  25   0.0000       0.102923         2.8007
  26   0.0000       0.150653         4.0995
  27   0.0000       0.153941         4.1889
  28   0.0000       0.155489         4.2311
  29   0.0000       0.160771         4.3748

MULLIKEN ATOMIC CHARGES
-----------------------
   0 O :   -0.233686
   1 C :    0.054009
   2 C :   -0.017968
   3 C :   -0.052953
   4 O :   -0.296995
   5 C :    0.051848
   6 C :   -0.085167
   7 H :    0.103179
   8 H :    0.142238
   9 H :    0.133482
  10 H :    0.202012
Sum of atomic charges:    0.0000000

LOEWDIN ATOMIC CHARGES
----------------------
   0 O :    0.166855
   1 C :   -0.251141
   2 C :   -0.303636
   3 C :   -0.219842
   4 O :    0.200979
   5 C :   -0.060637
   6 C :   -0.048630
   7 H :    0.125164
   8 H :    0.132899
   9 H :    0.126254
  10 H :    0.131738

  Mayer bond orders larger than 0.1
B(  0-O ,  1-C ) :   2.0356 B(  1-C ,  2-C ) :   0.8681 B(  1-C ,  7-H ) :   0.9433
B(  2-C ,  3-C ) :   0.9328 B(  2-C ,  4-O ) :   0.8928 B(  2-C ,  5-C ) :   1.1398
B(  2-C ,  6-C ) :  -0.1477 B(  3-C ,  4-O ) :   0.8925 B(  3-C ,  8-H ) :   0.9057
B(  3-C ,  9-H ) :   0.9095 B(  5-C ,  6-C ) :   2.5951 B(  6-C , 10-H ) :   0.8817

MP2 TOTAL ENERGY:     -342.618353748 Eh
FINAL SINGLE POINT ENERGY      -342.618353747634

DIPOLE MOMENT
-------------
                                X             Y             Z
Electronic contribution:     -0.51239      -1.40032      -1.55722
Nuclear contribution   :      0.74379       2.10768       2.16008
                        -----------------------------------------
Total Dipole Moment    :      0.23140       0.70736       0.60286
                        -----------------------------------------
Magnitude (a.u.)       :      0.95778
Magnitude (Debye)      :      2.43449

                             ****ORCA TERMINATED NORMALLY****
TOTAL RUN TIME: 0 days 0 hours 5 minutes 53 seconds 339 msec
