                         Program Version 3.0.3 - RELEASE   -
|  1> ! RI-MP2 RIJK def2-TZVP def2-TZVP/C def2-TZVP/JK TIGHTSCF
|  2> % maxcore 2000
|  3> % mp2 density relaxed end
|  4> *xyz 0 1
|  5>  O        0.0134924521     0.0552269586    -0.0371699864
|  6>  C        0.0075257540     1.2520900043    -0.0057752163
|  7>  C       -1.1955856861     2.2175525290     0.0206729753
|  8>  C       -0.4093910355     3.5392194745     0.0549998884
|  9>  C        0.6863481182     3.2935559687    -1.0184835950
| 10>  C        1.2051341396     2.2238193793     0.0190972460
| 11>  C        0.6878504743     3.2372514481     1.1124581798
| 12>  C        2.5334188362     1.6840595783     0.0038959871
| 13>  C        3.6489630867     1.2360413273    -0.0086909259
| 14>  H       -1.8191717570     2.0898981838    -0.8694974422
| 15>  H       -1.8178097567     2.0430312519     0.9038145853
| 16>  H       -0.9810206806     4.4650087758     0.0798675597
| 17>  H        0.3854145797     2.9354860799    -2.0065056378
| 18>  H        1.3937489864     4.1194406555    -1.1097350624
| 19>  H        1.3954026811     4.0571978644     1.2461972193
| 20>  H        0.3883009830     2.8274931520     2.0806168760
| 21>  H        4.6300447248     0.8305577588    -0.0199403207
| 22> *
| 23>
| 24>                          ****END OF INPUT****

CARTESIAN COORDINATES (ANGSTROEM)
---------------------------------
  O      0.013492    0.055227   -0.037170
  C      0.007526    1.252090   -0.005775
  C     -1.195586    2.217553    0.020673
  C     -0.409391    3.539219    0.055000
  C      0.686348    3.293556   -1.018484
  C      1.205134    2.223819    0.019097
  C      0.687850    3.237251    1.112458
  C      2.533419    1.684060    0.003896
  C      3.648963    1.236041   -0.008691
  H     -1.819172    2.089898   -0.869497
  H     -1.817810    2.043031    0.903815
  H     -0.981021    4.465009    0.079868
  H      0.385415    2.935486   -2.006506
  H      1.393749    4.119441   -1.109735
  H      1.395403    4.057198    1.246197
  H      0.388301    2.827493    2.080617
  H      4.630045    0.830558   -0.019940

 Total Charge           Charge          ....    0
 Multiplicity           Mult            ....    1
 Number of Electrons    NEL             ....   64
 Basis Dimension        Dim             ....  327

ORBITAL ENERGIES
----------------

  NO   OCC          E(Eh)            E(eV)
   0   2.0000     -20.550974      -559.2204
   1   2.0000     -11.337366      -308.5054
   2   2.0000     -11.280012      -306.9447
   3   2.0000     -11.258844      -306.3687
   4   2.0000     -11.255333      -306.2732
   5   2.0000     -11.255286      -306.2719
   6   2.0000     -11.246256      -306.0262
   7   2.0000     -11.235947      -305.7457
   8   2.0000     -11.227858      -305.5256
   9   2.0000      -1.397314       -38.0228
  10   2.0000      -1.212417       -32.9915
  11   2.0000      -1.048690       -28.5363
  12   2.0000      -0.989239       -26.9186
  13   2.0000      -0.937159       -25.5014
  14   2.0000      -0.926527       -25.2121
  15   2.0000      -0.789629       -21.4869
  16   2.0000      -0.780798       -21.2466
  17   2.0000      -0.705340       -19.1933
  18   2.0000      -0.694623       -18.9017
  19   2.0000      -0.668874       -18.2010
  20   2.0000      -0.634207       -17.2576
  21   2.0000      -0.607255       -16.5242
  22   2.0000      -0.577482       -15.7141
  23   2.0000      -0.559723       -15.2309
  24   2.0000      -0.541548       -14.7363
  25   2.0000      -0.523922       -14.2566
  26   2.0000      -0.492433       -13.3998
  27   2.0000      -0.486339       -13.2340
  28   2.0000      -0.470160       -12.7937
  29   2.0000      -0.420949       -11.4546
  30   2.0000      -0.383708       -10.4412
  31   2.0000      -0.370515       -10.0822
  32   0.0000       0.129459         3.5228
  33   0.0000       0.147095         4.0027
  34   0.0000       0.149937         4.0800
  35   0.0000       0.150050         4.0831
  36   0.0000       0.162046         4.4095

MULLIKEN ATOMIC CHARGES
-----------------------
   0 O :   -0.237708
   1 C :    0.087118
   2 C :   -0.242890
   3 C :   -0.054339
   4 C :   -0.260648
   5 C :   -0.119337
   6 C :   -0.260638
   7 C :    0.055095
   8 C :   -0.123498
   9 H :    0.141242
  10 H :    0.141244
  11 H :    0.141459
  12 H :    0.133800
  13 H :    0.136204
  14 H :    0.136206
  15 H :    0.133800
  16 H :    0.192889
Sum of atomic charges:    0.0000000

LOEWDIN ATOMIC CHARGES
----------------------
   0 O :    0.175858
   1 C :   -0.266258
   2 C :   -0.196715
   3 C :   -0.203467
   4 C :   -0.144731
   5 C :   -0.198331
   6 C :   -0.144725
   7 C :   -0.066326
   8 C :   -0.075101
   9 H :    0.148919
  10 H :    0.148923
  11 H :    0.135653
  12 H :    0.134288
  13 H :    0.144894
  14 H :    0.144895
  15 H :    0.134289
  16 H :    0.127937

  Mayer bond orders larger than 0.1
B(  0-O ,  1-C ) :   2.0995 B(  0-O ,  5-C ) :  -0.1407 B(  1-C ,  2-C ) :   0.9393
B(  1-C ,  5-C ) :   0.8337 B(  2-C ,  3-C ) :   0.8879 B(  2-C ,  5-C ) :  -0.1280
B(  2-C ,  9-H ) :   0.9049 B(  2-C , 10-H ) :   0.9049 B(  3-C ,  4-C ) :   0.9040
B(  3-C ,  6-C ) :   0.9040 B(  3-C , 11-H ) :   0.9089 B(  4-C ,  5-C ) :   0.8636
B(  4-C , 12-H ) :   0.9199 B(  4-C , 13-H ) :   0.9204 B(  5-C ,  6-C ) :   0.8636
B(  5-C ,  7-C ) :   1.1546 B(  5-C ,  8-C ) :  -0.1644 B(  6-C , 14-H ) :   0.9204
B(  6-C , 15-H ) :   0.9199 B(  7-C ,  8-C ) :   2.6410 B(  8-C , 16-H ) :   0.8678

MP2 TOTAL ENERGY:     -383.982994337 Eh
FINAL SINGLE POINT ENERGY      -383.982994337167

DIPOLE MOMENT
-------------
                                X             Y             Z
Electronic contribution:      2.09389      -5.09058      -0.13612
Nuclear contribution   :     -2.27079       6.34899       0.16947
                        -----------------------------------------
Total Dipole Moment    :     -0.17690       1.25841       0.03335
                        -----------------------------------------
Magnitude (a.u.)       :      1.27122
Magnitude (Debye)      :      3.23118

                             ****ORCA TERMINATED NORMALLY****
TOTAL RUN TIME: 0 days 0 hours 18 minutes 40 seconds 696 msec
