                         Program Version 3.0.3 - RELEASE   -
|  1> ! RI-MP2 RIJK def2-TZVP def2-TZVP/C def2-TZVP/JK TIGHTSCF
|  2> % maxcore 2000
|  3> % mp2 density relaxed end
|  4> *xyz 0 1
|  5>  O       -0.0209975258     1.4634364455     0.2146230608
|  6>  C        0.0525804129     0.0597987411     0.0186639732
|  7>  C       -1.3611559575    -0.5004880309     0.1051263939
|  8>  C       -1.4157633691    -2.0177985363    -0.0930861929
|  9>  C       -2.8386723072    -2.5805362782    -0.0046490128
| 10>  C       -2.8918881319    -4.1064605514    -0.1950969624
| 11>  C       -4.3112059422    -4.6242093552    -0.2123898737
| 12>  O       -4.7486718177    -5.4772640022     0.5156980438
| 13>  H        0.8702709298     1.8214136764     0.1702370344
| 14>  H        0.4894480437    -0.1837193379    -0.9642133944
| 15>  H        0.6884840144    -0.4175736316     0.7826203826
| 16>  H       -1.7810738209    -0.2315445496     1.0821006357
| 17>  H       -1.9799740435     0.0019028383    -0.6485674235
| 18>  H       -0.9854917065    -2.2794460514    -1.0697894583
| 19>  H       -0.7850519515    -2.5114699452     0.6586049375
| 20>  H       -3.2746818495    -2.3221636943     0.9686318622
| 21>  H       -3.4698503008    -2.0960161660    -0.7616821968
| 22>  H       -2.4368752749    -4.3620465050    -1.1638325389
| 23>  H       -2.3371305739    -4.6313335102     0.5883170757
| 24>  H       -4.9632718980    -4.1366459558    -0.9765960662
| 25> *
| 26>
| 27>                          ****END OF INPUT****

CARTESIAN COORDINATES (ANGSTROEM)
---------------------------------
  O     -0.020998    1.463436    0.214623
  C      0.052580    0.059799    0.018664
  C     -1.361156   -0.500488    0.105126
  C     -1.415763   -2.017799   -0.093086
  C     -2.838672   -2.580536   -0.004649
  C     -2.891888   -4.106461   -0.195097
  C     -4.311206   -4.624209   -0.212390
  O     -4.748672   -5.477264    0.515698
  H      0.870271    1.821414    0.170237
  H      0.489448   -0.183719   -0.964213
  H      0.688484   -0.417574    0.782620
  H     -1.781074   -0.231545    1.082101
  H     -1.979974    0.001903   -0.648567
  H     -0.985492   -2.279446   -1.069789
  H     -0.785052   -2.511470    0.658605
  H     -3.274682   -2.322164    0.968632
  H     -3.469850   -2.096016   -0.761682
  H     -2.436875   -4.362047   -1.163833
  H     -2.337131   -4.631334    0.588317
  H     -4.963272   -4.136646   -0.976596

 Total Charge           Charge          ....    0
 Multiplicity           Mult            ....    1
 Number of Electrons    NEL             ....   64
 Basis Dimension        Dim             ....  320

ORBITAL ENERGIES
----------------

  NO   OCC          E(Eh)            E(eV)
   0   2.0000     -20.559027      -559.4396
   1   2.0000     -20.555687      -559.3487
   2   2.0000     -11.330494      -308.3184
   3   2.0000     -11.280103      -306.9472
   4   2.0000     -11.241947      -305.9089
   5   2.0000     -11.241252      -305.8900
   6   2.0000     -11.234427      -305.7043
   7   2.0000     -11.224988      -305.4474
   8   2.0000      -1.394394       -37.9434
   9   2.0000      -1.363182       -37.0941
  10   2.0000      -1.101230       -29.9660
  11   2.0000      -1.040949       -28.3257
  12   2.0000      -0.949682       -25.8422
  13   2.0000      -0.849564       -23.1178
  14   2.0000      -0.806069       -21.9343
  15   2.0000      -0.790657       -21.5149
  16   2.0000      -0.697914       -18.9912
  17   2.0000      -0.680053       -18.5052
  18   2.0000      -0.663490       -18.0545
  19   2.0000      -0.632005       -17.1977
  20   2.0000      -0.627949       -17.0874
  21   2.0000      -0.597540       -16.2599
  22   2.0000      -0.573781       -15.6134
  23   2.0000      -0.556422       -15.1410
  24   2.0000      -0.524211       -14.2645
  25   2.0000      -0.520128       -14.1534
  26   2.0000      -0.504686       -13.7332
  27   2.0000      -0.483460       -13.1556
  28   2.0000      -0.481048       -13.0900
  29   2.0000      -0.475088       -12.9278
  30   2.0000      -0.447785       -12.1848
  31   2.0000      -0.416022       -11.3205
  32   0.0000       0.126202         3.4341
  33   0.0000       0.133349         3.6286
  34   0.0000       0.139898         3.8068
  35   0.0000       0.156171         4.2496
  36   0.0000       0.160673         4.3721

MULLIKEN ATOMIC CHARGES
-----------------------
   0 O :   -0.465123
   1 C :   -0.063032
   2 C :   -0.154531
   3 C :   -0.250903
   4 C :   -0.273354
   5 C :   -0.128722
   6 C :    0.096411
   7 O :   -0.264433
   8 H :    0.315608
   9 H :    0.091151
  10 H :    0.092321
  11 H :    0.114108
  12 H :    0.112053
  13 H :    0.108770
  14 H :    0.113959
  15 H :    0.128462
  16 H :    0.116838
  17 H :    0.121148
  18 H :    0.121037
  19 H :    0.068233
Sum of atomic charges:   -0.0000000

LOEWDIN ATOMIC CHARGES
----------------------
   0 O :   -0.051748
   1 C :   -0.354316
   2 C :   -0.271462
   3 C :   -0.269070
   4 C :   -0.263383
   5 C :   -0.263659
   6 C :   -0.298176
   7 O :    0.129830
   8 H :    0.171945
   9 H :    0.113684
  10 H :    0.114054
  11 H :    0.141011
  12 H :    0.140349
  13 H :    0.137161
  14 H :    0.138719
  15 H :    0.141896
  16 H :    0.139211
  17 H :    0.150756
  18 H :    0.144664
  19 H :    0.108535

  Mayer bond orders larger than 0.1
B(  0-O ,  1-C ) :   1.0235 B(  0-O ,  8-H ) :   0.8492 B(  1-C ,  2-C ) :   0.9392
B(  1-C ,  9-H ) :   0.9329 B(  1-C , 10-H ) :   0.9326 B(  2-C ,  3-C ) :   0.9211
B(  2-C , 11-H ) :   0.9248 B(  2-C , 12-H ) :   0.9250 B(  3-C ,  4-C ) :   0.9363
B(  3-C , 13-H ) :   0.9266 B(  3-C , 14-H ) :   0.9256 B(  4-C ,  5-C ) :   0.9076
B(  4-C , 15-H ) :   0.9267 B(  4-C , 16-H ) :   0.9335 B(  5-C ,  6-C ) :   0.8787
B(  5-C , 17-H ) :   0.9141 B(  5-C , 18-H ) :   0.9043 B(  6-C ,  7-O ) :   2.0080
B(  6-C , 19-H ) :   0.9393

MP2 TOTAL ENERGY:     -385.513272336 Eh
FINAL SINGLE POINT ENERGY      -385.513272336363

DIPOLE MOMENT
-------------
                                X             Y             Z
Electronic contribution:     -4.34899      -3.79925       1.19794
Nuclear contribution   :      5.46951       4.31453      -1.80043
                        -----------------------------------------
Total Dipole Moment    :      1.12053       0.51529      -0.60249
                        -----------------------------------------
Magnitude (a.u.)       :      1.37262
Magnitude (Debye)      :      3.48893

                             ****ORCA TERMINATED NORMALLY****
TOTAL RUN TIME: 0 days 0 hours 11 minutes 3 seconds 174 msec
