                         Program Version 3.0.3 - RELEASE   -
|  1> ! RI-MP2 RIJK def2-TZVP def2-TZVP/C def2-TZVP/JK TIGHTSCF
|  2> % maxcore 2000
|  3> % mp2 density relaxed end
|  4> *xyz 0 1
|  5>  C       -0.9010185967     1.2311489124     0.2140859831
|  6>  C       -0.0812893630    -0.0221282362     0.0518655095
|  7>  O        1.2935894495     0.1216355724    -0.3259253289
|  8>  C        1.0040893436    -0.4673038608     0.9486026679
|  9>  C        1.5136816385     0.2325822711     2.1575643617
| 10>  C        0.7989112955     0.2722051297     3.4506094238
| 11>  N        1.0049107613     1.5469429834     2.7358318868
| 12>  C        2.4368455672     1.9277249103     3.0066695686
| 13>  C        2.9795204469     0.6381706405     2.3392614116
| 14>  H       -0.3886867453     1.9636144089     0.8368879738
| 15>  H       -1.1086066631     1.6631558788    -0.7709863380
| 16>  H       -1.8637415530     0.9900703389     0.6788329218
| 17>  H       -0.5866500942    -0.8217606499    -0.4965296166
| 18>  H        1.2017765572    -1.5434813640     0.9781895035
| 19>  H       -0.2407023507    -0.0412853530     3.4598543135
| 20>  H        1.3367013781     0.0957983279     4.3809256742
| 21>  H        2.6876969219     2.8430860351     2.4685250477
| 22>  H        2.6497282180     2.0684215394     4.0714378719
| 23>  H        3.6076243545    -0.0322873210     2.9330248848
| 24>  H        3.4679423739     0.8380820960     1.3845182696
| 25> *
| 26>
| 27>                          ****END OF INPUT****

CARTESIAN COORDINATES (ANGSTROEM)
---------------------------------
  C     -0.901019    1.231149    0.214086
  C     -0.081289   -0.022128    0.051866
  O      1.293589    0.121636   -0.325925
  C      1.004089   -0.467304    0.948603
  C      1.513682    0.232582    2.157564
  C      0.798911    0.272205    3.450609
  N      1.004911    1.546943    2.735832
  C      2.436846    1.927725    3.006670
  C      2.979520    0.638171    2.339261
  H     -0.388687    1.963614    0.836888
  H     -1.108607    1.663156   -0.770986
  H     -1.863742    0.990070    0.678833
  H     -0.586650   -0.821761   -0.496530
  H      1.201777   -1.543481    0.978190
  H     -0.240702   -0.041285    3.459854
  H      1.336701    0.095798    4.380926
  H      2.687697    2.843086    2.468525
  H      2.649728    2.068422    4.071438
  H      3.607624   -0.032287    2.933025
  H      3.467942    0.838082    1.384518

 Total Charge           Charge          ....    0
 Multiplicity           Mult            ....    1
 Number of Electrons    NEL             ....   68
 Basis Dimension        Dim             ....  345

ORBITAL ENERGIES
----------------

  NO   OCC          E(Eh)            E(eV)
   0   2.0000     -20.560326      -559.4749
   1   2.0000     -15.563399      -423.5016
   2   2.0000     -11.287201      -307.1404
   3   2.0000     -11.286429      -307.1194
   4   2.0000     -11.272623      -306.7437
   5   2.0000     -11.260779      -306.4214
   6   2.0000     -11.256955      -306.3173
   7   2.0000     -11.231992      -305.6380
   8   2.0000     -11.210694      -305.0585
   9   2.0000      -1.405507       -38.2458
  10   2.0000      -1.293429       -35.1960
  11   2.0000      -1.012492       -27.5513
  12   2.0000      -0.999624       -27.2012
  13   2.0000      -0.979894       -26.6643
  14   2.0000      -0.890841       -24.2410
  15   2.0000      -0.840884       -22.8816
  16   2.0000      -0.804933       -21.9033
  17   2.0000      -0.720805       -19.6141
  18   2.0000      -0.700462       -19.0605
  19   2.0000      -0.673038       -18.3143
  20   2.0000      -0.638753       -17.3814
  21   2.0000      -0.626471       -17.0472
  22   2.0000      -0.582989       -15.8639
  23   2.0000      -0.561141       -15.2694
  24   2.0000      -0.551366       -15.0034
  25   2.0000      -0.549567       -14.9545
  26   2.0000      -0.529479       -14.4079
  27   2.0000      -0.512506       -13.9460
  28   2.0000      -0.494532       -13.4569
  29   2.0000      -0.461121       -12.5477
  30   2.0000      -0.446295       -12.1443
  31   2.0000      -0.422056       -11.4847
  32   2.0000      -0.413297       -11.2464
  33   2.0000      -0.373511       -10.1637
  34   0.0000       0.145267         3.9529
  35   0.0000       0.155574         4.2334
  36   0.0000       0.160191         4.3590
  37   0.0000       0.177885         4.8405
  38   0.0000       0.180266         4.9053

MULLIKEN ATOMIC CHARGES
-----------------------
   0 C :   -0.388566
   1 C :    0.071046
   2 O :   -0.344199
   3 C :   -0.060886
   4 C :    0.152402
   5 C :   -0.180567
   6 N :   -0.275647
   7 C :   -0.145208
   8 C :   -0.223113
   9 H :    0.169900
  10 H :    0.131778
  11 H :    0.118660
  12 H :    0.100655
  13 H :    0.119405
  14 H :    0.134032
  15 H :    0.120824
  16 H :    0.126995
  17 H :    0.114799
  18 H :    0.121609
  19 H :    0.136081
Sum of atomic charges:   -0.0000000

LOEWDIN ATOMIC CHARGES
----------------------
   0 C :   -0.297591
   1 C :   -0.280253
   2 O :    0.160446
   3 C :   -0.242066
   4 C :   -0.243232
   5 C :   -0.222290
   6 N :    0.112408
   7 C :   -0.242194
   8 C :   -0.204001
   9 H :    0.134492
  10 H :    0.128095
  11 H :    0.129028
  12 H :    0.135330
  13 H :    0.146058
  14 H :    0.136031
  15 H :    0.128261
  16 H :    0.128380
  17 H :    0.120518
  18 H :    0.128768
  19 H :    0.143812

  Mayer bond orders larger than 0.1
B(  0-C ,  1-C ) :   0.8765 B(  0-C ,  9-H ) :   0.9303 B(  0-C , 10-H ) :   0.9298
B(  0-C , 11-H ) :   0.9252 B(  1-C ,  2-O ) :   0.9187 B(  1-C ,  3-C ) :   0.9796
B(  1-C , 12-H ) :   0.9218 B(  2-O ,  3-C ) :   0.8337 B(  3-C ,  4-C ) :   0.9330
B(  3-C , 13-H ) :   0.9137 B(  4-C ,  5-C ) :   0.9191 B(  4-C ,  6-N ) :   0.7893
B(  4-C ,  8-C ) :   0.8850 B(  5-C ,  6-N ) :   0.9233 B(  5-C , 14-H ) :   0.9203
B(  5-C , 15-H ) :   0.9086 B(  6-N ,  7-C ) :   0.8898 B(  7-C ,  8-C ) :   0.9747
B(  7-C , 16-H ) :   0.9224 B(  7-C , 17-H ) :   0.9332 B(  8-C , 18-H ) :   0.9131
B(  8-C , 19-H ) :   0.9217

MP2 TOTAL ENERGY:     -402.388697528 Eh
FINAL SINGLE POINT ENERGY      -402.388697527502

DIPOLE MOMENT
-------------
                                X             Y             Z
Electronic contribution:      1.34465      -1.59468      -1.57685
Nuclear contribution   :     -1.33678       1.13613       2.23518
                        -----------------------------------------
Total Dipole Moment    :      0.00787      -0.45855       0.65833
                        -----------------------------------------
Magnitude (a.u.)       :      0.80233
Magnitude (Debye)      :      2.03935

                             ****ORCA TERMINATED NORMALLY****
TOTAL RUN TIME: 0 days 0 hours 18 minutes 53 seconds 23 msec
