                         Program Version 3.0.3 - RELEASE   -
|  1> ! RI-MP2 RIJK def2-TZVP def2-TZVP/C def2-TZVP/JK TIGHTSCF
|  2> % maxcore 2000
|  3> % mp2 density relaxed end
|  4> *xyz 0 1
|  5>  O        0.0568495425     1.4810139314    -0.1098870874
|  6>  C        0.0582889140     0.0732976770     0.0684473558
|  7>  C       -1.3626218269    -0.4285075420    -0.1672304637
|  8>  C       -1.4763171155    -1.9380789812    -0.0250355284
|  9>  C       -1.4642400651    -2.6887091072     1.3369157901
| 10>  C       -2.5927890644    -2.0341875610     2.1611614950
| 11>  C       -3.6839830736    -2.0425751192     1.0433093422
| 12>  C       -2.8271270899    -2.6987836279    -0.0600269238
| 13>  O       -2.1752586267    -3.7816598186     0.6763953003
| 14>  H        0.9503323893     1.8047507796     0.0367310142
| 15>  H        0.7477820651    -0.4188110112    -0.6369634254
| 16>  H        0.3867824105    -0.1993020095     1.0851277361
| 17>  H       -2.0300886078     0.0961489046     0.5237389237
| 18>  H       -1.6675820966    -0.1316077280    -1.1785370243
| 19>  H       -0.7833181317    -2.4500892469    -0.6992503454
| 20>  H       -0.5502726840    -2.9971059040     1.8453999093
| 21>  H       -2.8613642543    -2.6564051702     3.0169341974
| 22>  H       -2.3416717878    -1.0342270761     2.5249878518
| 23>  H       -4.5411704442    -2.6695469255     1.2959746164
| 24>  H       -4.0481850686    -1.0475459088     0.7744874545
| 25>  H       -3.3084059541    -3.0144217550    -0.9861747483
| 26> *
| 27>
| 28>                          ****END OF INPUT****

CARTESIAN COORDINATES (ANGSTROEM)
---------------------------------
  O      0.056850    1.481014   -0.109887
  C      0.058289    0.073298    0.068447
  C     -1.362622   -0.428508   -0.167230
  C     -1.476317   -1.938079   -0.025036
  C     -1.464240   -2.688709    1.336916
  C     -2.592789   -2.034188    2.161161
  C     -3.683983   -2.042575    1.043309
  C     -2.827127   -2.698784   -0.060027
  O     -2.175259   -3.781660    0.676395
  H      0.950332    1.804751    0.036731
  H      0.747782   -0.418811   -0.636963
  H      0.386782   -0.199302    1.085128
  H     -2.030089    0.096149    0.523739
  H     -1.667582   -0.131608   -1.178537
  H     -0.783318   -2.450089   -0.699250
  H     -0.550273   -2.997106    1.845400
  H     -2.861364   -2.656405    3.016934
  H     -2.341672   -1.034227    2.524988
  H     -4.541170   -2.669547    1.295975
  H     -4.048185   -1.047546    0.774487
  H     -3.308406   -3.014422   -0.986175

 Total Charge           Charge          ....    0
 Multiplicity           Mult            ....    1
 Number of Electrons    NEL             ....   70
 Basis Dimension        Dim             ....  351

ORBITAL ENERGIES
----------------

  NO   OCC          E(Eh)            E(eV)
   0   2.0000     -20.559577      -559.4545
   1   2.0000     -20.543360      -559.0133
   2   2.0000     -11.283306      -307.0344
   3   2.0000     -11.282932      -307.0242
   4   2.0000     -11.281028      -306.9724
   5   2.0000     -11.233902      -305.6900
   6   2.0000     -11.224382      -305.4310
   7   2.0000     -11.224162      -305.4250
   8   2.0000     -11.223665      -305.4114
   9   2.0000      -1.384765       -37.6814
  10   2.0000      -1.363757       -37.1097
  11   2.0000      -1.089425       -29.6448
  12   2.0000      -1.033351       -28.1189
  13   2.0000      -0.955416       -25.9982
  14   2.0000      -0.944387       -25.6981
  15   2.0000      -0.837814       -22.7981
  16   2.0000      -0.782618       -21.2961
  17   2.0000      -0.743096       -20.2207
  18   2.0000      -0.707411       -19.2496
  19   2.0000      -0.696621       -18.9560
  20   2.0000      -0.662672       -18.0322
  21   2.0000      -0.630055       -17.1447
  22   2.0000      -0.601950       -16.3799
  23   2.0000      -0.595077       -16.1929
  24   2.0000      -0.564942       -15.3728
  25   2.0000      -0.539714       -14.6864
  26   2.0000      -0.508965       -13.8496
  27   2.0000      -0.498725       -13.5710
  28   2.0000      -0.495251       -13.4765
  29   2.0000      -0.492169       -13.3926
  30   2.0000      -0.487654       -13.2697
  31   2.0000      -0.458619       -12.4797
  32   2.0000      -0.449142       -12.2218
  33   2.0000      -0.429815       -11.6959
  34   2.0000      -0.409869       -11.1531
  35   0.0000       0.129749         3.5306
  36   0.0000       0.147642         4.0176
  37   0.0000       0.160699         4.3728
  38   0.0000       0.163441         4.4474
  39   0.0000       0.174548         4.7497

MULLIKEN ATOMIC CHARGES
-----------------------
   0 O :   -0.462778
   1 C :   -0.082334
   2 C :   -0.194045
   3 C :   -0.082855
   4 C :   -0.015642
   5 C :   -0.234585
   6 C :   -0.240796
   7 C :    0.031383
   8 O :   -0.314844
   9 H :    0.316107
  10 H :    0.097748
  11 H :    0.096507
  12 H :    0.122397
  13 H :    0.120018
  14 H :    0.109952
  15 H :    0.124979
  16 H :    0.122044
  17 H :    0.118803
  18 H :    0.121693
  19 H :    0.120461
  20 H :    0.125787
Sum of atomic charges:    0.0000000

LOEWDIN ATOMIC CHARGES
----------------------
   0 O :   -0.050169
   1 C :   -0.348513
   2 C :   -0.249770
   3 C :   -0.203919
   4 C :   -0.245460
   5 C :   -0.232749
   6 C :   -0.232046
   7 C :   -0.239937
   8 O :    0.155427
   9 H :    0.172334
  10 H :    0.115603
  11 H :    0.115061
  12 H :    0.143473
  13 H :    0.146195
  14 H :    0.158938
  15 H :    0.128990
  16 H :    0.135664
  17 H :    0.132267
  18 H :    0.135535
  19 H :    0.132772
  20 H :    0.130306

  Mayer bond orders larger than 0.1
B(  0-O ,  1-C ) :   1.0260 B(  0-O ,  2-C ) :  -0.1003 B(  0-O ,  9-H ) :   0.8484
B(  1-C ,  2-C ) :   0.9251 B(  1-C , 10-H ) :   0.9343 B(  1-C , 11-H ) :   0.9304
B(  2-C ,  3-C ) :   0.8871 B(  2-C , 12-H ) :   0.9204 B(  2-C , 13-H ) :   0.9197
B(  3-C ,  4-C ) :   0.9478 B(  3-C ,  7-C ) :   0.9393 B(  3-C , 14-H ) :   0.9129
B(  4-C ,  5-C ) :   0.9231 B(  4-C ,  8-O ) :   0.9409 B(  4-C , 15-H ) :   0.9092
B(  5-C ,  6-C ) :   0.9675 B(  5-C , 16-H ) :   0.9188 B(  5-C , 17-H ) :   0.9257
B(  6-C ,  7-C ) :   0.9426 B(  6-C , 18-H ) :   0.9207 B(  6-C , 19-H ) :   0.9259
B(  7-C ,  8-O ) :   0.9297 B(  7-C , 20-H ) :   0.9079

MP2 TOTAL ENERGY:     -423.503847215 Eh
FINAL SINGLE POINT ENERGY      -423.503847215152

DIPOLE MOMENT
-------------
                                X             Y             Z
Electronic contribution:      0.47690      -2.68987      -0.95277
Nuclear contribution   :      0.04540       3.14277       1.05842
                        -----------------------------------------
Total Dipole Moment    :      0.52231       0.45290       0.10565
                        -----------------------------------------
Magnitude (a.u.)       :      0.69934
Magnitude (Debye)      :      1.77759

                             ****ORCA TERMINATED NORMALLY****
TOTAL RUN TIME: 0 days 0 hours 17 minutes 37 seconds 777 msec
