                         Program Version 3.0.3 - RELEASE   -
|  1> ! RI-MP2 RIJK def2-TZVP def2-TZVP/C def2-TZVP/JK TIGHTSCF
|  2> % maxcore 2000
|  3> % mp2 density relaxed end
|  4> *xyz 0 1
|  5>  O        0.0986718099     1.4394802183     0.1366802112
|  6>  C        0.0904189547     0.0263288798     0.0179878784
|  7>  C       -1.3677964138    -0.4282978761     0.0090772935
|  8>  C       -1.5216113654    -1.9616297685    -0.1489389476
|  9>  C       -2.7009431867    -2.3711382982     0.7901470542
| 10>  C       -2.8186972014    -1.1758331474     1.7260329223
| 11>  C       -2.1040128281    -0.1405811681     1.2963534303
| 12>  C       -3.9543363229    -2.6124601806     0.0641026962
| 13>  N       -4.9418828938    -2.8004133455    -0.5070844011
| 14>  H        1.0120622260     1.7381962629     0.1675889083
| 15>  H        0.5836735543    -0.3022120865    -0.9110320004
| 16>  H        0.6167277778    -0.4515813454     0.8606515951
| 17>  H       -1.8597310178     0.1044562624    -0.8165486712
| 18>  H       -1.6860145578    -2.2734944190    -1.1813163012
| 19>  H       -0.6147088240    -2.4611475558     0.2074454054
| 20>  H       -2.4691968701    -3.2951184047     1.3329751922
| 21>  H       -3.4560084645    -1.2007779561     2.6013415814
| 22>  H       -2.0455898163     0.8276795887     1.7782261330
| 23> *
| 24>
| 25>                          ****END OF INPUT****

CARTESIAN COORDINATES (ANGSTROEM)
---------------------------------
  O      0.098672    1.439480    0.136680
  C      0.090419    0.026329    0.017988
  C     -1.367796   -0.428298    0.009077
  C     -1.521611   -1.961630   -0.148939
  C     -2.700943   -2.371138    0.790147
  C     -2.818697   -1.175833    1.726033
  C     -2.104013   -0.140581    1.296353
  C     -3.954336   -2.612460    0.064103
  N     -4.941883   -2.800413   -0.507084
  H      1.012062    1.738196    0.167589
  H      0.583674   -0.302212   -0.911032
  H      0.616728   -0.451581    0.860652
  H     -1.859731    0.104456   -0.816549
  H     -1.686015   -2.273494   -1.181316
  H     -0.614709   -2.461148    0.207445
  H     -2.469197   -3.295118    1.332975
  H     -3.456008   -1.200778    2.601342
  H     -2.045590    0.827680    1.778226

 Total Charge           Charge          ....    0
 Multiplicity           Mult            ....    1
 Number of Electrons    NEL             ....   66
 Basis Dimension        Dim             ....  333

ORBITAL ENERGIES
----------------

  NO   OCC          E(Eh)            E(eV)
   0   2.0000     -20.570101      -559.7409
   1   2.0000     -15.563222      -423.4968
   2   2.0000     -11.291646      -307.2613
   3   2.0000     -11.288334      -307.1712
   4   2.0000     -11.267066      -306.5924
   5   2.0000     -11.252941      -306.2081
   6   2.0000     -11.248078      -306.0758
   7   2.0000     -11.246816      -306.0414
   8   2.0000     -11.243331      -305.9466
   9   2.0000      -1.375239       -37.4222
  10   2.0000      -1.215687       -33.0805
  11   2.0000      -1.163056       -31.6484
  12   2.0000      -1.035531       -28.1782
  13   2.0000      -1.001155       -27.2428
  14   2.0000      -0.910025       -24.7630
  15   2.0000      -0.824299       -22.4303
  16   2.0000      -0.755661       -20.5626
  17   2.0000      -0.715224       -19.4622
  18   2.0000      -0.708003       -19.2657
  19   2.0000      -0.684023       -18.6132
  20   2.0000      -0.651751       -17.7350
  21   2.0000      -0.607325       -16.5262
  22   2.0000      -0.573528       -15.6065
  23   2.0000      -0.565364       -15.3843
  24   2.0000      -0.543540       -14.7905
  25   2.0000      -0.536969       -14.6117
  26   2.0000      -0.517454       -14.0806
  27   2.0000      -0.508428       -13.8350
  28   2.0000      -0.502300       -13.6683
  29   2.0000      -0.459414       -12.5013
  30   2.0000      -0.449635       -12.2352
  31   2.0000      -0.446737       -12.1563
  32   2.0000      -0.373473       -10.1627
  33   0.0000       0.117916         3.2087
  34   0.0000       0.131500         3.5783
  35   0.0000       0.141861         3.8602
  36   0.0000       0.155979         4.2444
  37   0.0000       0.156779         4.2662

MULLIKEN ATOMIC CHARGES
-----------------------
   0 O :   -0.469639
   1 C :   -0.095940
   2 C :    0.040718
   3 C :   -0.318452
   4 C :    0.147887
   5 C :   -0.153210
   6 C :   -0.212857
   7 C :   -0.237044
   8 N :   -0.059588
   9 H :    0.318974
  10 H :    0.107711
  11 H :    0.099031
  12 H :    0.113412
  13 H :    0.154984
  14 H :    0.130036
  15 H :    0.141867
  16 H :    0.146296
  17 H :    0.145814
Sum of atomic charges:    0.0000000

LOEWDIN ATOMIC CHARGES
----------------------
   0 O :   -0.042411
   1 C :   -0.330067
   2 C :   -0.232021
   3 C :   -0.169234
   4 C :   -0.213173
   5 C :   -0.121194
   6 C :   -0.115347
   7 C :   -0.167603
   8 N :    0.057148
   9 H :    0.174692
  10 H :    0.119718
  11 H :    0.118346
  12 H :    0.164481
  13 H :    0.144558
  14 H :    0.145589
  15 H :    0.174497
  16 H :    0.143808
  17 H :    0.148213

  Mayer bond orders larger than 0.1
B(  0-O ,  1-C ) :   1.0245 B(  0-O ,  9-H ) :   0.8457 B(  1-C ,  2-C ) :   0.9097
B(  1-C , 10-H ) :   0.9333 B(  1-C , 11-H ) :   0.9164 B(  2-C ,  3-C ) :   0.9274
B(  2-C ,  6-C ) :   0.9261 B(  2-C , 12-H ) :   0.9057 B(  3-C ,  4-C ) :   0.8653
B(  3-C , 13-H ) :   0.9306 B(  3-C , 14-H ) :   0.9249 B(  4-C ,  5-C ) :   0.8765
B(  4-C ,  7-C ) :   0.9136 B(  4-C , 15-H ) :   0.9152 B(  5-C ,  6-C ) :   1.7795
B(  5-C , 16-H ) :   0.9192 B(  6-C , 17-H ) :   0.9279 B(  7-C ,  8-N ) :   2.8753

MP2 TOTAL ENERGY:     -401.278103165 Eh
FINAL SINGLE POINT ENERGY      -401.278103164850

DIPOLE MOMENT
-------------
                                X             Y             Z
Electronic contribution:     -5.91870      -1.74426      -0.13523
Nuclear contribution   :      7.87219       1.91522       0.74745
                        -----------------------------------------
Total Dipole Moment    :      1.95349       0.17096       0.61222
                        -----------------------------------------
Magnitude (a.u.)       :      2.05430
Magnitude (Debye)      :      5.22163

                             ****ORCA TERMINATED NORMALLY****
TOTAL RUN TIME: 0 days 0 hours 27 minutes 41 seconds 610 msec
