                         Program Version 3.0.3 - RELEASE   -
|  1> ! RI-MP2 RIJK def2-TZVP def2-TZVP/C def2-TZVP/JK TIGHTSCF
|  2> % maxcore 2000
|  3> % mp2 density relaxed end
|  4> *xyz 0 1
|  5>  C        0.0323488176     1.5559275472     0.1601084570
|  6>  C       -0.0730388249     0.0415827035    -0.0420985081
|  7>  O       -1.4240823627    -0.3739885277    -0.1839448632
|  8>  C        0.7404120329    -0.4461892957    -1.2419050188
|  9>  O        0.1319225864     0.0905009697    -2.4023997513
| 10>  C        0.7043913016    -0.3617406911    -3.6123315752
| 11>  C       -0.0581627002     0.2621505800    -4.7720207150
| 12>  C        0.4937354570    -0.1540928969    -6.1293255809
| 13>  O       -0.2921078880     0.4814116189    -7.1248784133
| 14>  H        1.0608434019     1.8522998930     0.3943171539
| 15>  H       -0.2772190104     2.0847713765    -0.7460080314
| 16>  H       -0.6149229201     1.8650158876     0.9845333690
| 17>  H        0.3058580716    -0.4708334591     0.8506204168
| 18>  H       -1.6725690873    -0.1423799868    -1.0875251675
| 19>  H        1.7916458295    -0.1234141791    -1.1662840608
| 20>  H        0.7207488031    -1.5467633817    -1.2792775015
| 21>  H        1.7708243395    -0.0810211040    -3.6522055979
| 22>  H        0.6603470419    -1.4632691089    -3.6630238068
| 23>  H       -1.1130005593    -0.0264118116    -4.7114591649
| 24>  H       -0.0178671290     1.3533377021    -4.6881935820
| 25>  H        1.5532897358     0.1404877449    -6.2095489026
| 26>  H        0.4540016678    -1.2513973908    -6.2302932389
| 27>  H        0.0473630550     0.2230638699    -7.9865793567
| 28> *
| 29>
| 30>                          ****END OF INPUT****

CARTESIAN COORDINATES (ANGSTROEM)
---------------------------------
  C      0.032349    1.555928    0.160108
  C     -0.073039    0.041583   -0.042099
  O     -1.424082   -0.373989   -0.183945
  C      0.740412   -0.446189   -1.241905
  O      0.131923    0.090501   -2.402400
  C      0.704391   -0.361741   -3.612332
  C     -0.058163    0.262151   -4.772021
  C      0.493735   -0.154093   -6.129326
  O     -0.292108    0.481412   -7.124878
  H      1.060843    1.852300    0.394317
  H     -0.277219    2.084771   -0.746008
  H     -0.614923    1.865016    0.984533
  H      0.305858   -0.470833    0.850620
  H     -1.672569   -0.142380   -1.087525
  H      1.791646   -0.123414   -1.166284
  H      0.720749   -1.546763   -1.279278
  H      1.770824   -0.081021   -3.652206
  H      0.660347   -1.463269   -3.663024
  H     -1.113001   -0.026412   -4.711459
  H     -0.017867    1.353338   -4.688194
  H      1.553290    0.140488   -6.209549
  H      0.454002   -1.251397   -6.230293
  H      0.047363    0.223064   -7.986579

 Total Charge           Charge          ....    0
 Multiplicity           Mult            ....    1
 Number of Electrons    NEL             ....   74
 Basis Dimension        Dim             ....  363

ORBITAL ENERGIES
----------------

  NO   OCC          E(Eh)            E(eV)
   0   2.0000     -20.564640      -559.5923
   1   2.0000     -20.560220      -559.4720
   2   2.0000     -20.542100      -558.9790
   3   2.0000     -11.283811      -307.0481
   4   2.0000     -11.282769      -307.0198
   5   2.0000     -11.277889      -306.8870
   6   2.0000     -11.276372      -306.8457
   7   2.0000     -11.223190      -305.3985
   8   2.0000     -11.208631      -305.0024
   9   2.0000      -1.390852       -37.8470
  10   2.0000      -1.364527       -37.1307
  11   2.0000      -1.346900       -36.6510
  12   2.0000      -1.065203       -28.9856
  13   2.0000      -1.023159       -27.8416
  14   2.0000      -0.941263       -25.6131
  15   2.0000      -0.890420       -24.2295
  16   2.0000      -0.817289       -22.2396
  17   2.0000      -0.801652       -21.8141
  18   2.0000      -0.707250       -19.2452
  19   2.0000      -0.690386       -18.7864
  20   2.0000      -0.679492       -18.4899
  21   2.0000      -0.664758       -18.0890
  22   2.0000      -0.649110       -17.6632
  23   2.0000      -0.606321       -16.4988
  24   2.0000      -0.599742       -16.3198
  25   2.0000      -0.579165       -15.7599
  26   2.0000      -0.570563       -15.5258
  27   2.0000      -0.552959       -15.0468
  28   2.0000      -0.528082       -14.3698
  29   2.0000      -0.518060       -14.0971
  30   2.0000      -0.498717       -13.5708
  31   2.0000      -0.492400       -13.3989
  32   2.0000      -0.486543       -13.2395
  33   2.0000      -0.466228       -12.6867
  34   2.0000      -0.449615       -12.2346
  35   2.0000      -0.433884       -11.8066
  36   2.0000      -0.429700       -11.6927
  37   0.0000       0.128518         3.4972
  38   0.0000       0.138506         3.7689
  39   0.0000       0.155895         4.2421
  40   0.0000       0.160452         4.3661
  41   0.0000       0.175578         4.7777

MULLIKEN ATOMIC CHARGES
-----------------------
   0 C :   -0.401392
   1 C :    0.149829
   2 O :   -0.485996
   3 C :   -0.103745
   4 O :   -0.317952
   5 C :   -0.090642
   6 C :   -0.148034
   7 C :   -0.075851
   8 O :   -0.462931
   9 H :    0.113230
  10 H :    0.133288
  11 H :    0.140319
  12 H :    0.091212
  13 H :    0.323652
  14 H :    0.098082
  15 H :    0.111684
  16 H :    0.091805
  17 H :    0.093372
  18 H :    0.118139
  19 H :    0.121003
  20 H :    0.092286
  21 H :    0.092752
  22 H :    0.315890
Sum of atomic charges:   -0.0000000

LOEWDIN ATOMIC CHARGES
----------------------
   0 C :   -0.303998
   1 C :   -0.378996
   2 O :   -0.024535
   3 C :   -0.315992
   4 O :    0.153126
   5 C :   -0.325807
   6 C :   -0.269443
   7 C :   -0.351935
   8 O :   -0.049281
   9 H :    0.122615
  10 H :    0.124729
  11 H :    0.125656
  12 H :    0.143788
  13 H :    0.176363
  14 H :    0.123199
  15 H :    0.123820
  16 H :    0.119721
  17 H :    0.119805
  18 H :    0.142616
  19 H :    0.143519
  20 H :    0.114130
  21 H :    0.114274
  22 H :    0.172626

  Mayer bond orders larger than 0.1
B(  0-C ,  1-C ) :   0.9295 B(  0-C ,  9-H ) :   0.9284 B(  0-C , 10-H ) :   0.9284
B(  0-C , 11-H ) :   0.9390 B(  1-C ,  2-O ) :   0.9312 B(  1-C ,  3-C ) :   0.9494
B(  1-C , 12-H ) :   0.9229 B(  2-O , 13-H ) :   0.8286 B(  3-C ,  4-O ) :   0.9017
B(  3-C , 14-H ) :   0.9202 B(  3-C , 15-H ) :   0.9258 B(  4-O ,  5-C ) :   0.9338
B(  5-C ,  6-C ) :   0.9423 B(  5-C , 16-H ) :   0.9197 B(  5-C , 17-H ) :   0.9214
B(  6-C ,  7-C ) :   0.9314 B(  6-C , 18-H ) :   0.9214 B(  6-C , 19-H ) :   0.9214
B(  7-C ,  8-O ) :   1.0099 B(  7-C , 20-H ) :   0.9280 B(  7-C , 21-H ) :   0.9278
B(  8-O , 22-H ) :   0.8485

MP2 TOTAL ENERGY:     -461.821401647 Eh
FINAL SINGLE POINT ENERGY      -461.821401647375

DIPOLE MOMENT
-------------
                                X             Y             Z
Electronic contribution:     -3.01137      -1.01492      -1.42344
Nuclear contribution   :      4.21418       0.65825       0.67738
                        -----------------------------------------
Total Dipole Moment    :      1.20281      -0.35667      -0.74607
                        -----------------------------------------
Magnitude (a.u.)       :      1.45965
Magnitude (Debye)      :      3.71015

                             ****ORCA TERMINATED NORMALLY****
TOTAL RUN TIME: 0 days 0 hours 15 minutes 13 seconds 672 msec
