                         Program Version 3.0.3 - RELEASE   -
|  1> ! RI-MP2 RIJK def2-TZVP def2-TZVP/C def2-TZVP/JK TIGHTSCF
|  2> % maxcore 2000
|  3> % mp2 density relaxed end
|  4> *xyz 0 1
|  5>  C        0.5779801249     1.3205279682    -1.0655111948
|  6>  N        0.6076388732    -0.1260728244    -1.0358774802
|  7>  C       -0.3229389206    -0.8673821367    -0.3869612561
|  8>  O       -1.2947655843    -0.4259980743     0.2036206762
|  9>  C       -0.0752005158    -2.3702440158    -0.4556013116
| 10>  C       -1.0152594650    -3.1721429839    -1.3817630612
| 11>  C        0.2815393114    -3.5913979693    -2.1109315229
| 12>  C        0.4400112130    -3.2171411709    -3.5697432191
| 13>  O        1.0859299037    -2.7528046617    -1.2300077848
| 14>  H        1.4604579273     1.7489964859    -0.5769352421
| 15>  H        0.5320385400     1.6978758937    -2.0932060838
| 16>  H       -0.3162604689     1.6403444479    -0.5281172051
| 17>  H        1.3611714247    -0.6407301356    -1.4667926297
| 18>  H       -0.0195593729    -2.7478510100     0.5717541567
| 19>  H       -1.5771754147    -3.9737264259    -0.9029281892
| 20>  H       -1.6962401086    -2.5566690264    -1.9722953885
| 21>  H        0.5467262397    -4.6448560571    -1.9555312594
| 22>  H        0.1633023953    -2.1709067406    -3.7338932842
| 23>  H        1.4766234043    -3.3574425681    -3.8923940743
| 24>  H       -0.2004850969    -3.8481980750    -4.1954729559
| 25> *
| 26>
| 27>                          ****END OF INPUT****

CARTESIAN COORDINATES (ANGSTROEM)
---------------------------------
  C      0.577980    1.320528   -1.065511
  N      0.607639   -0.126073   -1.035877
  C     -0.322939   -0.867382   -0.386961
  O     -1.294766   -0.425998    0.203621
  C     -0.075201   -2.370244   -0.455601
  C     -1.015259   -3.172143   -1.381763
  C      0.281539   -3.591398   -2.110932
  C      0.440011   -3.217141   -3.569743
  O      1.085930   -2.752805   -1.230008
  H      1.460458    1.748996   -0.576935
  H      0.532039    1.697876   -2.093206
  H     -0.316260    1.640344   -0.528117
  H      1.361171   -0.640730   -1.466793
  H     -0.019559   -2.747851    0.571754
  H     -1.577175   -3.973726   -0.902928
  H     -1.696240   -2.556669   -1.972295
  H      0.546726   -4.644856   -1.955531
  H      0.163302   -2.170907   -3.733893
  H      1.476623   -3.357443   -3.892394
  H     -0.200485   -3.848198   -4.195473

 Total Charge           Charge          ....    0
 Multiplicity           Mult            ....    1
 Number of Electrons    NEL             ....   70
 Basis Dimension        Dim             ....  345

ORBITAL ENERGIES
----------------

  NO   OCC          E(Eh)            E(eV)
   0   2.0000     -20.563531      -559.5621
   1   2.0000     -20.510203      -558.1110
   2   2.0000     -15.579592      -423.9423
   3   2.0000     -11.342097      -308.6341
   4   2.0000     -11.297832      -307.4296
   5   2.0000     -11.296860      -307.4032
   6   2.0000     -11.256824      -306.3137
   7   2.0000     -11.241355      -305.8928
   8   2.0000     -11.229138      -305.5604
   9   2.0000      -1.398225       -38.0476
  10   2.0000      -1.370438       -37.2915
  11   2.0000      -1.226823       -33.3835
  12   2.0000      -1.045091       -28.4384
  13   2.0000      -1.019618       -27.7452
  14   2.0000      -0.960541       -26.1376
  15   2.0000      -0.891682       -24.2639
  16   2.0000      -0.793848       -21.6017
  17   2.0000      -0.765063       -20.8184
  18   2.0000      -0.719099       -19.5677
  19   2.0000      -0.695687       -18.9306
  20   2.0000      -0.653286       -17.7768
  21   2.0000      -0.622057       -16.9270
  22   2.0000      -0.616724       -16.7819
  23   2.0000      -0.612317       -16.6620
  24   2.0000      -0.587861       -15.9965
  25   2.0000      -0.559256       -15.2181
  26   2.0000      -0.548341       -14.9211
  27   2.0000      -0.544625       -14.8200
  28   2.0000      -0.535641       -14.5755
  29   2.0000      -0.531748       -14.4696
  30   2.0000      -0.476848       -12.9757
  31   2.0000      -0.469339       -12.7714
  32   2.0000      -0.446933       -12.1617
  33   2.0000      -0.404583       -11.0093
  34   2.0000      -0.388388       -10.5686
  35   0.0000       0.130071         3.5394
  36   0.0000       0.146735         3.9929
  37   0.0000       0.160350         4.3633
  38   0.0000       0.175375         4.7722
  39   0.0000       0.180830         4.9206

MULLIKEN ATOMIC CHARGES
-----------------------
   0 C :   -0.293050
   1 N :   -0.307941
   2 C :    0.196104
   3 O :   -0.388605
   4 C :    0.151629
   5 C :   -0.288862
   6 C :    0.128833
   7 C :   -0.410346
   8 O :   -0.373440
   9 H :    0.137359
  10 H :    0.133286
  11 H :    0.174348
  12 H :    0.259016
  13 H :    0.114552
  14 H :    0.140862
  15 H :    0.133587
  16 H :    0.093575
  17 H :    0.126305
  18 H :    0.139668
  19 H :    0.133121
Sum of atomic charges:    0.0000000

LOEWDIN ATOMIC CHARGES
----------------------
   0 C :   -0.311477
   1 N :    0.094476
   2 C :   -0.460129
   3 O :    0.070486
   4 C :   -0.240514
   5 C :   -0.192213
   6 C :   -0.297303
   7 C :   -0.299472
   8 O :    0.139056
   9 H :    0.116097
  10 H :    0.115142
  11 H :    0.134286
  12 H :    0.189343
  13 H :    0.148356
  14 H :    0.134189
  15 H :    0.141217
  16 H :    0.135280
  17 H :    0.124314
  18 H :    0.128515
  19 H :    0.130352

  Mayer bond orders larger than 0.1
B(  0-C ,  1-N ) :   0.8566 B(  0-C ,  9-H ) :   0.9351 B(  0-C , 10-H ) :   0.9350
B(  0-C , 11-H ) :   0.9278 B(  1-N ,  2-C ) :   1.1982 B(  1-N , 12-H ) :   0.8480
B(  2-C ,  3-O ) :   1.9197 B(  2-C ,  4-C ) :   0.9161 B(  4-C ,  5-C ) :   0.9219
B(  4-C ,  8-O ) :   0.8952 B(  4-C , 13-H ) :   0.9078 B(  5-C ,  6-C ) :   0.9276
B(  5-C , 14-H ) :   0.9259 B(  5-C , 15-H ) :   0.9249 B(  6-C ,  7-C ) :   0.9252
B(  6-C ,  8-O ) :   0.8831 B(  6-C , 16-H ) :   0.9225 B(  7-C , 17-H ) :   0.9329
B(  7-C , 18-H ) :   0.9367 B(  7-C , 19-H ) :   0.9285

MP2 TOTAL ENERGY:     -439.584379208 Eh
FINAL SINGLE POINT ENERGY      -439.584379208305

DIPOLE MOMENT
-------------
                                X             Y             Z
Electronic contribution:     -0.60016       0.14517       5.70692
Nuclear contribution   :      1.17916      -0.53571      -6.68957
                        -----------------------------------------
Total Dipole Moment    :      0.57900      -0.39054      -0.98265
                        -----------------------------------------
Magnitude (a.u.)       :      1.20555
Magnitude (Debye)      :      3.06427

                             ****ORCA TERMINATED NORMALLY****
TOTAL RUN TIME: 0 days 0 hours 16 minutes 54 seconds 719 msec
