                         Program Version 3.0.3 - RELEASE   -
|  1> ! RI-MP2 RIJK def2-TZVP def2-TZVP/C def2-TZVP/JK TIGHTSCF
|  2> % maxcore 2000
|  3> % mp2 density relaxed end
|  4> *xyz 0 1
|  5>  C       -0.0351995280     1.5350684694    -0.0332403633
|  6>  C       -0.0093465956     0.0324970095    -0.0097530351
|  7>  C       -0.0300556804    -0.6989156303    -1.1396313153
|  8>  O       -0.0083605768    -2.0374301403    -1.1593143133
|  9>  C        0.0390066743    -2.7578761061     0.0631299871
| 10>  N        0.0605039170    -4.0226371704     0.0286538439
| 11>  N        0.0618415803    -2.0397189942     1.2387375963
| 12>  C        0.0396990369    -0.7439019349     1.2216333342
| 13>  C        0.0664394727    -0.0339198006     2.5459277472
| 14>  H        0.8528668375     1.9663511899     0.4426023936
| 15>  H       -0.0714655187     1.9048940183    -1.0619116938
| 16>  H       -0.9078824175     1.9368733802     0.4940844066
| 17>  H       -0.0662459848    -0.2793852969    -2.1404891019
| 18>  H        0.0380853894    -4.3489647460    -0.9367314135
| 19>  H        0.1022504411    -0.7657367689     3.3524592561
| 20>  H        0.9373643056     0.6281337225     2.6155811693
| 21>  H       -0.8205966230     0.5987011288     2.6669299420
| 22> *
| 23>
| 24>                          ****END OF INPUT****

CARTESIAN COORDINATES (ANGSTROEM)
---------------------------------
  C     -0.035200    1.535068   -0.033240
  C     -0.009347    0.032497   -0.009753
  C     -0.030056   -0.698916   -1.139631
  O     -0.008361   -2.037430   -1.159314
  C      0.039007   -2.757876    0.063130
  N      0.060504   -4.022637    0.028654
  N      0.061842   -2.039719    1.238738
  C      0.039699   -0.743902    1.221633
  C      0.066439   -0.033920    2.545928
  H      0.852867    1.966351    0.442602
  H     -0.071466    1.904894   -1.061912
  H     -0.907882    1.936873    0.494084
  H     -0.066246   -0.279385   -2.140489
  H      0.038085   -4.348965   -0.936731
  H      0.102250   -0.765737    3.352459
  H      0.937364    0.628134    2.615581
  H     -0.820597    0.598701    2.666930

 Total Charge           Charge          ....    0
 Multiplicity           Mult            ....    1
 Number of Electrons    NEL             ....   66
 Basis Dimension        Dim             ....  327

ORBITAL ENERGIES
----------------

  NO   OCC          E(Eh)            E(eV)
   0   2.0000     -20.629403      -561.3546
   1   2.0000     -15.563458      -423.5032
   2   2.0000     -15.523342      -422.4116
   3   2.0000     -11.365919      -309.2824
   4   2.0000     -11.335618      -308.4579
   5   2.0000     -11.322060      -308.0889
   6   2.0000     -11.254099      -306.2396
   7   2.0000     -11.250654      -306.1459
   8   2.0000     -11.242362      -305.9202
   9   2.0000      -1.466605       -39.9083
  10   2.0000      -1.264458       -34.4076
  11   2.0000      -1.195100       -32.5203
  12   2.0000      -1.098479       -29.8911
  13   2.0000      -1.016777       -27.6679
  14   2.0000      -0.962233       -26.1837
  15   2.0000      -0.882831       -24.0231
  16   2.0000      -0.851538       -23.1715
  17   2.0000      -0.755358       -20.5543
  18   2.0000      -0.707516       -19.2525
  19   2.0000      -0.661360       -17.9965
  20   2.0000      -0.650317       -17.6960
  21   2.0000      -0.631923       -17.1955
  22   2.0000      -0.606529       -16.5045
  23   2.0000      -0.595414       -16.2021
  24   2.0000      -0.580118       -15.7858
  25   2.0000      -0.572688       -15.5836
  26   2.0000      -0.556080       -15.1317
  27   2.0000      -0.543689       -14.7945
  28   2.0000      -0.493990       -13.4421
  29   2.0000      -0.443176       -12.0594
  30   2.0000      -0.434018       -11.8102
  31   2.0000      -0.423141       -11.5143
  32   2.0000      -0.328265        -8.9325
  33   0.0000       0.076879         2.0920
  34   0.0000       0.118664         3.2290
  35   0.0000       0.151486         4.1221
  36   0.0000       0.163968         4.4618
  37   0.0000       0.170181         4.6309

MULLIKEN ATOMIC CHARGES
-----------------------
   0 C :   -0.395082
   1 C :   -0.026915
   2 C :    0.018581
   3 O :   -0.218568
   4 C :    0.222101
   5 N :   -0.348224
   6 N :   -0.205750
   7 C :    0.116342
   8 C :   -0.417468
   9 H :    0.147446
  10 H :    0.139392
  11 H :    0.147447
  12 H :    0.142189
  13 H :    0.223194
  14 H :    0.168276
  15 H :    0.143514
  16 H :    0.143526
Sum of atomic charges:    0.0000000

LOEWDIN ATOMIC CHARGES
----------------------
   0 C :   -0.262419
   1 C :   -0.193498
   2 C :   -0.195356
   3 O :    0.296607
   4 C :   -0.436906
   5 N :   -0.053865
   6 N :    0.181389
   7 C :   -0.205557
   8 C :   -0.254031
   9 H :    0.132306
  10 H :    0.133867
  11 H :    0.132306
  12 H :    0.144708
  13 H :    0.167446
  14 H :    0.139274
  15 H :    0.136860
  16 H :    0.136868

  Mayer bond orders larger than 0.1
B(  0-C ,  1-C ) :   0.8765 B(  0-C ,  9-H ) :   0.9350 B(  0-C , 10-H ) :   0.9376
B(  0-C , 11-H ) :   0.9350 B(  1-C ,  2-C ) :   1.6072 B(  1-C ,  7-C ) :   1.0252
B(  2-C ,  3-O ) :   1.1034 B(  2-C , 12-H ) :   0.9452 B(  3-O ,  4-C ) :   0.9280
B(  4-C ,  5-N ) :   1.9946 B(  4-C ,  6-N ) :   1.1272 B(  5-N , 13-H ) :   0.8524
B(  6-N ,  7-C ) :   1.6829 B(  7-C ,  8-C ) :   0.8988 B(  8-C , 14-H ) :   0.9405
B(  8-C , 15-H ) :   0.9280 B(  8-C , 16-H ) :   0.9281

MP2 TOTAL ENERGY:     -417.322321200 Eh
FINAL SINGLE POINT ENERGY      -417.322321200209

DIPOLE MOMENT
-------------
                                X             Y             Z
Electronic contribution:      0.03830      -8.48765      -3.51613
Nuclear contribution   :     -0.09024      10.44788       2.87303
                        -----------------------------------------
Total Dipole Moment    :     -0.05194       1.96023      -0.64310
                        -----------------------------------------
Magnitude (a.u.)       :      2.06368
Magnitude (Debye)      :      5.24547

                             ****ORCA TERMINATED NORMALLY****
TOTAL RUN TIME: 0 days 0 hours 16 minutes 30 seconds 860 msec
