                         Program Version 3.0.3 - RELEASE   -
|  1> ! RI-MP2 RIJK def2-TZVP def2-TZVP/C def2-TZVP/JK TIGHTSCF
|  2> % maxcore 2000
|  3> % mp2 density relaxed end
|  4> *xyz 0 1
|  5>  O       -0.1165690105    -0.0290304960     0.0048298549
|  6>  C        0.0146048767     1.1585267316     0.0092149436
|  7>  O       -1.1716458151     1.9491245499     0.0298248537
|  8>  C       -1.1169194282     3.2931801602     0.0359348033
|  9>  N       -0.0400938864     4.0063644994     0.0245340317
| 10>  C        1.1422924617     3.3056231225     0.0043994993
| 11>  C        1.2205154469     1.9534887326    -0.0036303170
| 12>  C       -2.4050834107     3.9005969406     0.0570614223
| 13>  C       -3.4961167558     4.4042192958     0.0749025296
| 14>  H        2.0390670233     3.9178274445    -0.0050300326
| 15>  H        2.1624809954     1.4217490907    -0.0195713202
| 16>  H       -4.4586274672     4.8550969983     0.0906733914
| 17> *
| 18>
| 19>                          ****END OF INPUT****

CARTESIAN COORDINATES (ANGSTROEM)
---------------------------------
  O     -0.116569   -0.029030    0.004830
  C      0.014605    1.158527    0.009215
  O     -1.171646    1.949125    0.029825
  C     -1.116919    3.293180    0.035935
  N     -0.040094    4.006364    0.024534
  C      1.142292    3.305623    0.004399
  C      1.220515    1.953489   -0.003630
  C     -2.405083    3.900597    0.057061
  C     -3.496117    4.404219    0.074903
  H      2.039067    3.917827   -0.005030
  H      2.162481    1.421749   -0.019571
  H     -4.458627    4.855097    0.090673

 Total Charge           Charge          ....    0
 Multiplicity           Mult            ....    1
 Number of Electrons    NEL             ....   62
 Basis Dimension        Dim             ....  297

ORBITAL ENERGIES
----------------

  NO   OCC          E(Eh)            E(eV)
   0   2.0000     -20.655818      -562.0734
   1   2.0000     -20.558085      -559.4139
   2   2.0000     -15.595211      -424.3673
   3   2.0000     -11.414738      -310.6108
   4   2.0000     -11.407580      -310.4160
   5   2.0000     -11.323796      -308.1362
   6   2.0000     -11.280122      -306.9477
   7   2.0000     -11.271833      -306.7222
   8   2.0000     -11.263684      -306.5004
   9   2.0000      -1.504205       -40.9315
  10   2.0000      -1.403273       -38.1850
  11   2.0000      -1.281893       -34.8821
  12   2.0000      -1.118915       -30.4472
  13   2.0000      -1.061825       -28.8937
  14   2.0000      -0.954257       -25.9667
  15   2.0000      -0.921382       -25.0721
  16   2.0000      -0.811701       -22.0875
  17   2.0000      -0.758086       -20.6286
  18   2.0000      -0.736397       -20.0384
  19   2.0000      -0.704520       -19.1710
  20   2.0000      -0.690089       -18.7783
  21   2.0000      -0.663988       -18.0680
  22   2.0000      -0.648005       -17.6331
  23   2.0000      -0.579846       -15.7784
  24   2.0000      -0.560495       -15.2519
  25   2.0000      -0.511579       -13.9208
  26   2.0000      -0.481584       -13.1046
  27   2.0000      -0.475218       -12.9314
  28   2.0000      -0.450704       -12.2643
  29   2.0000      -0.438586       -11.9345
  30   2.0000      -0.363664        -9.8958
  31   0.0000       0.036575         0.9953
  32   0.0000       0.111917         3.0454
  33   0.0000       0.142138         3.8678
  34   0.0000       0.147395         4.0108
  35   0.0000       0.156640         4.2624

MULLIKEN ATOMIC CHARGES
-----------------------
   0 O :   -0.263039
   1 C :    0.262971
   2 O :   -0.164918
   3 C :    0.092972
   4 N :   -0.271969
   5 C :   -0.009734
   6 C :   -0.199318
   7 C :    0.065212
   8 C :   -0.032238
   9 H :    0.149414
  10 H :    0.159919
  11 H :    0.210726
Sum of atomic charges:   -0.0000000

LOEWDIN ATOMIC CHARGES
----------------------
   0 O :    0.161235
   1 C :   -0.419803
   2 O :    0.354284
   3 C :   -0.320346
   4 N :    0.154851
   5 C :   -0.177785
   6 C :   -0.130032
   7 C :   -0.047327
   8 C :   -0.021159
   9 H :    0.148464
  10 H :    0.162430
  11 H :    0.135189

  Mayer bond orders larger than 0.1
B(  0-O ,  1-C ) :   2.0302 B(  1-C ,  2-O ) :   0.9430 B(  1-C ,  6-C ) :   1.0842
B(  2-O ,  3-C ) :   1.1375 B(  3-C ,  4-N ) :   1.6486 B(  3-C ,  7-C ) :   1.1887
B(  3-C ,  8-C ) :  -0.1650 B(  4-N ,  5-C ) :   1.1488 B(  5-C ,  6-C ) :   1.5469
B(  5-C ,  9-H ) :   0.9359 B(  6-C , 10-H ) :   0.9083 B(  7-C ,  8-C ) :   2.5899
B(  8-C , 11-H ) :   0.8696

MP2 TOTAL ENERGY:     -434.760141028 Eh
FINAL SINGLE POINT ENERGY      -434.760141027602

DIPOLE MOMENT
-------------
                                X             Y             Z
Electronic contribution:     -1.34941      -1.31817       0.01223
Nuclear contribution   :      1.55552       2.23759      -0.01034
                        -----------------------------------------
Total Dipole Moment    :      0.20611       0.91942       0.00189
                        -----------------------------------------
Magnitude (a.u.)       :      0.94224
Magnitude (Debye)      :      2.39499

                             ****ORCA TERMINATED NORMALLY****
TOTAL RUN TIME: 0 days 0 hours 13 minutes 25 seconds 838 msec
