                         Program Version 3.0.3 - RELEASE   -
|  1> ! RI-MP2 RIJK def2-TZVP def2-TZVP/C def2-TZVP/JK TIGHTSCF
|  2> % maxcore 2000
|  3> % mp2 density relaxed end
|  4> *xyz 0 1
|  5>  C       -0.1227356634     1.5130967202     0.0875105650
|  6>  C       -0.0353434465     0.0152800334     0.0042854319
|  7>  C       -0.1391895792    -0.6759951350    -1.1336916937
|  8>  C       -0.0426022362    -2.1827259458    -1.2262772047
|  9>  O        0.3952829117    -2.5995215412    -2.5153181004
| 10>  C        0.8465105268    -2.7752914133    -0.1173999658
| 11>  C        0.6052180613    -2.1267520700     1.2392376971
| 12>  O        1.5225123639    -1.0929512935     1.6219084455
| 13>  C        0.1687037111    -0.7258363834     1.2849880538
| 14>  H        0.7961096694     1.9324163915     0.5157821468
| 15>  H       -0.2800529763     1.9620934630    -0.8965181355
| 16>  H       -0.9452778032     1.8278138712     0.7423968334
| 17>  H       -0.3162416366    -0.1665122931    -2.0788161737
| 18>  H       -1.0525368724    -2.6080735213    -1.1443813613
| 19>  H        1.2728651530    -2.2257897730    -2.6559050761
| 20>  H        0.6961538561    -3.8574412308    -0.0668520842
| 21>  H        1.8954074830    -2.6037229529    -0.3865670225
| 22>  H        0.3246705095    -2.7867843966     2.0592615109
| 23>  H       -0.4100430620    -0.3738093993     2.1400533235
| 24> *
| 25>
| 26>                          ****END OF INPUT****

CARTESIAN COORDINATES (ANGSTROEM)
---------------------------------
  C     -0.122736    1.513097    0.087511
  C     -0.035343    0.015280    0.004285
  C     -0.139190   -0.675995   -1.133692
  C     -0.042602   -2.182726   -1.226277
  O      0.395283   -2.599522   -2.515318
  C      0.846511   -2.775291   -0.117400
  C      0.605218   -2.126752    1.239238
  O      1.522512   -1.092951    1.621908
  C      0.168704   -0.725836    1.284988
  H      0.796110    1.932416    0.515782
  H     -0.280053    1.962093   -0.896518
  H     -0.945278    1.827814    0.742397
  H     -0.316242   -0.166512   -2.078816
  H     -1.052537   -2.608074   -1.144381
  H      1.272865   -2.225790   -2.655905
  H      0.696154   -3.857441   -0.066852
  H      1.895407   -2.603723   -0.386567
  H      0.324671   -2.786784    2.059262
  H     -0.410043   -0.373809    2.140053

 Total Charge           Charge          ....    0
 Multiplicity           Mult            ....    1
 Number of Electrons    NEL             ....   68
 Basis Dimension        Dim             ....  339

ORBITAL ENERGIES
----------------

  NO   OCC          E(Eh)            E(eV)
   0   2.0000     -20.567653      -559.6743
   1   2.0000     -20.560115      -559.4692
   2   2.0000     -11.291052      -307.2452
   3   2.0000     -11.290636      -307.2338
   4   2.0000     -11.289762      -307.2100
   5   2.0000     -11.246001      -306.0192
   6   2.0000     -11.233318      -305.6741
   7   2.0000     -11.232069      -305.6401
   8   2.0000     -11.229488      -305.5699
   9   2.0000      -1.409640       -38.3583
  10   2.0000      -1.366641       -37.1882
  11   2.0000      -1.111643       -30.2493
  12   2.0000      -1.042214       -28.3601
  13   2.0000      -0.957563       -26.0566
  14   2.0000      -0.929192       -25.2846
  15   2.0000      -0.858798       -23.3691
  16   2.0000      -0.827206       -22.5094
  17   2.0000      -0.722907       -19.6713
  18   2.0000      -0.711356       -19.3570
  19   2.0000      -0.666561       -18.1381
  20   2.0000      -0.652174       -17.7465
  21   2.0000      -0.631190       -17.1756
  22   2.0000      -0.593213       -16.1422
  23   2.0000      -0.583177       -15.8691
  24   2.0000      -0.563643       -15.3375
  25   2.0000      -0.561148       -15.2696
  26   2.0000      -0.546109       -14.8604
  27   2.0000      -0.529735       -14.4148
  28   2.0000      -0.506820       -13.7913
  29   2.0000      -0.489761       -13.3271
  30   2.0000      -0.460521       -12.5314
  31   2.0000      -0.443383       -12.0651
  32   2.0000      -0.428789       -11.6679
  33   2.0000      -0.352661        -9.5964
  34   0.0000       0.124269         3.3815
  35   0.0000       0.141601         3.8532
  36   0.0000       0.156520         4.2591
  37   0.0000       0.162458         4.4207
  38   0.0000       0.179107         4.8738

MULLIKEN ATOMIC CHARGES
-----------------------
   0 C :   -0.426012
   1 C :    0.059918
   2 C :   -0.257045
   3 C :    0.150389
   4 O :   -0.468754
   5 C :   -0.239713
   6 C :    0.038135
   7 O :   -0.326893
   8 C :    0.001895
   9 H :    0.150286
  10 H :    0.137214
  11 H :    0.139527
  12 H :    0.127378
  13 H :    0.108906
  14 H :    0.312612
  15 H :    0.130235
  16 H :    0.119423
  17 H :    0.123286
  18 H :    0.119212
Sum of atomic charges:    0.0000000

LOEWDIN ATOMIC CHARGES
----------------------
   0 C :   -0.265855
   1 C :   -0.178910
   2 C :   -0.123148
   3 C :   -0.324819
   4 O :   -0.019615
   5 C :   -0.223712
   6 C :   -0.248498
   7 O :    0.159450
   8 C :   -0.219691
   9 H :    0.135874
  10 H :    0.130218
  11 H :    0.130981
  12 H :    0.148794
  13 H :    0.152710
  14 H :    0.174269
  15 H :    0.143400
  16 H :    0.149658
  17 H :    0.136164
  18 H :    0.142730

  Mayer bond orders larger than 0.1
B(  0-C ,  1-C ) :   0.8935 B(  0-C ,  9-H ) :   0.9262 B(  0-C , 10-H ) :   0.9468
B(  0-C , 11-H ) :   0.9330 B(  1-C ,  2-C ) :   1.6867 B(  1-C ,  8-C ) :   0.9222
B(  2-C ,  3-C ) :   0.9691 B(  2-C , 12-H ) :   0.9297 B(  3-C ,  4-O ) :   0.8811
B(  3-C ,  5-C ) :   0.9540 B(  3-C , 13-H ) :   0.9032 B(  4-O , 14-H ) :   0.8422
B(  5-C ,  6-C ) :   0.8761 B(  5-C , 15-H ) :   0.9366 B(  5-C , 16-H ) :   0.9140
B(  6-C ,  7-O ) :   0.9024 B(  6-C ,  8-C ) :   0.9796 B(  6-C , 17-H ) :   0.9181
B(  7-O ,  8-C ) :   0.8992 B(  8-C , 18-H ) :   0.9291

MP2 TOTAL ENERGY:     -422.310518214 Eh
FINAL SINGLE POINT ENERGY      -422.310518214281

DIPOLE MOMENT
-------------
                                X             Y             Z
Electronic contribution:      1.37725      -2.66338       0.75824
Nuclear contribution   :     -1.69844       2.90702      -0.59993
                        -----------------------------------------
Total Dipole Moment    :     -0.32119       0.24364       0.15831
                        -----------------------------------------
Magnitude (a.u.)       :      0.43311
Magnitude (Debye)      :      1.10089

                             ****ORCA TERMINATED NORMALLY****
TOTAL RUN TIME: 0 days 0 hours 17 minutes 47 seconds 810 msec
