                         Program Version 3.0.3 - RELEASE   -
|  1> ! RI-MP2 RIJK def2-TZVP def2-TZVP/C def2-TZVP/JK TIGHTSCF
|  2> % maxcore 2000
|  3> % mp2 density relaxed end
|  4> *xyz 0 1
|  5>  C       -0.0604566418     1.4361450177     0.0002788291
|  6>  O        0.1450651709     0.0289435238     0.0426037787
|  7>  C        0.7275096480    -0.5373460183    -1.1061153450
|  8>  C        2.1482500830    -0.0631365531    -1.3865379948
|  9>  C        0.4859281610    -2.0603985868    -1.1312849407
| 10>  O       -0.3368927986    -1.9277747379    -2.3374851231
| 11>  C       -0.2091227067    -0.5645694506    -2.3448996974
| 12>  O       -0.7131369151     0.2145699522    -3.0897652374
| 13>  H        0.8857752495     1.9914834050     0.0354350945
| 14>  H       -0.6186381894     1.7350832035    -0.8941963241
| 15>  H       -0.6435150222     1.6837686949     0.8895513749
| 16>  H        2.7691218786    -0.2032502039    -0.4963108649
| 17>  H        2.5867119247    -0.6276368468    -2.2145036803
| 18>  H        2.1633259066     0.9940327167    -1.6629532149
| 19>  H        1.3525605433    -2.6955822706    -1.3216263383
| 20>  H       -0.1069406017    -2.4266751359    -0.2927458963
| 21> *
| 22>
| 23>                          ****END OF INPUT****

CARTESIAN COORDINATES (ANGSTROEM)
---------------------------------
  C     -0.060457    1.436145    0.000279
  O      0.145065    0.028944    0.042604
  C      0.727510   -0.537346   -1.106115
  C      2.148250   -0.063137   -1.386538
  C      0.485928   -2.060399   -1.131285
  O     -0.336893   -1.927775   -2.337485
  C     -0.209123   -0.564569   -2.344900
  O     -0.713137    0.214570   -3.089765
  H      0.885775    1.991483    0.035435
  H     -0.618638    1.735083   -0.894196
  H     -0.643515    1.683769    0.889551
  H      2.769122   -0.203250   -0.496311
  H      2.586712   -0.627637   -2.214504
  H      2.163326    0.994033   -1.662953
  H      1.352561   -2.695582   -1.321626
  H     -0.106941   -2.426675   -0.292746

 Total Charge           Charge          ....    0
 Multiplicity           Mult            ....    1
 Number of Electrons    NEL             ....   62
 Basis Dimension        Dim             ....  296

ORBITAL ENERGIES
----------------

  NO   OCC          E(Eh)            E(eV)
   0   2.0000     -20.606245      -560.7244
   1   2.0000     -20.583205      -560.0975
   2   2.0000     -20.558689      -559.4304
   3   2.0000     -11.384095      -309.7770
   4   2.0000     -11.326184      -308.2011
   5   2.0000     -11.307150      -307.6832
   6   2.0000     -11.283185      -307.0311
   7   2.0000     -11.246418      -306.0306
   8   2.0000      -1.470749       -40.0211
   9   2.0000      -1.399546       -38.0836
  10   2.0000      -1.383111       -37.6364
  11   2.0000      -1.076571       -29.2950
  12   2.0000      -0.968797       -26.3623
  13   2.0000      -0.933836       -25.4110
  14   2.0000      -0.896090       -24.3839
  15   2.0000      -0.742373       -20.2010
  16   2.0000      -0.714259       -19.4360
  17   2.0000      -0.703026       -19.1303
  18   2.0000      -0.694698       -18.9037
  19   2.0000      -0.643291       -17.5048
  20   2.0000      -0.635979       -17.3059
  21   2.0000      -0.610731       -16.6188
  22   2.0000      -0.597522       -16.2594
  23   2.0000      -0.573238       -15.5986
  24   2.0000      -0.562306       -15.3011
  25   2.0000      -0.549180       -14.9439
  26   2.0000      -0.519157       -14.1270
  27   2.0000      -0.508996       -13.8505
  28   2.0000      -0.470463       -12.8019
  29   2.0000      -0.465034       -12.6542
  30   2.0000      -0.417371       -11.3572
  31   0.0000       0.129417         3.5216
  32   0.0000       0.155209         4.2235
  33   0.0000       0.165787         4.5113
  34   0.0000       0.177219         4.8224
  35   0.0000       0.186791         5.0828

MULLIKEN ATOMIC CHARGES
-----------------------
   0 C :   -0.240863
   1 O :   -0.312133
   2 C :    0.218744
   3 C :   -0.450950
   4 C :   -0.047962
   5 O :   -0.231238
   6 C :    0.216789
   7 O :   -0.269880
   8 H :    0.121277
   9 H :    0.149523
  10 H :    0.146629
  11 H :    0.149664
  12 H :    0.146833
  13 H :    0.153192
  14 H :    0.122681
  15 H :    0.127694
Sum of atomic charges:   -0.0000000

LOEWDIN ATOMIC CHARGES
----------------------
   0 C :   -0.333658
   1 O :    0.182115
   2 C :   -0.356045
   3 C :   -0.264061
   4 C :   -0.186966
   5 O :    0.237328
   6 C :   -0.429510
   7 O :    0.154961
   8 H :    0.104107
   9 H :    0.114037
  10 H :    0.116540
  11 H :    0.134210
  12 H :    0.136763
  13 H :    0.134059
  14 H :    0.125184
  15 H :    0.130933

  Mayer bond orders larger than 0.1
B(  0-C ,  1-O ) :   0.8773 B(  0-C ,  8-H ) :   0.9361 B(  0-C ,  9-H ) :   0.9274
B(  0-C , 10-H ) :   0.9380 B(  1-O ,  2-C ) :   0.9818 B(  2-C ,  3-C ) :   0.8989
B(  2-C ,  4-C ) :   0.9251 B(  2-C ,  6-C ) :   0.8873 B(  3-C , 11-H ) :   0.9301
B(  3-C , 12-H ) :   0.9210 B(  3-C , 13-H ) :   0.9269 B(  4-C ,  5-O ) :   0.8908
B(  4-C , 14-H ) :   0.9146 B(  4-C , 15-H ) :   0.9108 B(  5-O ,  6-C ) :   1.1060
B(  6-C ,  7-O ) :   2.0166

MP2 TOTAL ENERGY:     -420.221904480 Eh
FINAL SINGLE POINT ENERGY      -420.221904480101

DIPOLE MOMENT
-------------
                                X             Y             Z
Electronic contribution:     -4.80003      -3.48249      -4.08861
Nuclear contribution   :      5.83326       3.51824       4.98423
                        -----------------------------------------
Total Dipole Moment    :      1.03323       0.03575       0.89562
                        -----------------------------------------
Magnitude (a.u.)       :      1.36784
Magnitude (Debye)      :      3.47676

                             ****ORCA TERMINATED NORMALLY****
TOTAL RUN TIME: 0 days 0 hours 11 minutes 50 seconds 898 msec
