                         Program Version 3.0.3 - RELEASE   -
|  1> ! RI-MP2 RIJK def2-TZVP def2-TZVP/C def2-TZVP/JK TIGHTSCF
|  2> % maxcore 2000
|  3> % mp2 density relaxed end
|  4> *xyz 0 1
|  5>  C        0.0623569512     1.5359685176    -0.2984972828
|  6>  C        0.0197994870     0.0068914637    -0.2209903846
|  7>  C       -1.3624165475    -0.5242672092     0.1663339942
|  8>  C       -2.4095708172    -0.5178004154    -0.9910373286
|  9>  C       -2.1268180797    -2.0271576272    -1.2312462409
| 10>  C       -1.4817303987    -2.0717973862     0.1823137066
| 11>  O       -0.2721503697    -2.7575792399     0.3656747646
| 12>  C       -0.4169855252    -4.1588029381     0.3575090614
| 13>  H        1.0574811238     1.8903270913    -0.5852486976
| 14>  H       -0.6510705601     1.9234902704    -1.0341133350
| 15>  H       -0.1858302462     1.9872937112     0.6688954855
| 16>  H        0.3273024131    -0.4216545664    -1.1827660874
| 17>  H        0.7521985864    -0.3496294435     0.5112518593
| 18>  H       -1.6855973686    -0.0368332486     1.0924476220
| 19>  H       -3.4270581685    -0.3368060047    -0.6352237509
| 20>  H       -2.2123319043     0.1591948082    -1.8258358695
| 21>  H       -2.9781371418    -2.6819636108    -1.4310514507
| 22>  H       -1.3696315074    -2.1822484295    -2.0048925912
| 23>  H       -2.2189804536    -2.4031896872     0.9320623043
| 24>  H       -1.0989381777    -4.5009548499     1.1525256732
| 25>  H       -0.8008949917    -4.5293729771    -0.6049482704
| 26>  H        0.5716839865    -4.5910503190     0.5305069085
| 27> *
| 28>
| 29>                          ****END OF INPUT****

CARTESIAN COORDINATES (ANGSTROEM)
---------------------------------
  C      0.062357    1.535969   -0.298497
  C      0.019799    0.006891   -0.220990
  C     -1.362417   -0.524267    0.166334
  C     -2.409571   -0.517800   -0.991037
  C     -2.126818   -2.027158   -1.231246
  C     -1.481730   -2.071797    0.182314
  O     -0.272150   -2.757579    0.365675
  C     -0.416986   -4.158803    0.357509
  H      1.057481    1.890327   -0.585249
  H     -0.651071    1.923490   -1.034113
  H     -0.185830    1.987294    0.668895
  H      0.327302   -0.421655   -1.182766
  H      0.752199   -0.349629    0.511252
  H     -1.685597   -0.036833    1.092448
  H     -3.427058   -0.336806   -0.635224
  H     -2.212332    0.159195   -1.825836
  H     -2.978137   -2.681964   -1.431051
  H     -1.369632   -2.182248   -2.004893
  H     -2.218980   -2.403190    0.932062
  H     -1.098938   -4.500955    1.152526
  H     -0.800895   -4.529373   -0.604948
  H      0.571684   -4.591050    0.530507

 Total Charge           Charge          ....    0
 Multiplicity           Mult            ....    1
 Number of Electrons    NEL             ....   64
 Basis Dimension        Dim             ....  332

ORBITAL ENERGIES
----------------

  NO   OCC          E(Eh)            E(eV)
   0   2.0000     -20.550678      -559.2124
   1   2.0000     -11.271809      -306.7215
   2   2.0000     -11.268193      -306.6231
   3   2.0000     -11.219364      -305.2944
   4   2.0000     -11.217870      -305.2538
   5   2.0000     -11.216079      -305.2050
   6   2.0000     -11.210125      -305.0430
   7   2.0000     -11.206629      -304.9479
   8   2.0000      -1.374047       -37.3897
   9   2.0000      -1.126292       -30.6480
  10   2.0000      -1.019683       -27.7470
  11   2.0000      -0.942464       -25.6457
  12   2.0000      -0.897436       -24.4205
  13   2.0000      -0.858847       -23.3704
  14   2.0000      -0.819468       -22.2988
  15   2.0000      -0.728624       -19.8269
  16   2.0000      -0.676462       -18.4075
  17   2.0000      -0.660523       -17.9737
  18   2.0000      -0.628901       -17.1133
  19   2.0000      -0.622930       -16.9508
  20   2.0000      -0.583376       -15.8745
  21   2.0000      -0.568811       -15.4781
  22   2.0000      -0.557093       -15.1593
  23   2.0000      -0.523197       -14.2369
  24   2.0000      -0.505405       -13.7528
  25   2.0000      -0.500991       -13.6327
  26   2.0000      -0.487406       -13.2630
  27   2.0000      -0.476132       -12.9562
  28   2.0000      -0.449610       -12.2345
  29   2.0000      -0.439881       -11.9698
  30   2.0000      -0.422148       -11.4872
  31   2.0000      -0.396976       -10.8023
  32   0.0000       0.139128         3.7859
  33   0.0000       0.150295         4.0897
  34   0.0000       0.158272         4.3068
  35   0.0000       0.172072         4.6823
  36   0.0000       0.187152         5.0927

MULLIKEN ATOMIC CHARGES
-----------------------
   0 C :   -0.387087
   1 C :   -0.244756
   2 C :   -0.001317
   3 C :   -0.250661
   4 C :   -0.262369
   5 C :    0.049972
   6 O :   -0.295539
   7 C :   -0.222543
   8 H :    0.133319
   9 H :    0.120944
  10 H :    0.120578
  11 H :    0.108152
  12 H :    0.124467
  13 H :    0.097947
  14 H :    0.119122
  15 H :    0.115431
  16 H :    0.119846
  17 H :    0.118757
  18 H :    0.071982
  19 H :    0.109271
  20 H :    0.114923
  21 H :    0.139562
Sum of atomic charges:    0.0000000

LOEWDIN ATOMIC CHARGES
----------------------
   0 C :   -0.318757
   1 C :   -0.271832
   2 C :   -0.210598
   3 C :   -0.221018
   4 C :   -0.231503
   5 C :   -0.298564
   6 O :    0.160987
   7 C :   -0.356089
   8 H :    0.120294
   9 H :    0.118495
  10 H :    0.119961
  11 H :    0.138903
  12 H :    0.141328
  13 H :    0.140686
  14 H :    0.132081
  15 H :    0.126643
  16 H :    0.121633
  17 H :    0.137552
  18 H :    0.132774
  19 H :    0.101544
  20 H :    0.102503
  21 H :    0.112976

  Mayer bond orders larger than 0.1
B(  0-C ,  1-C ) :   0.9106 B(  0-C ,  8-H ) :   0.9446 B(  0-C ,  9-H ) :   0.9396
B(  0-C , 10-H ) :   0.9383 B(  1-C ,  2-C ) :   0.9326 B(  1-C , 11-H ) :   0.9257
B(  1-C , 12-H ) :   0.9355 B(  2-C ,  3-C ) :   0.8927 B(  2-C ,  5-C ) :   0.8998
B(  2-C , 13-H ) :   0.9249 B(  3-C ,  4-C ) :   0.9445 B(  3-C , 14-H ) :   0.9271
B(  3-C , 15-H ) :   0.9257 B(  4-C ,  5-C ) :   0.9275 B(  4-C , 16-H ) :   0.9263
B(  4-C , 17-H ) :   0.9172 B(  5-C ,  6-O ) :   1.0087 B(  5-C , 18-H ) :   0.9430
B(  6-O ,  7-C ) :   0.9148 B(  7-C , 19-H ) :   0.9347 B(  7-C , 20-H ) :   0.9352
B(  7-C , 21-H ) :   0.9410

MP2 TOTAL ENERGY:     -349.580820810 Eh
FINAL SINGLE POINT ENERGY      -349.580820809510

DIPOLE MOMENT
-------------
                                X             Y             Z
Electronic contribution:     -0.05378      -2.81664       1.43034
Nuclear contribution   :     -0.27483       2.55453      -1.48351
                        -----------------------------------------
Total Dipole Moment    :     -0.32861      -0.26211      -0.05318
                        -----------------------------------------
Magnitude (a.u.)       :      0.42369
Magnitude (Debye)      :      1.07694

                             ****ORCA TERMINATED NORMALLY****
TOTAL RUN TIME: 0 days 0 hours 14 minutes 53 seconds 489 msec
