                         Program Version 3.0.3 - RELEASE   -
|  1> ! RI-MP2 RIJK def2-TZVP def2-TZVP/C def2-TZVP/JK TIGHTSCF
|  2> % maxcore 2000
|  3> % mp2 density relaxed end
|  4> *xyz 0 1
|  5>  C        0.0486260366     1.6372038201    -0.1278800654
|  6>  C       -0.2838954049     0.1453953365    -0.2551171578
|  7>  C        0.5796389697    -0.5498755966    -1.2905016064
|  8>  C        1.9590219500    -1.1090677812    -1.0116654583
|  9>  C        2.3732134067    -1.3657922155     0.4239079390
| 10>  C        1.3373150778    -2.3477629902     0.9980036015
| 11>  O        1.2196720020    -2.6385318830     2.1593637697
| 12>  C        0.4748463723    -2.8954920072    -0.1518235789
| 13>  C        0.8018011537    -2.0438920121    -1.3622271352
| 14>  H        1.0868598773     1.7853730679     0.1870094254
| 15>  H       -0.0804426146     2.1520061855    -1.0863620719
| 16>  H       -0.5994359274     2.1273987623     0.6048814981
| 17>  H       -0.1860386362    -0.3298474548     0.7267043417
| 18>  H       -1.3386820850     0.0289319371    -0.5365104847
| 19>  H        0.5024353286    -0.0850001926    -2.2719569403
| 20>  H        2.7411187876    -0.9164906313    -1.7370115864
| 21>  H        3.3569439181    -1.8504655547     0.4668535035
| 22>  H        2.4338774675    -0.4797021577     1.0637742184
| 23>  H        0.7593543298    -3.9421073926    -0.3190429646
| 24>  H       -0.5778022126    -2.9009388445     0.1482317588
| 25>  H        0.7587159828    -2.5136384755    -2.3382395161
| 26> *
| 27>
| 28>                          ****END OF INPUT****

CARTESIAN COORDINATES (ANGSTROEM)
---------------------------------
  C      0.048626    1.637204   -0.127880
  C     -0.283895    0.145395   -0.255117
  C      0.579639   -0.549876   -1.290502
  C      1.959022   -1.109068   -1.011665
  C      2.373213   -1.365792    0.423908
  C      1.337315   -2.347763    0.998004
  O      1.219672   -2.638532    2.159364
  C      0.474846   -2.895492   -0.151824
  C      0.801801   -2.043892   -1.362227
  H      1.086860    1.785373    0.187009
  H     -0.080443    2.152006   -1.086362
  H     -0.599436    2.127399    0.604881
  H     -0.186039   -0.329847    0.726704
  H     -1.338682    0.028932   -0.536510
  H      0.502435   -0.085000   -2.271957
  H      2.741119   -0.916491   -1.737012
  H      3.356944   -1.850466    0.466854
  H      2.433877   -0.479702    1.063774
  H      0.759354   -3.942107   -0.319043
  H     -0.577802   -2.900939    0.148232
  H      0.758716   -2.513638   -2.338240

 Total Charge           Charge          ....    0
 Multiplicity           Mult            ....    1
 Number of Electrons    NEL             ....   68
 Basis Dimension        Dim             ....  351

ORBITAL ENERGIES
----------------

  NO   OCC          E(Eh)            E(eV)
   0   2.0000     -20.542747      -558.9966
   1   2.0000     -11.328667      -308.2687
   2   2.0000     -11.239892      -305.8530
   3   2.0000     -11.239110      -305.8317
   4   2.0000     -11.238566      -305.8169
   5   2.0000     -11.237782      -305.7956
   6   2.0000     -11.237435      -305.7862
   7   2.0000     -11.230380      -305.5942
   8   2.0000     -11.218634      -305.2745
   9   2.0000      -1.388096       -37.7720
  10   2.0000      -1.184937       -32.2438
  11   2.0000      -1.048163       -28.5220
  12   2.0000      -0.998750       -27.1774
  13   2.0000      -0.989260       -26.9191
  14   2.0000      -0.873613       -23.7722
  15   2.0000      -0.781457       -21.2645
  16   2.0000      -0.771650       -20.9977
  17   2.0000      -0.735613       -20.0171
  18   2.0000      -0.690652       -18.7936
  19   2.0000      -0.649191       -17.6654
  20   2.0000      -0.613189       -16.6857
  21   2.0000      -0.600972       -16.3533
  22   2.0000      -0.598508       -16.2862
  23   2.0000      -0.591733       -16.1019
  24   2.0000      -0.575657       -15.6644
  25   2.0000      -0.542444       -14.7607
  26   2.0000      -0.524640       -14.2762
  27   2.0000      -0.518375       -14.1057
  28   2.0000      -0.501082       -13.6351
  29   2.0000      -0.493718       -13.4347
  30   2.0000      -0.475330       -12.9344
  31   2.0000      -0.405755       -11.0412
  32   2.0000      -0.400044       -10.8858
  33   2.0000      -0.397080       -10.8051
  34   0.0000       0.127040         3.4569
  35   0.0000       0.131463         3.5773
  36   0.0000       0.155740         4.2379
  37   0.0000       0.161870         4.4047
  38   0.0000       0.169569         4.6142

MULLIKEN ATOMIC CHARGES
-----------------------
   0 C :   -0.399925
   1 C :   -0.208433
   2 C :   -0.119798
   3 C :   -0.125701
   4 C :   -0.214331
   5 C :    0.088037
   6 O :   -0.262997
   7 C :   -0.213999
   8 C :   -0.105841
   9 H :    0.127052
  10 H :    0.122898
  11 H :    0.137327
  12 H :    0.126723
  13 H :    0.117079
  14 H :    0.116575
  15 H :    0.129030
  16 H :    0.142518
  17 H :    0.134596
  18 H :    0.141621
  19 H :    0.138689
  20 H :    0.128881
Sum of atomic charges:    0.0000000

LOEWDIN ATOMIC CHARGES
----------------------
   0 C :   -0.311549
   1 C :   -0.267875
   2 C :   -0.191225
   3 C :   -0.180803
   4 C :   -0.208749
   5 C :   -0.311325
   6 O :    0.151627
   7 C :   -0.208955
   8 C :   -0.180339
   9 H :    0.121421
  10 H :    0.121223
  11 H :    0.121654
  12 H :    0.146157
  13 H :    0.141165
  14 H :    0.155100
  15 H :    0.143061
  16 H :    0.157458
  17 H :    0.150315
  18 H :    0.156940
  19 H :    0.151341
  20 H :    0.143358

  Mayer bond orders larger than 0.1
B(  0-C ,  1-C ) :   0.9180 B(  0-C ,  9-H ) :   0.9397 B(  0-C , 10-H ) :   0.9378
B(  0-C , 11-H ) :   0.9404 B(  1-C ,  2-C ) :   0.9212 B(  1-C , 12-H ) :   0.9306
B(  1-C , 13-H ) :   0.9293 B(  2-C ,  3-C ) :   0.8811 B(  2-C ,  8-C ) :   0.8703
B(  2-C , 14-H ) :   0.9281 B(  3-C ,  4-C ) :   0.9238 B(  3-C ,  8-C ) :   0.8296
B(  3-C , 15-H ) :   0.9211 B(  4-C ,  5-C ) :   0.9104 B(  4-C ,  7-C ) :  -0.1114
B(  4-C , 16-H ) :   0.9054 B(  4-C , 17-H ) :   0.9071 B(  5-C ,  6-O ) :   2.0631
B(  5-C ,  7-C ) :   0.9104 B(  7-C ,  8-C ) :   0.9267 B(  7-C , 18-H ) :   0.9070
B(  7-C , 19-H ) :   0.9066 B(  8-C , 20-H ) :   0.9212

MP2 TOTAL ENERGY:     -386.435552427 Eh
FINAL SINGLE POINT ENERGY      -386.435552426724

DIPOLE MOMENT
-------------
                                X             Y             Z
Electronic contribution:      2.27057      -6.92621       3.32899
Nuclear contribution   :     -2.20346       7.22986      -4.38702
                        -----------------------------------------
Total Dipole Moment    :      0.06711       0.30364      -1.05803
                        -----------------------------------------
Magnitude (a.u.)       :      1.10278
Magnitude (Debye)      :      2.80305

                             ****ORCA TERMINATED NORMALLY****
TOTAL RUN TIME: 0 days 0 hours 20 minutes 49 seconds 738 msec
