                         Program Version 3.0.3 - RELEASE   -
|  1> ! RI-MP2 RIJK def2-TZVP def2-TZVP/C def2-TZVP/JK TIGHTSCF
|  2> % maxcore 2000
|  3> % mp2 density relaxed end
|  4> *xyz 0 1
|  5>  C       -0.0837559082     1.5251772640    -0.0475657167
|  6>  C        0.0490366729    -0.0006609458    -0.0186196645
|  7>  C        0.7018582750    -0.5395086338     1.2573481609
|  8>  C       -0.0969285160    -0.2765383286     2.5652155283
|  9>  C        0.1991960247    -1.4853986877     3.4108024371
| 10>  C        0.7657852527    -2.4747378299     2.7028556028
| 11>  C        0.9384241964    -2.0721714320     1.2459111414
| 12>  C        1.1292829204    -3.7564265003     3.1808428154
| 13>  C        1.4595524842    -4.8588519934     3.5397903858
| 14>  H        0.8961246769     2.0082576563     0.0391645399
| 15>  H       -0.5403571212     1.8654847352    -0.9820718850
| 16>  H       -0.7057958721     1.8900067602     0.7765390631
| 17>  H       -0.9426489870    -0.4599517918    -0.1323187247
| 18>  H        0.6367179608    -0.3292898049    -0.8855520060
| 19>  H        1.6815395758    -0.0575470718     1.3728003838
| 20>  H        0.1851710910     0.6630296939     3.0533242388
| 21>  H       -1.1780034365    -0.2034370045     2.3664542333
| 22>  H       -0.0564295869    -1.5540360746     4.4618109946
| 23>  H        0.1961670721    -2.5920982641     0.6236004405
| 24>  H        1.9216576457    -2.3451261404     0.8497935029
| 25>  H        1.7429178394    -5.8263095361     3.8724758584
| 26> *
| 27>
| 28>                          ****END OF INPUT****

CARTESIAN COORDINATES (ANGSTROEM)
---------------------------------
  C     -0.083756    1.525177   -0.047566
  C      0.049037   -0.000661   -0.018620
  C      0.701858   -0.539509    1.257348
  C     -0.096929   -0.276538    2.565216
  C      0.199196   -1.485399    3.410802
  C      0.765785   -2.474738    2.702856
  C      0.938424   -2.072171    1.245911
  C      1.129283   -3.756427    3.180843
  C      1.459552   -4.858852    3.539790
  H      0.896125    2.008258    0.039165
  H     -0.540357    1.865485   -0.982072
  H     -0.705796    1.890007    0.776539
  H     -0.942649   -0.459952   -0.132319
  H      0.636718   -0.329290   -0.885552
  H      1.681540   -0.057547    1.372800
  H      0.185171    0.663030    3.053324
  H     -1.178003   -0.203437    2.366454
  H     -0.056430   -1.554036    4.461811
  H      0.196167   -2.592098    0.623600
  H      1.921658   -2.345126    0.849794
  H      1.742918   -5.826310    3.872476

 Total Charge           Charge          ....    0
 Multiplicity           Mult            ....    1
 Number of Electrons    NEL             ....   66
 Basis Dimension        Dim             ....  351

ORBITAL ENERGIES
----------------

  NO   OCC          E(Eh)            E(eV)
   0   2.0000     -11.247598      -306.0627
   1   2.0000     -11.236667      -305.7652
   2   2.0000     -11.233871      -305.6892
   3   2.0000     -11.230171      -305.5885
   4   2.0000     -11.228282      -305.5371
   5   2.0000     -11.227808      -305.5242
   6   2.0000     -11.223853      -305.4166
   7   2.0000     -11.222065      -305.3679
   8   2.0000     -11.215158      -305.1800
   9   2.0000      -1.151388       -31.3309
  10   2.0000      -1.062162       -28.9029
  11   2.0000      -1.021428       -27.7945
  12   2.0000      -0.964587       -26.2478
  13   2.0000      -0.951563       -25.8933
  14   2.0000      -0.848851       -23.0984
  15   2.0000      -0.790371       -21.5071
  16   2.0000      -0.767963       -20.8973
  17   2.0000      -0.706582       -19.2271
  18   2.0000      -0.682659       -18.5761
  19   2.0000      -0.638359       -17.3706
  20   2.0000      -0.595499       -16.2044
  21   2.0000      -0.582198       -15.8424
  22   2.0000      -0.557251       -15.1636
  23   2.0000      -0.555563       -15.1176
  24   2.0000      -0.527145       -14.3443
  25   2.0000      -0.510562       -13.8931
  26   2.0000      -0.507524       -13.8104
  27   2.0000      -0.471281       -12.8242
  28   2.0000      -0.466905       -12.7051
  29   2.0000      -0.454682       -12.3725
  30   2.0000      -0.433078       -11.7846
  31   2.0000      -0.385815       -10.4986
  32   2.0000      -0.322020        -8.7626
  33   0.0000       0.115738         3.1494
  34   0.0000       0.132935         3.6173
  35   0.0000       0.157913         4.2970
  36   0.0000       0.164154         4.4669
  37   0.0000       0.165755         4.5104

MULLIKEN ATOMIC CHARGES
-----------------------
   0 C :   -0.396796
   1 C :   -0.220249
   2 C :   -0.065780
   3 C :   -0.211987
   4 C :   -0.191938
   5 C :   -0.136857
   6 C :   -0.209898
   7 C :    0.055269
   8 C :   -0.139994
   9 H :    0.124159
  10 H :    0.135565
  11 H :    0.128860
  12 H :    0.109232
  13 H :    0.115432
  14 H :    0.091596
  15 H :    0.128862
  16 H :    0.113611
  17 H :    0.133936
  18 H :    0.115940
  19 H :    0.130450
  20 H :    0.190589
Sum of atomic charges:    0.0000000

LOEWDIN ATOMIC CHARGES
----------------------
   0 C :   -0.317320
   1 C :   -0.279804
   2 C :   -0.227590
   3 C :   -0.219897
   4 C :   -0.099790
   5 C :   -0.160365
   6 C :   -0.172834
   7 C :   -0.072584
   8 C :   -0.083015
   9 H :    0.121281
  10 H :    0.121127
  11 H :    0.120763
  12 H :    0.136568
  13 H :    0.138333
  14 H :    0.154804
  15 H :    0.138520
  16 H :    0.144981
  17 H :    0.141833
  18 H :    0.146460
  19 H :    0.141736
  20 H :    0.126791

  Mayer bond orders larger than 0.1
B(  0-C ,  1-C ) :   0.9196 B(  0-C ,  9-H ) :   0.9382 B(  0-C , 10-H ) :   0.9419
B(  0-C , 11-H ) :   0.9388 B(  1-C ,  2-C ) :   0.9219 B(  1-C , 12-H ) :   0.9254
B(  1-C , 13-H ) :   0.9375 B(  2-C ,  3-C ) :   0.9460 B(  2-C ,  6-C ) :   0.9440
B(  2-C , 14-H ) :   0.9265 B(  3-C ,  4-C ) :   0.9570 B(  3-C , 15-H ) :   0.9263
B(  3-C , 16-H ) :   0.8939 B(  4-C ,  5-C ) :   1.6661 B(  4-C , 17-H ) :   0.9304
B(  5-C ,  6-C ) :   0.9539 B(  5-C ,  7-C ) :   1.1453 B(  5-C ,  8-C ) :  -0.1510
B(  6-C , 18-H ) :   0.8986 B(  6-C , 19-H ) :   0.9189 B(  7-C ,  8-C ) :   2.5800
B(  8-C , 20-H ) :   0.8834

MP2 TOTAL ENERGY:     -349.285039628 Eh
FINAL SINGLE POINT ENERGY      -349.285039627871

DIPOLE MOMENT
-------------
                                X             Y             Z
Electronic contribution:      2.38073      -9.54648       6.88000
Nuclear contribution   :     -2.45777       9.82516      -7.05898
                        -----------------------------------------
Total Dipole Moment    :     -0.07704       0.27867      -0.17898
                        -----------------------------------------
Magnitude (a.u.)       :      0.34004
Magnitude (Debye)      :      0.86432

                             ****ORCA TERMINATED NORMALLY****
TOTAL RUN TIME: 0 days 0 hours 31 minutes 46 seconds 526 msec
