                         Program Version 3.0.3 - RELEASE   -
|  1> ! RI-MP2 RIJK def2-TZVP def2-TZVP/C def2-TZVP/JK TIGHTSCF
|  2> % maxcore 2000
|  3> % mp2 density relaxed end
|  4> *xyz 0 1
|  5>  C        0.1590536552     1.4603594410    -0.0579730020
|  6>  C       -0.0399846508    -0.0608068198     0.0714109903
|  7>  C        0.6598454787    -0.5794061223     1.2508187144
|  8>  N        1.2267144471    -0.9925637204     2.1689614328
|  9>  C       -1.5485589528    -0.4510023693     0.1479444259
| 10>  O       -2.1707668254     0.1985548121     1.2128161397
| 11>  C       -2.2797681348    -0.1263267557    -1.1648014218
| 12>  C       -1.8109068435    -0.7754254319    -2.4446374190
| 13>  O       -3.2244536666     0.6318015739    -1.1235433500
| 14>  H        1.2214380147     1.7120659461    -0.0675050110
| 15>  H       -0.2912572321     1.8265872976    -0.9855064395
| 16>  H       -0.3174233678     1.9677952400     0.7821208350
| 17>  H        0.3986505704    -0.5673252573    -0.7972756956
| 18>  H       -1.6024745219    -1.5441436911     0.2823635518
| 19>  H       -2.8973953890     0.7069877299     0.8141039548
| 20>  H       -1.5370757669    -1.8227846573    -2.2867408116
| 21>  H       -2.5928588468    -0.6987865509    -3.2010256085
| 22>  H       -0.9184196578    -0.2578515047    -2.8163194357
| 23> *
| 24>
| 25>                          ****END OF INPUT****

CARTESIAN COORDINATES (ANGSTROEM)
---------------------------------
  C      0.159054    1.460359   -0.057973
  C     -0.039985   -0.060807    0.071411
  C      0.659845   -0.579406    1.250819
  N      1.226714   -0.992564    2.168961
  C     -1.548559   -0.451002    0.147944
  O     -2.170767    0.198555    1.212816
  C     -2.279768   -0.126327   -1.164801
  C     -1.810907   -0.775425   -2.444637
  O     -3.224454    0.631802   -1.123543
  H      1.221438    1.712066   -0.067505
  H     -0.291257    1.826587   -0.985506
  H     -0.317423    1.967795    0.782121
  H      0.398651   -0.567325   -0.797276
  H     -1.602475   -1.544144    0.282364
  H     -2.897395    0.706988    0.814104
  H     -1.537076   -1.822785   -2.286741
  H     -2.592859   -0.698787   -3.201026
  H     -0.918420   -0.257852   -2.816319

 Total Charge           Charge          ....    0
 Multiplicity           Mult            ....    1
 Number of Electrons    NEL             ....   68
 Basis Dimension        Dim             ....  333

ORBITAL ENERGIES
----------------

  NO   OCC          E(Eh)            E(eV)
   0   2.0000     -20.585048      -560.1476
   1   2.0000     -20.573209      -559.8255
   2   2.0000     -15.571901      -423.7330
   3   2.0000     -11.366243      -309.2912
   4   2.0000     -11.326151      -308.2002
   5   2.0000     -11.303495      -307.5837
   6   2.0000     -11.274539      -306.7958
   7   2.0000     -11.266828      -306.5860
   8   2.0000     -11.250549      -306.1430
   9   2.0000      -1.438379       -39.1403
  10   2.0000      -1.382808       -37.6281
  11   2.0000      -1.221982       -33.2518
  12   2.0000      -1.118053       -30.4238
  13   2.0000      -1.048801       -28.5393
  14   2.0000      -0.967700       -26.3325
  15   2.0000      -0.900959       -24.5163
  16   2.0000      -0.787867       -21.4389
  17   2.0000      -0.740210       -20.1421
  18   2.0000      -0.710355       -19.3298
  19   2.0000      -0.693720       -18.8771
  20   2.0000      -0.663077       -18.0432
  21   2.0000      -0.627374       -17.0717
  22   2.0000      -0.624664       -16.9980
  23   2.0000      -0.608067       -16.5464
  24   2.0000      -0.584672       -15.9097
  25   2.0000      -0.566022       -15.4022
  26   2.0000      -0.555384       -15.1128
  27   2.0000      -0.546800       -14.8792
  28   2.0000      -0.543084       -14.7781
  29   2.0000      -0.531026       -14.4499
  30   2.0000      -0.487161       -13.2563
  31   2.0000      -0.460150       -12.5213
  32   2.0000      -0.456482       -12.4215
  33   2.0000      -0.444624       -12.0988
  34   0.0000       0.103427         2.8144
  35   0.0000       0.106998         2.9116
  36   0.0000       0.142477         3.8770
  37   0.0000       0.159476         4.3396
  38   0.0000       0.165199         4.4953

MULLIKEN ATOMIC CHARGES
-----------------------
   0 C :   -0.448107
   1 C :    0.087470
   2 C :   -0.206787
   3 N :   -0.048947
   4 C :    0.041313
   5 O :   -0.474375
   6 C :    0.217827
   7 C :   -0.428539
   8 O :   -0.307565
   9 H :    0.156808
  10 H :    0.141167
  11 H :    0.169192
  12 H :    0.136758
  13 H :    0.134841
  14 H :    0.338875
  15 H :    0.160747
  16 H :    0.169498
  17 H :    0.159826
Sum of atomic charges:   -0.0000000

LOEWDIN ATOMIC CHARGES
----------------------
   0 C :   -0.262836
   1 C :   -0.246064
   2 C :   -0.167054
   3 N :    0.067143
   4 C :   -0.310640
   5 O :    0.018665
   6 C :   -0.327422
   7 C :   -0.271572
   8 O :    0.152657
   9 H :    0.133314
  10 H :    0.128101
  11 H :    0.138398
  12 H :    0.176613
  13 H :    0.159500
  14 H :    0.186734
  15 H :    0.139578
  16 H :    0.141156
  17 H :    0.143730

  Mayer bond orders larger than 0.1
B(  0-C ,  1-C ) :   0.8763 B(  0-C ,  9-H ) :   0.9312 B(  0-C , 10-H ) :   0.9276
B(  0-C , 11-H ) :   0.9294 B(  1-C ,  2-C ) :   0.9172 B(  1-C ,  4-C ) :   0.8072
B(  1-C , 12-H ) :   0.8996 B(  2-C ,  3-N ) :   2.8807 B(  4-C ,  5-O ) :   1.1037
B(  4-C ,  6-C ) :   0.8810 B(  4-C , 13-H ) :   0.9342 B(  5-O , 14-H ) :   0.7945
B(  6-C ,  7-C ) :   0.9106 B(  6-C ,  8-O ) :   1.8964 B(  7-C , 15-H ) :   0.9232
B(  7-C , 16-H ) :   0.9260 B(  7-C , 17-H ) :   0.9043

MP2 TOTAL ENERGY:     -438.402478548 Eh
FINAL SINGLE POINT ENERGY      -438.402478547526

DIPOLE MOMENT
-------------
                                X             Y             Z
Electronic contribution:     -1.19124      -1.58223       5.57271
Nuclear contribution   :      0.99510       1.62651      -7.55589
                        -----------------------------------------
Total Dipole Moment    :     -0.19614       0.04427      -1.98317
                        -----------------------------------------
Magnitude (a.u.)       :      1.99334
Magnitude (Debye)      :      5.06666

                             ****ORCA TERMINATED NORMALLY****
TOTAL RUN TIME: 0 days 0 hours 18 minutes 13 seconds 860 msec
