                         Program Version 3.0.3 - RELEASE   -
|  1> ! RI-MP2 RIJK def2-TZVP def2-TZVP/C def2-TZVP/JK TIGHTSCF
|  2> % maxcore 2000
|  3> % mp2 density relaxed end
|  4> *xyz 0 1
|  5>  C       -0.1177276518     1.6409917247     0.1732094267
|  6>  C        0.0132575577     0.1234565268     0.1333151871
|  7>  C        1.1479480437    -0.5874345995    -0.6763299342
|  8>  C        2.1429760768    -0.1644483745     0.4430619085
|  9>  C        0.8671636928    -0.6693459846     1.1833210777
| 10>  C        0.6440823982    -0.7414884376     2.6672297448
| 11>  O        1.6567212865    -1.5692894588     3.2250903299
| 12>  C        0.8849560573    -1.8728727317     0.1757774332
| 13>  C       -0.3181127582    -2.7797270808    -0.0416197818
| 14>  H        0.8269351341     2.1648016494     0.3376339212
| 15>  H       -0.5351487056     2.0069182155    -0.7718466970
| 16>  H       -0.8071166947     1.9477565919     0.9683585640
| 17>  H       -0.9800950212    -0.3017531756    -0.0329790880
| 18>  H        1.3139264239    -0.5371256946    -1.7544413636
| 19>  H        3.0366096941    -0.7819656486     0.5587120841
| 20>  H        2.3897916670     0.8941005925     0.5285370346
| 21>  H        0.6749854669     0.2736166450     3.0971500483
| 22>  H       -0.3611073471    -1.1494586046     2.8681791940
| 23>  H        1.5168386306    -1.6149444550     4.1754045348
| 24>  H        1.7819282170    -2.4901905468     0.2914265729
| 25>  H       -1.2621466826    -2.2468128527    -0.1790745928
| 26>  H       -0.1640649251    -3.4051798701    -0.9281457741
| 27>  H       -0.4409029603    -3.4547408502     0.8129319697
| 28> *
| 29>
| 30>                          ****END OF INPUT****

CARTESIAN COORDINATES (ANGSTROEM)
---------------------------------
  C     -0.117728    1.640992    0.173209
  C      0.013258    0.123457    0.133315
  C      1.147948   -0.587435   -0.676330
  C      2.142976   -0.164448    0.443062
  C      0.867164   -0.669346    1.183321
  C      0.644082   -0.741488    2.667230
  O      1.656721   -1.569289    3.225090
  C      0.884956   -1.872873    0.175777
  C     -0.318113   -2.779727   -0.041620
  H      0.826935    2.164802    0.337634
  H     -0.535149    2.006918   -0.771847
  H     -0.807117    1.947757    0.968359
  H     -0.980095   -0.301753   -0.032979
  H      1.313926   -0.537126   -1.754441
  H      3.036610   -0.781966    0.558712
  H      2.389792    0.894101    0.528537
  H      0.674985    0.273617    3.097150
  H     -0.361107   -1.149459    2.868179
  H      1.516839   -1.614944    4.175405
  H      1.781928   -2.490191    0.291427
  H     -1.262147   -2.246813   -0.179075
  H     -0.164065   -3.405180   -0.928146
  H     -0.440903   -3.454741    0.812932

 Total Charge           Charge          ....    0
 Multiplicity           Mult            ....    1
 Number of Electrons    NEL             ....   70
 Basis Dimension        Dim             ....  363

ORBITAL ENERGIES
----------------

  NO   OCC          E(Eh)            E(eV)
   0   2.0000     -20.553759      -559.2962
   1   2.0000     -11.272612      -306.7434
   2   2.0000     -11.236250      -305.7539
   3   2.0000     -11.231759      -305.6317
   4   2.0000     -11.227440      -305.5142
   5   2.0000     -11.223817      -305.4156
   6   2.0000     -11.214810      -305.1705
   7   2.0000     -11.210310      -305.0480
   8   2.0000     -11.206916      -304.9557
   9   2.0000      -1.356932       -36.9240
  10   2.0000      -1.202380       -32.7184
  11   2.0000      -1.001223       -27.2447
  12   2.0000      -0.973296       -26.4847
  13   2.0000      -0.959860       -26.1191
  14   2.0000      -0.865637       -23.5552
  15   2.0000      -0.815534       -22.1918
  16   2.0000      -0.799233       -21.7482
  17   2.0000      -0.696014       -18.9395
  18   2.0000      -0.690990       -18.8028
  19   2.0000      -0.635001       -17.2793
  20   2.0000      -0.632779       -17.2188
  21   2.0000      -0.619434       -16.8557
  22   2.0000      -0.595969       -16.2171
  23   2.0000      -0.564180       -15.3521
  24   2.0000      -0.553197       -15.0533
  25   2.0000      -0.532855       -14.4997
  26   2.0000      -0.529112       -14.3979
  27   2.0000      -0.511870       -13.9287
  28   2.0000      -0.484782       -13.1916
  29   2.0000      -0.458991       -12.4898
  30   2.0000      -0.432685       -11.7740
  31   2.0000      -0.427746       -11.6396
  32   2.0000      -0.422381       -11.4936
  33   2.0000      -0.414531       -11.2800
  34   2.0000      -0.406505       -11.0616
  35   0.0000       0.131603         3.5811
  36   0.0000       0.147915         4.0250
  37   0.0000       0.157131         4.2757
  38   0.0000       0.173126         4.7110
  39   0.0000       0.190221         5.1762

MULLIKEN ATOMIC CHARGES
-----------------------
   0 C :   -0.430025
   1 C :   -0.059934
   2 C :   -0.125798
   3 C :   -0.214056
   4 C :    0.039056
   5 C :   -0.120670
   6 O :   -0.468644
   7 C :   -0.023020
   8 C :   -0.437410
   9 H :    0.123985
  10 H :    0.135123
  11 H :    0.128986
  12 H :    0.088473
  13 H :    0.127602
  14 H :    0.112970
  15 H :    0.108689
  16 H :    0.103458
  17 H :    0.101696
  18 H :    0.312357
  19 H :    0.101702
  20 H :    0.123176
  21 H :    0.134885
  22 H :    0.137397
Sum of atomic charges:    0.0000000

LOEWDIN ATOMIC CHARGES
----------------------
   0 C :   -0.298850
   1 C :   -0.184791
   2 C :   -0.145543
   3 C :   -0.171302
   4 C :   -0.188373
   5 C :   -0.316777
   6 O :   -0.043382
   7 C :   -0.182672
   8 C :   -0.298948
   9 H :    0.121368
  10 H :    0.126414
  11 H :    0.123858
  12 H :    0.142996
  13 H :    0.122509
  14 H :    0.131828
  15 H :    0.123269
  16 H :    0.121704
  17 H :    0.121899
  18 H :    0.171298
  19 H :    0.150664
  20 H :    0.119224
  21 H :    0.126433
  22 H :    0.127175

  Mayer bond orders larger than 0.1
B(  0-C ,  1-C ) :   0.9124 B(  0-C ,  9-H ) :   0.9374 B(  0-C , 10-H ) :   0.9401
B(  0-C , 11-H ) :   0.9388 B(  1-C ,  2-C ) :   0.8927 B(  1-C ,  4-C ) :   0.8596
B(  1-C , 12-H ) :   0.9332 B(  2-C ,  3-C ) :   0.9061 B(  2-C ,  7-C ) :   0.8925
B(  2-C , 13-H ) :   0.8884 B(  3-C ,  4-C ) :   0.8872 B(  3-C , 14-H ) :   0.9225
B(  3-C , 15-H ) :   0.9263 B(  4-C ,  5-C ) :   0.8299 B(  4-C ,  6-O ) :  -0.1419
B(  4-C ,  7-C ) :   0.8695 B(  5-C ,  6-O ) :   1.0902 B(  5-C , 16-H ) :   0.9366
B(  5-C , 17-H ) :   0.9365 B(  6-O , 18-H ) :   0.8500 B(  7-C ,  8-C ) :   0.9027
B(  7-C , 19-H ) :   0.9245 B(  8-C , 20-H ) :   0.9348 B(  8-C , 21-H ) :   0.9389
B(  8-C , 22-H ) :   0.9405

MP2 TOTAL ENERGY:     -387.570127612 Eh
FINAL SINGLE POINT ENERGY      -387.570127612099

DIPOLE MOMENT
-------------
                                X             Y             Z
Electronic contribution:      3.05694      -1.45417       2.47589
Nuclear contribution   :     -3.50168       1.66968      -2.09900
                        -----------------------------------------
Total Dipole Moment    :     -0.44474       0.21551       0.37688
                        -----------------------------------------
Magnitude (a.u.)       :      0.62151
Magnitude (Debye)      :      1.57976

                             ****ORCA TERMINATED NORMALLY****
TOTAL RUN TIME: 0 days 0 hours 20 minutes 49 seconds 227 msec
