                         Program Version 3.0.3 - RELEASE   -
|  1> ! RI-MP2 RIJK def2-TZVP def2-TZVP/C def2-TZVP/JK TIGHTSCF
|  2> % maxcore 2000
|  3> % mp2 density relaxed end
|  4> *xyz 0 1
|  5>  C        0.2964134415     1.4809597477    -0.1025049013
|  6>  N        1.3076521053     0.4293425990     0.1208058443
|  7>  C       -0.1029544528     0.0636413446     0.0108185186
|  8>  C       -0.8540276503    -0.7339487246     1.0873499412
|  9>  C       -1.2102833029    -1.8074621795     0.0038338078
| 10>  C       -0.6278760195    -0.8706284637    -1.0628374567
| 11>  C       -1.0720415805    -0.5897142424    -2.4289734620
| 12>  O        0.1604000794    -1.2827823433    -2.1675867689
| 13>  H        0.1467002201     2.1544226657     0.7375517728
| 14>  H        0.2376396284     1.9566835521    -1.0791696500
| 15>  H        1.7661331880     0.1982998619    -0.7601209538
| 16>  H       -0.2289870292    -1.0798947838     1.9121053666
| 17>  H       -1.7274100012    -0.2145797126     1.4893870171
| 18>  H       -0.6283923625    -2.7271983569     0.1000784035
| 19>  H       -2.2664516763    -2.0634805211    -0.1031875695
| 20>  H       -1.8587325380    -1.1963364619    -2.8763155467
| 21>  H       -0.9656939694     0.4115260588    -2.8444658430
| 22> *
| 23>
| 24>                          ****END OF INPUT****

CARTESIAN COORDINATES (ANGSTROEM)
---------------------------------
  C      0.296413    1.480960   -0.102505
  N      1.307652    0.429343    0.120806
  C     -0.102954    0.063641    0.010819
  C     -0.854028   -0.733949    1.087350
  C     -1.210283   -1.807462    0.003834
  C     -0.627876   -0.870628   -1.062837
  C     -1.072042   -0.589714   -2.428973
  O      0.160400   -1.282782   -2.167587
  H      0.146700    2.154423    0.737552
  H      0.237640    1.956684   -1.079170
  H      1.766133    0.198300   -0.760121
  H     -0.228987   -1.079895    1.912105
  H     -1.727410   -0.214580    1.489387
  H     -0.628392   -2.727198    0.100078
  H     -2.266452   -2.063481   -0.103188
  H     -1.858733   -1.196336   -2.876316
  H     -0.965694    0.411526   -2.844466

 Total Charge           Charge          ....    0
 Multiplicity           Mult            ....    1
 Number of Electrons    NEL             ....   60
 Basis Dimension        Dim             ....  302

ORBITAL ENERGIES
----------------

  NO   OCC          E(Eh)            E(eV)
   0   2.0000     -20.574279      -559.8546
   1   2.0000     -15.557523      -423.3417
   2   2.0000     -11.295730      -307.3724
   3   2.0000     -11.288651      -307.1798
   4   2.0000     -11.266694      -306.5823
   5   2.0000     -11.257832      -306.3412
   6   2.0000     -11.233827      -305.6880
   7   2.0000     -11.230351      -305.5934
   8   2.0000      -1.418482       -38.5988
   9   2.0000      -1.265424       -34.4339
  10   2.0000      -1.105283       -30.0763
  11   2.0000      -0.926527       -25.2121
  12   2.0000      -0.896056       -24.3829
  13   2.0000      -0.867652       -23.6100
  14   2.0000      -0.857319       -23.3288
  15   2.0000      -0.736173       -20.0323
  16   2.0000      -0.711854       -19.3705
  17   2.0000      -0.679043       -18.4777
  18   2.0000      -0.638118       -17.3641
  19   2.0000      -0.625918       -17.0321
  20   2.0000      -0.585751       -15.9391
  21   2.0000      -0.553345       -15.0573
  22   2.0000      -0.528530       -14.3820
  23   2.0000      -0.510603       -13.8942
  24   2.0000      -0.499838       -13.6013
  25   2.0000      -0.466708       -12.6998
  26   2.0000      -0.462301       -12.5799
  27   2.0000      -0.438053       -11.9200
  28   2.0000      -0.430286       -11.7087
  29   2.0000      -0.379597       -10.3294
  30   0.0000       0.146832         3.9955
  31   0.0000       0.154857         4.2139
  32   0.0000       0.165097         4.4925
  33   0.0000       0.167531         4.5588
  34   0.0000       0.179325         4.8797

MULLIKEN ATOMIC CHARGES
-----------------------
   0 C :   -0.201315
   1 N :   -0.383855
   2 C :    0.090359
   3 C :   -0.194990
   4 C :   -0.192572
   5 C :    0.105460
   6 C :   -0.090264
   7 O :   -0.339071
   8 H :    0.123813
   9 H :    0.123813
  10 H :    0.232459
  11 H :    0.123200
  12 H :    0.120279
  13 H :    0.124250
  14 H :    0.122694
  15 H :    0.119624
  16 H :    0.116117
Sum of atomic charges:   -0.0000000

LOEWDIN ATOMIC CHARGES
----------------------
   0 C :   -0.240600
   1 N :    0.014378
   2 C :   -0.262669
   3 C :   -0.183697
   4 C :   -0.184769
   5 C :   -0.286897
   6 C :   -0.232015
   7 O :    0.164709
   8 H :    0.127543
   9 H :    0.122917
  10 H :    0.172626
  11 H :    0.136346
  12 H :    0.134925
  13 H :    0.142801
  14 H :    0.131762
  15 H :    0.122472
  16 H :    0.120171

  Mayer bond orders larger than 0.1
B(  0-C ,  1-N ) :   0.9660 B(  0-C ,  2-C ) :   0.9249 B(  0-C ,  8-H ) :   0.9197
B(  0-C ,  9-H ) :   0.9116 B(  1-N ,  2-C ) :   0.8779 B(  1-N , 10-H ) :   0.8663
B(  2-C ,  3-C ) :   0.9031 B(  2-C ,  5-C ) :   0.9043 B(  3-C ,  4-C ) :   0.9901
B(  3-C , 11-H ) :   0.9158 B(  3-C , 12-H ) :   0.9178 B(  4-C ,  5-C ) :   0.9273
B(  4-C , 13-H ) :   0.9006 B(  4-C , 14-H ) :   0.9236 B(  5-C ,  6-C ) :   0.9764
B(  5-C ,  7-O ) :   0.8476 B(  6-C ,  7-O ) :   0.8961 B(  6-C , 15-H ) :   0.9232
B(  6-C , 16-H ) :   0.9023

MP2 TOTAL ENERGY:     -363.173569082 Eh
FINAL SINGLE POINT ENERGY      -363.173569081794

DIPOLE MOMENT
-------------
                                X             Y             Z
Electronic contribution:      2.13301      -0.81819      -2.02771
Nuclear contribution   :     -3.07410       1.13009       1.81069
                        -----------------------------------------
Total Dipole Moment    :     -0.94110       0.31191      -0.21702
                        -----------------------------------------
Magnitude (a.u.)       :      1.01491
Magnitude (Debye)      :      2.57970

                             ****ORCA TERMINATED NORMALLY****
TOTAL RUN TIME: 0 days 0 hours 11 minutes 31 seconds 708 msec
