                         Program Version 3.0.3 - RELEASE   -
|  1> ! RI-MP2 RIJK def2-TZVP def2-TZVP/C def2-TZVP/JK TIGHTSCF
|  2> % maxcore 2000
|  3> % mp2 density relaxed end
|  4> *xyz 0 1
|  5>  O        0.0305526890    -0.0543788666     0.0509659162
|  6>  C        0.0775673011     1.1464441025    -0.0041378114
|  7>  C        1.3342971104     1.9393806014    -0.0040402889
|  8>  O        2.6432085620     1.3318489555     0.0628306957
|  9>  C        2.9641583727     2.7497040289     0.0060388003
| 10>  C        1.7894899504     3.1157041305    -0.9546056883
| 11>  O        1.2599904518     4.1712666633    -0.1104958153
| 12>  C        1.7361698699     3.2003516603     0.8578628750
| 13>  H       -0.8340349736     1.7807410841    -0.0596428864
| 14>  H        4.0083147102     3.0571183015     0.0223934868
| 15>  H        1.7327251008     3.2127395218    -2.0378993607
| 16>  H        1.6162371554     3.3977243169     1.9222046370
| 17> *
| 18>
| 19>                          ****END OF INPUT****

CARTESIAN COORDINATES (ANGSTROEM)
---------------------------------
  O      0.030553   -0.054379    0.050966
  C      0.077567    1.146444   -0.004138
  C      1.334297    1.939381   -0.004040
  O      2.643209    1.331849    0.062831
  C      2.964158    2.749704    0.006039
  C      1.789490    3.115704   -0.954606
  O      1.259990    4.171267   -0.110496
  C      1.736170    3.200352    0.857863
  H     -0.834035    1.780741   -0.059643
  H      4.008315    3.057118    0.022393
  H      1.732725    3.212740   -2.037899
  H      1.616237    3.397724    1.922205

 Total Charge           Charge          ....    0
 Multiplicity           Mult            ....    1
 Number of Electrons    NEL             ....   58
 Basis Dimension        Dim             ....  272

ORBITAL ENERGIES
----------------

  NO   OCC          E(Eh)            E(eV)
   0   2.0000     -20.589053      -560.2566
   1   2.0000     -20.585471      -560.1592
   2   2.0000     -20.577970      -559.9550
   3   2.0000     -11.353750      -308.9512
   4   2.0000     -11.339036      -308.5509
   5   2.0000     -11.338898      -308.5471
   6   2.0000     -11.336636      -308.4856
   7   2.0000     -11.333667      -308.4048
   8   2.0000      -1.474817       -40.1318
   9   2.0000      -1.414779       -38.4981
  10   2.0000      -1.387667       -37.7603
  11   2.0000      -1.069633       -29.1062
  12   2.0000      -0.986420       -26.8419
  13   2.0000      -0.933366       -25.3982
  14   2.0000      -0.844543       -22.9812
  15   2.0000      -0.752507       -20.4768
  16   2.0000      -0.736114       -20.0307
  17   2.0000      -0.689358       -18.7584
  18   2.0000      -0.674225       -18.3466
  19   2.0000      -0.668304       -18.1855
  20   2.0000      -0.647412       -17.6170
  21   2.0000      -0.581244       -15.8164
  22   2.0000      -0.564930       -15.3725
  23   2.0000      -0.554338       -15.0843
  24   2.0000      -0.503818       -13.7096
  25   2.0000      -0.478340       -13.0163
  26   2.0000      -0.465248       -12.6601
  27   2.0000      -0.435172       -11.8416
  28   2.0000      -0.418816       -11.3966
  29   0.0000       0.099458         2.7064
  30   0.0000       0.142834         3.8867
  31   0.0000       0.155560         4.2330
  32   0.0000       0.159505         4.3404
  33   0.0000       0.172720         4.7000

MULLIKEN ATOMIC CHARGES
-----------------------
   0 O :   -0.229964
   1 C :   -0.005704
   2 C :    0.214036
   3 O :   -0.313725
   4 C :    0.012201
   5 C :    0.030294
   6 O :   -0.322797
   7 C :    0.030313
   8 H :    0.107300
   9 H :    0.159318
  10 H :    0.159364
  11 H :    0.159364
Sum of atomic charges:    0.0000000

LOEWDIN ATOMIC CHARGES
----------------------
   0 O :    0.162964
   1 C :   -0.264443
   2 C :   -0.237918
   3 O :    0.176881
   4 C :   -0.178945
   5 C :   -0.161449
   6 O :    0.140635
   7 C :   -0.161428
   8 H :    0.125946
   9 H :    0.131251
  10 H :    0.133252
  11 H :    0.133255

  Mayer bond orders larger than 0.1
B(  0-O ,  1-C ) :   2.0568 B(  1-C ,  2-C ) :   0.7494 B(  1-C ,  8-H ) :   0.9777
B(  2-C ,  3-O ) :   0.9604 B(  2-C ,  5-C ) :   0.8516 B(  2-C ,  7-C ) :   0.8517
B(  2-C ,  8-H ) :  -0.1034 B(  3-O ,  4-C ) :   0.9190 B(  4-C ,  5-C ) :   0.8833
B(  4-C ,  7-C ) :   0.8833 B(  4-C ,  9-H ) :   0.8950 B(  5-C ,  6-O ) :   0.9321
B(  5-C , 10-H ) :   0.8844 B(  6-O ,  7-C ) :   0.9321 B(  7-C , 11-H ) :   0.8844

MP2 TOTAL ENERGY:     -417.681588408 Eh
FINAL SINGLE POINT ENERGY      -417.681588408259

DIPOLE MOMENT
-------------
                                X             Y             Z
Electronic contribution:     -0.35765      -1.51487       0.05956
Nuclear contribution   :      0.60811       2.53254      -0.09977
                        -----------------------------------------
Total Dipole Moment    :      0.25046       1.01767      -0.04022
                        -----------------------------------------
Magnitude (a.u.)       :      1.04881
Magnitude (Debye)      :      2.66586

                             ****ORCA TERMINATED NORMALLY****
TOTAL RUN TIME: 0 days 0 hours 8 minutes 45 seconds 276 msec
