                         Program Version 3.0.3 - RELEASE   -
|  1> ! RI-MP2 RIJK def2-TZVP def2-TZVP/C def2-TZVP/JK TIGHTSCF
|  2> % maxcore 2000
|  3> % mp2 density relaxed end
|  4> *xyz 0 1
|  5>  O       -0.0286546473     1.4323488439     0.0530587567
|  6>  C        0.0237503354     0.0108735576     0.0077287658
|  7>  C        0.9846266186    -0.5331559020     1.0959013227
|  8>  O        0.6677484220    -1.8296009687     1.5722812246
|  9>  C       -0.7033013391    -1.9762119548     1.8810142831
| 10>  C       -1.4642260758    -0.7619778512     2.4888532633
| 11>  N       -2.2966742664    -0.5881759234     1.2534954945
| 12>  C       -1.6536375156    -1.8429238109     0.6854321708
| 13>  C       -1.3931658232    -0.5248810354     0.0791251860
| 14>  H        0.8311914948     1.7750292900    -0.2118324599
| 15>  H        0.3938719864    -0.3207347637    -0.9758802347
| 16>  H        2.0007687960    -0.6040206016     0.6950511014
| 17>  H        1.0029091470     0.1952482745     1.9177899637
| 18>  H       -0.7921001704    -2.9026694911     2.4490859093
| 19>  H       -2.1175860577    -1.0663185104     3.3095145508
| 20>  H       -0.9040132741     0.1241081193     2.7926147715
| 21>  H       -2.2232518723    -2.6345488483     0.2109177998
| 22>  H       -1.9724831082    -0.2788938840    -0.8067062794
| 23> *
| 24>
| 25>                          ****END OF INPUT****

CARTESIAN COORDINATES (ANGSTROEM)
---------------------------------
  O     -0.028655    1.432349    0.053059
  C      0.023750    0.010874    0.007729
  C      0.984627   -0.533156    1.095901
  O      0.667748   -1.829601    1.572281
  C     -0.703301   -1.976212    1.881014
  C     -1.464226   -0.761978    2.488853
  N     -2.296674   -0.588176    1.253495
  C     -1.653638   -1.842924    0.685432
  C     -1.393166   -0.524881    0.079125
  H      0.831191    1.775029   -0.211832
  H      0.393872   -0.320735   -0.975880
  H      2.000769   -0.604021    0.695051
  H      1.002909    0.195248    1.917790
  H     -0.792100   -2.902669    2.449086
  H     -2.117586   -1.066319    3.309515
  H     -0.904013    0.124108    2.792615
  H     -2.223252   -2.634549    0.210918
  H     -1.972483   -0.278894   -0.806706

 Total Charge           Charge          ....    0
 Multiplicity           Mult            ....    1
 Number of Electrons    NEL             ....   68
 Basis Dimension        Dim             ....  333

ORBITAL ENERGIES
----------------

  NO   OCC          E(Eh)            E(eV)
   0   2.0000     -20.568518      -559.6978
   1   2.0000     -20.565997      -559.6292
   2   2.0000     -15.565155      -423.5494
   3   2.0000     -11.297158      -307.4113
   4   2.0000     -11.292090      -307.2734
   5   2.0000     -11.283318      -307.0347
   6   2.0000     -11.265215      -306.5421
   7   2.0000     -11.260709      -306.4195
   8   2.0000     -11.256181      -306.2962
   9   2.0000      -1.394311       -37.9411
  10   2.0000      -1.371619       -37.3237
  11   2.0000      -1.287082       -35.0233
  12   2.0000      -1.044296       -28.4167
  13   2.0000      -0.972433       -26.4612
  14   2.0000      -0.952514       -25.9192
  15   2.0000      -0.880750       -23.9664
  16   2.0000      -0.774164       -21.0661
  17   2.0000      -0.747089       -20.3293
  18   2.0000      -0.721420       -19.6308
  19   2.0000      -0.711517       -19.3614
  20   2.0000      -0.678276       -18.4568
  21   2.0000      -0.630929       -17.1684
  22   2.0000      -0.614365       -16.7177
  23   2.0000      -0.593057       -16.1379
  24   2.0000      -0.580996       -15.8097
  25   2.0000      -0.563244       -15.3266
  26   2.0000      -0.559096       -15.2138
  27   2.0000      -0.528535       -14.3822
  28   2.0000      -0.493528       -13.4296
  29   2.0000      -0.464932       -12.6514
  30   2.0000      -0.447541       -12.1782
  31   2.0000      -0.422619       -11.5001
  32   2.0000      -0.407775       -11.0961
  33   2.0000      -0.378982       -10.3126
  34   0.0000       0.124547         3.3891
  35   0.0000       0.152517         4.1502
  36   0.0000       0.162250         4.4150
  37   0.0000       0.177874         4.8402
  38   0.0000       0.186022         5.0619

MULLIKEN ATOMIC CHARGES
-----------------------
   0 O :   -0.447347
   1 C :    0.036304
   2 C :   -0.098119
   3 O :   -0.311062
   4 C :    0.074138
   5 C :   -0.156359
   6 N :   -0.231334
   7 C :   -0.110149
   8 C :   -0.032924
   9 H :    0.315014
  10 H :    0.089647
  11 H :    0.127532
  12 H :    0.106253
  13 H :    0.124872
  14 H :    0.128288
  15 H :    0.123691
  16 H :    0.134887
  17 H :    0.126667
Sum of atomic charges:   -0.0000000

LOEWDIN ATOMIC CHARGES
----------------------
   0 O :   -0.012655
   1 C :   -0.333205
   2 C :   -0.304863
   3 O :    0.177748
   4 C :   -0.287322
   5 C :   -0.227204
   6 N :    0.122726
   7 C :   -0.175039
   8 C :   -0.225577
   9 H :    0.175571
  10 H :    0.145006
  11 H :    0.129403
  12 H :    0.122527
  13 H :    0.141899
  14 H :    0.134022
  15 H :    0.126684
  16 H :    0.132728
  17 H :    0.157551

  Mayer bond orders larger than 0.1
B(  0-O ,  1-C ) :   1.0590 B(  0-O ,  9-H ) :   0.8445 B(  1-C ,  2-C ) :   0.9029
B(  1-C ,  8-C ) :   0.9055 B(  1-C , 10-H ) :   0.9310 B(  2-C ,  3-O ) :   0.9315
B(  2-C , 11-H ) :   0.9233 B(  2-C , 12-H ) :   0.9384 B(  3-O ,  4-C ) :   0.9447
B(  4-C ,  5-C ) :   0.9388 B(  4-C ,  7-C ) :   0.8766 B(  4-C , 13-H ) :   0.9421
B(  5-C ,  6-N ) :   0.9258 B(  5-C , 14-H ) :   0.9192 B(  5-C , 15-H ) :   0.9170
B(  6-N ,  7-C ) :   0.8560 B(  6-N ,  8-C ) :   0.9169 B(  7-C ,  8-C ) :   0.9382
B(  7-C , 16-H ) :   0.9035 B(  8-C , 17-H ) :   0.9395

MP2 TOTAL ENERGY:     -438.310753766 Eh
FINAL SINGLE POINT ENERGY      -438.310753765505

DIPOLE MOMENT
-------------
                                X             Y             Z
Electronic contribution:     -0.77807      -0.66119      -0.55047
Nuclear contribution   :      1.53622       0.49658       0.29957
                        -----------------------------------------
Total Dipole Moment    :      0.75815      -0.16461      -0.25089
                        -----------------------------------------
Magnitude (a.u.)       :      0.81537
Magnitude (Debye)      :      2.07252

                             ****ORCA TERMINATED NORMALLY****
TOTAL RUN TIME: 0 days 0 hours 19 minutes 21 seconds 888 msec
