                         Program Version 3.0.3 - RELEASE   -
|  1> ! RI-MP2 RIJK def2-TZVP def2-TZVP/C def2-TZVP/JK TIGHTSCF
|  2> % maxcore 2000
|  3> % mp2 density relaxed end
|  4> *xyz 0 1
|  5>  O        0.0255385839     0.0820811826    -0.4401748341
|  6>  C       -0.0230878076     1.2181952116    -0.0541960021
|  7>  C       -1.2868510219     1.9994709521     0.3419428659
|  8>  C       -0.7708622670     3.3128584112     0.8881703002
|  9>  O        0.1071969341     3.1415598733     2.0068622011
| 10>  C        0.6933429066     3.4046241383     0.7236457264
| 11>  C        1.1839725379     2.1466412212     0.0818367116
| 12>  C        2.5524802960     1.6199951076     0.1352415946
| 13>  O        2.0517800866     2.2325747667    -1.0516221732
| 14>  H       -1.9083071477     2.1443461782    -0.5500408853
| 15>  H       -1.8778662999     1.4349086869     1.0684131214
| 16>  H       -1.4050623151     4.1939889672     0.9203277437
| 17>  H        1.2378348320     4.3370367632     0.6099210957
| 18>  H        3.3150675787     2.1824877236     0.6711887937
| 19>  H        2.6889931834     0.5421945163     0.0759935505
| 20> *
| 21>
| 22>                          ****END OF INPUT****

CARTESIAN COORDINATES (ANGSTROEM)
---------------------------------
  O      0.025539    0.082081   -0.440175
  C     -0.023088    1.218195   -0.054196
  C     -1.286851    1.999471    0.341943
  C     -0.770862    3.312858    0.888170
  O      0.107197    3.141560    2.006862
  C      0.693343    3.404624    0.723646
  C      1.183973    2.146641    0.081837
  C      2.552480    1.619995    0.135242
  O      2.051780    2.232575   -1.051622
  H     -1.908307    2.144346   -0.550041
  H     -1.877866    1.434909    1.068413
  H     -1.405062    4.193989    0.920328
  H      1.237835    4.337037    0.609921
  H      3.315068    2.182488    0.671189
  H      2.688993    0.542195    0.075994

 Total Charge           Charge          ....    0
 Multiplicity           Mult            ....    1
 Number of Electrons    NEL             ....   66
 Basis Dimension        Dim             ....  315

ORBITAL ENERGIES
----------------

  NO   OCC          E(Eh)            E(eV)
   0   2.0000     -20.595938      -560.4440
   1   2.0000     -20.594491      -560.4046
   2   2.0000     -20.566192      -559.6345
   3   2.0000     -11.349875      -308.8458
   4   2.0000     -11.314891      -307.8938
   5   2.0000     -11.314059      -307.8712
   6   2.0000     -11.312320      -307.8239
   7   2.0000     -11.304294      -307.6055
   8   2.0000     -11.260482      -306.4133
   9   2.0000      -1.450091       -39.4590
  10   2.0000      -1.432875       -38.9905
  11   2.0000      -1.405148       -38.2360
  12   2.0000      -1.092573       -29.7304
  13   2.0000      -0.999009       -27.1844
  14   2.0000      -0.930867       -25.3302
  15   2.0000      -0.902976       -24.5712
  16   2.0000      -0.830631       -22.6026
  17   2.0000      -0.763829       -20.7848
  18   2.0000      -0.735697       -20.0193
  19   2.0000      -0.693525       -18.8718
  20   2.0000      -0.677331       -18.4311
  21   2.0000      -0.640351       -17.4248
  22   2.0000      -0.626380       -17.0447
  23   2.0000      -0.608855       -16.5678
  24   2.0000      -0.596418       -16.2294
  25   2.0000      -0.584672       -15.9097
  26   2.0000      -0.546121       -14.8607
  27   2.0000      -0.525829       -14.3085
  28   2.0000      -0.499183       -13.5835
  29   2.0000      -0.485519       -13.2116
  30   2.0000      -0.469132       -12.7657
  31   2.0000      -0.432482       -11.7684
  32   2.0000      -0.417121       -11.3505
  33   0.0000       0.108398         2.9497
  34   0.0000       0.140892         3.8339
  35   0.0000       0.158589         4.3154
  36   0.0000       0.164829         4.4852
  37   0.0000       0.180907         4.9227

MULLIKEN ATOMIC CHARGES
-----------------------
   0 O :   -0.250885
   1 C :    0.114005
   2 C :   -0.166770
   3 C :   -0.005177
   4 O :   -0.312934
   5 C :    0.000239
   6 C :    0.169126
   7 C :   -0.076881
   8 O :   -0.322655
   9 H :    0.143758
  10 H :    0.145886
  11 H :    0.139029
  12 H :    0.150198
  13 H :    0.129777
  14 H :    0.143282
Sum of atomic charges:    0.0000000

LOEWDIN ATOMIC CHARGES
----------------------
   0 O :    0.182204
   1 C :   -0.260198
   2 C :   -0.200885
   3 C :   -0.246221
   4 O :    0.182475
   5 C :   -0.211697
   6 C :   -0.281960
   7 C :   -0.215796
   8 O :    0.190189
   9 H :    0.160889
  10 H :    0.158219
  11 H :    0.138500
  12 H :    0.144920
  13 H :    0.126763
  14 H :    0.132598

  Mayer bond orders larger than 0.1
B(  0-O ,  1-C ) :   2.0644 B(  1-C ,  2-C ) :   0.9476 B(  1-C ,  6-C ) :   0.8733
B(  2-C ,  3-C ) :   0.9065 B(  2-C ,  9-H ) :   0.8911 B(  2-C , 10-H ) :   0.8909
B(  3-C ,  4-O ) :   0.9166 B(  3-C ,  5-C ) :   0.9416 B(  3-C , 11-H ) :   0.9188
B(  4-O ,  5-C ) :   0.9228 B(  5-C ,  6-C ) :   0.8652 B(  5-C , 12-H ) :   0.9135
B(  6-C ,  7-C ) :   0.9346 B(  6-C ,  8-O ) :   0.8471 B(  7-C ,  8-O ) :   0.8879
B(  7-C , 13-H ) :   0.9179 B(  7-C , 14-H ) :   0.9058

MP2 TOTAL ENERGY:     -457.002001192 Eh
FINAL SINGLE POINT ENERGY      -457.002001191563

DIPOLE MOMENT
-------------
                                X             Y             Z
Electronic contribution:      0.73095      -1.16706      -0.71184
Nuclear contribution   :     -0.97839       1.99493       0.98935
                        -----------------------------------------
Total Dipole Moment    :     -0.24744       0.82787       0.27751
                        -----------------------------------------
Magnitude (a.u.)       :      0.90753
Magnitude (Debye)      :      2.30676

                             ****ORCA TERMINATED NORMALLY****
TOTAL RUN TIME: 0 days 0 hours 16 minutes 25 seconds 944 msec
