                         Program Version 3.0.3 - RELEASE   -
|  1> ! RI-MP2 RIJK def2-TZVP def2-TZVP/C def2-TZVP/JK TIGHTSCF
|  2> % maxcore 2000
|  3> % mp2 density relaxed end
|  4> *xyz 0 1
|  5>  C       -0.1497282556     1.5081268433    -0.1092045285
|  6>  C        0.0503011406     0.0055824667     0.0321758768
|  7>  O        0.7570056854    -0.4082053273    -1.1384544488
|  8>  C        0.8834040900    -1.8140425040    -1.2481055514
|  9>  C        1.6533858349    -2.4061985940    -0.0668716254
| 10>  C        0.9754875916    -1.9926398602     1.2463583515
| 11>  C        0.7765259124    -0.4829153033     1.2866717644
| 12>  C        1.8623233288     0.3461649827     1.9271278481
| 13>  C        0.5365378725     0.1574614727     2.6285187877
| 14>  H        0.8102965334     2.0284901612    -0.1624315896
| 15>  H       -0.6892962893     1.7096263221    -1.0379793588
| 16>  H       -0.7318731056     1.9175205419     0.7201423948
| 17>  H       -0.9435068795    -0.4813597895     0.0256467939
| 18>  H       -0.1170419699    -2.2791688982    -1.3108047042
| 19>  H        1.3977110443    -2.0009837472    -2.1957350369
| 20>  H        1.6997327765    -3.4973934060    -0.1603886949
| 21>  H        2.6821759058    -2.0279098825    -0.0883581490
| 22>  H       -0.0030417106    -2.4892618356     1.3216813661
| 23>  H        1.5616259089    -2.3223117372     2.1114807960
| 24>  H        2.7297577278    -0.1742930705     2.3202967756
| 25>  H        2.0856222842     1.3261523484     1.5220976841
| 26>  H       -0.1268218765     1.0124283736     2.6952235309
| 27>  H        0.5011470000    -0.4944825772     3.4959158676
| 28> *
| 29>
| 30>                          ****END OF INPUT****

CARTESIAN COORDINATES (ANGSTROEM)
---------------------------------
  C     -0.149728    1.508127   -0.109205
  C      0.050301    0.005582    0.032176
  O      0.757006   -0.408205   -1.138454
  C      0.883404   -1.814043   -1.248106
  C      1.653386   -2.406199   -0.066872
  C      0.975488   -1.992640    1.246358
  C      0.776526   -0.482915    1.286672
  C      1.862323    0.346165    1.927128
  C      0.536538    0.157461    2.628519
  H      0.810297    2.028490   -0.162432
  H     -0.689296    1.709626   -1.037979
  H     -0.731873    1.917521    0.720142
  H     -0.943507   -0.481360    0.025647
  H     -0.117042   -2.279169   -1.310805
  H      1.397711   -2.000984   -2.195735
  H      1.699733   -3.497393   -0.160389
  H      2.682176   -2.027910   -0.088358
  H     -0.003042   -2.489262    1.321681
  H      1.561626   -2.322312    2.111481
  H      2.729758   -0.174293    2.320297
  H      2.085622    1.326152    1.522098
  H     -0.126822    1.012428    2.695224
  H      0.501147   -0.494483    3.495916

 Total Charge           Charge          ....    0
 Multiplicity           Mult            ....    1
 Number of Electrons    NEL             ....   70
 Basis Dimension        Dim             ....  363

ORBITAL ENERGIES
----------------

  NO   OCC          E(Eh)            E(eV)
   0   2.0000     -20.543995      -559.0305
   1   2.0000     -11.277127      -306.8662
   2   2.0000     -11.267073      -306.5926
   3   2.0000     -11.232390      -305.6489
   4   2.0000     -11.222936      -305.3916
   5   2.0000     -11.222570      -305.3817
   6   2.0000     -11.220464      -305.3243
   7   2.0000     -11.217851      -305.2532
   8   2.0000     -11.210173      -305.0443
   9   2.0000      -1.367487       -37.2112
  10   2.0000      -1.152579       -31.3633
  11   2.0000      -1.055104       -28.7108
  12   2.0000      -1.009385       -27.4668
  13   2.0000      -0.928975       -25.2787
  14   2.0000      -0.846506       -23.0346
  15   2.0000      -0.827514       -22.5178
  16   2.0000      -0.812434       -22.1075
  17   2.0000      -0.735210       -20.0061
  18   2.0000      -0.671015       -18.2592
  19   2.0000      -0.651474       -17.7275
  20   2.0000      -0.644723       -17.5438
  21   2.0000      -0.629304       -17.1242
  22   2.0000      -0.582381       -15.8474
  23   2.0000      -0.564816       -15.3694
  24   2.0000      -0.560945       -15.2641
  25   2.0000      -0.540175       -14.6989
  26   2.0000      -0.532882       -14.5004
  27   2.0000      -0.512557       -13.9474
  28   2.0000      -0.504676       -13.7329
  29   2.0000      -0.484318       -13.1790
  30   2.0000      -0.476468       -12.9654
  31   2.0000      -0.451254       -12.2792
  32   2.0000      -0.417314       -11.3557
  33   2.0000      -0.397297       -10.8110
  34   2.0000      -0.392637       -10.6842
  35   0.0000       0.140193         3.8148
  36   0.0000       0.153833         4.1860
  37   0.0000       0.158788         4.3208
  38   0.0000       0.170255         4.6329
  39   0.0000       0.190291         5.1781

MULLIKEN ATOMIC CHARGES
-----------------------
   0 C :   -0.390959
   1 C :    0.058939
   2 O :   -0.297786
   3 C :   -0.093443
   4 C :   -0.194316
   5 C :   -0.234467
   6 C :    0.119302
   7 C :   -0.305460
   8 C :   -0.301761
   9 H :    0.127927
  10 H :    0.142306
  11 H :    0.124138
  12 H :    0.069257
  13 H :    0.087186
  14 H :    0.127522
  15 H :    0.116472
  16 H :    0.104187
  17 H :    0.110573
  18 H :    0.118817
  19 H :    0.125984
  20 H :    0.129742
  21 H :    0.131227
  22 H :    0.124614
Sum of atomic charges:   -0.0000000

LOEWDIN ATOMIC CHARGES
----------------------
   0 C :   -0.284741
   1 C :   -0.299066
   2 O :    0.177581
   3 C :   -0.321627
   4 C :   -0.265496
   5 C :   -0.221560
   6 C :   -0.236091
   7 C :   -0.204551
   8 C :   -0.206528
   9 H :    0.126361
  10 H :    0.129450
  11 H :    0.124798
  12 H :    0.141927
  13 H :    0.119052
  14 H :    0.128423
  15 H :    0.137244
  16 H :    0.140170
  17 H :    0.142132
  18 H :    0.141964
  19 H :    0.132843
  20 H :    0.133076
  21 H :    0.131631
  22 H :    0.133008

  Mayer bond orders larger than 0.1
B(  0-C ,  1-C ) :   0.8857 B(  0-C ,  9-H ) :   0.9401 B(  0-C , 10-H ) :   0.9370
B(  0-C , 11-H ) :   0.9372 B(  1-C ,  2-O ) :   0.9674 B(  1-C ,  6-C ) :   0.9126
B(  1-C , 12-H ) :   0.9418 B(  2-O ,  3-C ) :   0.9424 B(  3-C ,  4-C ) :   0.9482
B(  3-C , 13-H ) :   0.9323 B(  3-C , 14-H ) :   0.9296 B(  4-C ,  5-C ) :   0.9405
B(  4-C , 15-H ) :   0.9241 B(  4-C , 16-H ) :   0.9188 B(  5-C ,  6-C ) :   0.9056
B(  5-C , 17-H ) :   0.9353 B(  5-C , 18-H ) :   0.9209 B(  6-C ,  7-C ) :   0.8472
B(  6-C ,  8-C ) :   0.8546 B(  7-C ,  8-C ) :   0.9145 B(  7-C , 19-H ) :   0.9247
B(  7-C , 20-H ) :   0.9306 B(  8-C , 21-H ) :   0.9296 B(  8-C , 22-H ) :   0.9199

MP2 TOTAL ENERGY:     -387.619498512 Eh
FINAL SINGLE POINT ENERGY      -387.619498511902

DIPOLE MOMENT
-------------
                                X             Y             Z
Electronic contribution:      0.32904      -0.38465      -2.12573
Nuclear contribution   :     -0.45074       0.05344       2.46397
                        -----------------------------------------
Total Dipole Moment    :     -0.12170      -0.33121       0.33824
                        -----------------------------------------
Magnitude (a.u.)       :      0.48879
Magnitude (Debye)      :      1.24241

                             ****ORCA TERMINATED NORMALLY****
TOTAL RUN TIME: 0 days 0 hours 21 minutes 4 seconds 948 msec
