                         Program Version 3.0.3 - RELEASE   -
|  1> ! RI-MP2 RIJK def2-TZVP def2-TZVP/C def2-TZVP/JK TIGHTSCF
|  2> % maxcore 2000
|  3> % mp2 density relaxed end
|  4> *xyz 0 1
|  5>  C       -0.1208634250     1.4471374159     0.0550884128
|  6>  N       -0.2505245993     0.0117491747     0.2146249518
|  7>  C        0.5518196933    -0.6570150898     0.9140135554
|  8>  O        1.6300211732    -0.0374635520     1.5857335908
|  9>  C        2.5393048924    -0.6716904538     2.3566711769
| 10>  O        3.4247277351    -0.0932930265     2.8958442549
| 11>  O        2.4035688388    -2.0262154719     2.4979809660
| 12>  C        1.3842970982    -2.6907989222     1.8765808731
| 13>  C        0.4763650442    -2.0883548094     1.1121037571
| 14>  H        0.7239229991     1.8929529290     0.5881325388
| 15>  H       -0.0284961161     1.6715404095    -1.0133780524
| 16>  H       -1.0486655172     1.9202682084     0.3954513464
| 17>  H        1.4245414066    -3.7498325690     2.0928109321
| 18>  H       -0.3207830533    -2.6345509028     0.6308040363
| 19> *
| 20>
| 21>                          ****END OF INPUT****

CARTESIAN COORDINATES (ANGSTROEM)
---------------------------------
  C     -0.120863    1.447137    0.055088
  N     -0.250525    0.011749    0.214625
  C      0.551820   -0.657015    0.914014
  O      1.630021   -0.037464    1.585734
  C      2.539305   -0.671690    2.356671
  O      3.424728   -0.093293    2.895844
  O      2.403569   -2.026215    2.497981
  C      1.384297   -2.690799    1.876581
  C      0.476365   -2.088355    1.112104
  H      0.723923    1.892953    0.588133
  H     -0.028496    1.671540   -1.013378
  H     -1.048666    1.920268    0.395451
  H      1.424541   -3.749833    2.092811
  H     -0.320783   -2.634551    0.630804

 Total Charge           Charge          ....    0
 Multiplicity           Mult            ....    1
 Number of Electrons    NEL             ....   66
 Basis Dimension        Dim             ....  309

ORBITAL ENERGIES
----------------

  NO   OCC          E(Eh)            E(eV)
   0   2.0000     -20.659420      -562.1714
   1   2.0000     -20.650001      -561.9151
   2   2.0000     -20.565191      -559.6073
   3   2.0000     -15.572618      -423.7525
   4   2.0000     -11.465453      -311.9908
   5   2.0000     -11.372846      -309.4709
   6   2.0000     -11.352192      -308.9088
   7   2.0000     -11.269773      -306.6661
   8   2.0000     -11.257063      -306.3203
   9   2.0000      -1.545140       -42.0454
  10   2.0000      -1.449599       -39.4456
  11   2.0000      -1.407909       -38.3111
  12   2.0000      -1.250150       -34.0183
  13   2.0000      -1.107939       -30.1486
  14   2.0000      -0.984610       -26.7926
  15   2.0000      -0.939777       -25.5726
  16   2.0000      -0.890994       -24.2452
  17   2.0000      -0.787226       -21.4215
  18   2.0000      -0.756872       -20.5955
  19   2.0000      -0.726155       -19.7597
  20   2.0000      -0.695771       -18.9329
  21   2.0000      -0.675789       -18.3892
  22   2.0000      -0.665527       -18.1099
  23   2.0000      -0.628521       -17.1029
  24   2.0000      -0.603247       -16.4152
  25   2.0000      -0.591589       -16.0980
  26   2.0000      -0.578792       -15.7497
  27   2.0000      -0.553307       -15.0563
  28   2.0000      -0.539458       -14.6794
  29   2.0000      -0.505942       -13.7674
  30   2.0000      -0.453823       -12.3492
  31   2.0000      -0.437557       -11.9065
  32   2.0000      -0.371610       -10.1120
  33   0.0000       0.085649         2.3306
  34   0.0000       0.138115         3.7583
  35   0.0000       0.153638         4.1807
  36   0.0000       0.168993         4.5985
  37   0.0000       0.178450         4.8559

MULLIKEN ATOMIC CHARGES
-----------------------
   0 C :   -0.278838
   1 N :   -0.215172
   2 C :    0.227760
   3 O :   -0.219686
   4 C :    0.353876
   5 O :   -0.254840
   6 O :   -0.204305
   7 C :    0.074080
   8 C :   -0.239795
   9 H :    0.144266
  10 H :    0.144255
  11 H :    0.144253
  12 H :    0.163282
  13 H :    0.160864
Sum of atomic charges:   -0.0000000

LOEWDIN ATOMIC CHARGES
----------------------
   0 C :   -0.323262
   1 N :    0.108901
   2 C :   -0.329349
   3 O :    0.317715
   4 C :   -0.572402
   5 O :    0.161233
   6 O :    0.311625
   7 C :   -0.199622
   8 C :   -0.153277
   9 H :    0.113776
  10 H :    0.124229
  11 H :    0.124233
  12 H :    0.148158
  13 H :    0.168042

  Mayer bond orders larger than 0.1
B(  0-C ,  1-N ) :   0.8535 B(  0-C ,  9-H ) :   0.9280 B(  0-C , 10-H ) :   0.9304
B(  0-C , 11-H ) :   0.9304 B(  1-N ,  2-C ) :   1.9522 B(  2-C ,  3-O ) :   0.8947
B(  2-C ,  8-C ) :   1.0294 B(  3-O ,  4-C ) :   1.1003 B(  4-C ,  5-O ) :   2.0814
B(  4-C ,  6-O ) :   1.0342 B(  6-O ,  7-C ) :   0.9765 B(  7-C ,  8-C ) :   1.6831
B(  7-C , 12-H ) :   0.9343 B(  8-C , 13-H ) :   0.9080

MP2 TOTAL ENERGY:     -473.105545069 Eh
FINAL SINGLE POINT ENERGY      -473.105545068891

DIPOLE MOMENT
-------------
                                X             Y             Z
Electronic contribution:      4.93101      -3.27626       4.15142
Nuclear contribution   :     -5.69939       2.52707      -4.57576
                        -----------------------------------------
Total Dipole Moment    :     -0.76838      -0.74918      -0.42434
                        -----------------------------------------
Magnitude (a.u.)       :      1.15401
Magnitude (Debye)      :      2.93326

                             ****ORCA TERMINATED NORMALLY****
TOTAL RUN TIME: 0 days 0 hours 13 minutes 12 seconds 180 msec
