                         Program Version 3.0.3 - RELEASE   -
|  1> ! RI-MP2 RIJK def2-TZVP def2-TZVP/C def2-TZVP/JK TIGHTSCF
|  2> % maxcore 2000
|  3> % mp2 density relaxed end
|  4> *xyz 0 1
|  5>  C       -0.0426104749     1.3901145810    -0.0109616541
|  6>  O       -0.0212236111    -0.0145597123     0.0038938484
|  7>  C        0.6287609919    -0.5640210563    -1.1228442369
|  8>  C        0.6097641748    -2.0563846616    -1.0317167004
|  9>  C        0.0519641849    -2.7992116804    -0.0185824157
| 10>  N        0.2481598928    -4.1244116843    -0.3137171892
| 11>  C        0.9242138177    -4.2375160846    -1.5026668663
| 12>  C        1.1682804199    -2.9704422417    -1.9822291189
| 13>  C        1.8801617608    -2.6149549974    -3.2524602782
| 14>  H        0.9738655793     1.8162514748    -0.0123270912
| 15>  H       -0.5769813381     1.7833665605    -0.8910891659
| 16>  H       -0.5614879791     1.7206860348     0.8923559900
| 17>  H        0.1320043947    -0.2213680401    -2.0501544487
| 18>  H        1.6676107100    -0.1878311108    -1.1807001123
| 19>  H       -0.4605869753    -2.4840534759     0.8740726849
| 20>  H       -0.0572539816    -4.8937085351     0.2545461579
| 21>  H        1.1781123025    -5.2021471938    -1.9134942958
| 22>  H        1.2413191783    -2.0396079676    -3.9345327054
| 23>  H        2.7728856247    -2.0044298110    -3.0663015138
| 24>  H        2.2041320478    -3.5124546882    -3.7875938785
| 25> *
| 26>
| 27>                          ****END OF INPUT****

CARTESIAN COORDINATES (ANGSTROEM)
---------------------------------
  C     -0.042610    1.390115   -0.010962
  O     -0.021224   -0.014560    0.003894
  C      0.628761   -0.564021   -1.122844
  C      0.609764   -2.056385   -1.031717
  C      0.051964   -2.799212   -0.018582
  N      0.248160   -4.124412   -0.313717
  C      0.924214   -4.237516   -1.502667
  C      1.168280   -2.970442   -1.982229
  C      1.880162   -2.614955   -3.252460
  H      0.973866    1.816251   -0.012327
  H     -0.576981    1.783367   -0.891089
  H     -0.561488    1.720686    0.892356
  H      0.132004   -0.221368   -2.050154
  H      1.667611   -0.187831   -1.180700
  H     -0.460587   -2.484053    0.874073
  H     -0.057254   -4.893709    0.254546
  H      1.178112   -5.202147   -1.913494
  H      1.241319   -2.039608   -3.934533
  H      2.772886   -2.004430   -3.066302
  H      2.204132   -3.512455   -3.787594

 Total Charge           Charge          ....    0
 Multiplicity           Mult            ....    1
 Number of Electrons    NEL             ....   68
 Basis Dimension        Dim             ....  345

ORBITAL ENERGIES
----------------

  NO   OCC          E(Eh)            E(eV)
   0   2.0000     -20.550974      -559.2204
   1   2.0000     -15.592384      -424.2903
   2   2.0000     -11.273487      -306.7672
   3   2.0000     -11.267247      -306.5974
   4   2.0000     -11.240145      -305.8599
   5   2.0000     -11.239030      -305.8296
   6   2.0000     -11.215991      -305.2026
   7   2.0000     -11.209161      -305.0168
   8   2.0000     -11.203371      -304.8592
   9   2.0000      -1.372780       -37.3552
  10   2.0000      -1.280087       -34.8329
  11   2.0000      -1.068964       -29.0880
  12   2.0000      -1.005813       -27.3696
  13   2.0000      -0.941947       -25.6317
  14   2.0000      -0.923329       -25.1250
  15   2.0000      -0.877719       -23.8840
  16   2.0000      -0.760451       -20.6929
  17   2.0000      -0.731559       -19.9067
  18   2.0000      -0.717753       -19.5311
  19   2.0000      -0.659893       -17.9566
  20   2.0000      -0.644054       -17.5256
  21   2.0000      -0.617857       -16.8128
  22   2.0000      -0.581903       -15.8344
  23   2.0000      -0.581713       -15.8292
  24   2.0000      -0.568746       -15.4764
  25   2.0000      -0.545460       -14.8427
  26   2.0000      -0.535610       -14.5747
  27   2.0000      -0.535580       -14.5739
  28   2.0000      -0.515548       -14.0288
  29   2.0000      -0.485471       -13.2103
  30   2.0000      -0.477238       -12.9863
  31   2.0000      -0.422616       -11.5000
  32   2.0000      -0.323153        -8.7935
  33   2.0000      -0.286747        -7.8028
  34   0.0000       0.139445         3.7945
  35   0.0000       0.141196         3.8421
  36   0.0000       0.160136         4.3575
  37   0.0000       0.177883         4.8404
  38   0.0000       0.187621         5.1054

MULLIKEN ATOMIC CHARGES
-----------------------
   0 C :   -0.219993
   1 O :   -0.298819
   2 C :   -0.084105
   3 C :    0.043993
   4 C :   -0.111885
   5 N :   -0.253952
   6 C :   -0.096314
   7 C :   -0.033580
   8 C :   -0.436918
   9 H :    0.109707
  10 H :    0.109696
  11 H :    0.137154
  12 H :    0.097728
  13 H :    0.097722
  14 H :    0.152553
  15 H :    0.241395
  16 H :    0.136288
  17 H :    0.137888
  18 H :    0.137864
  19 H :    0.133578
Sum of atomic charges:    0.0000000

LOEWDIN ATOMIC CHARGES
----------------------
   0 C :   -0.363537
   1 O :    0.143295
   2 C :   -0.284057
   3 C :   -0.174089
   4 C :   -0.209760
   5 N :    0.176312
   6 C :   -0.223673
   7 C :   -0.195526
   8 C :   -0.276072
   9 H :    0.100915
  10 H :    0.100915
  11 H :    0.112766
  12 H :    0.125407
  13 H :    0.125403
  14 H :    0.136755
  15 H :    0.188746
  16 H :    0.131657
  17 H :    0.127435
  18 H :    0.127433
  19 H :    0.129675

  Mayer bond orders larger than 0.1
B(  0-C ,  1-O ) :   0.9228 B(  0-C ,  9-H ) :   0.9363 B(  0-C , 10-H ) :   0.9363
B(  0-C , 11-H ) :   0.9403 B(  1-O ,  2-C ) :   0.9919 B(  2-C ,  3-C ) :   0.9249
B(  2-C , 12-H ) :   0.9242 B(  2-C , 13-H ) :   0.9243 B(  3-C ,  4-C ) :   1.4900
B(  3-C ,  7-C ) :   1.2422 B(  4-C ,  5-N ) :   1.1332 B(  4-C , 14-H ) :   0.8983
B(  5-N ,  6-C ) :   1.1240 B(  5-N , 15-H ) :   0.8798 B(  6-C ,  7-C ) :   1.4976
B(  6-C , 16-H ) :   0.9143 B(  7-C ,  8-C ) :   0.8509 B(  8-C , 17-H ) :   0.9432
B(  8-C , 18-H ) :   0.9433 B(  8-C , 19-H ) :   0.9487

MP2 TOTAL ENERGY:     -402.477097375 Eh
FINAL SINGLE POINT ENERGY      -402.477097375371

DIPOLE MOMENT
-------------
                                X             Y             Z
Electronic contribution:     -1.86647      -5.73007       3.51251
Nuclear contribution   :      1.84041       5.49706      -3.45743
                        -----------------------------------------
Total Dipole Moment    :     -0.02605      -0.23302       0.05508
                        -----------------------------------------
Magnitude (a.u.)       :      0.24085
Magnitude (Debye)      :      0.61220

                             ****ORCA TERMINATED NORMALLY****
TOTAL RUN TIME: 0 days 0 hours 16 minutes 22 seconds 655 msec
