                         Program Version 3.0.3 - RELEASE   -
|  1> ! RI-MP2 RIJK def2-TZVP def2-TZVP/C def2-TZVP/JK TIGHTSCF
|  2> % maxcore 2000
|  3> % mp2 density relaxed end
|  4> *xyz 0 1
|  5>  C        0.0133565282     1.6122640867    -0.0627970612
|  6>  C        0.1354490968     0.1004361001    -0.0671029845
|  7>  N        1.4389869360    -0.5383623605    -0.5852542459
|  8>  C        2.0462008597    -0.1922015881     0.8015821130
|  9>  C        0.6392590493    -0.7503580132     1.1410056101
| 10>  O       -0.1209900550    -1.2196235127     2.2085830961
| 11>  C       -0.7915215753    -2.4032233267     1.6845492714
| 12>  C       -0.3579944872    -2.6388580011     0.1791006933
| 13>  C        0.9498463940    -1.8462014837     0.1692484198
| 14>  H        0.0979165244     1.9955631245    -1.0854679526
| 15>  H       -0.9751959058     1.8922116718     0.3161336775
| 16>  H        0.7561298954     2.1249146993     0.5511251771
| 17>  H       -0.7240543836    -0.3118501732    -0.5997207227
| 18>  H        2.9084531078    -0.8091139317     1.0626976326
| 19>  H        2.2621896910     0.8665123094     0.9292936436
| 20>  H       -0.5058031327    -3.2530741227     2.3136885650
| 21>  H       -1.8725312049    -2.2585133618     1.7720884883
| 22>  H       -0.2136092054    -3.7018770364    -0.0238468451
| 23>  H       -1.1248407765    -2.2743457890    -0.5050720640
| 24>  H        1.8121224037    -2.4789630712     0.3906575085
| 25> *
| 26>
| 27>                          ****END OF INPUT****

CARTESIAN COORDINATES (ANGSTROEM)
---------------------------------
  C      0.013357    1.612264   -0.062797
  C      0.135449    0.100436   -0.067103
  N      1.438987   -0.538362   -0.585254
  C      2.046201   -0.192202    0.801582
  C      0.639259   -0.750358    1.141006
  O     -0.120990   -1.219624    2.208583
  C     -0.791522   -2.403223    1.684549
  C     -0.357994   -2.638858    0.179101
  C      0.949846   -1.846201    0.169248
  H      0.097917    1.995563   -1.085468
  H     -0.975196    1.892212    0.316134
  H      0.756130    2.124915    0.551125
  H     -0.724054   -0.311850   -0.599721
  H      2.908453   -0.809114    1.062698
  H      2.262190    0.866512    0.929294
  H     -0.505803   -3.253074    2.313689
  H     -1.872531   -2.258513    1.772088
  H     -0.213609   -3.701877   -0.023847
  H     -1.124841   -2.274346   -0.505072
  H      1.812122   -2.478963    0.390658

 Total Charge           Charge          ....    0
 Multiplicity           Mult            ....    1
 Number of Electrons    NEL             ....   68
 Basis Dimension        Dim             ....  345

ORBITAL ENERGIES
----------------

  NO   OCC          E(Eh)            E(eV)
   0   2.0000     -20.562109      -559.5234
   1   2.0000     -15.578760      -423.9196
   2   2.0000     -11.291333      -307.2528
   3   2.0000     -11.287451      -307.1472
   4   2.0000     -11.266632      -306.5807
   5   2.0000     -11.260851      -306.4233
   6   2.0000     -11.255800      -306.2859
   7   2.0000     -11.241447      -305.8953
   8   2.0000     -11.218359      -305.2671
   9   2.0000      -1.388236       -37.7758
  10   2.0000      -1.282141       -34.8888
  11   2.0000      -1.048756       -28.5381
  12   2.0000      -1.006173       -27.3794
  13   2.0000      -0.937165       -25.5016
  14   2.0000      -0.906893       -24.6778
  15   2.0000      -0.851889       -23.1811
  16   2.0000      -0.815980       -22.2040
  17   2.0000      -0.724908       -19.7257
  18   2.0000      -0.671643       -18.2763
  19   2.0000      -0.662122       -18.0173
  20   2.0000      -0.657453       -17.8902
  21   2.0000      -0.629963       -17.1422
  22   2.0000      -0.589324       -16.0363
  23   2.0000      -0.576198       -15.6791
  24   2.0000      -0.551624       -15.0105
  25   2.0000      -0.540447       -14.7063
  26   2.0000      -0.514918       -14.0116
  27   2.0000      -0.498482       -13.5644
  28   2.0000      -0.488760       -13.2998
  29   2.0000      -0.465158       -12.6576
  30   2.0000      -0.457220       -12.4416
  31   2.0000      -0.437957       -11.9174
  32   2.0000      -0.404601       -11.0097
  33   2.0000      -0.374802       -10.1989
  34   0.0000       0.136979         3.7274
  35   0.0000       0.150550         4.0967
  36   0.0000       0.159092         4.3291
  37   0.0000       0.168532         4.5860
  38   0.0000       0.185004         5.0342

MULLIKEN ATOMIC CHARGES
-----------------------
   0 C :   -0.419837
   1 C :   -0.024354
   2 N :   -0.193159
   3 C :   -0.149054
   4 C :    0.136302
   5 O :   -0.311572
   6 C :   -0.015175
   7 C :   -0.298284
   8 C :   -0.055079
   9 H :    0.145422
  10 H :    0.137013
  11 H :    0.121909
  12 H :    0.093551
  13 H :    0.116491
  14 H :    0.123907
  15 H :    0.108209
  16 H :    0.108108
  17 H :    0.138383
  18 H :    0.135339
  19 H :    0.101880
Sum of atomic charges:    0.0000000

LOEWDIN ATOMIC CHARGES
----------------------
   0 C :   -0.296407
   1 C :   -0.228291
   2 N :    0.126744
   3 C :   -0.190079
   4 C :   -0.332673
   5 O :    0.173187
   6 C :   -0.248717
   7 C :   -0.241145
   8 C :   -0.201394
   9 H :    0.132050
  10 H :    0.131070
  11 H :    0.121756
  12 H :    0.142752
  13 H :    0.126526
  14 H :    0.122201
  15 H :    0.121675
  16 H :    0.122087
  17 H :    0.137499
  18 H :    0.136533
  19 H :    0.144625

  Mayer bond orders larger than 0.1
B(  0-C ,  1-C ) :   0.9158 B(  0-C ,  9-H ) :   0.9380 B(  0-C , 10-H ) :   0.9340
B(  0-C , 11-H ) :   0.9322 B(  1-C ,  2-N ) :   0.9066 B(  1-C ,  4-C ) :   0.9130
B(  1-C , 12-H ) :   0.9156 B(  2-N ,  3-C ) :   0.9126 B(  2-N ,  8-C ) :   0.8978
B(  3-C ,  4-C ) :   0.9262 B(  3-C , 13-H ) :   0.9186 B(  3-C , 14-H ) :   0.9279
B(  4-C ,  5-O ) :   1.0019 B(  4-C ,  8-C ) :   0.9042 B(  5-O ,  6-C ) :   0.9043
B(  6-C ,  7-C ) :   0.9215 B(  6-C , 15-H ) :   0.9247 B(  6-C , 16-H ) :   0.9201
B(  7-C ,  8-C ) :   0.9230 B(  7-C , 17-H ) :   0.9267 B(  7-C , 18-H ) :   0.9220
B(  8-C , 19-H ) :   0.9294

MP2 TOTAL ENERGY:     -402.359941376 Eh
FINAL SINGLE POINT ENERGY      -402.359941375780

DIPOLE MOMENT
-------------
                                X             Y             Z
Electronic contribution:      1.67863      -1.59153       1.71752
Nuclear contribution   :     -2.04356       1.26685      -1.64953
                        -----------------------------------------
Total Dipole Moment    :     -0.36493      -0.32468       0.06798
                        -----------------------------------------
Magnitude (a.u.)       :      0.49317
Magnitude (Debye)      :      1.25354

                             ****ORCA TERMINATED NORMALLY****
TOTAL RUN TIME: 0 days 0 hours 20 minutes 59 seconds 369 msec
