                         Program Version 3.0.3 - RELEASE   -
|  1> ! RI-MP2 RIJK def2-TZVP def2-TZVP/C def2-TZVP/JK TIGHTSCF
|  2> % maxcore 2000
|  3> % mp2 density relaxed end
|  4> *xyz 0 1
|  5>  C       -0.1061751338     1.5012329973    -0.0435504486
|  6>  C       -0.0159698626    -0.0150554825     0.0339709631
|  7>  C       -1.2962095361    -0.8043428292     0.4363122542
|  8>  C       -0.4292284799    -1.7004275596     1.3639324615
|  9>  C        0.7714762252    -0.7259054479     1.1782322908
| 10>  C        2.0437407634    -1.3118857359     0.5462655210
| 11>  N        1.7074917501    -1.3350645230    -0.8682183592
| 12>  C        0.6223906622    -0.5869003642    -1.2403606184
| 13>  O        0.2402350771    -0.4090878353    -2.3782340855
| 14>  H        0.8844706209     1.9605452250    -0.1371839838
| 15>  H       -0.6917968737     1.7931816643    -0.9206799560
| 16>  H       -0.5868859882     1.9103921396     0.8509695517
| 17>  H       -1.9956898787    -0.1739706872     0.9927258752
| 18>  H       -1.8394185332    -1.2921890353    -0.3761588953
| 19>  H       -0.7876476360    -1.8275912895     2.3874600578
| 20>  H       -0.2323388646    -2.6909204108     0.9439007984
| 21>  H        0.9848951802    -0.1165194694     2.0577062110
| 22>  H        2.9264640779    -0.6863616601     0.7405808726
| 23>  H        2.2599429053    -2.3192785156     0.9223653839
| 24>  H        2.3064713744    -1.7331459504    -1.5744711745
| 25> *
| 26>
| 27>                          ****END OF INPUT****

CARTESIAN COORDINATES (ANGSTROEM)
---------------------------------
  C     -0.106175    1.501233   -0.043550
  C     -0.015970   -0.015055    0.033971
  C     -1.296210   -0.804343    0.436312
  C     -0.429228   -1.700428    1.363932
  C      0.771476   -0.725905    1.178232
  C      2.043741   -1.311886    0.546266
  N      1.707492   -1.335065   -0.868218
  C      0.622391   -0.586900   -1.240361
  O      0.240235   -0.409088   -2.378234
  H      0.884471    1.960545   -0.137184
  H     -0.691797    1.793182   -0.920680
  H     -0.586886    1.910392    0.850970
  H     -1.995690   -0.173971    0.992726
  H     -1.839419   -1.292189   -0.376159
  H     -0.787648   -1.827591    2.387460
  H     -0.232339   -2.690920    0.943901
  H      0.984895   -0.116519    2.057706
  H      2.926464   -0.686362    0.740581
  H      2.259943   -2.319279    0.922365
  H      2.306471   -1.733146   -1.574471

 Total Charge           Charge          ....    0
 Multiplicity           Mult            ....    1
 Number of Electrons    NEL             ....   68
 Basis Dimension        Dim             ....  345

ORBITAL ENERGIES
----------------

  NO   OCC          E(Eh)            E(eV)
   0   2.0000     -20.510089      -558.1079
   1   2.0000     -15.579315      -423.9347
   2   2.0000     -11.337640      -308.5129
   3   2.0000     -11.273922      -306.7790
   4   2.0000     -11.243829      -305.9601
   5   2.0000     -11.240116      -305.8591
   6   2.0000     -11.229806      -305.5786
   7   2.0000     -11.228044      -305.5306
   8   2.0000     -11.220014      -305.3121
   9   2.0000      -1.374331       -37.3975
  10   2.0000      -1.247461       -33.9451
  11   2.0000      -1.136835       -30.9349
  12   2.0000      -1.005895       -27.3718
  13   2.0000      -0.972894       -26.4738
  14   2.0000      -0.894627       -24.3440
  15   2.0000      -0.865296       -23.5459
  16   2.0000      -0.790696       -21.5159
  17   2.0000      -0.732894       -19.9431
  18   2.0000      -0.687052       -18.6956
  19   2.0000      -0.658909       -17.9298
  20   2.0000      -0.634056       -17.2536
  21   2.0000      -0.613567       -16.6960
  22   2.0000      -0.603675       -16.4268
  23   2.0000      -0.575484       -15.6597
  24   2.0000      -0.572718       -15.5845
  25   2.0000      -0.560373       -15.2485
  26   2.0000      -0.527155       -14.3446
  27   2.0000      -0.520347       -14.1594
  28   2.0000      -0.488547       -13.2940
  29   2.0000      -0.476676       -12.9710
  30   2.0000      -0.442098       -12.0301
  31   2.0000      -0.434970       -11.8361
  32   2.0000      -0.398037       -10.8311
  33   2.0000      -0.387042       -10.5319
  34   0.0000       0.128779         3.5042
  35   0.0000       0.147159         4.0044
  36   0.0000       0.154426         4.2021
  37   0.0000       0.161170         4.3857
  38   0.0000       0.175170         4.7666

MULLIKEN ATOMIC CHARGES
-----------------------
   0 C :   -0.414076
   1 C :    0.165511
   2 C :   -0.245656
   3 C :   -0.274743
   4 C :   -0.060660
   5 C :   -0.135470
   6 N :   -0.319684
   7 C :    0.133709
   8 O :   -0.340953
   9 H :    0.129349
  10 H :    0.155579
  11 H :    0.127456
  12 H :    0.114752
  13 H :    0.129073
  14 H :    0.117430
  15 H :    0.120763
  16 H :    0.117915
  17 H :    0.118386
  18 H :    0.126825
  19 H :    0.234494
Sum of atomic charges:   -0.0000000

LOEWDIN ATOMIC CHARGES
----------------------
   0 C :   -0.264025
   1 C :   -0.219974
   2 C :   -0.185990
   3 C :   -0.211809
   4 C :   -0.172042
   5 C :   -0.253781
   6 N :    0.124701
   7 C :   -0.412009
   8 O :    0.084899
   9 H :    0.128508
  10 H :    0.137675
  11 H :    0.124739
  12 H :    0.135705
  13 H :    0.134116
  14 H :    0.126377
  15 H :    0.136515
  16 H :    0.146386
  17 H :    0.126885
  18 H :    0.131243
  19 H :    0.181881

  Mayer bond orders larger than 0.1
B(  0-C ,  1-C ) :   0.8936 B(  0-C ,  9-H ) :   0.9328 B(  0-C , 10-H ) :   0.9337
B(  0-C , 11-H ) :   0.9346 B(  1-C ,  2-C ) :   0.9016 B(  1-C ,  4-C ) :   0.9076
B(  1-C ,  7-C ) :   0.8536 B(  2-C ,  3-C ) :   0.9724 B(  2-C , 12-H ) :   0.9183
B(  2-C , 13-H ) :   0.9154 B(  3-C ,  4-C ) :   0.9552 B(  3-C , 14-H ) :   0.9256
B(  3-C , 15-H ) :   0.9086 B(  4-C ,  5-C ) :   0.9342 B(  4-C , 16-H ) :   0.9045
B(  5-C ,  6-N ) :   0.8926 B(  5-C , 17-H ) :   0.9305 B(  5-C , 18-H ) :   0.9247
B(  6-N ,  7-C ) :   1.1832 B(  6-N , 19-H ) :   0.8653 B(  7-C ,  8-O ) :   2.0387

MP2 TOTAL ENERGY:     -402.502903530 Eh
FINAL SINGLE POINT ENERGY      -402.502903529598

DIPOLE MOMENT
-------------
                                X             Y             Z
Electronic contribution:      1.76951      -1.55697      -5.58377
Nuclear contribution   :     -1.09791       1.26213       6.88381
                        -----------------------------------------
Total Dipole Moment    :      0.67161      -0.29484       1.30004
                        -----------------------------------------
Magnitude (a.u.)       :      1.49268
Magnitude (Debye)      :      3.79409

                             ****ORCA TERMINATED NORMALLY****
TOTAL RUN TIME: 0 days 0 hours 20 minutes 42 seconds 731 msec
