                         Program Version 3.0.3 - RELEASE   -
|  1> ! RI-MP2 RIJK def2-TZVP def2-TZVP/C def2-TZVP/JK TIGHTSCF
|  2> % maxcore 2000
|  3> % mp2 density relaxed end
|  4> *xyz 0 1
|  5>  C        0.0130960552     1.4966706117     0.0522101473
|  6>  C       -0.0265338323    -0.0272587545    -0.0603213861
|  7>  N       -1.3936759467    -0.5789202647    -0.0160615917
|  8>  C       -1.9996361761    -0.8525034468    -1.2268952592
|  9>  O       -3.1193237695    -1.2666121810    -1.4218019303
| 10>  C       -1.9862897414    -0.7563821195     1.2595560373
| 11>  N       -1.2809873023    -0.4052080982     2.2630261663
| 12>  C       -3.3828432620    -1.3483302887     1.3171295665
| 13>  C       -3.9199143707    -1.5356448238     2.7363690734
| 14>  H        1.0492731703     1.8459590427     0.0022647151
| 15>  H       -0.5439745273     1.9686242257    -0.7636669401
| 16>  H       -0.4128485645     1.8183176884     1.0041140133
| 17>  H        0.4224326111    -0.3515506163    -1.0033454943
| 18>  H        0.5351883540    -0.4794737334     0.7568683522
| 19>  H       -1.3037983348    -0.6395669136    -2.0602354467
| 20>  H       -1.7807814274    -0.5829619007     3.1301480487
| 21>  H       -4.0555083311    -0.7145585077     0.7327420873
| 22>  H       -3.3831126999    -2.3006424147     0.7789682332
| 23>  H       -4.9234465401    -1.9674696228     2.6937793179
| 24>  H       -3.2942126265    -2.2145597885     3.3252217622
| 25>  H       -3.9942802381    -0.5851397235     3.2751556977
| 26> *
| 27>
| 28>                          ****END OF INPUT****

CARTESIAN COORDINATES (ANGSTROEM)
---------------------------------
  C      0.013096    1.496671    0.052210
  C     -0.026534   -0.027259   -0.060321
  N     -1.393676   -0.578920   -0.016062
  C     -1.999636   -0.852503   -1.226895
  O     -3.119324   -1.266612   -1.421802
  C     -1.986290   -0.756382    1.259556
  N     -1.280987   -0.405208    2.263026
  C     -3.382843   -1.348330    1.317130
  C     -3.919914   -1.535645    2.736369
  H      1.049273    1.845959    0.002265
  H     -0.543975    1.968624   -0.763667
  H     -0.412849    1.818318    1.004114
  H      0.422433   -0.351551   -1.003345
  H      0.535188   -0.479474    0.756868
  H     -1.303798   -0.639567   -2.060235
  H     -1.780781   -0.582962    3.130148
  H     -4.055508   -0.714559    0.732742
  H     -3.383113   -2.300642    0.778968
  H     -4.923447   -1.967470    2.693779
  H     -3.294213   -2.214560    3.325222
  H     -3.994280   -0.585140    3.275156

 Total Charge           Charge          ....    0
 Multiplicity           Mult            ....    1
 Number of Electrons    NEL             ....   70
 Basis Dimension        Dim             ....  351

ORBITAL ENERGIES
----------------

  NO   OCC          E(Eh)            E(eV)
   0   2.0000     -20.538736      -558.8874
   1   2.0000     -15.608373      -424.7254
   2   2.0000     -15.534959      -422.7277
   3   2.0000     -11.362407      -309.1868
   4   2.0000     -11.327892      -308.2476
   5   2.0000     -11.270401      -306.6832
   6   2.0000     -11.237741      -305.7945
   7   2.0000     -11.227253      -305.5091
   8   2.0000     -11.219680      -305.3030
   9   2.0000      -1.400061       -38.0976
  10   2.0000      -1.291240       -35.1364
  11   2.0000      -1.185177       -32.2503
  12   2.0000      -1.047848       -28.5134
  13   2.0000      -1.020242       -27.7622
  14   2.0000      -0.921780       -25.0829
  15   2.0000      -0.877605       -23.8808
  16   2.0000      -0.845135       -22.9973
  17   2.0000      -0.740836       -20.1592
  18   2.0000      -0.695325       -18.9207
  19   2.0000      -0.666519       -18.1369
  20   2.0000      -0.645317       -17.5600
  21   2.0000      -0.643318       -17.5056
  22   2.0000      -0.618103       -16.8194
  23   2.0000      -0.606723       -16.5098
  24   2.0000      -0.595357       -16.2005
  25   2.0000      -0.550823       -14.9887
  26   2.0000      -0.532397       -14.4873
  27   2.0000      -0.529431       -14.4066
  28   2.0000      -0.519403       -14.1337
  29   2.0000      -0.513393       -13.9701
  30   2.0000      -0.503072       -13.6893
  31   2.0000      -0.462808       -12.5936
  32   2.0000      -0.438376       -11.9288
  33   2.0000      -0.428048       -11.6478
  34   2.0000      -0.372631       -10.1398
  35   0.0000       0.128192         3.4883
  36   0.0000       0.131992         3.5917
  37   0.0000       0.145508         3.9595
  38   0.0000       0.173892         4.7319
  39   0.0000       0.177480         4.8295

MULLIKEN ATOMIC CHARGES
-----------------------
   0 C :   -0.403632
   1 C :   -0.121271
   2 N :   -0.059697
   3 C :    0.140268
   4 O :   -0.332682
   5 C :    0.083065
   6 N :   -0.412928
   7 C :   -0.154379
   8 C :   -0.447193
   9 H :    0.130463
  10 H :    0.121819
  11 H :    0.159921
  12 H :    0.128184
  13 H :    0.142610
  14 H :    0.093063
  15 H :    0.218706
  16 H :    0.145228
  17 H :    0.141151
  18 H :    0.147746
  19 H :    0.140292
  20 H :    0.139267
Sum of atomic charges:    0.0000000

LOEWDIN ATOMIC CHARGES
----------------------
   0 C :   -0.314502
   1 C :   -0.273304
   2 N :    0.207855
   3 C :   -0.387936
   4 O :    0.086376
   5 C :   -0.305506
   6 N :   -0.048254
   7 C :   -0.263831
   8 C :   -0.320964
   9 H :    0.125587
  10 H :    0.119929
  11 H :    0.128778
  12 H :    0.133027
  13 H :    0.143649
  14 H :    0.120551
  15 H :    0.163080
  16 H :    0.156585
  17 H :    0.155952
  18 H :    0.128470
  19 H :    0.122318
  20 H :    0.122140

  Mayer bond orders larger than 0.1
B(  0-C ,  1-C ) :   0.9209 B(  0-C ,  9-H ) :   0.9349 B(  0-C , 10-H ) :   0.9312
B(  0-C , 11-H ) :   0.9367 B(  1-C ,  2-N ) :   0.8518 B(  1-C , 12-H ) :   0.9316
B(  1-C , 13-H ) :   0.9162 B(  2-N ,  3-C ) :   1.0812 B(  2-N ,  5-C ) :   1.0197
B(  3-C ,  4-O ) :   1.8994 B(  3-C , 14-H ) :   0.9308 B(  5-C ,  6-N ) :   1.8563
B(  5-C ,  7-C ) :   0.9638 B(  6-N , 15-H ) :   0.8757 B(  7-C ,  8-C ) :   0.8799
B(  7-C , 16-H ) :   0.9062 B(  7-C , 17-H ) :   0.9070 B(  8-C , 18-H ) :   0.9365
B(  8-C , 19-H ) :   0.9373 B(  8-C , 20-H ) :   0.9369

MP2 TOTAL ENERGY:     -419.735518965 Eh
FINAL SINGLE POINT ENERGY      -419.735518965119

DIPOLE MOMENT
-------------
                                X             Y             Z
Electronic contribution:     -0.80929      -2.47647      -4.69806
Nuclear contribution   :      1.16146       2.60015       4.99560
                        -----------------------------------------
Total Dipole Moment    :      0.35216       0.12368       0.29754
                        -----------------------------------------
Magnitude (a.u.)       :      0.47733
Magnitude (Debye)      :      1.21327

                             ****ORCA TERMINATED NORMALLY****
TOTAL RUN TIME: 0 days 0 hours 18 minutes 55 seconds 994 msec
