                         Program Version 3.0.3 - RELEASE   -
|  1> ! RI-MP2 RIJK def2-TZVP def2-TZVP/C def2-TZVP/JK TIGHTSCF
|  2> % maxcore 2000
|  3> % mp2 density relaxed end
|  4> *xyz 0 1
|  5>  O        0.1524478869     1.3947479940     0.1608491813
|  6>  C        0.0785083821    -0.0004124345    -0.1016173343
|  7>  C       -1.3307244424    -0.5125154392    -0.1018755586
|  8>  C       -2.0405517866    -0.9521339641     1.1530821719
|  9>  C       -1.8628656076    -1.9439730001     0.0369280827
| 10>  C       -2.9155848781    -1.6977270103    -1.0604499757
| 11>  C       -2.3717602322    -0.2237666527    -1.1900515180
| 12>  C       -2.6648815452    -2.4908519018    -2.3137238178
| 13>  O       -3.4909315575    -3.1406061943    -2.9007277864
| 14>  H       -0.2776899155     1.5505189187     1.0084657672
| 15>  H        0.5348949406    -0.1323487727    -1.0892939497
| 16>  H        0.6810210630    -0.5812677473     0.6161316861
| 17>  H       -1.4007287827    -1.1232306180     2.0141863808
| 18>  H       -3.0292019388    -0.5712784844     1.3987851034
| 19>  H       -1.3161652105    -2.8689704793     0.1801236070
| 20>  H       -3.9606375989    -1.8178258473    -0.7635242392
| 21>  H       -3.0953559573     0.5692851960    -0.9839695926
| 22>  H       -1.9196270332    -0.0352385078    -2.1682101602
| 23>  H       -1.6128035759    -2.4280795748    -2.6838714178
| 24> *
| 25>
| 26>                          ****END OF INPUT****

CARTESIAN COORDINATES (ANGSTROEM)
---------------------------------
  O      0.152448    1.394748    0.160849
  C      0.078508   -0.000412   -0.101617
  C     -1.330724   -0.512515   -0.101876
  C     -2.040552   -0.952134    1.153082
  C     -1.862866   -1.943973    0.036928
  C     -2.915585   -1.697727   -1.060450
  C     -2.371760   -0.223767   -1.190052
  C     -2.664882   -2.490852   -2.313724
  O     -3.490932   -3.140606   -2.900728
  H     -0.277690    1.550519    1.008466
  H      0.534895   -0.132349   -1.089294
  H      0.681021   -0.581268    0.616132
  H     -1.400729   -1.123231    2.014186
  H     -3.029202   -0.571278    1.398785
  H     -1.316165   -2.868970    0.180124
  H     -3.960638   -1.817826   -0.763524
  H     -3.095356    0.569285   -0.983970
  H     -1.919627   -0.035239   -2.168210
  H     -1.612804   -2.428080   -2.683871

 Total Charge           Charge          ....    0
 Multiplicity           Mult            ....    1
 Number of Electrons    NEL             ....   68
 Basis Dimension        Dim             ....  339

ORBITAL ENERGIES
----------------

  NO   OCC          E(Eh)            E(eV)
   0   2.0000     -20.564055      -559.5764
   1   2.0000     -20.557747      -559.4047
   2   2.0000     -11.332021      -308.3600
   3   2.0000     -11.289646      -307.2069
   4   2.0000     -11.258020      -306.3463
   5   2.0000     -11.256268      -306.2986
   6   2.0000     -11.253080      -306.2119
   7   2.0000     -11.249111      -306.1039
   8   2.0000     -11.248567      -306.0891
   9   2.0000      -1.396583       -38.0030
  10   2.0000      -1.368169       -37.2298
  11   2.0000      -1.216109       -33.0920
  12   2.0000      -1.032576       -28.0978
  13   2.0000      -0.971086       -26.4246
  14   2.0000      -0.915744       -24.9187
  15   2.0000      -0.832286       -22.6477
  16   2.0000      -0.796723       -21.6799
  17   2.0000      -0.751274       -20.4432
  18   2.0000      -0.714222       -19.4350
  19   2.0000      -0.673521       -18.3274
  20   2.0000      -0.661052       -17.9881
  21   2.0000      -0.644845       -17.5471
  22   2.0000      -0.625744       -17.0274
  23   2.0000      -0.605193       -16.4681
  24   2.0000      -0.584476       -15.9044
  25   2.0000      -0.558932       -15.2093
  26   2.0000      -0.542643       -14.7661
  27   2.0000      -0.530360       -14.4318
  28   2.0000      -0.505958       -13.7678
  29   2.0000      -0.475145       -12.9293
  30   2.0000      -0.453409       -12.3379
  31   2.0000      -0.442270       -12.0348
  32   2.0000      -0.410684       -11.1753
  33   2.0000      -0.395421       -10.7599
  34   0.0000       0.116537         3.1711
  35   0.0000       0.133894         3.6434
  36   0.0000       0.142485         3.8772
  37   0.0000       0.157275         4.2797
  38   0.0000       0.165823         4.5123

MULLIKEN ATOMIC CHARGES
-----------------------
   0 O :   -0.462662
   1 C :   -0.001245
   2 C :   -0.061340
   3 C :   -0.277351
   4 C :   -0.177033
   5 C :    0.082513
   6 C :   -0.256230
   7 C :    0.008461
   8 O :   -0.254877
   9 H :    0.315298
  10 H :    0.109455
  11 H :    0.101418
  12 H :    0.138717
  13 H :    0.137867
  14 H :    0.141435
  15 H :    0.113347
  16 H :    0.130370
  17 H :    0.134422
  18 H :    0.077436
Sum of atomic charges:    0.0000000

LOEWDIN ATOMIC CHARGES
----------------------
   0 O :   -0.044786
   1 C :   -0.313019
   2 C :   -0.221891
   3 C :   -0.185266
   4 C :   -0.139481
   5 C :   -0.193511
   6 C :   -0.154184
   7 C :   -0.280837
   8 O :    0.135764
   9 H :    0.174890
  10 H :    0.134440
  11 H :    0.124543
  12 H :    0.143588
  13 H :    0.135946
  14 H :    0.141175
  15 H :    0.149924
  16 H :    0.134916
  17 H :    0.143466
  18 H :    0.114322

  Mayer bond orders larger than 0.1
B(  0-O ,  1-C ) :   0.9026 B(  0-O ,  9-H ) :   0.8447 B(  1-C ,  2-C ) :   0.9685
B(  1-C , 10-H ) :   0.9216 B(  1-C , 11-H ) :   0.9225 B(  2-C ,  3-C ) :   0.8818
B(  2-C ,  4-C ) :   0.7911 B(  2-C ,  6-C ) :   0.9066 B(  3-C ,  4-C ) :   0.8734
B(  3-C , 12-H ) :   0.9329 B(  3-C , 13-H ) :   0.9118 B(  4-C ,  5-C ) :   0.8516
B(  4-C , 14-H ) :   0.9195 B(  5-C ,  6-C ) :   0.8926 B(  5-C ,  7-C ) :   0.8150
B(  5-C , 15-H ) :   0.9019 B(  5-C , 18-H ) :  -0.1105 B(  6-C , 16-H ) :   0.9114
B(  6-C , 17-H ) :   0.9312 B(  7-C ,  8-O ) :   2.0096 B(  7-C , 18-H ) :   0.9524

MP2 TOTAL ENERGY:     -422.292677515 Eh
FINAL SINGLE POINT ENERGY      -422.292677515232

DIPOLE MOMENT
-------------
                                X             Y             Z
Electronic contribution:     -2.04544      -2.41136      -3.23447
Nuclear contribution   :      2.39374       2.64699       4.30285
                        -----------------------------------------
Total Dipole Moment    :      0.34830       0.23563       1.06837
                        -----------------------------------------
Magnitude (a.u.)       :      1.14815
Magnitude (Debye)      :      2.91837

                             ****ORCA TERMINATED NORMALLY****
TOTAL RUN TIME: 0 days 0 hours 16 minutes 31 seconds 85 msec
