                         Program Version 3.0.3 - RELEASE   -
|  1> ! RI-MP2 RIJK def2-TZVP def2-TZVP/C def2-TZVP/JK TIGHTSCF
|  2> % maxcore 2000
|  3> % mp2 density relaxed end
|  4> *xyz 0 1
|  5>  O       -0.1131037242     1.3296307901    -0.0792913585
|  6>  C        0.0302050715    -0.0832041718     0.0239487448
|  7>  C        0.7250656064    -0.7090191524    -1.2196264275
|  8>  C       -0.1908470615    -1.8404630781    -1.6165821491
|  9>  C       -1.3398875382    -1.8275854887    -0.9431587711
| 10>  C       -1.4071100032    -0.7001805395     0.0625754583
| 11>  C       -1.5997909598    -1.1192379474     1.5011987862
| 12>  C       -0.4836234432    -0.9935712107     2.2143628086
| 13>  C        0.6707016457    -0.4825601777     1.3896303136
| 14>  H        0.7677480597     1.7188166723    -0.0596536578
| 15>  H        0.7886890168     0.0442086926    -2.0162455155
| 16>  H        1.7499374875    -1.0420671018    -1.0150961067
| 17>  H        0.0701960796    -2.5554674901    -2.3899152467
| 18>  H       -2.1545473993    -2.5303690804    -1.0811519285
| 19>  H       -2.1477027295     0.0528742158    -0.2391478865
| 20>  H       -2.5476386617    -1.4890389167     1.8769065662
| 21>  H       -0.3795952253    -1.2444300089     3.2646265773
| 22>  H        1.4418047472    -1.2553409575     1.2739988105
| 23>  H        1.1624150316     0.3863470607     1.8459010125
| 24> *
| 25>
| 26>                          ****END OF INPUT****

CARTESIAN COORDINATES (ANGSTROEM)
---------------------------------
  O     -0.113104    1.329631   -0.079291
  C      0.030205   -0.083204    0.023949
  C      0.725066   -0.709019   -1.219626
  C     -0.190847   -1.840463   -1.616582
  C     -1.339888   -1.827585   -0.943159
  C     -1.407110   -0.700181    0.062575
  C     -1.599791   -1.119238    1.501199
  C     -0.483623   -0.993571    2.214363
  C      0.670702   -0.482560    1.389630
  H      0.767748    1.718817   -0.059654
  H      0.788689    0.044209   -2.016246
  H      1.749937   -1.042067   -1.015096
  H      0.070196   -2.555467   -2.389915
  H     -2.154547   -2.530369   -1.081152
  H     -2.147703    0.052874   -0.239148
  H     -2.547639   -1.489039    1.876907
  H     -0.379595   -1.244430    3.264627
  H      1.441805   -1.255341    1.273999
  H      1.162415    0.386347    1.845901

 Total Charge           Charge          ....    0
 Multiplicity           Mult            ....    1
 Number of Electrons    NEL             ....   66
 Basis Dimension        Dim             ....  339

ORBITAL ENERGIES
----------------

  NO   OCC          E(Eh)            E(eV)
   0   2.0000     -20.552162      -559.2528
   1   2.0000     -11.285637      -307.0978
   2   2.0000     -11.227436      -305.5141
   3   2.0000     -11.225256      -305.4547
   4   2.0000     -11.225238      -305.4543
   5   2.0000     -11.224070      -305.4225
   6   2.0000     -11.223237      -305.3998
   7   2.0000     -11.223082      -305.3956
   8   2.0000     -11.220618      -305.3285
   9   2.0000      -1.360979       -37.0341
  10   2.0000      -1.150333       -31.3022
  11   2.0000      -1.073789       -29.2193
  12   2.0000      -0.987849       -26.8807
  13   2.0000      -0.930307       -25.3149
  14   2.0000      -0.909304       -24.7434
  15   2.0000      -0.770632       -20.9700
  16   2.0000      -0.746589       -20.3157
  17   2.0000      -0.726760       -19.7761
  18   2.0000      -0.692015       -18.8307
  19   2.0000      -0.659541       -17.9470
  20   2.0000      -0.615835       -16.7577
  21   2.0000      -0.599561       -16.3149
  22   2.0000      -0.589437       -16.0394
  23   2.0000      -0.551553       -15.0085
  24   2.0000      -0.533242       -14.5103
  25   2.0000      -0.531730       -14.4691
  26   2.0000      -0.517625       -14.0853
  27   2.0000      -0.504733       -13.7345
  28   2.0000      -0.485362       -13.2074
  29   2.0000      -0.443699       -12.0737
  30   2.0000      -0.426357       -11.6018
  31   2.0000      -0.353117        -9.6088
  32   2.0000      -0.341492        -9.2925
  33   0.0000       0.135566         3.6889
  34   0.0000       0.149009         4.0548
  35   0.0000       0.162810         4.4303
  36   0.0000       0.170237         4.6324
  37   0.0000       0.173434         4.7194

MULLIKEN ATOMIC CHARGES
-----------------------
   0 O :   -0.472834
   1 C :    0.241733
   2 C :   -0.211860
   3 C :   -0.205574
   4 C :   -0.211318
   5 C :    0.119815
   6 C :   -0.237502
   7 C :   -0.162282
   8 C :   -0.247899
   9 H :    0.311802
  10 H :    0.117783
  11 H :    0.119101
  12 H :    0.124875
  13 H :    0.125290
  14 H :    0.117383
  15 H :    0.124651
  16 H :    0.124333
  17 H :    0.114750
  18 H :    0.107753
Sum of atomic charges:    0.0000000

LOEWDIN ATOMIC CHARGES
----------------------
   0 O :    0.004592
   1 C :   -0.285387
   2 C :   -0.212519
   3 C :   -0.157915
   4 C :   -0.130286
   5 C :   -0.170418
   6 C :   -0.134153
   7 C :   -0.155187
   8 C :   -0.205628
   9 H :    0.172263
  10 H :    0.144434
  11 H :    0.136376
  12 H :    0.135516
  13 H :    0.138204
  14 H :    0.163904
  15 H :    0.137742
  16 H :    0.135843
  17 H :    0.143405
  18 H :    0.139214

  Mayer bond orders larger than 0.1
B(  0-O ,  1-C ) :   0.9583 B(  0-O ,  9-H ) :   0.8434 B(  1-C ,  2-C ) :   0.9457
B(  1-C ,  5-C ) :   0.8991 B(  1-C ,  8-C ) :   0.9603 B(  2-C ,  3-C ) :   0.9524
B(  2-C , 10-H ) :   0.9047 B(  2-C , 11-H ) :   0.9134 B(  3-C ,  4-C ) :   1.7930
B(  3-C , 12-H ) :   0.9269 B(  4-C ,  5-C ) :   0.8927 B(  4-C , 13-H ) :   0.9243
B(  5-C ,  6-C ) :   0.9182 B(  5-C , 14-H ) :   0.8904 B(  6-C ,  7-C ) :   1.7955
B(  6-C , 15-H ) :   0.9251 B(  7-C ,  8-C ) :   0.9662 B(  7-C , 16-H ) :   0.9279
B(  8-C , 17-H ) :   0.8896 B(  8-C , 18-H ) :   0.9196

MP2 TOTAL ENERGY:     -385.229503894 Eh
FINAL SINGLE POINT ENERGY      -385.229503893564

DIPOLE MOMENT
-------------
                                X             Y             Z
Electronic contribution:     -1.82527       1.04114      -0.02729
Nuclear contribution   :      2.38427      -1.26300       0.04836
                        -----------------------------------------
Total Dipole Moment    :      0.55900      -0.22186       0.02107
                        -----------------------------------------
Magnitude (a.u.)       :      0.60179
Magnitude (Debye)      :      1.52962

                             ****ORCA TERMINATED NORMALLY****
TOTAL RUN TIME: 0 days 0 hours 18 minutes 57 seconds 156 msec
