                         Program Version 3.0.3 - RELEASE   -
|  1> ! RI-MP2 RIJK def2-TZVP def2-TZVP/C def2-TZVP/JK TIGHTSCF
|  2> % maxcore 2000
|  3> % mp2 density relaxed end
|  4> *xyz 0 1
|  5>  C       -0.1230701478    -1.2873224755     0.0199767989
|  6>  C       -0.1035458570    -0.0837142629     0.0463519519
|  7>  C       -0.0544866317     1.3273637326     0.0705591048
|  8>  C       -0.8884079264     2.3772772587     0.7411651049
|  9>  C        0.0522943545     3.0329009638     1.7735904803
| 10>  N        1.3034899342     3.1709613026     0.9793229821
| 11>  C        1.1653405811     2.3539325847     0.0188116634
| 12>  N        0.8154129061     2.9238444710    -1.2925835744
| 13>  C       -0.5746819350     2.4091565196    -0.8104851643
| 14>  H       -0.1414773480    -2.3487795201    -0.0015248845
| 15>  H       -1.9313796829     2.1782807133     0.9765291918
| 16>  H       -0.2320543904     4.0493287346     2.0622318120
| 17>  H        0.1214296926     2.4245879762     2.6871322652
| 18>  H        1.0341337185     2.2572253581    -2.0414967826
| 19>  H       -1.3766916778     2.3703866233    -1.5410203796
| 20> *
| 21>
| 22>                          ****END OF INPUT****

CARTESIAN COORDINATES (ANGSTROEM)
---------------------------------
  C     -0.123070   -1.287322    0.019977
  C     -0.103546   -0.083714    0.046352
  C     -0.054487    1.327364    0.070559
  C     -0.888408    2.377277    0.741165
  C      0.052294    3.032901    1.773590
  N      1.303490    3.170961    0.979323
  C      1.165341    2.353933    0.018812
  N      0.815413    2.923844   -1.292584
  C     -0.574682    2.409157   -0.810485
  H     -0.141477   -2.348780   -0.001525
  H     -1.931380    2.178281    0.976529
  H     -0.232054    4.049329    2.062232
  H      0.121430    2.424588    2.687132
  H      1.034134    2.257225   -2.041497
  H     -1.376692    2.370387   -1.541020

 Total Charge           Charge          ....    0
 Multiplicity           Mult            ....    1
 Number of Electrons    NEL             ....   62
 Basis Dimension        Dim             ....  315

ORBITAL ENERGIES
----------------

  NO   OCC          E(Eh)            E(eV)
   0   2.0000     -15.595213      -424.3673
   1   2.0000     -15.551662      -423.1822
   2   2.0000     -11.336482      -308.4814
   3   2.0000     -11.310579      -307.7765
   4   2.0000     -11.279903      -306.9418
   5   2.0000     -11.278347      -306.8994
   6   2.0000     -11.277922      -306.8879
   7   2.0000     -11.254216      -306.2428
   8   2.0000     -11.242035      -305.9113
   9   2.0000      -1.335034       -36.3281
  10   2.0000      -1.189725       -32.3741
  11   2.0000      -1.130229       -30.7551
  12   2.0000      -1.044534       -28.4232
  13   2.0000      -0.957649       -26.0590
  14   2.0000      -0.870489       -23.6872
  15   2.0000      -0.822726       -22.3875
  16   2.0000      -0.788929       -21.4678
  17   2.0000      -0.719588       -19.5810
  18   2.0000      -0.690301       -18.7840
  19   2.0000      -0.664221       -18.0744
  20   2.0000      -0.639065       -17.3898
  21   2.0000      -0.603251       -16.4153
  22   2.0000      -0.577396       -15.7117
  23   2.0000      -0.531771       -14.4702
  24   2.0000      -0.511104       -13.9078
  25   2.0000      -0.474232       -12.9045
  26   2.0000      -0.454943       -12.3796
  27   2.0000      -0.428627       -11.6635
  28   2.0000      -0.409121       -11.1328
  29   2.0000      -0.365466        -9.9448
  30   2.0000      -0.346681        -9.4337
  31   0.0000       0.079449         2.1619
  32   0.0000       0.133582         3.6349
  33   0.0000       0.146681         3.9914
  34   0.0000       0.147536         4.0147
  35   0.0000       0.156199         4.2504

MULLIKEN ATOMIC CHARGES
-----------------------
   0 C :   -0.114969
   1 C :   -0.055720
   2 C :   -0.113352
   3 C :   -0.179051
   4 C :   -0.084364
   5 N :   -0.189071
   6 C :    0.059372
   7 N :   -0.250361
   8 C :   -0.050261
   9 H :    0.198548
  10 H :    0.142366
  11 H :    0.136543
  12 H :    0.124933
  13 H :    0.217646
  14 H :    0.157741
Sum of atomic charges:    0.0000000

LOEWDIN ATOMIC CHARGES
----------------------
   0 C :   -0.077762
   1 C :   -0.083355
   2 C :   -0.171191
   3 C :   -0.128153
   4 C :   -0.227945
   5 N :    0.143392
   6 C :   -0.242661
   7 N :    0.030728
   8 C :   -0.120692
   9 H :    0.128907
  10 H :    0.153291
  11 H :    0.139517
  12 H :    0.136160
  13 H :    0.175220
  14 H :    0.144544

  Mayer bond orders larger than 0.1
B(  0-C ,  1-C ) :   2.5980 B(  0-C ,  2-C ) :  -0.1434 B(  0-C ,  9-H ) :   0.8639
B(  1-C ,  2-C ) :   1.2104 B(  2-C ,  3-C ) :   0.8105 B(  2-C ,  6-C ) :   0.8778
B(  2-C ,  8-C ) :   0.8370 B(  3-C ,  4-C ) :   0.9481 B(  3-C ,  8-C ) :   0.9040
B(  3-C , 10-H ) :   0.9076 B(  4-C ,  5-N ) :   0.9040 B(  4-C , 11-H ) :   0.9206
B(  4-C , 12-H ) :   0.8962 B(  5-N ,  6-C ) :   1.9065 B(  6-C ,  7-N ) :   1.0545
B(  7-N ,  8-C ) :   0.8714 B(  7-N , 13-H ) :   0.8587 B(  8-C , 14-H ) :   0.9092

MP2 TOTAL ENERGY:     -378.805664670 Eh
FINAL SINGLE POINT ENERGY      -378.805664669890

DIPOLE MOMENT
-------------
                                X             Y             Z
Electronic contribution:      2.36475      -0.70198      -1.09351
Nuclear contribution   :     -3.35163      -0.12136       1.04758
                        -----------------------------------------
Total Dipole Moment    :     -0.98689      -0.82334      -0.04594
                        -----------------------------------------
Magnitude (a.u.)       :      1.28606
Magnitude (Debye)      :      3.26890

                             ****ORCA TERMINATED NORMALLY****
TOTAL RUN TIME: 0 days 0 hours 17 minutes 35 seconds 722 msec
