                         Program Version 3.0.3 - RELEASE   -
|  1> ! RI-MP2 RIJK def2-TZVP def2-TZVP/C def2-TZVP/JK TIGHTSCF
|  2> % maxcore 2000
|  3> % mp2 density relaxed end
|  4> *xyz 0 1
|  5>  C       -0.0161197162     1.5274248184    -0.0123734319
|  6>  C       -0.0306391572     0.0081053457    -0.0038911884
|  7>  C        1.1405398112    -0.6630091263    -0.8622131883
|  8>  O        1.7381669547     0.0341244378    -1.9152120619
|  9>  C        1.8640542499    -0.7892935805     0.4603510500
| 10>  C        2.8924337346    -0.2612154678     1.1165904311
| 11>  C        2.4045220490     0.1073764325     2.5102923485
| 12>  O        0.9663350384     0.0730073115     2.4330100894
| 13>  C        0.6144506100    -0.6607815046     1.2736706166
| 14>  H        0.9542263901     1.9233253689     0.3062094972
| 15>  H       -0.2331890992     1.9113899591    -1.0138363066
| 16>  H       -0.7650507868     1.9231006416     0.6788959120
| 17>  H       -1.0235499181    -0.3755855539    -0.2541934799
| 18>  H        0.8061497904    -1.6171964486    -1.2782916237
| 19>  H        2.1311104885     0.8347122782    -1.5501758066
| 20>  H        3.8688885909     0.0131361325     0.7373613171
| 21>  H        2.7539318176    -0.5809783651     3.2965704027
| 22>  H        2.7186296059     1.1196152649     2.7960737081
| 23>  H        0.0941048162    -1.5865285342     1.5511709047
| 24> *
| 25>
| 26>                          ****END OF INPUT****

CARTESIAN COORDINATES (ANGSTROEM)
---------------------------------
  C     -0.016120    1.527425   -0.012373
  C     -0.030639    0.008105   -0.003891
  C      1.140540   -0.663009   -0.862213
  O      1.738167    0.034124   -1.915212
  C      1.864054   -0.789294    0.460351
  C      2.892434   -0.261215    1.116590
  C      2.404522    0.107376    2.510292
  O      0.966335    0.073007    2.433010
  C      0.614451   -0.660782    1.273671
  H      0.954226    1.923325    0.306209
  H     -0.233189    1.911390   -1.013836
  H     -0.765051    1.923101    0.678896
  H     -1.023550   -0.375586   -0.254193
  H      0.806150   -1.617196   -1.278292
  H      2.131110    0.834712   -1.550176
  H      3.868889    0.013136    0.737361
  H      2.753932   -0.580978    3.296570
  H      2.718630    1.119615    2.796074
  H      0.094105   -1.586529    1.551171

 Total Charge           Charge          ....    0
 Multiplicity           Mult            ....    1
 Number of Electrons    NEL             ....   68
 Basis Dimension        Dim             ....  339

ORBITAL ENERGIES
----------------

  NO   OCC          E(Eh)            E(eV)
   0   2.0000     -20.567886      -559.6806
   1   2.0000     -20.556877      -559.3811
   2   2.0000     -11.300709      -307.5079
   3   2.0000     -11.286374      -307.1178
   4   2.0000     -11.280513      -306.9584
   5   2.0000     -11.242409      -305.9215
   6   2.0000     -11.239042      -305.8299
   7   2.0000     -11.237057      -305.7759
   8   2.0000     -11.220651      -305.3294
   9   2.0000      -1.383330       -37.6423
  10   2.0000      -1.375387       -37.4262
  11   2.0000      -1.140873       -31.0447
  12   2.0000      -1.048823       -28.5399
  13   2.0000      -0.976107       -26.5612
  14   2.0000      -0.911627       -24.8066
  15   2.0000      -0.852206       -23.1897
  16   2.0000      -0.779131       -21.2012
  17   2.0000      -0.760630       -20.6978
  18   2.0000      -0.698292       -19.0015
  19   2.0000      -0.676407       -18.4060
  20   2.0000      -0.643730       -17.5168
  21   2.0000      -0.630706       -17.1624
  22   2.0000      -0.599952       -16.3255
  23   2.0000      -0.593066       -16.1382
  24   2.0000      -0.575984       -15.6733
  25   2.0000      -0.558571       -15.1995
  26   2.0000      -0.538796       -14.6614
  27   2.0000      -0.512641       -13.9497
  28   2.0000      -0.501467       -13.6456
  29   2.0000      -0.485813       -13.2197
  30   2.0000      -0.455843       -12.4041
  31   2.0000      -0.444206       -12.0875
  32   2.0000      -0.406955       -11.0738
  33   2.0000      -0.348297        -9.4777
  34   0.0000       0.124824         3.3966
  35   0.0000       0.129761         3.5310
  36   0.0000       0.154198         4.1959
  37   0.0000       0.163505         4.4492
  38   0.0000       0.176092         4.7917

MULLIKEN ATOMIC CHARGES
-----------------------
   0 C :   -0.493365
   1 C :   -0.004152
   2 C :    0.070929
   3 O :   -0.441344
   4 C :   -0.111007
   5 C :   -0.274112
   6 C :    0.009264
   7 O :   -0.342444
   8 C :    0.129756
   9 H :    0.126756
  10 H :    0.153873
  11 H :    0.144805
  12 H :    0.113929
  13 H :    0.121065
  14 H :    0.321869
  15 H :    0.144305
  16 H :    0.109766
  17 H :    0.115605
  18 H :    0.104504
Sum of atomic charges:   -0.0000000

LOEWDIN ATOMIC CHARGES
----------------------
   0 C :   -0.298835
   1 C :   -0.197374
   2 C :   -0.271769
   3 O :    0.006943
   4 C :   -0.147086
   5 C :   -0.145706
   6 C :   -0.268833
   7 O :    0.165417
   8 C :   -0.230045
   9 H :    0.125578
  10 H :    0.128038
  11 H :    0.132359
  12 H :    0.141667
  13 H :    0.149482
  14 H :    0.179299
  15 H :    0.140055
  16 H :    0.124547
  17 H :    0.126446
  18 H :    0.139816

  Mayer bond orders larger than 0.1
B(  0-C ,  1-C ) :   0.8755 B(  0-C ,  9-H ) :   0.9294 B(  0-C , 10-H ) :   0.9379
B(  0-C , 11-H ) :   0.9344 B(  1-C ,  2-C ) :   0.8550 B(  1-C ,  8-C ) :   0.8612
B(  1-C , 12-H ) :   0.9097 B(  2-C ,  3-O ) :   1.0092 B(  2-C ,  4-C ) :   0.9041
B(  2-C , 13-H ) :   0.9278 B(  3-O , 14-H ) :   0.8338 B(  4-C ,  5-C ) :   1.7804
B(  4-C ,  8-C ) :   0.9137 B(  5-C ,  6-C ) :   0.9568 B(  5-C , 15-H ) :   0.9203
B(  6-C ,  7-O ) :   0.9286 B(  6-C , 16-H ) :   0.9091 B(  6-C , 17-H ) :   0.9243
B(  7-O ,  8-C ) :   0.9567 B(  8-C , 18-H ) :   0.9277

MP2 TOTAL ENERGY:     -422.285967060 Eh
FINAL SINGLE POINT ENERGY      -422.285967060486

DIPOLE MOMENT
-------------
                                X             Y             Z
Electronic contribution:      1.62330      -3.41104       0.20264
Nuclear contribution   :     -1.37895       3.60558      -0.07907
                        -----------------------------------------
Total Dipole Moment    :      0.24436       0.19454       0.12356
                        -----------------------------------------
Magnitude (a.u.)       :      0.33589
Magnitude (Debye)      :      0.85377

                             ****ORCA TERMINATED NORMALLY****
TOTAL RUN TIME: 0 days 0 hours 19 minutes 3 seconds 670 msec
