                         Program Version 3.0.3 - RELEASE   -
|  1> ! RI-MP2 RIJK def2-TZVP def2-TZVP/C def2-TZVP/JK TIGHTSCF
|  2> % maxcore 2000
|  3> % mp2 density relaxed end
|  4> *xyz 0 1
|  5>  C        0.0628358124     1.3743822507    -0.2337329647
|  6>  C        1.5309548351     1.8288442610    -0.0295077381
|  7>  C        2.0812937639     0.7029594185     0.8543949233
|  8>  O        3.4747273327     0.4290969977     0.7210694178
|  9>  C        3.7700336617    -0.8483820671     0.1838287033
| 10>  C        2.9826488506    -1.9534083980     0.8908496953
| 11>  N        1.5469278494    -1.7085277538     0.7462424676
| 12>  C        1.1549876738    -0.4340953491     0.4462450919
| 13>  N        0.0634139571    -0.0940769083    -0.1276523651
| 14>  H       -0.5942055154     1.8062380985     0.5350438646
| 15>  H       -0.3451373459     1.6808655103    -1.2022234576
| 16>  H        2.0728332913     1.8212625445    -0.9812993179
| 17>  H        1.6313470966     2.8213104028     0.4149668220
| 18>  H        1.9086937895     0.9267999718     1.9181242924
| 19>  H        3.5504241995    -0.8852443976    -0.8957619928
| 20>  H        4.8457129384    -0.9941149560     0.3191609850
| 21>  H        3.2307509288    -2.9254732051     0.4531757793
| 22>  H        3.2693848085    -1.9847933081     1.9506696196
| 23>  H        0.9772037218    -2.4391494528     0.3470550841
| 24> *
| 25>
| 26>                          ****END OF INPUT****

CARTESIAN COORDINATES (ANGSTROEM)
---------------------------------
  C      0.062836    1.374382   -0.233733
  C      1.530955    1.828844   -0.029508
  C      2.081294    0.702959    0.854395
  O      3.474727    0.429097    0.721069
  C      3.770034   -0.848382    0.183829
  C      2.982649   -1.953408    0.890850
  N      1.546928   -1.708528    0.746242
  C      1.154988   -0.434095    0.446245
  N      0.063414   -0.094077   -0.127652
  H     -0.594206    1.806238    0.535044
  H     -0.345137    1.680866   -1.202223
  H      2.072833    1.821263   -0.981299
  H      1.631347    2.821310    0.414967
  H      1.908694    0.926800    1.918124
  H      3.550424   -0.885244   -0.895762
  H      4.845713   -0.994115    0.319161
  H      3.230751   -2.925473    0.453176
  H      3.269385   -1.984793    1.950670
  H      0.977204   -2.439149    0.347055

 Total Charge           Charge          ....    0
 Multiplicity           Mult            ....    1
 Number of Electrons    NEL             ....   68
 Basis Dimension        Dim             ....  339

ORBITAL ENERGIES
----------------

  NO   OCC          E(Eh)            E(eV)
   0   2.0000     -20.564496      -559.5884
   1   2.0000     -15.574460      -423.8026
   2   2.0000     -15.524324      -422.4383
   3   2.0000     -11.301528      -307.5302
   4   2.0000     -11.290731      -307.2364
   5   2.0000     -11.288665      -307.1802
   6   2.0000     -11.274743      -306.8013
   7   2.0000     -11.243112      -305.9406
   8   2.0000     -11.222569      -305.3816
   9   2.0000      -1.388415       -37.7807
  10   2.0000      -1.275227       -34.7007
  11   2.0000      -1.198115       -32.6024
  12   2.0000      -1.032352       -28.0917
  13   2.0000      -1.012111       -27.5409
  14   2.0000      -0.926633       -25.2150
  15   2.0000      -0.869991       -23.6737
  16   2.0000      -0.815260       -22.1844
  17   2.0000      -0.744283       -20.2530
  18   2.0000      -0.705546       -19.1989
  19   2.0000      -0.689347       -18.7581
  20   2.0000      -0.648030       -17.6338
  21   2.0000      -0.625353       -17.0167
  22   2.0000      -0.619591       -16.8599
  23   2.0000      -0.594301       -16.1718
  24   2.0000      -0.570413       -15.5217
  25   2.0000      -0.559520       -15.2253
  26   2.0000      -0.535847       -14.5811
  27   2.0000      -0.525089       -14.2884
  28   2.0000      -0.506595       -13.7852
  29   2.0000      -0.474897       -12.9226
  30   2.0000      -0.463515       -12.6129
  31   2.0000      -0.424910       -11.5624
  32   2.0000      -0.397470       -10.8157
  33   2.0000      -0.338939        -9.2230
  34   0.0000       0.131610         3.5813
  35   0.0000       0.149535         4.0691
  36   0.0000       0.159436         4.3385
  37   0.0000       0.169643         4.6162
  38   0.0000       0.178047         4.8449

MULLIKEN ATOMIC CHARGES
-----------------------
   0 C :   -0.104209
   1 C :   -0.251817
   2 C :    0.101530
   3 O :   -0.313836
   4 C :   -0.050550
   5 C :   -0.123502
   6 N :   -0.319552
   7 C :    0.015947
   8 N :   -0.224521
   9 H :    0.104626
  10 H :    0.115594
  11 H :    0.111479
  12 H :    0.128436
  13 H :    0.100096
  14 H :    0.099344
  15 H :    0.129777
  16 H :    0.129754
  17 H :    0.113848
  18 H :    0.237554
Sum of atomic charges:    0.0000000

LOEWDIN ATOMIC CHARGES
----------------------
   0 C :   -0.279730
   1 C :   -0.231993
   2 C :   -0.267951
   3 O :    0.168775
   4 C :   -0.319601
   5 C :   -0.281973
   6 N :    0.094752
   7 C :   -0.352194
   8 N :    0.074818
   9 H :    0.127107
  10 H :    0.126079
  11 H :    0.142072
  12 H :    0.133504
  13 H :    0.152749
  14 H :    0.124736
  15 H :    0.133128
  16 H :    0.136991
  17 H :    0.132340
  18 H :    0.186391

  Mayer bond orders larger than 0.1
B(  0-C ,  1-C ) :   0.9319 B(  0-C ,  8-N ) :   0.9343 B(  0-C ,  9-H ) :   0.9196
B(  0-C , 10-H ) :   0.9255 B(  1-C ,  2-C ) :   0.9326 B(  1-C , 11-H ) :   0.9164
B(  1-C , 12-H ) :   0.9325 B(  2-C ,  3-O ) :   0.9237 B(  2-C ,  7-C ) :   0.9317
B(  2-C , 13-H ) :   0.9140 B(  3-O ,  4-C ) :   0.9493 B(  4-C ,  5-C ) :   0.9382
B(  4-C , 14-H ) :   0.9325 B(  4-C , 15-H ) :   0.9240 B(  5-C ,  6-N ) :   0.9174
B(  5-C , 16-H ) :   0.9197 B(  5-C , 17-H ) :   0.9235 B(  6-N ,  7-C ) :   1.1612
B(  6-N , 18-H ) :   0.8620 B(  7-C ,  8-N ) :   1.8554

MP2 TOTAL ENERGY:     -418.517233056 Eh
FINAL SINGLE POINT ENERGY      -418.517233056381

DIPOLE MOMENT
-------------
                                X             Y             Z
Electronic contribution:     -0.93215      -1.09186       0.92959
Nuclear contribution   :      1.59101       0.61825      -0.91671
                        -----------------------------------------
Total Dipole Moment    :      0.65886      -0.47362       0.01288
                        -----------------------------------------
Magnitude (a.u.)       :      0.81152
Magnitude (Debye)      :      2.06273

                             ****ORCA TERMINATED NORMALLY****
TOTAL RUN TIME: 0 days 0 hours 19 minutes 31 seconds 192 msec
