                         Program Version 3.0.3 - RELEASE   -
|  1> ! RI-MP2 RIJK def2-TZVP def2-TZVP/C def2-TZVP/JK TIGHTSCF
|  2> % maxcore 2000
|  3> % mp2 density relaxed end
|  4> *xyz 0 1
|  5>  O        0.2045107014     0.0197163926    -0.3187174774
|  6>  C        0.0611812501     1.1919922310    -0.1203662188
|  7>  N       -1.0931957243     1.8618485886     0.2419072168
|  8>  C       -0.9552601605     3.2984573697     0.0792892583
|  9>  C        0.5880905184     3.4014609033     0.1637529812
| 10>  O        1.0731078705     2.1089498783    -0.2119628001
| 11>  C       -1.5302332136     3.8150115010    -1.2245901240
| 12>  C       -2.9422353988     4.2684458500    -1.2857023259
| 13>  N       -1.8410871620     5.2429490855    -1.3775832380
| 14>  H       -1.9678837807     1.3950845840     0.0610973586
| 15>  H       -1.4231206868     3.8391181634     0.9125096990
| 16>  H        1.0000395726     4.1449999422    -0.5215604268
| 17>  H        0.9188866819     3.6241401459     1.1838831523
| 18>  H       -1.0891537212     3.3663951574    -2.1137024530
| 19>  H       -3.5177983726     4.1396362560    -2.1973218791
| 20>  H       -3.5291359477     4.2315969905    -0.3703854991
| 21>  H       -1.7323184167     5.7244863206    -0.4867152940
| 22> *
| 23>
| 24>                          ****END OF INPUT****

CARTESIAN COORDINATES (ANGSTROEM)
---------------------------------
  O      0.204511    0.019716   -0.318717
  C      0.061181    1.191992   -0.120366
  N     -1.093196    1.861849    0.241907
  C     -0.955260    3.298457    0.079289
  C      0.588091    3.401461    0.163753
  O      1.073108    2.108950   -0.211963
  C     -1.530233    3.815012   -1.224590
  C     -2.942235    4.268446   -1.285702
  N     -1.841087    5.242949   -1.377583
  H     -1.967884    1.395085    0.061097
  H     -1.423121    3.839118    0.912510
  H      1.000040    4.145000   -0.521560
  H      0.918887    3.624140    1.183883
  H     -1.089154    3.366395   -2.113702
  H     -3.517798    4.139636   -2.197322
  H     -3.529136    4.231597   -0.370385
  H     -1.732318    5.724486   -0.486715

 Total Charge           Charge          ....    0
 Multiplicity           Mult            ....    1
 Number of Electrons    NEL             ....   68
 Basis Dimension        Dim             ....  327

ORBITAL ENERGIES
----------------

  NO   OCC          E(Eh)            E(eV)
   0   2.0000     -20.607678      -560.7634
   1   2.0000     -20.530759      -558.6703
   2   2.0000     -15.601215      -424.5306
   3   2.0000     -15.581603      -423.9970
   4   2.0000     -11.405184      -310.3508
   5   2.0000     -11.312984      -307.8420
   6   2.0000     -11.306974      -307.6784
   7   2.0000     -11.283574      -307.0416
   8   2.0000     -11.277861      -306.8862
   9   2.0000      -1.473817       -40.1046
  10   2.0000      -1.370102       -37.2824
  11   2.0000      -1.289394       -35.0862
  12   2.0000      -1.247846       -33.9556
  13   2.0000      -1.046671       -28.4814
  14   2.0000      -0.934789       -25.4369
  15   2.0000      -0.896615       -24.3981
  16   2.0000      -0.839182       -22.8353
  17   2.0000      -0.833472       -22.6799
  18   2.0000      -0.733636       -19.9633
  19   2.0000      -0.724722       -19.7207
  20   2.0000      -0.698539       -19.0082
  21   2.0000      -0.662456       -18.0264
  22   2.0000      -0.645583       -17.5672
  23   2.0000      -0.623710       -16.9720
  24   2.0000      -0.599341       -16.3089
  25   2.0000      -0.588884       -16.0244
  26   2.0000      -0.559591       -15.2272
  27   2.0000      -0.542868       -14.7722
  28   2.0000      -0.505694       -13.7606
  29   2.0000      -0.498394       -13.5620
  30   2.0000      -0.462268       -12.5790
  31   2.0000      -0.460159       -12.5216
  32   2.0000      -0.427311       -11.6277
  33   2.0000      -0.406807       -11.0698
  34   0.0000       0.116717         3.1760
  35   0.0000       0.128057         3.4846
  36   0.0000       0.149639         4.0719
  37   0.0000       0.165681         4.5084
  38   0.0000       0.180966         4.9243

MULLIKEN ATOMIC CHARGES
-----------------------
   0 O :   -0.316756
   1 C :    0.326550
   2 N :   -0.347451
   3 C :    0.011486
   4 C :   -0.042711
   5 O :   -0.246878
   6 C :   -0.128821
   7 C :   -0.186793
   8 N :   -0.352265
   9 H :    0.253010
  10 H :    0.126483
  11 H :    0.145460
  12 H :    0.118855
  13 H :    0.151786
  14 H :    0.137158
  15 H :    0.131583
  16 H :    0.219305
Sum of atomic charges:   -0.0000000

LOEWDIN ATOMIC CHARGES
----------------------
   0 O :    0.106539
   1 C :   -0.571063
   2 N :    0.113733
   3 C :   -0.283654
   4 C :   -0.238114
   5 O :    0.240188
   6 C :   -0.270160
   7 C :   -0.263007
   8 N :   -0.010722
   9 H :    0.191978
  10 H :    0.150703
  11 H :    0.136749
  12 H :    0.129062
  13 H :    0.151355
  14 H :    0.128368
  15 H :    0.122833
  16 H :    0.165212

  Mayer bond orders larger than 0.1
B(  0-O ,  1-C ) :   2.0353 B(  1-C ,  2-N ) :   1.1195 B(  1-C ,  5-O ) :   1.0626
B(  2-N ,  3-C ) :   0.8860 B(  2-N ,  9-H ) :   0.8680 B(  3-C ,  4-C ) :   0.9072
B(  3-C ,  6-C ) :   0.9258 B(  3-C , 10-H ) :   0.9228 B(  4-C ,  5-O ) :   0.8924
B(  4-C , 11-H ) :   0.9310 B(  4-C , 12-H ) :   0.9202 B(  6-C ,  7-C ) :   0.9304
B(  6-C ,  8-N ) :   0.9256 B(  6-C , 13-H ) :   0.9030 B(  7-C ,  8-N ) :   0.9284
B(  7-C , 14-H ) :   0.9184 B(  7-C , 15-H ) :   0.9194 B(  8-N , 16-H ) :   0.8701

MP2 TOTAL ENERGY:     -454.430159897 Eh
FINAL SINGLE POINT ENERGY      -454.430159896603

DIPOLE MOMENT
-------------
                                X             Y             Z
Electronic contribution:      4.21547      -6.27737       0.63852
Nuclear contribution   :     -5.36660       7.67713       0.00753
                        -----------------------------------------
Total Dipole Moment    :     -1.15113       1.39976       0.64604
                        -----------------------------------------
Magnitude (a.u.)       :      1.92401
Magnitude (Debye)      :      4.89043

                             ****ORCA TERMINATED NORMALLY****
TOTAL RUN TIME: 0 days 0 hours 14 minutes 38 seconds 345 msec
