                         Program Version 3.0.3 - RELEASE   -
|  1> ! RI-MP2 RIJK def2-TZVP def2-TZVP/C def2-TZVP/JK TIGHTSCF
|  2> % maxcore 2000
|  3> % mp2 density relaxed end
|  4> *xyz 0 1
|  5>  C       -0.0712212945     1.5539071822     0.0030910296
|  6>  C       -0.0312263661     0.0218439559     0.0135923780
|  7>  C       -1.4575966123    -0.5764513762    -0.0200568119
|  8>  O       -2.1364233602    -0.2079480906    -1.1977221344
|  9>  N        0.6961454779    -0.5005689881    -1.1634356459
| 10>  C        1.6752535868    -1.1808445699    -0.7076084293
| 11>  N        1.7841181479    -1.2327676397     0.6754268261
| 12>  C        0.7378299979    -0.5019813944     1.2365880637
| 13>  O        0.5188196725    -0.3427312891     2.4115640907
| 14>  H        0.9285792039     1.9711559065    -0.1424431098
| 15>  H       -0.7194234990     1.8929640166    -0.8068346236
| 16>  H       -0.4661025091     1.9134484388     0.9574867837
| 17>  H       -1.3891273269    -1.6707845439     0.0833992828
| 18>  H       -2.0316793341    -0.1928833603     0.8283187924
| 19>  H       -1.5488793606    -0.4394700229    -1.9285775254
| 20>  H        2.3993127230    -1.7055862034    -1.3230730054
| 21>  H        2.4906011427    -1.7142726916     1.2085157887
| 22> *
| 23>
| 24>                          ****END OF INPUT****

CARTESIAN COORDINATES (ANGSTROEM)
---------------------------------
  C     -0.071221    1.553907    0.003091
  C     -0.031226    0.021844    0.013592
  C     -1.457597   -0.576451   -0.020057
  O     -2.136423   -0.207948   -1.197722
  N      0.696145   -0.500569   -1.163436
  C      1.675254   -1.180845   -0.707608
  N      1.784118   -1.232768    0.675427
  C      0.737830   -0.501981    1.236588
  O      0.518820   -0.342731    2.411564
  H      0.928579    1.971156   -0.142443
  H     -0.719423    1.892964   -0.806835
  H     -0.466103    1.913448    0.957487
  H     -1.389127   -1.670785    0.083399
  H     -2.031679   -0.192883    0.828319
  H     -1.548879   -0.439470   -1.928578
  H      2.399313   -1.705586   -1.323073
  H      2.490601   -1.714273    1.208516

 Total Charge           Charge          ....    0
 Multiplicity           Mult            ....    1
 Number of Electrons    NEL             ....   68
 Basis Dimension        Dim             ....  327

ORBITAL ENERGIES
----------------

  NO   OCC          E(Eh)            E(eV)
   0   2.0000     -20.556374      -559.3674
   1   2.0000     -20.550498      -559.2075
   2   2.0000     -15.624830      -425.1732
   3   2.0000     -15.568123      -423.6302
   4   2.0000     -11.371725      -309.4404
   5   2.0000     -11.343759      -308.6794
   6   2.0000     -11.285959      -307.1066
   7   2.0000     -11.285175      -307.0852
   8   2.0000     -11.225384      -305.4582
   9   2.0000      -1.416118       -38.5345
  10   2.0000      -1.367040       -37.1991
  11   2.0000      -1.332317       -36.2542
  12   2.0000      -1.192990       -32.4629
  13   2.0000      -1.063285       -28.9335
  14   2.0000      -0.938811       -25.5463
  15   2.0000      -0.912936       -24.8423
  16   2.0000      -0.841452       -22.8971
  17   2.0000      -0.790409       -21.5081
  18   2.0000      -0.739082       -20.1114
  19   2.0000      -0.694313       -18.8932
  20   2.0000      -0.671721       -18.2785
  21   2.0000      -0.646644       -17.5961
  22   2.0000      -0.640292       -17.4232
  23   2.0000      -0.615213       -16.7408
  24   2.0000      -0.592109       -16.1121
  25   2.0000      -0.550213       -14.9720
  26   2.0000      -0.544839       -14.8258
  27   2.0000      -0.537583       -14.6284
  28   2.0000      -0.523643       -14.2490
  29   2.0000      -0.507543       -13.8110
  30   2.0000      -0.473634       -12.8882
  31   2.0000      -0.449925       -12.2431
  32   2.0000      -0.418356       -11.3840
  33   2.0000      -0.386497       -10.5171
  34   0.0000       0.119066         3.2399
  35   0.0000       0.122625         3.3368
  36   0.0000       0.151896         4.1333
  37   0.0000       0.166840         4.5400
  38   0.0000       0.173660         4.7255

MULLIKEN ATOMIC CHARGES
-----------------------
   0 C :   -0.400757
   1 C :    0.178192
   2 C :   -0.007522
   3 O :   -0.468817
   4 N :   -0.344564
   5 C :    0.062545
   6 N :   -0.285662
   7 C :    0.163546
   8 O :   -0.302234
   9 H :    0.134512
  10 H :    0.155079
  11 H :    0.146540
  12 H :    0.104037
  13 H :    0.125773
  14 H :    0.330640
  15 H :    0.155373
  16 H :    0.253321
Sum of atomic charges:    0.0000000

LOEWDIN ATOMIC CHARGES
----------------------
   0 C :   -0.250315
   1 C :   -0.310799
   2 C :   -0.296873
   3 O :   -0.030727
   4 N :    0.100458
   5 C :   -0.280036
   6 N :    0.147541
   7 C :   -0.376405
   8 O :    0.123688
   9 H :    0.129510
  10 H :    0.135351
  11 H :    0.136584
  12 H :    0.124495
  13 H :    0.139354
  14 H :    0.180526
  15 H :    0.136076
  16 H :    0.191571

  Mayer bond orders larger than 0.1
B(  0-C ,  1-C ) :   0.9036 B(  0-C ,  9-H ) :   0.9256 B(  0-C , 10-H ) :   0.9302
B(  0-C , 11-H ) :   0.9287 B(  1-C ,  2-C ) :   0.9159 B(  1-C ,  4-N ) :   0.8078
B(  1-C ,  7-C ) :   0.8492 B(  2-C ,  3-O ) :   0.9444 B(  2-C , 12-H ) :   0.9025
B(  2-C , 13-H ) :   0.9256 B(  3-O , 14-H ) :   0.8256 B(  4-N ,  5-C ) :   1.8111
B(  5-C ,  6-N ) :   1.0367 B(  5-C , 15-H ) :   0.9163 B(  6-N ,  7-C ) :   1.0866
B(  6-N , 16-H ) :   0.8567 B(  7-C ,  8-O ) :   2.0488

MP2 TOTAL ENERGY:     -454.463525732 Eh
FINAL SINGLE POINT ENERGY      -454.463525732055

DIPOLE MOMENT
-------------
                                X             Y             Z
Electronic contribution:      2.77339      -3.17309       1.77201
Nuclear contribution   :     -1.43144       2.46249      -2.08477
                        -----------------------------------------
Total Dipole Moment    :      1.34196      -0.71061      -0.31276
                        -----------------------------------------
Magnitude (a.u.)       :      1.55037
Magnitude (Debye)      :      3.94072

                             ****ORCA TERMINATED NORMALLY****
TOTAL RUN TIME: 0 days 0 hours 16 minutes 57 seconds 24 msec
