                         Program Version 3.0.3 - RELEASE   -
|  1> ! RI-MP2 RIJK def2-TZVP def2-TZVP/C def2-TZVP/JK TIGHTSCF
|  2> % maxcore 2000
|  3> % mp2 density relaxed end
|  4> *xyz 0 1
|  5>  O        0.1288890821    -0.1628289970     0.1785654697
|  6>  C        0.0759148301     1.0395437396     0.1129112478
|  7>  C        1.2832466114     1.9447799154     0.0591313125
|  8>  C        1.2552159582     2.9406396215    -1.1557666319
|  9>  C        1.3695953218     4.3283419083    -0.4791330465
| 10>  C        0.0604380356     4.5821907626     0.2818021690
| 11>  O        0.0981025498     3.6229620406     1.3600455266
| 12>  C        1.3557266814     2.9413082535     1.2511993122
| 13>  C        2.3005935001     4.0221491213     0.7126861023
| 14>  H       -0.8998703881     1.5713961738     0.0827372992
| 15>  H        2.1705936074     1.3063067845     0.0436590993
| 16>  H        2.0947397398     2.7475622517    -1.8279885534
| 17>  H        0.3370467188     2.8512932392    -1.7464080876
| 18>  H        1.6623558035     5.1395591091    -1.1463765257
| 19>  H        0.0039985904     5.5959974525     0.6987728727
| 20>  H       -0.8316457346     4.4090556720    -0.3322990866
| 21>  H        1.5843516373     2.4882551847     2.2158499905
| 22>  H        3.2816219467     3.6414397226     0.4182843717
| 23>  H        2.4191179184     4.8565092542     1.4087098681
| 24> *
| 25>
| 26>                          ****END OF INPUT****

CARTESIAN COORDINATES (ANGSTROEM)
---------------------------------
  O      0.128889   -0.162829    0.178565
  C      0.075915    1.039544    0.112911
  C      1.283247    1.944780    0.059131
  C      1.255216    2.940640   -1.155767
  C      1.369595    4.328342   -0.479133
  C      0.060438    4.582191    0.281802
  O      0.098103    3.622962    1.360046
  C      1.355727    2.941308    1.251199
  C      2.300594    4.022149    0.712686
  H     -0.899870    1.571396    0.082737
  H      2.170594    1.306307    0.043659
  H      2.094740    2.747562   -1.827989
  H      0.337047    2.851293   -1.746408
  H      1.662356    5.139559   -1.146377
  H      0.003999    5.595997    0.698773
  H     -0.831646    4.409056   -0.332299
  H      1.584352    2.488255    2.215850
  H      3.281622    3.641440    0.418284
  H      2.419118    4.856509    1.408710

 Total Charge           Charge          ....    0
 Multiplicity           Mult            ....    1
 Number of Electrons    NEL             ....   68
 Basis Dimension        Dim             ....  339

ORBITAL ENERGIES
----------------

  NO   OCC          E(Eh)            E(eV)
   0   2.0000     -20.561818      -559.5155
   1   2.0000     -20.550805      -559.2158
   2   2.0000     -11.323973      -308.1410
   3   2.0000     -11.295888      -307.3767
   4   2.0000     -11.284303      -307.0615
   5   2.0000     -11.248381      -306.0840
   6   2.0000     -11.245115      -305.9951
   7   2.0000     -11.244188      -305.9699
   8   2.0000     -11.237560      -305.7896
   9   2.0000      -1.391612       -37.8677
  10   2.0000      -1.386008       -37.7152
  11   2.0000      -1.136249       -30.9189
  12   2.0000      -1.036291       -28.1989
  13   2.0000      -0.992323       -27.0025
  14   2.0000      -0.897896       -24.4330
  15   2.0000      -0.820062       -22.3150
  16   2.0000      -0.802968       -21.8499
  17   2.0000      -0.756873       -20.5956
  18   2.0000      -0.723997       -19.7010
  19   2.0000      -0.684517       -18.6266
  20   2.0000      -0.658363       -17.9150
  21   2.0000      -0.642562       -17.4850
  22   2.0000      -0.587664       -15.9912
  23   2.0000      -0.581894       -15.8341
  24   2.0000      -0.565674       -15.3928
  25   2.0000      -0.552320       -15.0294
  26   2.0000      -0.536205       -14.5909
  27   2.0000      -0.526211       -14.3189
  28   2.0000      -0.512402       -13.9432
  29   2.0000      -0.496557       -13.5120
  30   2.0000      -0.471569       -12.8320
  31   2.0000      -0.460385       -12.5277
  32   2.0000      -0.424555       -11.5527
  33   2.0000      -0.400890       -10.9088
  34   0.0000       0.125077         3.4035
  35   0.0000       0.137327         3.7369
  36   0.0000       0.153561         4.1786
  37   0.0000       0.164445         4.4748
  38   0.0000       0.168795         4.5931

MULLIKEN ATOMIC CHARGES
-----------------------
   0 O :   -0.263280
   1 C :    0.053193
   2 C :   -0.028410
   3 C :   -0.323243
   4 C :   -0.031577
   5 C :   -0.093458
   6 O :   -0.334195
   7 C :    0.082334
   8 C :   -0.281368
   9 H :    0.088317
  10 H :    0.106882
  11 H :    0.138707
  12 H :    0.133332
  13 H :    0.134390
  14 H :    0.110548
  15 H :    0.109155
  16 H :    0.136768
  17 H :    0.130956
  18 H :    0.130950
Sum of atomic charges:    0.0000000

LOEWDIN ATOMIC CHARGES
----------------------
   0 O :    0.130067
   1 C :   -0.275295
   2 C :   -0.215131
   3 C :   -0.193848
   4 C :   -0.241829
   5 C :   -0.264631
   6 O :    0.157932
   7 C :   -0.268741
   8 C :   -0.208044
   9 H :    0.116903
  10 H :    0.158006
  11 H :    0.140573
  12 H :    0.140141
  13 H :    0.147350
  14 H :    0.123580
  15 H :    0.123651
  16 H :    0.143352
  17 H :    0.143504
  18 H :    0.142459

  Mayer bond orders larger than 0.1
B(  0-O ,  1-C ) :   1.9884 B(  1-C ,  2-C ) :   0.8554 B(  1-C ,  9-H ) :   0.9373
B(  2-C ,  3-C ) :   0.9195 B(  2-C ,  7-C ) :   0.8831 B(  2-C , 10-H ) :   0.8979
B(  3-C ,  4-C ) :   0.8945 B(  3-C , 11-H ) :   0.9235 B(  3-C , 12-H ) :   0.9332
B(  4-C ,  5-C ) :   0.9378 B(  4-C ,  8-C ) :   0.9157 B(  4-C , 13-H ) :   0.9138
B(  5-C ,  6-O ) :   0.9216 B(  5-C , 14-H ) :   0.9240 B(  5-C , 15-H ) :   0.9261
B(  6-O ,  7-C ) :   0.9166 B(  7-C ,  8-C ) :   0.9380 B(  7-C , 16-H ) :   0.9164
B(  8-C , 17-H ) :   0.9249 B(  8-C , 18-H ) :   0.9152

MP2 TOTAL ENERGY:     -422.344867839 Eh
FINAL SINGLE POINT ENERGY      -422.344867839349

DIPOLE MOMENT
-------------
                                X             Y             Z
Electronic contribution:     -2.36207      -4.95667       2.17242
Nuclear contribution   :      3.03468       6.25406      -2.67480
                        -----------------------------------------
Total Dipole Moment    :      0.67261       1.29739      -0.50238
                        -----------------------------------------
Magnitude (a.u.)       :      1.54532
Magnitude (Debye)      :      3.92789

                             ****ORCA TERMINATED NORMALLY****
TOTAL RUN TIME: 0 days 0 hours 19 minutes 16 seconds 106 msec
