                         Program Version 3.0.3 - RELEASE   -
|  1> ! RI-MP2 RIJK def2-TZVP def2-TZVP/C def2-TZVP/JK TIGHTSCF
|  2> % maxcore 2000
|  3> % mp2 density relaxed end
|  4> *xyz 0 1
|  5>  C       -0.7254593652     1.0700833845     0.2300913630
|  6>  C        0.3540703689     0.0347417054    -0.0034200409
|  7>  O        1.1752725309    -0.2393599777     0.8433071077
|  8>  C        0.3232564594    -0.6879106610    -1.3505867712
|  9>  C        1.6558792935    -1.3758260670    -1.7289849343
| 10>  C        1.2439028096    -2.7618122215    -2.1514372569
| 11>  C       -0.0518967119    -2.9992994568    -1.9594509483
| 12>  C       -0.7639440512    -1.8346940349    -1.3189373135
| 13>  O       -1.2489195879    -2.1472039425    -0.0139038746
| 14>  H       -0.7032967757     1.8373680830    -0.5515316284
| 15>  H       -1.7039910996     0.5799925885     0.1841384175
| 16>  H       -0.5948039779     1.5320498528     1.2093975690
| 17>  H        0.0296835760     0.0259451395    -2.1260473972
| 18>  H        2.1752706004    -0.8379476406    -2.5301804733
| 19>  H        2.3371518258    -1.4018221557    -0.8707402643
| 20>  H        1.9546246869    -3.4757105275    -2.5547139495
| 21>  H       -0.5690860001    -3.9309014009    -2.1593273537
| 22>  H       -1.6625009636    -1.5306505727    -1.8646925456
| 23>  H       -0.5110438485    -2.5118722549     0.4898524546
| 24> *
| 25>
| 26>                          ****END OF INPUT****

CARTESIAN COORDINATES (ANGSTROEM)
---------------------------------
  C     -0.725459    1.070083    0.230091
  C      0.354070    0.034742   -0.003420
  O      1.175273   -0.239360    0.843307
  C      0.323256   -0.687911   -1.350587
  C      1.655879   -1.375826   -1.728985
  C      1.243903   -2.761812   -2.151437
  C     -0.051897   -2.999299   -1.959451
  C     -0.763944   -1.834694   -1.318937
  O     -1.248920   -2.147204   -0.013904
  H     -0.703297    1.837368   -0.551532
  H     -1.703991    0.579993    0.184138
  H     -0.594804    1.532050    1.209398
  H      0.029684    0.025945   -2.126047
  H      2.175271   -0.837948   -2.530180
  H      2.337152   -1.401822   -0.870740
  H      1.954625   -3.475711   -2.554714
  H     -0.569086   -3.930901   -2.159327
  H     -1.662501   -1.530651   -1.864693
  H     -0.511044   -2.511872    0.489852

 Total Charge           Charge          ....    0
 Multiplicity           Mult            ....    1
 Number of Electrons    NEL             ....   68
 Basis Dimension        Dim             ....  339

ORBITAL ENERGIES
----------------

  NO   OCC          E(Eh)            E(eV)
   0   2.0000     -20.562364      -559.5304
   1   2.0000     -20.543401      -559.0143
   2   2.0000     -11.330893      -308.3293
   3   2.0000     -11.298662      -307.4522
   4   2.0000     -11.245051      -305.9934
   5   2.0000     -11.242962      -305.9365
   6   2.0000     -11.232850      -305.6614
   7   2.0000     -11.230679      -305.6023
   8   2.0000     -11.230073      -305.5858
   9   2.0000      -1.389767       -37.8175
  10   2.0000      -1.367671       -37.2162
  11   2.0000      -1.138825       -30.9890
  12   2.0000      -1.031095       -28.0575
  13   2.0000      -0.977109       -26.5885
  14   2.0000      -0.955546       -26.0017
  15   2.0000      -0.834386       -22.7048
  16   2.0000      -0.760120       -20.6839
  17   2.0000      -0.734530       -19.9876
  18   2.0000      -0.702385       -19.1129
  19   2.0000      -0.672161       -18.2904
  20   2.0000      -0.637938       -17.3592
  21   2.0000      -0.617804       -16.8113
  22   2.0000      -0.612615       -16.6701
  23   2.0000      -0.600669       -16.3450
  24   2.0000      -0.574334       -15.6284
  25   2.0000      -0.560758       -15.2590
  26   2.0000      -0.539065       -14.6687
  27   2.0000      -0.528882       -14.3916
  28   2.0000      -0.499643       -13.5960
  29   2.0000      -0.494728       -13.4622
  30   2.0000      -0.485869       -13.2212
  31   2.0000      -0.444013       -12.0822
  32   2.0000      -0.409339       -11.1387
  33   2.0000      -0.367558       -10.0018
  34   0.0000       0.126103         3.4314
  35   0.0000       0.142708         3.8833
  36   0.0000       0.144949         3.9443
  37   0.0000       0.160580         4.3696
  38   0.0000       0.175930         4.7873

MULLIKEN ATOMIC CHARGES
-----------------------
   0 C :   -0.447447
   1 C :    0.222743
   2 O :   -0.298995
   3 C :   -0.092941
   4 C :   -0.170172
   5 C :   -0.161093
   6 C :   -0.205805
   7 C :    0.058511
   8 O :   -0.459769
   9 H :    0.139379
  10 H :    0.164896
  11 H :    0.150173
  12 H :    0.121625
  13 H :    0.123910
  14 H :    0.151091
  15 H :    0.132711
  16 H :    0.134990
  17 H :    0.110702
  18 H :    0.325490
Sum of atomic charges:    0.0000000

LOEWDIN ATOMIC CHARGES
----------------------
   0 C :   -0.276723
   1 C :   -0.333693
   2 O :    0.143649
   3 C :   -0.183768
   4 C :   -0.215922
   5 C :   -0.142945
   6 C :   -0.157547
   7 C :   -0.289478
   8 O :   -0.012052
   9 H :    0.133458
  10 H :    0.144040
  11 H :    0.132809
  12 H :    0.160311
  13 H :    0.141500
  14 H :    0.151677
  15 H :    0.139185
  16 H :    0.141016
  17 H :    0.144147
  18 H :    0.180337

  Mayer bond orders larger than 0.1
B(  0-C ,  1-C ) :   0.9129 B(  0-C ,  9-H ) :   0.9194 B(  0-C , 10-H ) :   0.9104
B(  0-C , 11-H ) :   0.9396 B(  1-C ,  2-O ) :   1.9721 B(  1-C ,  3-C ) :   0.8660
B(  3-C ,  4-C ) :   0.9211 B(  3-C ,  7-C ) :   0.8721 B(  3-C , 12-H ) :   0.9124
B(  4-C ,  5-C ) :   0.9596 B(  4-C , 13-H ) :   0.9230 B(  4-C , 14-H ) :   0.8976
B(  5-C ,  6-C ) :   1.7593 B(  5-C , 15-H ) :   0.9283 B(  6-C ,  7-C ) :   0.9720
B(  6-C , 16-H ) :   0.9345 B(  7-C ,  8-O ) :   0.9251 B(  7-C , 17-H ) :   0.9337
B(  8-O , 18-H ) :   0.8312

MP2 TOTAL ENERGY:     -422.347034644 Eh
FINAL SINGLE POINT ENERGY      -422.347034643562

DIPOLE MOMENT
-------------
                                X             Y             Z
Electronic contribution:      1.02874      -2.00766       1.93575
Nuclear contribution   :     -1.08838       2.09595      -2.85362
                        -----------------------------------------
Total Dipole Moment    :     -0.05965       0.08829      -0.91788
                        -----------------------------------------
Magnitude (a.u.)       :      0.92404
Magnitude (Debye)      :      2.34873

                             ****ORCA TERMINATED NORMALLY****
TOTAL RUN TIME: 0 days 0 hours 17 minutes 47 seconds 196 msec
