                         Program Version 3.0.3 - RELEASE   -
|  1> ! RI-MP2 RIJK def2-TZVP def2-TZVP/C def2-TZVP/JK TIGHTSCF
|  2> % maxcore 2000
|  3> % mp2 density relaxed end
|  4> *xyz 0 1
|  5>  C        0.2425881665     1.1657113281     0.3092686077
|  6>  O       -0.1628851471    -0.1033817919    -0.1757096128
|  7>  C        0.5460847305    -0.5556214023    -1.2843806995
|  8>  C        1.9466158487    -1.1021138130    -1.0803917653
|  9>  C        0.7796046490    -2.0460675559    -1.3478449808
| 10>  O        0.3458335216    -2.9008844778    -0.3404209946
| 11>  C        0.5529341322    -2.4199732219    -2.7750260936
| 12>  C        0.2337123506    -1.3517679757    -3.5098329993
| 13>  C        0.1426977625    -0.0830685874    -2.6821180545
| 14>  H        1.3081350956     1.1722029816     0.5748389318
| 15>  H        0.0601506777     1.9569585684    -0.4306706069
| 16>  H       -0.3529183881     1.3718509302     1.2015118396
| 17>  H        2.7054000251    -0.9498760510    -1.8414585883
| 18>  H        2.3000505383    -1.1023921959    -0.0541012250
| 19>  H       -0.2484537160    -2.3850995282     0.2199688867
| 20>  H        0.6699099229    -3.4354889440    -3.1337610427
| 21>  H        0.0767731730    -1.3519254839    -4.5824068349
| 22>  H       -0.8784494339     0.3210287143    -2.6684662610
| 23>  H        0.7954514108     0.7089258562    -3.0698773464
| 24> *
| 25>
| 26>                          ****END OF INPUT****

CARTESIAN COORDINATES (ANGSTROEM)
---------------------------------
  C      0.242588    1.165711    0.309269
  O     -0.162885   -0.103382   -0.175710
  C      0.546085   -0.555621   -1.284381
  C      1.946616   -1.102114   -1.080392
  C      0.779605   -2.046068   -1.347845
  O      0.345834   -2.900884   -0.340421
  C      0.552934   -2.419973   -2.775026
  C      0.233712   -1.351768   -3.509833
  C      0.142698   -0.083069   -2.682118
  H      1.308135    1.172203    0.574839
  H      0.060151    1.956959   -0.430671
  H     -0.352918    1.371851    1.201512
  H      2.705400   -0.949876   -1.841459
  H      2.300051   -1.102392   -0.054101
  H     -0.248454   -2.385100    0.219969
  H      0.669910   -3.435489   -3.133761
  H      0.076773   -1.351925   -4.582407
  H     -0.878449    0.321029   -2.668466
  H      0.795451    0.708926   -3.069877

 Total Charge           Charge          ....    0
 Multiplicity           Mult            ....    1
 Number of Electrons    NEL             ....   68
 Basis Dimension        Dim             ....  339

ORBITAL ENERGIES
----------------

  NO   OCC          E(Eh)            E(eV)
   0   2.0000     -20.573341      -559.8291
   1   2.0000     -20.556456      -559.3696
   2   2.0000     -11.286290      -307.1156
   3   2.0000     -11.284187      -307.0583
   4   2.0000     -11.280161      -306.9488
   5   2.0000     -11.235210      -305.7256
   6   2.0000     -11.230934      -305.6092
   7   2.0000     -11.228054      -305.5309
   8   2.0000     -11.226403      -305.4859
   9   2.0000      -1.400619       -38.1128
  10   2.0000      -1.363862       -37.1126
  11   2.0000      -1.167379       -31.7660
  12   2.0000      -1.040195       -28.3052
  13   2.0000      -0.967723       -26.3331
  14   2.0000      -0.934526       -25.4297
  15   2.0000      -0.834060       -22.6959
  16   2.0000      -0.774029       -21.0624
  17   2.0000      -0.743759       -20.2387
  18   2.0000      -0.717189       -19.5157
  19   2.0000      -0.661681       -18.0053
  20   2.0000      -0.647758       -17.6264
  21   2.0000      -0.633610       -17.2414
  22   2.0000      -0.602282       -16.3889
  23   2.0000      -0.599285       -16.3074
  24   2.0000      -0.574957       -15.6454
  25   2.0000      -0.573592       -15.6082
  26   2.0000      -0.547215       -14.8905
  27   2.0000      -0.524647       -14.2764
  28   2.0000      -0.508287       -13.8312
  29   2.0000      -0.503211       -13.6931
  30   2.0000      -0.450621       -12.2620
  31   2.0000      -0.406528       -11.0622
  32   2.0000      -0.394019       -10.7218
  33   2.0000      -0.337729        -9.1901
  34   0.0000       0.135921         3.6986
  35   0.0000       0.149883         4.0785
  36   0.0000       0.166540         4.5318
  37   0.0000       0.171839         4.6760
  38   0.0000       0.182214         4.9583

MULLIKEN ATOMIC CHARGES
-----------------------
   0 C :   -0.213914
   1 O :   -0.324606
   2 C :    0.131934
   3 C :   -0.269055
   4 C :    0.200894
   5 O :   -0.458415
   6 C :   -0.181883
   7 C :   -0.211931
   8 C :   -0.176033
   9 H :    0.122044
  10 H :    0.121553
  11 H :    0.142323
  12 H :    0.133117
  13 H :    0.131334
  14 H :    0.337509
  15 H :    0.134005
  16 H :    0.130766
  17 H :    0.125297
  18 H :    0.125061
Sum of atomic charges:    0.0000000

LOEWDIN ATOMIC CHARGES
----------------------
   0 C :   -0.336329
   1 O :    0.183656
   2 C :   -0.308281
   3 C :   -0.166648
   4 C :   -0.312875
   5 O :    0.029696
   6 C :   -0.110904
   7 C :   -0.145914
   8 C :   -0.200167
   9 H :    0.105411
  10 H :    0.105448
  11 H :    0.113682
  12 H :    0.136731
  13 H :    0.144107
  14 H :    0.188866
  15 H :    0.143414
  16 H :    0.136338
  17 H :    0.149455
  18 H :    0.144313

  Mayer bond orders larger than 0.1
B(  0-C ,  1-O ) :   0.8901 B(  0-C ,  9-H ) :   0.9343 B(  0-C , 10-H ) :   0.9384
B(  0-C , 11-H ) :   0.9388 B(  1-O ,  2-C ) :   0.9880 B(  2-C ,  3-C ) :   0.8985
B(  2-C ,  4-C ) :   0.8400 B(  2-C ,  8-C ) :   0.9286 B(  3-C ,  4-C ) :   0.8526
B(  3-C , 12-H ) :   0.8940 B(  3-C , 13-H ) :   0.9110 B(  4-C ,  5-O ) :   1.1199
B(  4-C ,  6-C ) :   0.9288 B(  5-O , 14-H ) :   0.8206 B(  6-C ,  7-C ) :   1.7640
B(  6-C , 15-H ) :   0.9302 B(  7-C ,  8-C ) :   0.9615 B(  7-C , 16-H ) :   0.9236
B(  8-C , 17-H ) :   0.8971 B(  8-C , 18-H ) :   0.9010

MP2 TOTAL ENERGY:     -422.292984745 Eh
FINAL SINGLE POINT ENERGY      -422.292984744997

DIPOLE MOMENT
-------------
                                X             Y             Z
Electronic contribution:     -1.26257      -5.06476       0.06959
Nuclear contribution   :      1.35631       6.08190      -0.20298
                        -----------------------------------------
Total Dipole Moment    :      0.09375       1.01714      -0.13340
                        -----------------------------------------
Magnitude (a.u.)       :      1.03013
Magnitude (Debye)      :      2.61837

                             ****ORCA TERMINATED NORMALLY****
TOTAL RUN TIME: 0 days 0 hours 16 minutes 29 seconds 197 msec
