                         Program Version 3.0.3 - RELEASE   -
|  1> ! RI-MP2 RIJK def2-TZVP def2-TZVP/C def2-TZVP/JK TIGHTSCF
|  2> % maxcore 2000
|  3> % mp2 density relaxed end
|  4> *xyz 0 1
|  5>  C        0.0465296218     1.5309253116     0.0066859516
|  6>  C       -0.0084293741     0.0457137259     0.0053909667
|  7>  C       -1.0642493588    -0.7847171139    -0.0676784512
|  8>  C       -0.5852082444    -2.2171184282    -0.0314574332
|  9>  O        0.8335729797    -2.1111885581     0.0684477717
| 10>  C        1.2048075953    -0.7910673943     0.0924076941
| 11>  N        2.3889342566    -0.3554682264     0.1752280435
| 12>  C       -2.4321089449    -0.4340052574    -0.1647617163
| 13>  N       -3.5573734439    -0.1694246877    -0.2445901919
| 14>  H        0.6602422274     1.8831625913    -0.8287571910
| 15>  H       -0.9494446712     1.9718827754    -0.0638765238
| 16>  H        0.5378298707     1.8861565429     0.9183349198
| 17>  H       -0.9723189143    -2.7694187143     0.8332679941
| 18>  H       -0.8472204059    -2.7724274826    -0.9400947099
| 19>  H        3.0622116560    -1.1210944842     0.2240300256
| 20> *
| 21>
| 22>                          ****END OF INPUT****

CARTESIAN COORDINATES (ANGSTROEM)
---------------------------------
  C      0.046530    1.530925    0.006686
  C     -0.008429    0.045714    0.005391
  C     -1.064249   -0.784717   -0.067678
  C     -0.585208   -2.217118   -0.031457
  O      0.833573   -2.111189    0.068448
  C      1.204808   -0.791067    0.092408
  N      2.388934   -0.355468    0.175228
  C     -2.432109   -0.434005   -0.164762
  N     -3.557373   -0.169425   -0.244590
  H      0.660242    1.883163   -0.828757
  H     -0.949445    1.971883   -0.063877
  H      0.537830    1.886157    0.918335
  H     -0.972319   -2.769419    0.833268
  H     -0.847220   -2.772427   -0.940095
  H      3.062212   -1.121094    0.224030

 Total Charge           Charge          ....    0
 Multiplicity           Mult            ....    1
 Number of Electrons    NEL             ....   64
 Basis Dimension        Dim             ....  315

ORBITAL ENERGIES
----------------

  NO   OCC          E(Eh)            E(eV)
   0   2.0000     -20.619051      -561.0729
   1   2.0000     -15.596347      -424.3982
   2   2.0000     -15.557347      -423.3369
   3   2.0000     -11.361608      -309.1651
   4   2.0000     -11.330874      -308.3288
   5   2.0000     -11.305582      -307.6405
   6   2.0000     -11.299929      -307.4867
   7   2.0000     -11.297296      -307.4150
   8   2.0000     -11.251315      -306.1638
   9   2.0000      -1.458593       -39.6903
  10   2.0000      -1.241880       -33.7933
  11   2.0000      -1.220640       -33.2153
  12   2.0000      -1.152868       -31.3711
  13   2.0000      -1.030834       -28.0504
  14   2.0000      -0.959246       -26.1024
  15   2.0000      -0.903597       -24.5881
  16   2.0000      -0.788518       -21.4567
  17   2.0000      -0.746611       -20.3163
  18   2.0000      -0.705531       -19.1985
  19   2.0000      -0.679958       -18.5026
  20   2.0000      -0.651728       -17.7344
  21   2.0000      -0.603170       -16.4131
  22   2.0000      -0.600270       -16.3342
  23   2.0000      -0.578233       -15.7345
  24   2.0000      -0.568123       -15.4594
  25   2.0000      -0.560405       -15.2494
  26   2.0000      -0.543134       -14.7794
  27   2.0000      -0.523164       -14.2360
  28   2.0000      -0.482800       -13.1376
  29   2.0000      -0.462873       -12.5954
  30   2.0000      -0.442012       -12.0278
  31   2.0000      -0.376213       -10.2373
  32   0.0000       0.052453         1.4273
  33   0.0000       0.125213         3.4072
  34   0.0000       0.141546         3.8517
  35   0.0000       0.160613         4.3705
  36   0.0000       0.175761         4.7827

MULLIKEN ATOMIC CHARGES
-----------------------
   0 C :   -0.388112
   1 C :   -0.016523
   2 C :    0.135504
   3 C :   -0.012467
   4 O :   -0.259935
   5 C :    0.145823
   6 N :   -0.377895
   7 C :   -0.189265
   8 N :   -0.037188
   9 H :    0.163554
  10 H :    0.157932
  11 H :    0.163576
  12 H :    0.142358
  13 H :    0.142359
  14 H :    0.230278
Sum of atomic charges:   -0.0000000

LOEWDIN ATOMIC CHARGES
----------------------
   0 C :   -0.242139
   1 C :   -0.093386
   2 C :   -0.130682
   3 C :   -0.211124
   4 O :    0.249229
   5 C :   -0.365627
   6 N :   -0.040246
   7 C :   -0.149441
   8 N :    0.091651
   9 H :    0.148079
  10 H :    0.138129
  11 H :    0.148078
  12 H :    0.142698
  13 H :    0.142698
  14 H :    0.172084

  Mayer bond orders larger than 0.1
B(  0-C ,  1-C ) :   0.8911 B(  0-C ,  9-H ) :   0.9219 B(  0-C , 10-H ) :   0.9442
B(  0-C , 11-H ) :   0.9220 B(  1-C ,  2-C ) :   1.6213 B(  1-C ,  5-C ) :   0.9936
B(  2-C ,  3-C ) :   0.9826 B(  2-C ,  7-C ) :   0.8885 B(  3-C ,  4-O ) :   0.9109
B(  3-C , 12-H ) :   0.9053 B(  3-C , 13-H ) :   0.9053 B(  4-O ,  5-C ) :   1.0817
B(  5-C ,  6-N ) :   2.0289 B(  6-N , 14-H ) :   0.8531 B(  7-C ,  8-N ) :   2.8274

MP2 TOTAL ENERGY:     -416.138573700 Eh
FINAL SINGLE POINT ENERGY      -416.138573700228

DIPOLE MOMENT
-------------
                                X             Y             Z
Electronic contribution:     -2.59821      -3.03071      -0.17797
Nuclear contribution   :      3.05440       2.52250       0.21097
                        -----------------------------------------
Total Dipole Moment    :      0.45619      -0.50821       0.03299
                        -----------------------------------------
Magnitude (a.u.)       :      0.68372
Magnitude (Debye)      :      1.73788

                             ****ORCA TERMINATED NORMALLY****
TOTAL RUN TIME: 0 days 0 hours 14 minutes 30 seconds 130 msec
