                         Program Version 3.0.3 - RELEASE   -
|  1> ! RI-MP2 RIJK def2-TZVP def2-TZVP/C def2-TZVP/JK TIGHTSCF
|  2> % maxcore 2000
|  3> % mp2 density relaxed end
|  4> *xyz 0 1
|  5>  C       -0.1632133269     1.4995256630     0.0542161945
|  6>  C        0.0594305255    -0.0116238204    -0.0235828534
|  7>  C        0.5945481069    -0.4147509228    -1.4074947417
|  8>  N        0.6228411615    -1.8290359594    -1.7170392318
|  9>  C        0.8398981686    -2.7295480503    -0.8548808447
| 10>  N        1.0934390698    -2.6896109858     0.5139552690
| 11>  C        1.3219865124    -1.6535412701     1.4310559009
| 12>  O        1.8055794177    -1.9117888038     2.5178369370
| 13>  N        0.9837814080    -0.3910795627     1.0420975443
| 14>  H        0.7757479809     2.0390025976    -0.1109197953
| 15>  H       -0.8799129526     1.8191523070    -0.7059673918
| 16>  H       -0.5598857713     1.7900966917     1.0324393091
| 17>  H       -0.9062938946    -0.5177033282     0.1230881081
| 18>  H       -0.0326825171     0.0661090873    -2.1678573395
| 19>  H        1.6033055097     0.0048627393    -1.5265431867
| 20>  H        0.8382829106    -3.7653591789    -1.2014847392
| 21>  H        1.3204402166    -3.5772702361     0.9382813629
| 22>  H        1.1220164042     0.2722699426     1.7893385585
| 23> *
| 24>
| 25>                          ****END OF INPUT****

CARTESIAN COORDINATES (ANGSTROEM)
---------------------------------
  C     -0.163213    1.499526    0.054216
  C      0.059431   -0.011624   -0.023583
  C      0.594548   -0.414751   -1.407495
  N      0.622841   -1.829036   -1.717039
  C      0.839898   -2.729548   -0.854881
  N      1.093439   -2.689611    0.513955
  C      1.321987   -1.653541    1.431056
  O      1.805579   -1.911789    2.517837
  N      0.983781   -0.391080    1.042098
  H      0.775748    2.039003   -0.110920
  H     -0.879913    1.819152   -0.705967
  H     -0.559886    1.790097    1.032439
  H     -0.906294   -0.517703    0.123088
  H     -0.032683    0.066109   -2.167857
  H      1.603306    0.004863   -1.526543
  H      0.838283   -3.765359   -1.201485
  H      1.320440   -3.577270    0.938281
  H      1.122016    0.272270    1.789339

 Total Charge           Charge          ....    0
 Multiplicity           Mult            ....    1
 Number of Electrons    NEL             ....   68
 Basis Dimension        Dim             ....  333

ORBITAL ENERGIES
----------------

  NO   OCC          E(Eh)            E(eV)
   0   2.0000     -20.519018      -558.3509
   1   2.0000     -15.609314      -424.7510
   2   2.0000     -15.588285      -424.1788
   3   2.0000     -15.549890      -423.1340
   4   2.0000     -11.389819      -309.9327
   5   2.0000     -11.329475      -308.2907
   6   2.0000     -11.287304      -307.1431
   7   2.0000     -11.261597      -306.4436
   8   2.0000     -11.240381      -305.8663
   9   2.0000      -1.405864       -38.2555
  10   2.0000      -1.288205       -35.0539
  11   2.0000      -1.237367       -33.6705
  12   2.0000      -1.197987       -32.5989
  13   2.0000      -1.053986       -28.6804
  14   2.0000      -0.968348       -26.3501
  15   2.0000      -0.891398       -24.2562
  16   2.0000      -0.835029       -22.7223
  17   2.0000      -0.798354       -21.7243
  18   2.0000      -0.724450       -19.7133
  19   2.0000      -0.708751       -19.2861
  20   2.0000      -0.664052       -18.0698
  21   2.0000      -0.640836       -17.4380
  22   2.0000      -0.628372       -17.0989
  23   2.0000      -0.613008       -16.6808
  24   2.0000      -0.591611       -16.0986
  25   2.0000      -0.563919       -15.3450
  26   2.0000      -0.556805       -15.1514
  27   2.0000      -0.541222       -14.7274
  28   2.0000      -0.528912       -14.3924
  29   2.0000      -0.491034       -13.3617
  30   2.0000      -0.454708       -12.3732
  31   2.0000      -0.420635       -11.4461
  32   2.0000      -0.392919       -10.6919
  33   2.0000      -0.376205       -10.2371
  34   0.0000       0.121852         3.3158
  35   0.0000       0.138750         3.7756
  36   0.0000       0.143871         3.9149
  37   0.0000       0.164726         4.4824
  38   0.0000       0.174555         4.7499

MULLIKEN ATOMIC CHARGES
-----------------------
   0 C :   -0.428672
   1 C :    0.018059
   2 C :   -0.105710
   3 N :   -0.273906
   4 C :    0.052159
   5 N :   -0.305241
   6 C :    0.309660
   7 O :   -0.376326
   8 N :   -0.320347
   9 H :    0.142910
  10 H :    0.143843
  11 H :    0.146365
  12 H :    0.115043
  13 H :    0.123321
  14 H :    0.120171
  15 H :    0.134247
  16 H :    0.256956
  17 H :    0.247468
Sum of atomic charges:    0.0000000

LOEWDIN ATOMIC CHARGES
----------------------
   0 C :   -0.289445
   1 C :   -0.307200
   2 C :   -0.283437
   3 N :    0.072717
   4 C :   -0.324570
   5 N :    0.124873
   6 C :   -0.537695
   7 O :    0.058216
   8 N :    0.120991
   9 H :    0.129197
  10 H :    0.131709
  11 H :    0.126478
  12 H :    0.150261
  13 H :    0.140417
  14 H :    0.141973
  15 H :    0.139182
  16 H :    0.206833
  17 H :    0.199500

  Mayer bond orders larger than 0.1
B(  0-C ,  1-C ) :   0.9025 B(  0-C ,  9-H ) :   0.9311 B(  0-C , 10-H ) :   0.9368
B(  0-C , 11-H ) :   0.9385 B(  1-C ,  2-C ) :   0.8927 B(  1-C ,  8-N ) :   0.8524
B(  1-C , 12-H ) :   0.9377 B(  2-C ,  3-N ) :   0.9371 B(  2-C , 13-H ) :   0.9322
B(  2-C , 14-H ) :   0.9129 B(  3-N ,  4-C ) :   1.8634 B(  4-C ,  5-N ) :   1.0198
B(  4-C , 15-H ) :   0.9213 B(  5-N ,  6-C ) :   1.0243 B(  5-N , 16-H ) :   0.8563
B(  6-C ,  7-O ) :   1.9616 B(  6-C ,  8-N ) :   1.1762 B(  8-N , 17-H ) :   0.8630

MP2 TOTAL ENERGY:     -434.599680460 Eh
FINAL SINGLE POINT ENERGY      -434.599680459596

DIPOLE MOMENT
-------------
                                X             Y             Z
Electronic contribution:      3.09058      -7.01378       3.12963
Nuclear contribution   :     -3.67070       7.58943      -3.45094
                        -----------------------------------------
Total Dipole Moment    :     -0.58012       0.57564      -0.32131
                        -----------------------------------------
Magnitude (a.u.)       :      0.87815
Magnitude (Debye)      :      2.23207

                             ****ORCA TERMINATED NORMALLY****
TOTAL RUN TIME: 0 days 0 hours 15 minutes 56 seconds 629 msec
