                         Program Version 3.0.3 - RELEASE   -
|  1> ! RI-MP2 RIJK def2-TZVP def2-TZVP/C def2-TZVP/JK TIGHTSCF
|  2> % maxcore 2000
|  3> % mp2 density relaxed end
|  4> *xyz 0 1
|  5>  O       -0.1368619809     1.4643173449    -0.0356871016
|  6>  C       -0.0101818061     0.0565101201    -0.1681558044
|  7>  C       -1.3617157087    -0.5667254646     0.1732742574
|  8>  C       -1.3538939117    -2.0588888051     0.1038503239
|  9>  C       -0.5782649899    -3.1458769897     0.9245527811
| 10>  C       -0.5990768788    -4.0735379784    -0.2811960136
| 11>  C       -1.7331610953    -4.1166683137     0.7319952559
| 12>  C       -2.5048353066    -3.0385233782    -0.0852081236
| 13>  C       -1.3694802044    -2.9974310377    -1.1020447032
| 14>  H        0.7125863334     1.8638295898    -0.2435047203
| 15>  H        0.2775294040    -0.2281831927    -1.1923883635
| 16>  H        0.7626769627    -0.3404769202     0.5098910554
| 17>  H       -1.6547404676    -0.2307510308     1.1766057235
| 18>  H       -2.1148198669    -0.1711050036    -0.5198463982
| 19>  H        0.1396292376    -3.0794587529     1.7318448809
| 20>  H        0.1010643346    -4.8472530680    -0.5663674892
| 21>  H       -2.0631630182    -4.9296179779     1.3647129381
| 22>  H       -3.5588984028    -2.8338954754    -0.2211138041
| 23>  H       -1.3999488343    -2.7621225661    -2.1580571047
| 24> *
| 25>
| 26>                          ****END OF INPUT****

CARTESIAN COORDINATES (ANGSTROEM)
---------------------------------
  O     -0.136862    1.464317   -0.035687
  C     -0.010182    0.056510   -0.168156
  C     -1.361716   -0.566725    0.173274
  C     -1.353894   -2.058889    0.103850
  C     -0.578265   -3.145877    0.924553
  C     -0.599077   -4.073538   -0.281196
  C     -1.733161   -4.116668    0.731995
  C     -2.504835   -3.038523   -0.085208
  C     -1.369480   -2.997431   -1.102045
  H      0.712586    1.863830   -0.243505
  H      0.277529   -0.228183   -1.192388
  H      0.762677   -0.340477    0.509891
  H     -1.654740   -0.230751    1.176606
  H     -2.114820   -0.171105   -0.519846
  H      0.139629   -3.079459    1.731845
  H      0.101064   -4.847253   -0.566367
  H     -2.063163   -4.929618    1.364713
  H     -3.558898   -2.833895   -0.221114
  H     -1.399949   -2.762123   -2.158057

 Total Charge           Charge          ....    0
 Multiplicity           Mult            ....    1
 Number of Electrons    NEL             ....   66
 Basis Dimension        Dim             ....  339

ORBITAL ENERGIES
----------------

  NO   OCC          E(Eh)            E(eV)
   0   2.0000     -20.553260      -559.2827
   1   2.0000     -11.272479      -306.7397
   2   2.0000     -11.237836      -305.7971
   3   2.0000     -11.233469      -305.6782
   4   2.0000     -11.232718      -305.6578
   5   2.0000     -11.231254      -305.6180
   6   2.0000     -11.231103      -305.6138
   7   2.0000     -11.230505      -305.5976
   8   2.0000     -11.222065      -305.3679
   9   2.0000      -1.357141       -36.9297
  10   2.0000      -1.264289       -34.4031
  11   2.0000      -1.044899       -28.4331
  12   2.0000      -0.985729       -26.8231
  13   2.0000      -0.878741       -23.9118
  14   2.0000      -0.871516       -23.7152
  15   2.0000      -0.822837       -22.3905
  16   2.0000      -0.714722       -19.4486
  17   2.0000      -0.713811       -19.4238
  18   2.0000      -0.708191       -19.2709
  19   2.0000      -0.653458       -17.7815
  20   2.0000      -0.648094       -17.6355
  21   2.0000      -0.591317       -16.0905
  22   2.0000      -0.577750       -15.7214
  23   2.0000      -0.574685       -15.6380
  24   2.0000      -0.544909       -14.8277
  25   2.0000      -0.530892       -14.4463
  26   2.0000      -0.520000       -14.1499
  27   2.0000      -0.490994       -13.3606
  28   2.0000      -0.441804       -12.0221
  29   2.0000      -0.409133       -11.1331
  30   2.0000      -0.405849       -11.0437
  31   2.0000      -0.341280        -9.2867
  32   2.0000      -0.336473        -9.1559
  33   0.0000       0.137131         3.7315
  34   0.0000       0.156068         4.2468
  35   0.0000       0.167555         4.5594
  36   0.0000       0.170880         4.6499
  37   0.0000       0.174572         4.7503

MULLIKEN ATOMIC CHARGES
-----------------------
   0 O :   -0.461480
   1 C :   -0.078700
   2 C :   -0.143924
   3 C :    0.020279
   4 C :   -0.189704
   5 C :   -0.126175
   6 C :   -0.141088
   7 C :   -0.130940
   8 C :   -0.171049
   9 H :    0.314995
  10 H :    0.097787
  11 H :    0.096021
  12 H :    0.118186
  13 H :    0.112619
  14 H :    0.133873
  15 H :    0.137184
  16 H :    0.138000
  17 H :    0.137100
  18 H :    0.137015
Sum of atomic charges:   -0.0000000

LOEWDIN ATOMIC CHARGES
----------------------
   0 O :   -0.052456
   1 C :   -0.342663
   2 C :   -0.235663
   3 C :   -0.146025
   4 C :   -0.111765
   5 C :   -0.128948
   6 C :   -0.127349
   7 C :   -0.108550
   8 C :   -0.112031
   9 H :    0.171686
  10 H :    0.115473
  11 H :    0.115414
  12 H :    0.148295
  13 H :    0.150924
  14 H :    0.132847
  15 H :    0.131513
  16 H :    0.131876
  17 H :    0.134199
  18 H :    0.133224

  Mayer bond orders larger than 0.1
B(  0-O ,  1-C ) :   1.0241 B(  0-O ,  2-C ) :  -0.1114 B(  0-O ,  9-H ) :   0.8487
B(  1-C ,  2-C ) :   0.9299 B(  1-C , 10-H ) :   0.9324 B(  1-C , 11-H ) :   0.9334
B(  2-C ,  3-C ) :   0.8867 B(  2-C , 12-H ) :   0.9160 B(  2-C , 13-H ) :   0.9248
B(  3-C ,  4-C ) :   0.8909 B(  3-C ,  7-C ) :   0.8520 B(  3-C ,  8-C ) :   0.8784
B(  4-C ,  5-C ) :   0.8713 B(  4-C ,  6-C ) :   0.8786 B(  4-C , 14-H ) :   0.9357
B(  5-C ,  6-C ) :   0.8602 B(  5-C ,  8-C ) :   0.9270 B(  5-C , 15-H ) :   0.9355
B(  6-C ,  7-C ) :   0.9308 B(  6-C , 16-H ) :   0.9363 B(  7-C ,  8-C ) :   0.9099
B(  7-C , 17-H ) :   0.9373 B(  8-C , 18-H ) :   0.9332

MP2 TOTAL ENERGY:     -385.087997573 Eh
FINAL SINGLE POINT ENERGY      -385.087997573101

DIPOLE MOMENT
-------------
                                X             Y             Z
Electronic contribution:     -0.86391      -1.75324       0.18219
Nuclear contribution   :      1.38059       1.52990      -0.33280
                        -----------------------------------------
Total Dipole Moment    :      0.51668      -0.22334      -0.15061
                        -----------------------------------------
Magnitude (a.u.)       :      0.58268
Magnitude (Debye)      :      1.48106

                             ****ORCA TERMINATED NORMALLY****
TOTAL RUN TIME: 0 days 0 hours 16 minutes 49 seconds 657 msec
