                         Program Version 3.0.3 - RELEASE   -
|  1> ! RI-MP2 RIJK def2-TZVP def2-TZVP/C def2-TZVP/JK TIGHTSCF
|  2> % maxcore 2000
|  3> % mp2 density relaxed end
|  4> *xyz 0 1
|  5>  C       -0.0810184015     1.5335588336     0.1337112376
|  6>  C        0.0230577890     0.0221236434    -0.0410368818
|  7>  C        0.7318165417    -0.4387178992    -1.2807431019
|  8>  N        1.2070708677     0.4331210387    -2.1197218846
|  9>  C        1.8530245866     0.0002011366    -3.2506913484
| 10>  O        2.3412965661     0.6576319454    -4.1122202246
| 11>  O        1.9484193310    -1.4341647395    -3.4096637868
| 12>  C        1.4195271697    -2.2103329892    -2.4775553101
| 13>  N        0.8130943710    -1.8191417374    -1.4160036547
| 14>  H        0.9083558693     1.9956113023     0.1727682915
| 15>  H       -0.6200170109     1.9912147184    -0.6992975690
| 16>  H       -0.6107511989     1.7682862011     1.0609453503
| 17>  H        0.5386388626    -0.4486057947     0.8071755040
| 18>  H       -0.9674794684    -0.4528727808    -0.0522833278
| 19>  H        1.5481826650    -3.2684278888    -2.6971915437
| 20> *
| 21>
| 22>                          ****END OF INPUT****

CARTESIAN COORDINATES (ANGSTROEM)
---------------------------------
  C     -0.081018    1.533559    0.133711
  C      0.023058    0.022124   -0.041037
  C      0.731817   -0.438718   -1.280743
  N      1.207071    0.433121   -2.119722
  C      1.853025    0.000201   -3.250691
  O      2.341297    0.657632   -4.112220
  O      1.948419   -1.434165   -3.409664
  C      1.419527   -2.210333   -2.477555
  N      0.813094   -1.819142   -1.416004
  H      0.908356    1.995611    0.172768
  H     -0.620017    1.991215   -0.699298
  H     -0.610751    1.768286    1.060945
  H      0.538639   -0.448606    0.807176
  H     -0.967479   -0.452873   -0.052283
  H      1.548183   -3.268428   -2.697192

 Total Charge           Charge          ....    0
 Multiplicity           Mult            ....    1
 Number of Electrons    NEL             ....   66
 Basis Dimension        Dim             ....  315

ORBITAL ENERGIES
----------------

  NO   OCC          E(Eh)            E(eV)
   0   2.0000     -20.660941      -562.2128
   1   2.0000     -20.555987      -559.3568
   2   2.0000     -15.594404      -424.3453
   3   2.0000     -15.582879      -424.0317
   4   2.0000     -11.426544      -310.9321
   5   2.0000     -11.403570      -310.3069
   6   2.0000     -11.369560      -309.3814
   7   2.0000     -11.255559      -306.2793
   8   2.0000     -11.226690      -305.4938
   9   2.0000      -1.514814       -41.2202
  10   2.0000      -1.409003       -38.3409
  11   2.0000      -1.315679       -35.8015
  12   2.0000      -1.226535       -33.3757
  13   2.0000      -1.074696       -29.2440
  14   2.0000      -0.964634       -26.2490
  15   2.0000      -0.932412       -25.3722
  16   2.0000      -0.850545       -23.1445
  17   2.0000      -0.800413       -21.7803
  18   2.0000      -0.741402       -20.1746
  19   2.0000      -0.698797       -19.0152
  20   2.0000      -0.672031       -18.2869
  21   2.0000      -0.656888       -17.8748
  22   2.0000      -0.636835       -17.3291
  23   2.0000      -0.634568       -17.2675
  24   2.0000      -0.561059       -15.2672
  25   2.0000      -0.546916       -14.8823
  26   2.0000      -0.538474       -14.6526
  27   2.0000      -0.528029       -14.3684
  28   2.0000      -0.510760       -13.8985
  29   2.0000      -0.492787       -13.4094
  30   2.0000      -0.482560       -13.1311
  31   2.0000      -0.446120       -12.1396
  32   2.0000      -0.416198       -11.3253
  33   0.0000       0.061858         1.6833
  34   0.0000       0.126232         3.4349
  35   0.0000       0.133257         3.6261
  36   0.0000       0.156206         4.2506
  37   0.0000       0.172798         4.7021

MULLIKEN ATOMIC CHARGES
-----------------------
   0 C :   -0.357408
   1 C :   -0.196090
   2 C :    0.204559
   3 N :   -0.244720
   4 C :    0.282653
   5 O :   -0.239165
   6 O :   -0.169510
   7 C :    0.156453
   8 N :   -0.291197
   9 H :    0.135822
  10 H :    0.135849
  11 H :    0.136354
  12 H :    0.141029
  13 H :    0.141025
  14 H :    0.164345
Sum of atomic charges:   -0.0000000

LOEWDIN ATOMIC CHARGES
----------------------
   0 C :   -0.306699
   1 C :   -0.249187
   2 C :   -0.260886
   3 N :    0.160342
   4 C :   -0.489567
   5 O :    0.170583
   6 O :    0.308142
   7 C :   -0.287736
   8 N :    0.113885
   9 H :    0.128064
  10 H :    0.128068
  11 H :    0.123735
  12 H :    0.159076
  13 H :    0.159097
  14 H :    0.143082

  Mayer bond orders larger than 0.1
B(  0-C ,  1-C ) :   0.9487 B(  0-C ,  9-H ) :   0.9328 B(  0-C , 10-H ) :   0.9328
B(  0-C , 11-H ) :   0.9335 B(  1-C ,  2-C ) :   0.9482 B(  1-C , 12-H ) :   0.9107
B(  1-C , 13-H ) :   0.9107 B(  2-C ,  3-N ) :   1.6023 B(  2-C ,  8-N ) :   1.1070
B(  3-N ,  4-C ) :   1.1559 B(  4-C ,  5-O ) :   2.0735 B(  4-C ,  6-O ) :   0.8901
B(  6-O ,  7-C ) :   1.1606 B(  7-C ,  8-N ) :   1.6515 B(  7-C , 14-H ) :   0.9235

MP2 TOTAL ENERGY:     -453.261450297 Eh
FINAL SINGLE POINT ENERGY      -453.261450296551

DIPOLE MOMENT
-------------
                                X             Y             Z
Electronic contribution:      5.17120      -4.33498      -9.04591
Nuclear contribution   :     -5.70232       3.41783       9.98344
                        -----------------------------------------
Total Dipole Moment    :     -0.53112      -0.91715       0.93753
                        -----------------------------------------
Magnitude (a.u.)       :      1.41499
Magnitude (Debye)      :      3.59662

                             ****ORCA TERMINATED NORMALLY****
TOTAL RUN TIME: 0 days 0 hours 13 minutes 46 seconds 610 msec
