                         Program Version 3.0.3 - RELEASE   -
|  1> ! RI-MP2 RIJK def2-TZVP def2-TZVP/C def2-TZVP/JK TIGHTSCF
|  2> % maxcore 2000
|  3> % mp2 density relaxed end
|  4> *xyz 0 1
|  5>  C       -0.1001294255     1.5443188079     0.1402878117
|  6>  C        0.0151328578     0.0220575494     0.0069332619
|  7>  C       -1.3466925757    -0.6051824752    -0.3336590277
|  8>  C       -1.8874699524    -0.1578656151    -1.6731375130
|  9>  O       -2.9824760173     0.3083147992    -1.8591312120
| 10>  C        1.2375128138    -0.4032705800    -0.8748649676
| 11>  C        2.0846882882    -0.5677932029     0.4157191306
| 12>  C        0.7574696744    -0.6192137802     1.2174308599
| 13>  O        0.6414408001     0.0994372806     2.4214304726
| 14>  H        0.8621116695     2.0015412783     0.3840885354
| 15>  H       -0.4575059511     1.9872790101    -0.7956980618
| 16>  H       -0.8021808364     1.8129318382     0.9343271273
| 17>  H       -1.2319719501    -1.6982125310    -0.3854209874
| 18>  H       -2.0916638135    -0.3784887248     0.4358842269
| 19>  H       -1.1790858214    -0.2978422931    -2.5237737397
| 20>  H        1.0719179939    -1.3574537689    -1.3836455282
| 21>  H        1.5866424512     0.3251130134    -1.6100783314
| 22>  H        2.7523369245    -1.4300077451     0.4819998849
| 23>  H        2.6478594372     0.3371203877     0.6571851643
| 24>  H        0.4287532000    -1.6615043576     1.3486815030
| 25>  H        1.1291605030    -0.3690492910     3.1059168301
| 26> *
| 27>
| 28>                          ****END OF INPUT****

CARTESIAN COORDINATES (ANGSTROEM)
---------------------------------
  C     -0.100129    1.544319    0.140288
  C      0.015133    0.022058    0.006933
  C     -1.346693   -0.605182   -0.333659
  C     -1.887470   -0.157866   -1.673138
  O     -2.982476    0.308315   -1.859131
  C      1.237513   -0.403271   -0.874865
  C      2.084688   -0.567793    0.415719
  C      0.757470   -0.619214    1.217431
  O      0.641441    0.099437    2.421430
  H      0.862112    2.001541    0.384089
  H     -0.457506    1.987279   -0.795698
  H     -0.802181    1.812932    0.934327
  H     -1.231972   -1.698213   -0.385421
  H     -2.091664   -0.378489    0.435884
  H     -1.179086   -0.297842   -2.523774
  H      1.071918   -1.357454   -1.383646
  H      1.586642    0.325113   -1.610078
  H      2.752337   -1.430008    0.482000
  H      2.647859    0.337120    0.657185
  H      0.428753   -1.661504    1.348682
  H      1.129161   -0.369049    3.105917

 Total Charge           Charge          ....    0
 Multiplicity           Mult            ....    1
 Number of Electrons    NEL             ....   70
 Basis Dimension        Dim             ....  351

ORBITAL ENERGIES
----------------

  NO   OCC          E(Eh)            E(eV)
   0   2.0000     -20.565255      -559.6090
   1   2.0000     -20.553139      -559.2793
   2   2.0000     -11.328426      -308.2621
   3   2.0000     -11.288424      -307.1736
   4   2.0000     -11.249703      -306.1200
   5   2.0000     -11.236939      -305.7727
   6   2.0000     -11.233965      -305.6917
   7   2.0000     -11.229987      -305.5835
   8   2.0000     -11.216353      -305.2125
   9   2.0000      -1.391638       -37.8684
  10   2.0000      -1.373627       -37.3783
  11   2.0000      -1.150976       -31.3196
  12   2.0000      -1.033904       -28.1340
  13   2.0000      -0.962166       -26.1819
  14   2.0000      -0.899573       -24.4786
  15   2.0000      -0.859573       -23.3902
  16   2.0000      -0.794309       -21.6143
  17   2.0000      -0.733776       -19.9670
  18   2.0000      -0.713439       -19.4137
  19   2.0000      -0.671598       -18.2751
  20   2.0000      -0.652930       -17.7671
  21   2.0000      -0.640293       -17.4233
  22   2.0000      -0.616907       -16.7869
  23   2.0000      -0.586440       -15.9579
  24   2.0000      -0.583270       -15.8716
  25   2.0000      -0.555919       -15.1273
  26   2.0000      -0.544890       -14.8272
  27   2.0000      -0.532011       -14.4768
  28   2.0000      -0.523053       -14.2330
  29   2.0000      -0.500026       -13.6064
  30   2.0000      -0.469298       -12.7703
  31   2.0000      -0.458998       -12.4900
  32   2.0000      -0.450442       -12.2571
  33   2.0000      -0.423872       -11.5341
  34   2.0000      -0.405211       -11.0263
  35   0.0000       0.122344         3.3292
  36   0.0000       0.136323         3.7095
  37   0.0000       0.141225         3.8429
  38   0.0000       0.155431         4.2295
  39   0.0000       0.169771         4.6197

MULLIKEN ATOMIC CHARGES
-----------------------
   0 C :   -0.429283
   1 C :    0.124848
   2 C :   -0.187576
   3 C :    0.082658
   4 O :   -0.260653
   5 C :   -0.293048
   6 C :   -0.225741
   7 C :    0.000042
   8 O :   -0.452296
   9 H :    0.134368
  10 H :    0.139803
  11 H :    0.147064
  12 H :    0.124351
  13 H :    0.130558
  14 H :    0.080749
  15 H :    0.116676
  16 H :    0.127999
  17 H :    0.122552
  18 H :    0.119371
  19 H :    0.080094
  20 H :    0.317462
Sum of atomic charges:   -0.0000000

LOEWDIN ATOMIC CHARGES
----------------------
   0 C :   -0.257939
   1 C :   -0.259769
   2 C :   -0.226169
   3 C :   -0.293958
   4 O :    0.130835
   5 C :   -0.202793
   6 C :   -0.229014
   7 C :   -0.298449
   8 O :   -0.009217
   9 H :    0.130432
  10 H :    0.128533
  11 H :    0.133831
  12 H :    0.153447
  13 H :    0.152530
  14 H :    0.111281
  15 H :    0.134623
  16 H :    0.130290
  17 H :    0.122857
  18 H :    0.137780
  19 H :    0.133438
  20 H :    0.177433

  Mayer bond orders larger than 0.1
B(  0-C ,  1-C ) :   0.9364 B(  0-C ,  9-H ) :   0.9259 B(  0-C , 10-H ) :   0.9293
B(  0-C , 11-H ) :   0.9331 B(  1-C ,  2-C ) :   0.8838 B(  1-C ,  5-C ) :   0.8934
B(  1-C ,  7-C ) :   0.8570 B(  2-C ,  3-C ) :   0.8746 B(  2-C , 12-H ) :   0.9035
B(  2-C , 13-H ) :   0.9125 B(  3-C ,  4-O ) :   2.0076 B(  3-C , 14-H ) :   0.9439
B(  5-C ,  6-C ) :   0.9425 B(  5-C , 15-H ) :   0.9196 B(  5-C , 16-H ) :   0.9242
B(  6-C ,  7-C ) :   0.9212 B(  6-C , 17-H ) :   0.9245 B(  6-C , 18-H ) :   0.9133
B(  7-C ,  8-O ) :   1.1056 B(  7-C , 19-H ) :   0.9530 B(  8-O , 20-H ) :   0.8423

MP2 TOTAL ENERGY:     -423.521577044 Eh
FINAL SINGLE POINT ENERGY      -423.521577044130

DIPOLE MOMENT
-------------
                                X             Y             Z
Electronic contribution:     -5.15840      -0.46092      -0.49307
Nuclear contribution   :      6.46553      -0.35492       0.93262
                        -----------------------------------------
Total Dipole Moment    :      1.30713      -0.81585       0.43956
                        -----------------------------------------
Magnitude (a.u.)       :      1.60232
Magnitude (Debye)      :      4.07276

                             ****ORCA TERMINATED NORMALLY****
TOTAL RUN TIME: 0 days 0 hours 19 minutes 29 seconds 163 msec
