                         Program Version 3.0.3 - RELEASE   -
|  1> ! RI-MP2 RIJK def2-TZVP def2-TZVP/C def2-TZVP/JK TIGHTSCF
|  2> % maxcore 2000
|  3> % mp2 density relaxed end
|  4> *xyz 0 1
|  5>  O        0.1256289923     1.3762521512    -0.1095778633
|  6>  C        0.0248827256     0.0003862356    -0.0600742740
|  7>  C       -0.4518192420    -0.6627771223     1.2028024039
|  8>  N       -0.8793159979     0.1889054539     2.2724475123
|  9>  C       -2.0442026706     0.9382023594     2.3150139166
| 10>  O       -2.3343460247     1.5922301609     3.3012660823
| 11>  C       -2.8873348621     0.8739359958     1.1030054344
| 12>  C       -2.5910866888     0.0971183075     0.0537582248
| 13>  C       -1.3537625233    -0.6912102324    -0.0244196750
| 14>  H        0.0677905772     1.7087578848     0.7965291158
| 15>  H        0.7835202861    -0.5078523563    -0.6485524486
| 16>  H        0.0171651409    -1.5840214810     1.5329739406
| 17>  H       -0.3712552583     0.1645743684     3.1441689323
| 18>  H       -3.7939248858     1.4644339270     1.1522412122
| 19>  H       -3.2780577293     0.0302944227    -0.7857505804
| 20>  H       -1.4124691995    -1.6243883351    -0.5749993537
| 21> *
| 22>
| 23>                          ****END OF INPUT****

CARTESIAN COORDINATES (ANGSTROEM)
---------------------------------
  O      0.125629    1.376252   -0.109578
  C      0.024883    0.000386   -0.060074
  C     -0.451819   -0.662777    1.202802
  N     -0.879316    0.188905    2.272448
  C     -2.044203    0.938202    2.315014
  O     -2.334346    1.592230    3.301266
  C     -2.887335    0.873936    1.103005
  C     -2.591087    0.097118    0.053758
  C     -1.353763   -0.691210   -0.024420
  H      0.067791    1.708758    0.796529
  H      0.783520   -0.507852   -0.648552
  H      0.017165   -1.584021    1.532974
  H     -0.371255    0.164574    3.144169
  H     -3.793925    1.464434    1.152241
  H     -3.278058    0.030294   -0.785751
  H     -1.412469   -1.624388   -0.574999

 Total Charge           Charge          ....    0
 Multiplicity           Mult            ....    1
 Number of Electrons    NEL             ....   66
 Basis Dimension        Dim             ....  321

ORBITAL ENERGIES
----------------

  NO   OCC          E(Eh)            E(eV)
   0   2.0000     -20.575938      -559.8997
   1   2.0000     -20.520825      -558.4000
   2   2.0000     -15.597377      -424.4262
   3   2.0000     -11.357099      -309.0424
   4   2.0000     -11.306651      -307.6696
   5   2.0000     -11.298215      -307.4401
   6   2.0000     -11.271539      -306.7142
   7   2.0000     -11.260344      -306.4095
   8   2.0000     -11.242637      -305.9277
   9   2.0000      -1.396000       -37.9871
  10   2.0000      -1.383386       -37.6438
  11   2.0000      -1.256819       -34.1998
  12   2.0000      -1.137368       -30.9494
  13   2.0000      -1.076057       -29.2810
  14   2.0000      -0.904774       -24.6202
  15   2.0000      -0.874508       -23.7966
  16   2.0000      -0.832985       -22.6667
  17   2.0000      -0.748073       -20.3561
  18   2.0000      -0.727903       -19.8072
  19   2.0000      -0.707138       -19.2422
  20   2.0000      -0.669663       -18.2225
  21   2.0000      -0.649982       -17.6869
  22   2.0000      -0.636083       -17.3087
  23   2.0000      -0.596763       -16.2388
  24   2.0000      -0.586665       -15.9640
  25   2.0000      -0.579954       -15.7813
  26   2.0000      -0.550696       -14.9852
  27   2.0000      -0.537166       -14.6170
  28   2.0000      -0.481316       -13.0973
  29   2.0000      -0.445944       -12.1347
  30   2.0000      -0.431764       -11.7489
  31   2.0000      -0.381066       -10.3693
  32   2.0000      -0.363233        -9.8841
  33   0.0000       0.092860         2.5268
  34   0.0000       0.126342         3.4379
  35   0.0000       0.145633         3.9629
  36   0.0000       0.160295         4.3618
  37   0.0000       0.179036         4.8718

MULLIKEN ATOMIC CHARGES
-----------------------
   0 O :   -0.453907
   1 C :    0.036967
   2 C :    0.001147
   3 N :   -0.357818
   4 C :    0.229126
   5 O :   -0.342496
   6 C :   -0.198238
   7 C :   -0.109332
   8 C :   -0.084228
   9 H :    0.334885
  10 H :    0.130055
  11 H :    0.143814
  12 H :    0.246037
  13 H :    0.143676
  14 H :    0.138859
  15 H :    0.141452
Sum of atomic charges:    0.0000000

LOEWDIN ATOMIC CHARGES
----------------------
   0 O :    0.027836
   1 C :   -0.295731
   2 C :   -0.225665
   3 N :    0.131072
   4 C :   -0.447581
   5 O :    0.087990
   6 C :   -0.125291
   7 C :   -0.112306
   8 C :   -0.173230
   9 H :    0.186339
  10 H :    0.141022
  11 H :    0.146347
  12 H :    0.194475
  13 H :    0.156577
  14 H :    0.152075
  15 H :    0.156072

  Mayer bond orders larger than 0.1
B(  0-O ,  1-C ) :   1.0476 B(  0-O ,  9-H ) :   0.8168 B(  1-C ,  2-C ) :   0.9048
B(  1-C ,  8-C ) :   0.7579 B(  1-C , 10-H ) :   0.9506 B(  2-C ,  3-N ) :   0.9166
B(  2-C ,  8-C ) :   0.8626 B(  2-C , 11-H ) :   0.9195 B(  3-N ,  4-C ) :   1.1151
B(  3-N , 12-H ) :   0.8607 B(  4-C ,  5-O ) :   1.9628 B(  4-C ,  6-C ) :   0.9885
B(  6-C ,  7-C ) :   1.6811 B(  6-C , 13-H ) :   0.9286 B(  7-C ,  8-C ) :   0.9791
B(  7-C , 14-H ) :   0.9194 B(  8-C , 15-H ) :   0.9144

MP2 TOTAL ENERGY:     -437.181774080 Eh
FINAL SINGLE POINT ENERGY      -437.181774079888

DIPOLE MOMENT
-------------
                                X             Y             Z
Electronic contribution:     -0.74571       1.93484       2.55879
Nuclear contribution   :      1.30440      -3.26093      -3.13754
                        -----------------------------------------
Total Dipole Moment    :      0.55870      -1.32609      -0.57875
                        -----------------------------------------
Magnitude (a.u.)       :      1.55101
Magnitude (Debye)      :      3.94234

                             ****ORCA TERMINATED NORMALLY****
TOTAL RUN TIME: 0 days 0 hours 17 minutes 27 seconds 804 msec
