                         Program Version 3.0.3 - RELEASE   -
|  1> ! RI-MP2 RIJK def2-TZVP def2-TZVP/C def2-TZVP/JK TIGHTSCF
|  2> % maxcore 2000
|  3> % mp2 density relaxed end
|  4> *xyz 0 1
|  5>  N       -0.0642150885     1.3724187506     0.1436130530
|  6>  C        0.0202039767     0.0014032984     0.0379677067
|  7>  N       -1.0689731216    -0.7689949143     0.0271445212
|  8>  N       -0.5504940258    -2.0050701856    -0.0129038614
|  9>  N        0.7487019682    -2.1146267097    -0.0381211401
| 10>  C        1.1721621412    -0.8357114830    -0.0028657710
| 11>  C        2.5819487518    -0.4538102866     0.0009903124
| 12>  O        3.5215775713    -1.2119785400    -0.0486481106
| 13>  H        0.6697847019     1.8918199274    -0.3129189352
| 14>  H       -0.9829853672     1.7370942790    -0.0646596518
| 15>  H       -1.1491198503    -2.8161136496    -0.0250971248
| 16>  H        2.7401278724     0.6483145433     0.0603256915
| 17> *
| 18>
| 19>                          ****END OF INPUT****

CARTESIAN COORDINATES (ANGSTROEM)
---------------------------------
  N     -0.064215    1.372419    0.143613
  C      0.020204    0.001403    0.037968
  N     -1.068973   -0.768995    0.027145
  N     -0.550494   -2.005070   -0.012904
  N      0.748702   -2.114627   -0.038121
  C      1.172162   -0.835711   -0.002866
  C      2.581949   -0.453810    0.000990
  O      3.521578   -1.211979   -0.048648
  H      0.669785    1.891820   -0.312919
  H     -0.982985    1.737094   -0.064660
  H     -1.149120   -2.816114   -0.025097
  H      2.740128    0.648315    0.060326

 Total Charge           Charge          ....    0
 Multiplicity           Mult            ....    1
 Number of Electrons    NEL             ....   58
 Basis Dimension        Dim             ....  272

ORBITAL ENERGIES
----------------

  NO   OCC          E(Eh)            E(eV)
   0   2.0000     -20.556118      -559.3604
   1   2.0000     -15.701578      -427.2617
   2   2.0000     -15.648815      -425.8259
   3   2.0000     -15.614010      -424.8788
   4   2.0000     -15.594440      -424.3463
   5   2.0000     -11.343392      -308.6694
   6   2.0000     -11.331509      -308.3460
   7   2.0000     -11.276145      -306.8395
   8   2.0000      -1.469442       -39.9855
   9   2.0000      -1.393748       -37.9258
  10   2.0000      -1.263809       -34.3900
  11   2.0000      -1.197092       -32.5745
  12   2.0000      -1.106049       -30.0971
  13   2.0000      -0.947366       -25.7791
  14   2.0000      -0.850644       -23.1472
  15   2.0000      -0.802453       -21.8359
  16   2.0000      -0.777265       -21.1504
  17   2.0000      -0.692887       -18.8544
  18   2.0000      -0.680677       -18.5222
  19   2.0000      -0.665672       -18.1139
  20   2.0000      -0.664053       -18.0698
  21   2.0000      -0.644072       -17.5261
  22   2.0000      -0.543798       -14.7975
  23   2.0000      -0.525749       -14.3064
  24   2.0000      -0.524612       -14.2754
  25   2.0000      -0.492780       -13.4092
  26   2.0000      -0.436301       -11.8723
  27   2.0000      -0.406318       -11.0565
  28   2.0000      -0.352681        -9.5969
  29   0.0000       0.075308         2.0492
  30   0.0000       0.118682         3.2295
  31   0.0000       0.131273         3.5721
  32   0.0000       0.156693         4.2638
  33   0.0000       0.170051         4.6273

MULLIKEN ATOMIC CHARGES
-----------------------
   0 N :   -0.521421
   1 C :    0.167353
   2 N :   -0.199278
   3 N :    0.029669
   4 N :   -0.180059
   5 C :    0.062516
   6 C :    0.031045
   7 O :   -0.254224
   8 H :    0.259646
   9 H :    0.264899
  10 H :    0.275773
  11 H :    0.064083
Sum of atomic charges:   -0.0000000

LOEWDIN ATOMIC CHARGES
----------------------
   0 N :   -0.059787
   1 C :   -0.354621
   2 N :    0.034286
   3 N :    0.080775
   4 N :    0.068376
   5 C :   -0.279482
   6 C :   -0.288492
   7 O :    0.142661
   8 H :    0.171881
   9 H :    0.178255
  10 H :    0.193149
  11 H :    0.112998

  Mayer bond orders larger than 0.1
B(  0-N ,  1-C ) :   1.0669 B(  0-N ,  8-H ) :   0.8714 B(  0-N ,  9-H ) :   0.8667
B(  1-C ,  2-N ) :   1.5014 B(  1-C ,  5-C ) :   1.2646 B(  2-N ,  3-N ) :   1.1036
B(  2-N ,  4-N ) :   0.1020 B(  3-N ,  4-N ) :   1.1852 B(  3-N , 10-H ) :   0.8710
B(  4-N ,  5-C ) :   1.4231 B(  5-C ,  6-C ) :   0.8288 B(  5-C , 11-H ) :  -0.1243
B(  6-C ,  7-O ) :   2.0376 B(  6-C , 11-H ) :   1.0026

MP2 TOTAL ENERGY:     -410.185484892 Eh
FINAL SINGLE POINT ENERGY      -410.185484892456

DIPOLE MOMENT
-------------
                                X             Y             Z
Electronic contribution:      0.49166      -3.25602       0.01327
Nuclear contribution   :     -1.79241       4.12738      -0.35462
                        -----------------------------------------
Total Dipole Moment    :     -1.30074       0.87137      -0.34135
                        -----------------------------------------
Magnitude (a.u.)       :      1.60242
Magnitude (Debye)      :      4.07302

                             ****ORCA TERMINATED NORMALLY****
TOTAL RUN TIME: 0 days 0 hours 9 minutes 26 seconds 207 msec
