                         Program Version 3.0.3 - RELEASE   -
|  1> ! RI-MP2 RIJK def2-TZVP def2-TZVP/C def2-TZVP/JK TIGHTSCF
|  2> % maxcore 2000
|  3> % mp2 density relaxed end
|  4> *xyz 0 1
|  5>  C       -0.0191231875     1.5527992273     0.0111678651
|  6>  C       -0.0080308928     0.0222501687     0.0179415792
|  7>  N        0.7471807206    -0.5744883042    -1.0747450253
|  8>  C        1.8593040520    -1.2542517941    -0.6536835593
|  9>  O        2.7286028611    -1.7634015598    -1.3226191753
| 10>  N        1.7972915927    -1.2648746112     0.7537960755
| 11>  C        2.7749015468    -1.9515376373     1.5646579975
| 12>  C        0.7187971150    -0.5456301513     1.2366088895
| 13>  N        0.3391717485    -0.3331791543     2.4302699771
| 14>  H        1.0011532834     1.9479169262     0.0032726906
| 15>  H       -0.5477155072     1.9334108138    -0.8685578747
| 16>  H       -0.5268186172     1.9126328537     0.9090095654
| 17>  H       -1.0401788653    -0.3479806746     0.0240846255
| 18>  H        0.6916156816    -0.2606625365    -2.0285147579
| 19>  H        3.4988197232    -2.4023192469     0.8845143953
| 20>  H        3.2911414438    -1.2533532040     2.2329978718
| 21>  H        2.3055325842    -2.7360506828     2.1688396969
| 22>  H        0.9503502169    -0.7838213925     3.1116738831
| 23> *
| 24>
| 25>                          ****END OF INPUT****

CARTESIAN COORDINATES (ANGSTROEM)
---------------------------------
  C     -0.019123    1.552799    0.011168
  C     -0.008031    0.022250    0.017942
  N      0.747181   -0.574488   -1.074745
  C      1.859304   -1.254252   -0.653684
  O      2.728603   -1.763402   -1.322619
  N      1.797292   -1.264875    0.753796
  C      2.774902   -1.951538    1.564658
  C      0.718797   -0.545630    1.236609
  N      0.339172   -0.333179    2.430270
  H      1.001153    1.947917    0.003273
  H     -0.547716    1.933411   -0.868558
  H     -0.526819    1.912633    0.909010
  H     -1.040179   -0.347981    0.024085
  H      0.691616   -0.260663   -2.028515
  H      3.498820   -2.402319    0.884514
  H      3.291141   -1.253353    2.232998
  H      2.305533   -2.736051    2.168840
  H      0.950350   -0.783821    3.111674

 Total Charge           Charge          ....    0
 Multiplicity           Mult            ....    1
 Number of Electrons    NEL             ....   68
 Basis Dimension        Dim             ....  333

ORBITAL ENERGIES
----------------

  NO   OCC          E(Eh)            E(eV)
   0   2.0000     -20.528626      -558.6123
   1   2.0000     -15.612655      -424.8419
   2   2.0000     -15.592442      -424.2919
   3   2.0000     -15.541247      -422.8988
   4   2.0000     -11.390201      -309.9431
   5   2.0000     -11.333316      -308.3952
   6   2.0000     -11.296071      -307.3817
   7   2.0000     -11.275374      -306.8185
   8   2.0000     -11.236625      -305.7641
   9   2.0000      -1.416132       -38.5349
  10   2.0000      -1.322585       -35.9894
  11   2.0000      -1.233813       -33.5737
  12   2.0000      -1.185542       -32.2602
  13   2.0000      -1.038588       -28.2614
  14   2.0000      -0.987503       -26.8713
  15   2.0000      -0.901444       -24.5295
  16   2.0000      -0.834808       -22.7163
  17   2.0000      -0.789774       -21.4908
  18   2.0000      -0.728493       -19.8233
  19   2.0000      -0.695338       -18.9211
  20   2.0000      -0.667300       -18.1582
  21   2.0000      -0.641208       -17.4482
  22   2.0000      -0.630797       -17.1649
  23   2.0000      -0.616839       -16.7850
  24   2.0000      -0.591840       -16.1048
  25   2.0000      -0.568304       -15.4643
  26   2.0000      -0.557197       -15.1621
  27   2.0000      -0.547065       -14.8864
  28   2.0000      -0.528196       -14.3729
  29   2.0000      -0.492820       -13.4103
  30   2.0000      -0.465887       -12.6774
  31   2.0000      -0.431224       -11.7342
  32   2.0000      -0.415153       -11.2969
  33   2.0000      -0.373471       -10.1627
  34   0.0000       0.122569         3.3353
  35   0.0000       0.135343         3.6829
  36   0.0000       0.156160         4.2493
  37   0.0000       0.174512         4.7487
  38   0.0000       0.177631         4.8336

MULLIKEN ATOMIC CHARGES
-----------------------
   0 C :   -0.414496
   1 C :    0.143064
   2 N :   -0.352221
   3 C :    0.288140
   4 O :   -0.357827
   5 N :   -0.075231
   6 C :   -0.372758
   7 C :    0.023642
   8 N :   -0.386348
   9 H :    0.133167
  10 H :    0.135906
  11 H :    0.155628
  12 H :    0.122830
  13 H :    0.250454
  14 H :    0.188976
  15 H :    0.150025
  16 H :    0.150958
  17 H :    0.216090
Sum of atomic charges:   -0.0000000

LOEWDIN ATOMIC CHARGES
----------------------
   0 C :   -0.280865
   1 C :   -0.248627
   2 N :    0.128394
   3 C :   -0.498134
   4 O :    0.078045
   5 N :    0.206481
   6 C :   -0.283384
   7 C :   -0.323621
   8 N :   -0.060959
   9 H :    0.128182
  10 H :    0.123685
  11 H :    0.137571
  12 H :    0.158531
  13 H :    0.189181
  14 H :    0.140886
  15 H :    0.121640
  16 H :    0.121612
  17 H :    0.161381

  Mayer bond orders larger than 0.1
B(  0-C ,  1-C ) :   0.9261 B(  0-C ,  9-H ) :   0.9281 B(  0-C , 10-H ) :   0.9359
B(  0-C , 11-H ) :   0.9278 B(  1-C ,  2-N ) :   0.8756 B(  1-C ,  7-C ) :   0.9008
B(  1-C , 12-H ) :   0.9124 B(  2-N ,  3-C ) :   1.1632 B(  2-N , 13-H ) :   0.8685
B(  3-C ,  4-O ) :   1.9816 B(  3-C ,  5-N ) :   1.0082 B(  5-N ,  6-C ) :   0.8611
B(  5-N ,  7-C ) :   1.0779 B(  6-C , 14-H ) :   0.9181 B(  6-C , 15-H ) :   0.9289
B(  6-C , 16-H ) :   0.9290 B(  7-C ,  8-N ) :   2.0393 B(  8-N , 17-H ) :   0.8625

MP2 TOTAL ENERGY:     -434.617415451 Eh
FINAL SINGLE POINT ENERGY      -434.617415451318

DIPOLE MOMENT
-------------
                                X             Y             Z
Electronic contribution:      1.21728      -3.52942      -3.14479
Nuclear contribution   :     -1.42729       3.87970       3.29739
                        -----------------------------------------
Total Dipole Moment    :     -0.21001       0.35028       0.15259
                        -----------------------------------------
Magnitude (a.u.)       :      0.43599
Magnitude (Debye)      :      1.10819

                             ****ORCA TERMINATED NORMALLY****
TOTAL RUN TIME: 0 days 0 hours 16 minutes 36 seconds 49 msec
