                         Program Version 3.0.3 - RELEASE   -
|  1> ! RI-MP2 RIJK def2-TZVP def2-TZVP/C def2-TZVP/JK TIGHTSCF
|  2> % maxcore 2000
|  3> % mp2 density relaxed end
|  4> *xyz 0 1
|  5>  C        1.1086730696     1.5715457909     1.3044120243
|  6>  C        0.5949409980     0.2162059303     1.0815826227
|  7>  C        0.1691032077    -0.8906850877     0.8611665622
|  8>  C       -0.3417473172    -2.2191801367     0.6593102332
|  9>  C       -0.7451050965    -2.7075007040    -0.6745889005
| 10>  O        0.4710836285    -3.1440689848    -0.0841391638
| 11>  N        1.0436447730     2.5130307684     0.1802014728
| 12>  C        1.2633515718     2.0060527087    -1.1695178347
| 13>  C       -0.0930351679     2.4400885908    -0.7305894047
| 14>  H        0.5641405370     2.0259397724     2.1414067574
| 15>  H        2.1590128957     1.5098469957     1.6149917500
| 16>  H       -0.8293308256    -2.6656947060     1.5253946054
| 17>  H       -1.5333427985    -3.4558393709    -0.7482075857
| 18>  H       -0.6416325137    -2.0439965564    -1.5311439504
| 19>  H        1.8701432439     2.6402300202    -1.8093638351
| 20>  H        1.4141782017     0.9365217807    -1.2982115541
| 21>  H       -0.8276251849     1.6534195248    -0.5732086761
| 22>  H       -0.4988699526     3.3980956636    -1.0426542627
| 23> *
| 24>
| 25>                          ****END OF INPUT****

CARTESIAN COORDINATES (ANGSTROEM)
---------------------------------
  C      1.108673    1.571546    1.304412
  C      0.594941    0.216206    1.081583
  C      0.169103   -0.890685    0.861167
  C     -0.341747   -2.219180    0.659310
  C     -0.745105   -2.707501   -0.674589
  O      0.471084   -3.144069   -0.084139
  N      1.043645    2.513031    0.180201
  C      1.263352    2.006053   -1.169518
  C     -0.093035    2.440089   -0.730589
  H      0.564141    2.025940    2.141407
  H      2.159013    1.509847    1.614992
  H     -0.829331   -2.665695    1.525395
  H     -1.533343   -3.455839   -0.748208
  H     -0.641633   -2.043997   -1.531144
  H      1.870143    2.640230   -1.809364
  H      1.414178    0.936522   -1.298212
  H     -0.827625    1.653420   -0.573209
  H     -0.498870    3.398096   -1.042654

 Total Charge           Charge          ....    0
 Multiplicity           Mult            ....    1
 Number of Electrons    NEL             ....   66
 Basis Dimension        Dim             ....  333

ORBITAL ENERGIES
----------------

  NO   OCC          E(Eh)            E(eV)
   0   2.0000     -20.583016      -560.0923
   1   2.0000     -15.567637      -423.6169
   2   2.0000     -11.318244      -307.9851
   3   2.0000     -11.298954      -307.4602
   4   2.0000     -11.284074      -307.0553
   5   2.0000     -11.254920      -306.2619
   6   2.0000     -11.254042      -306.2380
   7   2.0000     -11.240800      -305.8777
   8   2.0000     -11.235343      -305.7292
   9   2.0000      -1.425627       -38.7933
  10   2.0000      -1.278031       -34.7770
  11   2.0000      -1.073757       -29.2184
  12   2.0000      -1.012052       -27.5393
  13   2.0000      -0.942784       -25.6544
  14   2.0000      -0.890943       -24.2438
  15   2.0000      -0.844506       -22.9802
  16   2.0000      -0.834604       -22.7107
  17   2.0000      -0.737643       -20.0723
  18   2.0000      -0.693407       -18.8686
  19   2.0000      -0.685482       -18.6529
  20   2.0000      -0.672630       -18.3032
  21   2.0000      -0.621217       -16.9042
  22   2.0000      -0.603099       -16.4112
  23   2.0000      -0.581663       -15.8279
  24   2.0000      -0.569571       -15.4988
  25   2.0000      -0.529450       -14.4071
  26   2.0000      -0.493990       -13.4421
  27   2.0000      -0.473043       -12.8721
  28   2.0000      -0.469198       -12.7675
  29   2.0000      -0.466823       -12.7029
  30   2.0000      -0.394208       -10.7270
  31   2.0000      -0.386655       -10.5214
  32   2.0000      -0.374667       -10.1952
  33   0.0000       0.138468         3.7679
  34   0.0000       0.151260         4.1160
  35   0.0000       0.157717         4.2917
  36   0.0000       0.165692         4.5087
  37   0.0000       0.175165         4.7665

MULLIKEN ATOMIC CHARGES
-----------------------
   0 C :   -0.180732
   1 C :    0.034227
   2 C :   -0.017089
   3 C :   -0.142195
   4 C :   -0.031437
   5 O :   -0.306999
   6 N :   -0.211482
   7 C :   -0.191445
   8 C :   -0.188529
   9 H :    0.153342
  10 H :    0.154729
  11 H :    0.144258
  12 H :    0.120789
  13 H :    0.125529
  14 H :    0.130590
  15 H :    0.141257
  16 H :    0.135028
  17 H :    0.130156
Sum of atomic charges:    0.0000000

LOEWDIN ATOMIC CHARGES
----------------------
   0 C :   -0.278078
   1 C :   -0.063422
   2 C :   -0.061740
   3 C :   -0.278167
   4 C :   -0.251159
   5 O :    0.158550
   6 N :    0.096238
   7 C :   -0.265706
   8 C :   -0.267071
   9 H :    0.155183
  10 H :    0.155914
  11 H :    0.153005
  12 H :    0.120531
  13 H :    0.123762
  14 H :    0.123941
  15 H :    0.127900
  16 H :    0.126623
  17 H :    0.123697

  Mayer bond orders larger than 0.1
B(  0-C ,  1-C ) :   0.8465 B(  0-C ,  6-N ) :   0.9442 B(  0-C ,  9-H ) :   0.9507
B(  0-C , 10-H ) :   0.9477 B(  1-C ,  2-C ) :   2.6885 B(  1-C ,  3-C ) :  -0.1126
B(  2-C ,  3-C ) :   1.0198 B(  3-C ,  4-C ) :   0.9794 B(  3-C ,  5-O ) :   0.9772
B(  3-C , 11-H ) :   0.9393 B(  4-C ,  5-O ) :   0.9015 B(  4-C , 12-H ) :   0.9152
B(  4-C , 13-H ) :   0.9200 B(  6-N ,  7-C ) :   0.8913 B(  6-N ,  8-C ) :   0.8922
B(  7-C ,  8-C ) :   0.9372 B(  7-C , 14-H ) :   0.9274 B(  7-C , 15-H ) :   0.9217
B(  8-C , 16-H ) :   0.9213 B(  8-C , 17-H ) :   0.9271

MP2 TOTAL ENERGY:     -401.146856320 Eh
FINAL SINGLE POINT ENERGY      -401.146856319740

DIPOLE MOMENT
-------------
                                X             Y             Z
Electronic contribution:      0.91305      -4.11248       2.54083
Nuclear contribution   :     -1.66780       4.13572      -2.67591
                        -----------------------------------------
Total Dipole Moment    :     -0.75475       0.02324      -0.13509
                        -----------------------------------------
Magnitude (a.u.)       :      0.76710
Magnitude (Debye)      :      1.94981

                             ****ORCA TERMINATED NORMALLY****
TOTAL RUN TIME: 0 days 0 hours 15 minutes 44 seconds 590 msec
