                         Program Version 3.0.3 - RELEASE   -
|  1> ! RI-MP2 RIJK def2-TZVP def2-TZVP/C def2-TZVP/JK TIGHTSCF
|  2> % maxcore 2000
|  3> % mp2 density relaxed end
|  4> *xyz 0 1
|  5>  C       -0.0131284217     1.4431400674     0.0100885811
|  6>  N       -0.0923345127     0.0060080134    -0.1297696365
|  7>  C       -1.2551449428    -0.6949605451    -0.0496297048
|  8>  N       -2.3985624238     0.0065131064     0.0081610311
|  9>  C       -3.5097001996    -0.7359452005     0.0527798283
| 10>  C       -3.5195422091    -2.1160491978     0.0458420999
| 11>  C       -2.2562869208    -2.7394942532    -0.0040437017
| 12>  N       -2.1304342161    -4.1048289781    -0.0521099847
| 13>  N       -1.1265284462    -2.0355760161    -0.0445303985
| 14>  H        0.9944632076     1.7661175522    -0.2624214819
| 15>  H       -0.7324819605     1.9260579481    -0.6547948264
| 16>  H       -0.2270089990     1.7821983796     1.0328159232
| 17>  H        0.7437135028    -0.5476453827    -0.0535610690
| 18>  H       -4.4468894193    -0.1839185299     0.0990660242
| 19>  H       -4.4401190248    -2.6849802279     0.0779331040
| 20>  H       -2.8930503027    -4.6613912163     0.2965752881
| 21>  H       -1.2054079513    -4.4563594894     0.1406037637
| 22> *
| 23>
| 24>                          ****END OF INPUT****

CARTESIAN COORDINATES (ANGSTROEM)
---------------------------------
  C     -0.013128    1.443140    0.010089
  N     -0.092335    0.006008   -0.129770
  C     -1.255145   -0.694961   -0.049630
  N     -2.398562    0.006513    0.008161
  C     -3.509700   -0.735945    0.052780
  C     -3.519542   -2.116049    0.045842
  C     -2.256287   -2.739494   -0.004044
  N     -2.130434   -4.104829   -0.052110
  N     -1.126528   -2.035576   -0.044530
  H      0.994463    1.766118   -0.262421
  H     -0.732482    1.926058   -0.654795
  H     -0.227009    1.782198    1.032816
  H      0.743714   -0.547645   -0.053561
  H     -4.446889   -0.183919    0.099066
  H     -4.440119   -2.684980    0.077933
  H     -2.893050   -4.661391    0.296575
  H     -1.205408   -4.456359    0.140604

 Total Charge           Charge          ....    0
 Multiplicity           Mult            ....    1
 Number of Electrons    NEL             ....   66
 Basis Dimension        Dim             ....  327

ORBITAL ENERGIES
----------------

  NO   OCC          E(Eh)            E(eV)
   0   2.0000     -15.575750      -423.8377
   1   2.0000     -15.564606      -423.5345
   2   2.0000     -15.536855      -422.7793
   3   2.0000     -15.531536      -422.6346
   4   2.0000     -11.337124      -308.4988
   5   2.0000     -11.327044      -308.2245
   6   2.0000     -11.281355      -306.9813
   7   2.0000     -11.249041      -306.1020
   8   2.0000     -11.211427      -305.0784
   9   2.0000      -1.321410       -35.9574
  10   2.0000      -1.249507       -34.0008
  11   2.0000      -1.197933       -32.5974
  12   2.0000      -1.150327       -31.3020
  13   2.0000      -1.030803       -28.0496
  14   2.0000      -0.939260       -25.5586
  15   2.0000      -0.872340       -23.7376
  16   2.0000      -0.834140       -22.6981
  17   2.0000      -0.747361       -20.3367
  18   2.0000      -0.722133       -19.6502
  19   2.0000      -0.668645       -18.1948
  20   2.0000      -0.645740       -17.5715
  21   2.0000      -0.625956       -17.0331
  22   2.0000      -0.618065       -16.8184
  23   2.0000      -0.595262       -16.1979
  24   2.0000      -0.571574       -15.5533
  25   2.0000      -0.568512       -15.4700
  26   2.0000      -0.536291       -14.5932
  27   2.0000      -0.495077       -13.4717
  28   2.0000      -0.467829       -12.7303
  29   2.0000      -0.427900       -11.6438
  30   2.0000      -0.396767       -10.7966
  31   2.0000      -0.369254       -10.0479
  32   2.0000      -0.309314        -8.4169
  33   0.0000       0.127595         3.4720
  34   0.0000       0.135281         3.6812
  35   0.0000       0.152060         4.1378
  36   0.0000       0.164257         4.4697
  37   0.0000       0.171221         4.6592

MULLIKEN ATOMIC CHARGES
-----------------------
   0 C :   -0.255775
   1 N :   -0.325901
   2 C :    0.342319
   3 N :   -0.321181
   4 C :   -0.053330
   5 C :   -0.245928
   6 C :    0.288149
   7 N :   -0.497768
   8 N :   -0.334076
   9 H :    0.130207
  10 H :    0.151156
  11 H :    0.126531
  12 H :    0.240473
  13 H :    0.121534
  14 H :    0.124785
  15 H :    0.251743
  16 H :    0.257060
Sum of atomic charges:    0.0000000

LOEWDIN ATOMIC CHARGES
----------------------
   0 C :   -0.322768
   1 N :    0.081736
   2 C :   -0.389762
   3 N :    0.104342
   4 C :   -0.218123
   5 C :   -0.179168
   6 C :   -0.330389
   7 N :   -0.032196
   8 N :    0.123756
   9 H :    0.116636
  10 H :    0.123172
  11 H :    0.112043
  12 H :    0.185134
  13 H :    0.138929
  14 H :    0.144918
  15 H :    0.169246
  16 H :    0.172495

  Mayer bond orders larger than 0.1
B(  0-C ,  1-N ) :   0.8863 B(  0-C ,  9-H ) :   0.9313 B(  0-C , 10-H ) :   0.9341
B(  0-C , 11-H ) :   0.9361 B(  1-N ,  2-C ) :   1.1671 B(  1-N , 12-H ) :   0.8698
B(  2-C ,  3-N ) :   1.3379 B(  2-C ,  8-N ) :   1.3505 B(  3-N ,  4-C ) :   1.4138
B(  4-C ,  5-C ) :   1.4204 B(  4-C , 13-H ) :   0.9486 B(  5-C ,  6-C ) :   1.2363
B(  5-C , 14-H ) :   0.9118 B(  6-C ,  7-N ) :   1.1096 B(  6-C ,  8-N ) :   1.4418
B(  7-N , 15-H ) :   0.8759 B(  7-N , 16-H ) :   0.8626

MP2 TOTAL ENERGY:     -413.548249771 Eh
FINAL SINGLE POINT ENERGY      -413.548249770618

DIPOLE MOMENT
-------------
                                X             Y             Z
Electronic contribution:     -1.70660      -3.18984      -0.34216
Nuclear contribution   :      1.82987       2.50586       0.73715
                        -----------------------------------------
Total Dipole Moment    :      0.12327      -0.68398       0.39499
                        -----------------------------------------
Magnitude (a.u.)       :      0.79940
Magnitude (Debye)      :      2.03191

                             ****ORCA TERMINATED NORMALLY****
TOTAL RUN TIME: 0 days 0 hours 15 minutes 25 seconds 136 msec
