                         Program Version 3.0.3 - RELEASE   -
|  1> ! RI-MP2 RIJK def2-TZVP def2-TZVP/C def2-TZVP/JK TIGHTSCF
|  2> % maxcore 2000
|  3> % mp2 density relaxed end
|  4> *xyz 0 1
|  5>  C        0.0606464567     1.4434026695    -0.1084823567
|  6>  N        0.0044565973     0.0063830708    -0.0661907419
|  7>  C       -1.1110954900    -0.9411838379    -0.1011798780
|  8>  C       -0.0546067734    -2.0884496839    -0.0431554654
|  9>  C        0.0200900123    -3.0612915855    -1.2163091565
| 10>  C        1.2291066215    -3.9990193078    -1.1137677568
| 11>  O        1.2889692460    -4.9228273370    -2.1897545558
| 12>  C        0.9916517361    -0.9452235458    -0.0403349420
| 13>  O        2.1952816488    -0.8632439793    -0.0439145920
| 14>  H        1.1139057612     1.7335845462    -0.0858583578
| 15>  H       -0.3952924973     1.8390265841    -1.0247436533
| 16>  H       -0.4487202532     1.8925230238     0.7529504328
| 17>  H       -1.7871707691    -0.8705667156     0.7583438006
| 18>  H       -1.6959435797    -0.9030468417    -1.0281380296
| 19>  H       -0.0701030064    -2.6269628709     0.9099383252
| 20>  H       -0.8939136670    -3.6646669512    -1.2694793940
| 21>  H        0.0814136162    -2.4947577749    -2.1564178229
| 22>  H        2.1512310421    -3.4083828999    -1.0273567665
| 23>  H        1.1472434692    -4.6066723210    -0.2051959819
| 24>  H        1.5309422087    -4.4338802520    -2.9823406775
| 25> *
| 26>
| 27>                          ****END OF INPUT****

CARTESIAN COORDINATES (ANGSTROEM)
---------------------------------
  C      0.060646    1.443403   -0.108482
  N      0.004457    0.006383   -0.066191
  C     -1.111095   -0.941184   -0.101180
  C     -0.054607   -2.088450   -0.043155
  C      0.020090   -3.061292   -1.216309
  C      1.229107   -3.999019   -1.113768
  O      1.288969   -4.922827   -2.189755
  C      0.991652   -0.945224   -0.040335
  O      2.195282   -0.863244   -0.043915
  H      1.113906    1.733585   -0.085858
  H     -0.395292    1.839027   -1.024744
  H     -0.448720    1.892523    0.752950
  H     -1.787171   -0.870567    0.758344
  H     -1.695944   -0.903047   -1.028138
  H     -0.070103   -2.626963    0.909938
  H     -0.893914   -3.664667   -1.269479
  H      0.081414   -2.494758   -2.156418
  H      2.151231   -3.408383   -1.027357
  H      1.147243   -4.606672   -0.205196
  H      1.530942   -4.433880   -2.982341

 Total Charge           Charge          ....    0
 Multiplicity           Mult            ....    1
 Number of Electrons    NEL             ....   70
 Basis Dimension        Dim             ....  345

ORBITAL ENERGIES
----------------

  NO   OCC          E(Eh)            E(eV)
   0   2.0000     -20.553679      -559.2940
   1   2.0000     -20.523899      -558.4837
   2   2.0000     -15.588681      -424.1896
   3   2.0000     -11.346945      -308.7661
   4   2.0000     -11.281413      -306.9829
   5   2.0000     -11.272859      -306.7501
   6   2.0000     -11.269060      -306.6467
   7   2.0000     -11.255714      -306.2835
   8   2.0000     -11.236564      -305.7624
   9   2.0000      -1.386807       -37.7369
  10   2.0000      -1.357533       -36.9404
  11   2.0000      -1.279934       -34.8288
  12   2.0000      -1.086450       -29.5638
  13   2.0000      -1.010975       -27.5100
  14   2.0000      -0.917737       -24.9729
  15   2.0000      -0.892853       -24.2958
  16   2.0000      -0.830836       -22.6082
  17   2.0000      -0.722135       -19.6503
  18   2.0000      -0.700199       -19.0534
  19   2.0000      -0.682051       -18.5595
  20   2.0000      -0.672182       -18.2910
  21   2.0000      -0.658961       -17.9312
  22   2.0000      -0.619747       -16.8642
  23   2.0000      -0.604211       -16.4414
  24   2.0000      -0.582491       -15.8504
  25   2.0000      -0.572033       -15.5658
  26   2.0000      -0.554188       -15.0802
  27   2.0000      -0.539770       -14.6879
  28   2.0000      -0.526482       -14.3263
  29   2.0000      -0.516763       -14.0618
  30   2.0000      -0.502115       -13.6632
  31   2.0000      -0.479564       -13.0496
  32   2.0000      -0.438777       -11.9397
  33   2.0000      -0.409353       -11.1391
  34   2.0000      -0.380965       -10.3666
  35   0.0000       0.127085         3.4582
  36   0.0000       0.140848         3.8327
  37   0.0000       0.147660         4.0180
  38   0.0000       0.163918         4.4604
  39   0.0000       0.177540         4.8311

MULLIKEN ATOMIC CHARGES
-----------------------
   0 C :   -0.330923
   1 N :   -0.092284
   2 C :   -0.143115
   3 C :   -0.080661
   4 C :   -0.249341
   5 C :   -0.060446
   6 O :   -0.473782
   7 C :    0.161059
   8 O :   -0.342152
   9 H :    0.171543
  10 H :    0.137349
  11 H :    0.139332
  12 H :    0.120537
  13 H :    0.122111
  14 H :    0.123607
  15 H :    0.125697
  16 H :    0.105027
  17 H :    0.145390
  18 H :    0.106439
  19 H :    0.314612
Sum of atomic charges:    0.0000000

LOEWDIN ATOMIC CHARGES
----------------------
   0 C :   -0.299717
   1 N :    0.186794
   2 C :   -0.202421
   3 C :   -0.189957
   4 C :   -0.259488
   5 C :   -0.343424
   6 O :   -0.052059
   7 C :   -0.415199
   8 O :    0.087347
   9 H :    0.136469
  10 H :    0.118633
  11 H :    0.119184
  12 H :    0.123445
  13 H :    0.125914
  14 H :    0.156729
  15 H :    0.141477
  16 H :    0.138892
  17 H :    0.125871
  18 H :    0.128452
  19 H :    0.173057

  Mayer bond orders larger than 0.1
B(  0-C ,  1-N ) :   0.8748 B(  0-C ,  9-H ) :   0.9265 B(  0-C , 10-H ) :   0.9303
B(  0-C , 11-H ) :   0.9303 B(  1-N ,  2-C ) :   0.9132 B(  1-N ,  7-C ) :   1.1603
B(  2-C ,  3-C ) :   0.9013 B(  2-C , 12-H ) :   0.9177 B(  2-C , 13-H ) :   0.9222
B(  3-C ,  4-C ) :   0.8797 B(  3-C ,  7-C ) :   0.8805 B(  3-C , 14-H ) :   0.9088
B(  4-C ,  5-C ) :   0.9171 B(  4-C , 15-H ) :   0.9295 B(  4-C , 16-H ) :   0.9200
B(  5-C ,  6-O ) :   0.9266 B(  5-C , 17-H ) :   0.9415 B(  5-C , 18-H ) :   0.9242
B(  6-O , 19-H ) :   0.8492 B(  7-C ,  8-O ) :   1.9659

MP2 TOTAL ENERGY:     -439.581585991 Eh
FINAL SINGLE POINT ENERGY      -439.581585991010

DIPOLE MOMENT
-------------
                                X             Y             Z
Electronic contribution:      3.55111      -0.60904       0.78303
Nuclear contribution   :     -4.88740       1.52403      -0.87666
                        -----------------------------------------
Total Dipole Moment    :     -1.33629       0.91498      -0.09363
                        -----------------------------------------
Magnitude (a.u.)       :      1.62223
Magnitude (Debye)      :      4.12339

                             ****ORCA TERMINATED NORMALLY****
TOTAL RUN TIME: 0 days 0 hours 17 minutes 54 seconds 546 msec
