                         Program Version 3.0.3 - RELEASE   -
|  1> ! RI-MP2 RIJK def2-TZVP def2-TZVP/C def2-TZVP/JK TIGHTSCF
|  2> % maxcore 2000
|  3> % mp2 density relaxed end
|  4> *xyz 0 1
|  5>  C       -0.0277783162     1.4527592930     0.0041738028
|  6>  N       -0.0095631261    -0.0018482705     0.0455953936
|  7>  N       -0.0338452392    -0.7024236518    -1.1001821415
|  8>  C       -0.0074016112    -1.9651034870    -0.6726969111
|  9>  N        0.0324398333    -2.1145106836     0.6652783661
| 10>  C        0.0304249735    -0.8587826209     1.1045429773
| 11>  C        0.0651982256    -0.4097567281     2.5068372869
| 12>  O        0.1003521089    -1.1510369552     3.4559288368
| 13>  H        0.8730585640     1.8651436826     0.4652780386
| 14>  H       -0.0612381814     1.7387082997    -1.0460133272
| 15>  H       -0.9101012901     1.8442694543     0.5164231269
| 16>  H       -0.0173829685    -2.7924286815    -1.3664070086
| 17>  H        0.0569899274     0.6948456492     2.6341244995
| 18> *
| 19>
| 20>                          ****END OF INPUT****

CARTESIAN COORDINATES (ANGSTROEM)
---------------------------------
  C     -0.027778    1.452759    0.004174
  N     -0.009563   -0.001848    0.045595
  N     -0.033845   -0.702424   -1.100182
  C     -0.007402   -1.965103   -0.672697
  N      0.032440   -2.114511    0.665278
  C      0.030425   -0.858783    1.104543
  C      0.065198   -0.409757    2.506837
  O      0.100352   -1.151037    3.455929
  H      0.873059    1.865144    0.465278
  H     -0.061238    1.738708   -1.046013
  H     -0.910101    1.844269    0.516423
  H     -0.017383   -2.792429   -1.366407
  H      0.056990    0.694846    2.634124

 Total Charge           Charge          ....    0
 Multiplicity           Mult            ....    1
 Number of Electrons    NEL             ....   58
 Basis Dimension        Dim             ....  278

ORBITAL ENERGIES
----------------

  NO   OCC          E(Eh)            E(eV)
   0   2.0000     -20.581960      -560.0636
   1   2.0000     -15.681351      -426.7113
   2   2.0000     -15.614601      -424.8949
   3   2.0000     -15.576967      -423.8708
   4   2.0000     -11.361611      -309.1652
   5   2.0000     -11.329793      -308.2993
   6   2.0000     -11.304042      -307.5986
   7   2.0000     -11.298854      -307.4575
   8   2.0000      -1.439165       -39.1617
   9   2.0000      -1.415271       -38.5115
  10   2.0000      -1.228359       -33.4254
  11   2.0000      -1.148448       -31.2509
  12   2.0000      -1.009774       -27.4773
  13   2.0000      -0.926704       -25.2169
  14   2.0000      -0.850987       -23.1565
  15   2.0000      -0.795763       -21.6538
  16   2.0000      -0.745969       -20.2989
  17   2.0000      -0.692497       -18.8438
  18   2.0000      -0.667304       -18.1583
  19   2.0000      -0.653575       -17.7847
  20   2.0000      -0.621378       -16.9086
  21   2.0000      -0.598433       -16.2842
  22   2.0000      -0.595948       -16.2166
  23   2.0000      -0.551743       -15.0137
  24   2.0000      -0.523353       -14.2412
  25   2.0000      -0.464347       -12.6355
  26   2.0000      -0.456881       -12.4324
  27   2.0000      -0.422594       -11.4994
  28   2.0000      -0.378090       -10.2884
  29   0.0000       0.053451         1.4545
  30   0.0000       0.118854         3.2342
  31   0.0000       0.166730         4.5370
  32   0.0000       0.175766         4.7828
  33   0.0000       0.183095         4.9823

MULLIKEN ATOMIC CHARGES
-----------------------
   0 C :   -0.362467
   1 N :    0.112917
   2 N :   -0.256621
   3 C :    0.056785
   4 N :   -0.270720
   5 C :    0.174403
   6 C :    0.006341
   7 O :   -0.233080
   8 H :    0.167513
   9 H :    0.188342
  10 H :    0.167530
  11 H :    0.151803
  12 H :    0.097253
Sum of atomic charges:    0.0000000

LOEWDIN ATOMIC CHARGES
----------------------
   0 C :   -0.266104
   1 N :    0.198225
   2 N :    0.047983
   3 C :   -0.323178
   4 N :    0.135588
   5 C :   -0.321079
   6 C :   -0.280744
   7 O :    0.162368
   8 H :    0.128389
   9 H :    0.138725
  10 H :    0.128395
  11 H :    0.134472
  12 H :    0.116963

  Mayer bond orders larger than 0.1
B(  0-C ,  1-N ) :   0.8376 B(  0-C ,  8-H ) :   0.9266 B(  0-C ,  9-H ) :   0.9222
B(  0-C , 10-H ) :   0.9266 B(  1-N ,  2-N ) :   1.0591 B(  1-N ,  5-C ) :   1.2008
B(  2-N ,  3-C ) :   1.4099 B(  3-C ,  4-N ) :   1.3393 B(  3-C , 11-H ) :   0.9334
B(  4-N ,  5-C ) :   1.4519 B(  5-C ,  6-C ) :   0.7796 B(  5-C , 12-H ) :  -0.1226
B(  6-C ,  7-O ) :   2.0447 B(  6-C , 12-H ) :   0.9997

MP2 TOTAL ENERGY:     -394.154930056 Eh
FINAL SINGLE POINT ENERGY      -394.154930056424

DIPOLE MOMENT
-------------
                                X             Y             Z
Electronic contribution:      0.10301      -4.63636       1.74975
Nuclear contribution   :     -0.14367       6.33725      -2.49415
                        -----------------------------------------
Total Dipole Moment    :     -0.04066       1.70089      -0.74440
                        -----------------------------------------
Magnitude (a.u.)       :      1.85710
Magnitude (Debye)      :      4.72038

                             ****ORCA TERMINATED NORMALLY****
TOTAL RUN TIME: 0 days 0 hours 10 minutes 22 seconds 101 msec
