                         Program Version 3.0.3 - RELEASE   -
|  1> ! RI-MP2 RIJK def2-TZVP def2-TZVP/C def2-TZVP/JK TIGHTSCF
|  2> % maxcore 2000
|  3> % mp2 density relaxed end
|  4> *xyz 0 1
|  5>  C       -0.1362195052     1.5358949399     0.0392961299
|  6>  C       -0.0204909545     0.0089758333    -0.0038731922
|  7>  C       -1.4331082884    -0.5468880310    -0.2093419778
|  8>  C        1.1812608170    -0.6453022852    -0.7910516481
|  9>  C        2.1501487656    -0.1205039164     0.3111292713
| 10>  C        0.9143519736    -0.7013843980     1.0702610378
| 11>  C        1.0311518536    -1.9175743514     0.0965017700
| 12>  C        0.7032213032    -0.7402208494     2.4954727564
| 13>  N        0.5126092934    -0.7579798868     3.6365750920
| 14>  H        0.8070648591     2.0654612220     0.1678758150
| 15>  H       -0.5896942323     1.8959253441    -0.8906622505
| 16>  H       -0.7980545991     1.8373918747     0.8583127010
| 17>  H       -1.8568921097    -0.1395188211    -1.1337549590
| 18>  H       -1.4956510798    -1.6325985172    -0.2732737756
| 19>  H       -2.0835996429    -0.2268492317     0.6117286512
| 20>  H        1.3457694502    -0.6190817512    -1.8682458733
| 21>  H        3.0748220343    -0.6864575676     0.4388322670
| 22>  H        2.3371295255     0.9475516683     0.3851736578
| 23>  H        0.1581250856    -2.5518439871    -0.0327737560
| 24>  H        1.9335521807    -2.5192951781     0.2199472332
| 25> *
| 26>
| 27>                          ****END OF INPUT****

CARTESIAN COORDINATES (ANGSTROEM)
---------------------------------
  C     -0.136220    1.535895    0.039296
  C     -0.020491    0.008976   -0.003873
  C     -1.433108   -0.546888   -0.209342
  C      1.181261   -0.645302   -0.791052
  C      2.150149   -0.120504    0.311129
  C      0.914352   -0.701384    1.070261
  C      1.031152   -1.917574    0.096502
  C      0.703221   -0.740221    2.495473
  N      0.512609   -0.757980    3.636575
  H      0.807065    2.065461    0.167876
  H     -0.589694    1.895925   -0.890662
  H     -0.798055    1.837392    0.858313
  H     -1.856892   -0.139519   -1.133755
  H     -1.495651   -1.632599   -0.273274
  H     -2.083600   -0.226849    0.611729
  H      1.345769   -0.619082   -1.868246
  H      3.074822   -0.686458    0.438832
  H      2.337130    0.947552    0.385174
  H      0.158125   -2.551844   -0.032774
  H      1.933552   -2.519295    0.219947

 Total Charge           Charge          ....    0
 Multiplicity           Mult            ....    1
 Number of Electrons    NEL             ....   66
 Basis Dimension        Dim             ....  345

ORBITAL ENERGIES
----------------

  NO   OCC          E(Eh)            E(eV)
   0   2.0000     -15.566560      -423.5876
   1   2.0000     -11.292534      -307.2855
   2   2.0000     -11.272117      -306.7299
   3   2.0000     -11.267652      -306.6084
   4   2.0000     -11.264734      -306.5290
   5   2.0000     -11.253502      -306.2234
   6   2.0000     -11.253485      -306.2229
   7   2.0000     -11.225661      -305.4658
   8   2.0000     -11.225643      -305.4653
   9   2.0000      -1.242176       -33.8013
  10   2.0000      -1.206624       -32.8339
  11   2.0000      -1.045517       -28.4500
  12   2.0000      -0.959794       -26.1173
  13   2.0000      -0.934664       -25.4335
  14   2.0000      -0.907691       -24.6995
  15   2.0000      -0.855362       -23.2756
  16   2.0000      -0.759121       -20.6567
  17   2.0000      -0.703051       -19.1310
  18   2.0000      -0.667286       -18.1578
  19   2.0000      -0.616795       -16.7838
  20   2.0000      -0.612738       -16.6735
  21   2.0000      -0.563523       -15.3342
  22   2.0000      -0.560273       -15.2458
  23   2.0000      -0.548209       -14.9175
  24   2.0000      -0.537734       -14.6325
  25   2.0000      -0.516399       -14.0519
  26   2.0000      -0.513994       -13.9865
  27   2.0000      -0.511702       -13.9241
  28   2.0000      -0.477385       -12.9903
  29   2.0000      -0.457421       -12.4471
  30   2.0000      -0.456969       -12.4347
  31   2.0000      -0.431584       -11.7440
  32   2.0000      -0.421084       -11.4583
  33   0.0000       0.129646         3.5278
  34   0.0000       0.146356         3.9825
  35   0.0000       0.150045         4.0829
  36   0.0000       0.157366         4.2821
  37   0.0000       0.179322         4.8796

MULLIKEN ATOMIC CHARGES
-----------------------
   0 C :   -0.411559
   1 C :    0.061529
   2 C :   -0.411562
   3 C :   -0.108537
   4 C :   -0.203991
   5 C :    0.101520
   6 C :   -0.203990
   7 C :   -0.268854
   8 N :   -0.024260
   9 H :    0.126149
  10 H :    0.137632
  11 H :    0.146243
  12 H :    0.137638
  13 H :    0.126148
  14 H :    0.146239
  15 H :    0.145523
  16 H :    0.125446
  17 H :    0.126621
  18 H :    0.126619
  19 H :    0.125445
Sum of atomic charges:    0.0000000

LOEWDIN ATOMIC CHARGES
----------------------
   0 C :   -0.265049
   1 C :   -0.203384
   2 C :   -0.265052
   3 C :   -0.135662
   4 C :   -0.149549
   5 C :   -0.177900
   6 C :   -0.149542
   7 C :   -0.154589
   8 N :    0.067941
   9 H :    0.123526
  10 H :    0.131086
  11 H :    0.133656
  12 H :    0.131084
  13 H :    0.123529
  14 H :    0.133660
  15 H :    0.128441
  16 H :    0.135292
  17 H :    0.128611
  18 H :    0.128610
  19 H :    0.135290

  Mayer bond orders larger than 0.1
B(  0-C ,  1-C ) :   0.9349 B(  0-C ,  9-H ) :   0.9273 B(  0-C , 10-H ) :   0.9364
B(  0-C , 11-H ) :   0.9336 B(  1-C ,  2-C ) :   0.9349 B(  1-C ,  3-C ) :   0.8848
B(  1-C ,  5-C ) :   0.8331 B(  2-C , 12-H ) :   0.9364 B(  2-C , 13-H ) :   0.9273
B(  2-C , 14-H ) :   0.9336 B(  3-C ,  4-C ) :   0.8986 B(  3-C ,  6-C ) :   0.8985
B(  3-C , 15-H ) :   0.8845 B(  4-C ,  5-C ) :   0.8685 B(  4-C , 16-H ) :   0.9250
B(  4-C , 17-H ) :   0.9329 B(  5-C ,  6-C ) :   0.8685 B(  5-C ,  7-C ) :   0.8626
B(  6-C , 18-H ) :   0.9329 B(  6-C , 19-H ) :   0.9250 B(  7-C ,  8-N ) :   2.9097

MP2 TOTAL ENERGY:     -365.323687960 Eh
FINAL SINGLE POINT ENERGY      -365.323687959792

DIPOLE MOMENT
-------------
                                X             Y             Z
Electronic contribution:      2.81861      -2.59511       7.03235
Nuclear contribution   :     -2.68785       2.71199      -8.69171
                        -----------------------------------------
Total Dipole Moment    :      0.13076       0.11687      -1.65936
                        -----------------------------------------
Magnitude (a.u.)       :      1.66860
Magnitude (Debye)      :      4.24125

                             ****ORCA TERMINATED NORMALLY****
TOTAL RUN TIME: 0 days 0 hours 20 minutes 9 seconds 118 msec
