                         Program Version 3.0.3 - RELEASE   -
|  1> ! RI-MP2 RIJK def2-TZVP def2-TZVP/C def2-TZVP/JK TIGHTSCF
|  2> % maxcore 2000
|  3> % mp2 density relaxed end
|  4> *xyz 0 1
|  5>  C        0.2415650047     1.3432823268    -0.6060611103
|  6>  C        1.3608564965     2.0492622122     0.2143375403
|  7>  C        2.0179487629     0.9054611448     0.9576245872
|  8>  O        2.5073392169     1.0362454443     2.2727397200
|  9>  C        1.5855206351     0.3009725168     3.0707520446
| 10>  O        1.0956678128    -0.7737519592     2.2756351285
| 11>  C        1.1012784825    -0.2698623994     0.9595047071
| 12>  C       -0.1692701608     0.0873857904     0.2174759978
| 13>  C        2.4295475399    -0.3618463410     0.2346544906
| 14>  H       -0.6060874779     2.0040760926    -0.8035927688
| 15>  H        0.6331108558     1.0363438679    -1.5812626937
| 16>  H        2.0366629244     2.6309404778    -0.4198771121
| 17>  H        0.9301145504     2.7344785111     0.9535204288
| 18>  H        2.1054920376    -0.1031729774     3.9433367706
| 19>  H        0.7518699318     0.9516670053     3.3865629431
| 20>  H       -0.9376147465     0.3397394149     0.9573513891
| 21>  H       -0.5698179131    -0.7110006555    -0.4145309086
| 22>  H        2.4476162025    -0.3776750640    -0.8508649633
| 23>  H        3.1913941125    -0.9552498309     0.7245535293
| 24> *
| 25>
| 26>                          ****END OF INPUT****

CARTESIAN COORDINATES (ANGSTROEM)
---------------------------------
  C      0.241565    1.343282   -0.606061
  C      1.360856    2.049262    0.214338
  C      2.017949    0.905461    0.957625
  O      2.507339    1.036245    2.272740
  C      1.585521    0.300973    3.070752
  O      1.095668   -0.773752    2.275635
  C      1.101278   -0.269862    0.959505
  C     -0.169270    0.087386    0.217476
  C      2.429548   -0.361846    0.234654
  H     -0.606087    2.004076   -0.803593
  H      0.633111    1.036344   -1.581263
  H      2.036663    2.630940   -0.419877
  H      0.930115    2.734479    0.953520
  H      2.105492   -0.103173    3.943337
  H      0.751870    0.951667    3.386563
  H     -0.937615    0.339739    0.957351
  H     -0.569818   -0.711001   -0.414531
  H      2.447616   -0.377675   -0.850865
  H      3.191394   -0.955250    0.724554

 Total Charge           Charge          ....    0
 Multiplicity           Mult            ....    1
 Number of Electrons    NEL             ....   68
 Basis Dimension        Dim             ....  339

ORBITAL ENERGIES
----------------

  NO   OCC          E(Eh)            E(eV)
   0   2.0000     -20.568270      -559.6911
   1   2.0000     -20.568249      -559.6905
   2   2.0000     -11.332580      -308.3752
   3   2.0000     -11.280105      -306.9473
   4   2.0000     -11.279315      -306.9258
   5   2.0000     -11.234406      -305.7037
   6   2.0000     -11.234195      -305.6980
   7   2.0000     -11.233420      -305.6769
   8   2.0000     -11.233255      -305.6724
   9   2.0000      -1.444286       -39.3010
  10   2.0000      -1.336102       -36.3572
  11   2.0000      -1.168476       -31.7959
  12   2.0000      -1.038712       -28.2648
  13   2.0000      -0.966268       -26.2935
  14   2.0000      -0.912726       -24.8365
  15   2.0000      -0.853171       -23.2160
  16   2.0000      -0.786945       -21.4139
  17   2.0000      -0.764202       -20.7950
  18   2.0000      -0.692044       -18.8315
  19   2.0000      -0.686486       -18.6802
  20   2.0000      -0.641850       -17.4656
  21   2.0000      -0.634001       -17.2520
  22   2.0000      -0.597422       -16.2567
  23   2.0000      -0.590528       -16.0691
  24   2.0000      -0.577324       -15.7098
  25   2.0000      -0.558382       -15.1943
  26   2.0000      -0.528421       -14.3791
  27   2.0000      -0.514240       -13.9932
  28   2.0000      -0.504914       -13.7394
  29   2.0000      -0.487408       -13.2630
  30   2.0000      -0.486694       -13.2436
  31   2.0000      -0.440498       -11.9866
  32   2.0000      -0.399532       -10.8718
  33   2.0000      -0.373545       -10.1647
  34   0.0000       0.132796         3.6136
  35   0.0000       0.156332         4.2540
  36   0.0000       0.175847         4.7850
  37   0.0000       0.178451         4.8559
  38   0.0000       0.190514         5.1842

MULLIKEN ATOMIC CHARGES
-----------------------
   0 C :   -0.245079
   1 C :   -0.259728
   2 C :    0.185213
   3 O :   -0.323130
   4 C :    0.097924
   5 O :   -0.323130
   6 C :    0.185213
   7 C :   -0.259728
   8 C :   -0.284631
   9 H :    0.130019
  10 H :    0.126603
  11 H :    0.127159
  12 H :    0.122825
  13 H :    0.126354
  14 H :    0.080757
  15 H :    0.122825
  16 H :    0.127159
  17 H :    0.127168
  18 H :    0.136204
Sum of atomic charges:   -0.0000000

LOEWDIN ATOMIC CHARGES
----------------------
   0 C :   -0.235440
   1 C :   -0.208749
   2 C :   -0.298943
   3 O :    0.195090
   4 C :   -0.337355
   5 O :    0.195090
   6 C :   -0.298943
   7 C :   -0.208749
   8 C :   -0.150602
   9 H :    0.134469
  10 H :    0.135243
  11 H :    0.137562
  12 H :    0.146841
  13 H :    0.118575
  14 H :    0.105326
  15 H :    0.146841
  16 H :    0.137562
  17 H :    0.138291
  18 H :    0.147889

  Mayer bond orders larger than 0.1
B(  0-C ,  1-C ) :   0.9105 B(  0-C ,  7-C ) :   0.9105 B(  0-C ,  9-H ) :   0.9240
B(  0-C , 10-H ) :   0.9348 B(  1-C ,  2-C ) :   0.9320 B(  1-C , 11-H ) :   0.9315
B(  1-C , 12-H ) :   0.9241 B(  2-C ,  3-O ) :   0.9837 B(  2-C ,  6-C ) :   0.8040
B(  2-C ,  8-C ) :   0.9010 B(  3-O ,  4-C ) :   0.9552 B(  4-C ,  5-O ) :   0.9552
B(  4-C , 13-H ) :   0.9284 B(  4-C , 14-H ) :   0.9166 B(  5-O ,  6-C ) :   0.9837
B(  6-C ,  7-C ) :   0.9320 B(  6-C ,  8-C ) :   0.9010 B(  7-C , 15-H ) :   0.9241
B(  7-C , 16-H ) :   0.9315 B(  8-C , 17-H ) :   0.9038 B(  8-C , 18-H ) :   0.9000

MP2 TOTAL ENERGY:     -422.309914175 Eh
FINAL SINGLE POINT ENERGY      -422.309914175453

DIPOLE MOMENT
-------------
                                X             Y             Z
Electronic contribution:      2.89203      -2.24855       4.39424
Nuclear contribution   :     -3.30894       2.57307      -4.79747
                        -----------------------------------------
Total Dipole Moment    :     -0.41691       0.32452      -0.40323
                        -----------------------------------------
Magnitude (a.u.)       :      0.66462
Magnitude (Debye)      :      1.68933

                             ****ORCA TERMINATED NORMALLY****
TOTAL RUN TIME: 0 days 0 hours 24 minutes 33 seconds 859 msec
