                         Program Version 3.0.3 - RELEASE   -
|  1> ! RI-MP2 RIJK def2-TZVP def2-TZVP/C def2-TZVP/JK TIGHTSCF
|  2> % maxcore 2000
|  3> % mp2 density relaxed end
|  4> *xyz 0 1
|  5>  C        0.7061019542     0.7972584451     0.4186310691
|  6>  C       -0.5160462065     0.2644099042    -0.2969287347
|  7>  O       -1.6363505497     0.6326557284    -0.0187873797
|  8>  C       -0.3570547712    -0.7708563362    -1.4091129382
|  9>  C        1.0644083138    -1.1717023544    -1.9316662433
| 10>  O        1.2391284175    -1.9610231524    -0.7055349091
| 11>  C       -0.1802673677    -2.2576546639    -0.9168472702
| 12>  C       -0.1460371055    -3.0126062851    -2.2577197208
| 13>  C        0.7120923951    -2.2665473739    -2.9556392768
| 14>  H        1.3402558558     1.3460685060    -0.2885716739
| 15>  H        0.3947421427     1.4688096370     1.2194208459
| 16>  H        1.3082983091    -0.0286064291     0.8047221607
| 17>  H       -1.1413986073    -0.6063614515    -2.1492219048
| 18>  H        1.8659593081    -0.4630956011    -2.1345040856
| 19>  H       -0.6995441684    -2.6701605368    -0.0536170474
| 20>  H       -0.6966875623    -3.9037643577    -2.5182604458
| 21>  H        1.0814651421    -2.3587805386    -3.9657413154
| 22> *
| 23>
| 24>                          ****END OF INPUT****

CARTESIAN COORDINATES (ANGSTROEM)
---------------------------------
  C      0.706102    0.797258    0.418631
  C     -0.516046    0.264410   -0.296929
  O     -1.636351    0.632656   -0.018787
  C     -0.357055   -0.770856   -1.409113
  C      1.064408   -1.171702   -1.931666
  O      1.239128   -1.961023   -0.705535
  C     -0.180267   -2.257655   -0.916847
  C     -0.146037   -3.012606   -2.257720
  C      0.712092   -2.266547   -2.955639
  H      1.340256    1.346069   -0.288572
  H      0.394742    1.468810    1.219421
  H      1.308298   -0.028606    0.804722
  H     -1.141399   -0.606361   -2.149222
  H      1.865959   -0.463096   -2.134504
  H     -0.699544   -2.670161   -0.053617
  H     -0.696688   -3.903764   -2.518260
  H      1.081465   -2.358781   -3.965741

 Total Charge           Charge          ....    0
 Multiplicity           Mult            ....    1
 Number of Electrons    NEL             ....   66
 Basis Dimension        Dim             ....  327

ORBITAL ENERGIES
----------------

  NO   OCC          E(Eh)            E(eV)
   0   2.0000     -20.563698      -559.5667
   1   2.0000     -20.544988      -559.0575
   2   2.0000     -11.332614      -308.3761
   3   2.0000     -11.314973      -307.8961
   4   2.0000     -11.314053      -307.8710
   5   2.0000     -11.259193      -306.3782
   6   2.0000     -11.249471      -306.1137
   7   2.0000     -11.247724      -306.0661
   8   2.0000     -11.229060      -305.5583
   9   2.0000      -1.408218       -38.3196
  10   2.0000      -1.387373       -37.7524
  11   2.0000      -1.112209       -30.2648
  12   2.0000      -1.032564       -28.0975
  13   2.0000      -0.976942       -26.5840
  14   2.0000      -0.955328       -25.9958
  15   2.0000      -0.821066       -22.3423
  16   2.0000      -0.758231       -20.6325
  17   2.0000      -0.742427       -20.2025
  18   2.0000      -0.715653       -19.4739
  19   2.0000      -0.679583       -18.4924
  20   2.0000      -0.637479       -17.3467
  21   2.0000      -0.615928       -16.7603
  22   2.0000      -0.601265       -16.3613
  23   2.0000      -0.584032       -15.8923
  24   2.0000      -0.571225       -15.5438
  25   2.0000      -0.555783       -15.1236
  26   2.0000      -0.522411       -14.2155
  27   2.0000      -0.512597       -13.9485
  28   2.0000      -0.500750       -13.6261
  29   2.0000      -0.465299       -12.6614
  30   2.0000      -0.443068       -12.0565
  31   2.0000      -0.416366       -11.3299
  32   2.0000      -0.363410        -9.8889
  33   0.0000       0.109909         2.9908
  34   0.0000       0.137383         3.7384
  35   0.0000       0.149972         4.0810
  36   0.0000       0.165583         4.5057
  37   0.0000       0.172623         4.6973

MULLIKEN ATOMIC CHARGES
-----------------------
   0 C :   -0.409259
   1 C :    0.148614
   2 O :   -0.282887
   3 C :   -0.033257
   4 C :    0.054795
   5 O :   -0.311068
   6 C :    0.030033
   7 C :   -0.196450
   8 C :   -0.188950
   9 H :    0.134511
  10 H :    0.149847
  11 H :    0.174832
  12 H :    0.136193
  13 H :    0.149426
  14 H :    0.149302
  15 H :    0.147421
  16 H :    0.146895
Sum of atomic charges:   -0.0000000

LOEWDIN ATOMIC CHARGES
----------------------
   0 C :   -0.279541
   1 C :   -0.328695
   2 O :    0.150019
   3 C :   -0.146428
   4 C :   -0.214593
   5 O :    0.154078
   6 C :   -0.203236
   7 C :   -0.122608
   8 C :   -0.123616
   9 H :    0.137428
  10 H :    0.132266
  11 H :    0.142834
  12 H :    0.157854
  13 H :    0.133842
  14 H :    0.137003
  15 H :    0.136900
  16 H :    0.136492

  Mayer bond orders larger than 0.1
B(  0-C ,  1-C ) :   0.9400 B(  0-C ,  9-H ) :   0.9059 B(  0-C , 10-H ) :   0.9314
B(  0-C , 11-H ) :   0.9126 B(  1-C ,  2-O ) :   1.9806 B(  1-C ,  3-C ) :   0.8791
B(  3-C ,  4-C ) :   0.8871 B(  3-C ,  6-C ) :   0.8845 B(  3-C , 12-H ) :   0.9109
B(  4-C ,  5-O ) :   0.8865 B(  4-C ,  8-C ) :   0.9455 B(  4-C , 13-H ) :   0.8980
B(  5-O ,  6-C ) :   0.8986 B(  6-C ,  7-C ) :   0.9517 B(  6-C , 14-H ) :   0.9060
B(  7-C ,  8-C ) :   1.7686 B(  7-C , 15-H ) :   0.9226 B(  8-C , 16-H ) :   0.9210

MP2 TOTAL ENERGY:     -421.075805842 Eh
FINAL SINGLE POINT ENERGY      -421.075805841888

DIPOLE MOMENT
-------------
                                X             Y             Z
Electronic contribution:     -1.99937      -1.33800      -0.27098
Nuclear contribution   :      2.47270       1.07893      -0.45944
                        -----------------------------------------
Total Dipole Moment    :      0.47333      -0.25907      -0.73042
                        -----------------------------------------
Magnitude (a.u.)       :      0.90811
Magnitude (Debye)      :      2.30824

                             ****ORCA TERMINATED NORMALLY****
TOTAL RUN TIME: 0 days 0 hours 19 minutes 5 seconds 971 msec
