                         Program Version 3.0.3 - RELEASE   -
|  1> ! RI-MP2 RIJK def2-TZVP def2-TZVP/C def2-TZVP/JK TIGHTSCF
|  2> % maxcore 2000
|  3> % mp2 density relaxed end
|  4> *xyz 0 1
|  5>  C       -0.0602374855     1.6422087704     0.1239524975
|  6>  C       -0.0078382199     0.1183797931    -0.0252232506
|  7>  C        0.7452388485    -0.5473365854     1.1321654349
|  8>  C        0.7717696023    -2.1025061876     1.1396688968
|  9>  C        1.4673697785    -2.6557043107    -0.1242406312
| 10>  C        1.5026573645    -2.5738235184     2.4307289970
| 11>  C        1.5440680015    -4.0858185043     2.6663478877
| 12>  C       -0.6148325401    -2.5993722981     1.1773410929
| 13>  N       -1.7031967556    -2.9888868789     1.2142489787
| 14>  H        0.9460447664     2.0752334211     0.1517689143
| 15>  H       -0.5973162688     2.1021461086    -0.7108388628
| 16>  H       -0.5708110378     1.9319382970     1.0488273871
| 17>  H       -1.0278272715    -0.2808455996    -0.0728609481
| 18>  H        0.4687825922    -0.1325951189    -0.9797344904
| 19>  H        1.7894158297    -0.2082336996     1.1366020151
| 20>  H        0.3069486190    -0.2116564335     2.0800467551
| 21>  H        2.4983959109    -2.2891500069    -0.1602220959
| 22>  H        1.4891240267    -3.7472949648    -0.1217636205
| 23>  H        0.9553246840    -2.3367795761    -1.0341180422
| 24>  H        2.5231558338    -2.1746078120     2.3828470539
| 25>  H        1.0192552194    -2.0894655047     3.2866961053
| 26>  H        0.5364100165    -4.5119730872     2.6844159489
| 27>  H        2.1195746315    -4.6089463222     1.8971380176
| 28>  H        2.0157939839    -4.3017919412     3.6294755489
| 29> *
| 30>
| 31>                          ****END OF INPUT****

CARTESIAN COORDINATES (ANGSTROEM)
---------------------------------
  C     -0.060237    1.642209    0.123952
  C     -0.007838    0.118380   -0.025223
  C      0.745239   -0.547337    1.132165
  C      0.771770   -2.102506    1.139669
  C      1.467370   -2.655704   -0.124241
  C      1.502657   -2.573824    2.430729
  C      1.544068   -4.085819    2.666348
  C     -0.614833   -2.599372    1.177341
  N     -1.703197   -2.988887    1.214249
  H      0.946045    2.075233    0.151769
  H     -0.597316    2.102146   -0.710839
  H     -0.570811    1.931938    1.048827
  H     -1.027827   -0.280846   -0.072861
  H      0.468783   -0.132595   -0.979734
  H      1.789416   -0.208234    1.136602
  H      0.306949   -0.211656    2.080047
  H      2.498396   -2.289150   -0.160222
  H      1.489124   -3.747295   -0.121764
  H      0.955325   -2.336780   -1.034118
  H      2.523156   -2.174608    2.382847
  H      1.019255   -2.089466    3.286696
  H      0.536410   -4.511973    2.684416
  H      2.119575   -4.608946    1.897138
  H      2.015794   -4.301792    3.629476

 Total Charge           Charge          ....    0
 Multiplicity           Mult            ....    1
 Number of Electrons    NEL             ....   70
 Basis Dimension        Dim             ....  369

ORBITAL ENERGIES
----------------

  NO   OCC          E(Eh)            E(eV)
   0   2.0000     -15.560546      -423.4240
   1   2.0000     -11.285793      -307.1020
   2   2.0000     -11.262593      -306.4707
   3   2.0000     -11.243822      -305.9599
   4   2.0000     -11.241207      -305.8888
   5   2.0000     -11.237235      -305.7807
   6   2.0000     -11.228510      -305.5433
   7   2.0000     -11.223323      -305.4022
   8   2.0000     -11.220027      -305.3124
   9   2.0000      -1.214309       -33.0430
  10   2.0000      -1.132608       -30.8198
  11   2.0000      -1.056533       -28.7497
  12   2.0000      -1.004575       -27.3359
  13   2.0000      -0.945700       -25.7338
  14   2.0000      -0.889722       -24.2106
  15   2.0000      -0.835842       -22.7444
  16   2.0000      -0.810969       -22.0676
  17   2.0000      -0.679224       -18.4826
  18   2.0000      -0.644878       -17.5480
  19   2.0000      -0.634703       -17.2712
  20   2.0000      -0.618483       -16.8298
  21   2.0000      -0.588044       -16.0015
  22   2.0000      -0.571730       -15.5576
  23   2.0000      -0.561569       -15.2811
  24   2.0000      -0.555529       -15.1167
  25   2.0000      -0.538494       -14.6532
  26   2.0000      -0.534528       -14.5452
  27   2.0000      -0.524673       -14.2771
  28   2.0000      -0.503762       -13.7081
  29   2.0000      -0.495999       -13.4968
  30   2.0000      -0.486107       -13.2276
  31   2.0000      -0.482740       -13.1360
  32   2.0000      -0.474049       -12.8995
  33   2.0000      -0.443079       -12.0568
  34   2.0000      -0.437697       -11.9103
  35   0.0000       0.123230         3.3533
  36   0.0000       0.143992         3.9182
  37   0.0000       0.154570         4.2061
  38   0.0000       0.163054         4.4369
  39   0.0000       0.174759         4.7554

MULLIKEN ATOMIC CHARGES
-----------------------
   0 C :   -0.390370
   1 C :   -0.223062
   2 C :   -0.269308
   3 C :    0.289992
   4 C :   -0.463001
   5 C :   -0.206368
   6 C :   -0.427004
   7 C :   -0.278925
   8 N :   -0.047920
   9 H :    0.121887
  10 H :    0.139071
  11 H :    0.128404
  12 H :    0.140028
  13 H :    0.110695
  14 H :    0.123449
  15 H :    0.125556
  16 H :    0.141601
  17 H :    0.154137
  18 H :    0.155396
  19 H :    0.122332
  20 H :    0.125560
  21 H :    0.156800
  22 H :    0.129566
  23 H :    0.141485
Sum of atomic charges:   -0.0000000

LOEWDIN ATOMIC CHARGES
----------------------
   0 C :   -0.317377
   1 C :   -0.288593
   2 C :   -0.212861
   3 C :   -0.290542
   4 C :   -0.243564
   5 C :   -0.234762
   6 C :   -0.310270
   7 C :   -0.158593
   8 N :    0.057691
   9 H :    0.120361
  10 H :    0.122650
  11 H :    0.121999
  12 H :    0.144659
  13 H :    0.135014
  14 H :    0.145357
  15 H :    0.148332
  16 H :    0.131489
  17 H :    0.131230
  18 H :    0.131046
  19 H :    0.143312
  20 H :    0.146081
  21 H :    0.130977
  22 H :    0.120836
  23 H :    0.125525

  Mayer bond orders larger than 0.1
B(  0-C ,  1-C ) :   0.9194 B(  0-C ,  9-H ) :   0.9375 B(  0-C , 10-H ) :   0.9430
B(  0-C , 11-H ) :   0.9411 B(  1-C ,  2-C ) :   0.9364 B(  1-C , 12-H ) :   0.9291
B(  1-C , 13-H ) :   0.9319 B(  2-C ,  3-C ) :   0.8616 B(  2-C , 14-H ) :   0.9259
B(  2-C , 15-H ) :   0.9200 B(  3-C ,  4-C ) :   0.8780 B(  3-C ,  5-C ) :   0.8690
B(  3-C ,  7-C ) :   0.8943 B(  4-C , 16-H ) :   0.9318 B(  4-C , 17-H ) :   0.9332
B(  4-C , 18-H ) :   0.9338 B(  5-C ,  6-C ) :   0.9236 B(  5-C , 19-H ) :   0.9278
B(  5-C , 20-H ) :   0.9236 B(  6-C , 21-H ) :   0.9330 B(  6-C , 22-H ) :   0.9391
B(  6-C , 23-H ) :   0.9385 B(  7-C ,  8-N ) :   2.8915

MP2 TOTAL ENERGY:     -367.787508961 Eh
FINAL SINGLE POINT ENERGY      -367.787508961401

DIPOLE MOMENT
-------------
                                X             Y             Z
Electronic contribution:     -5.97441      -4.29960       0.80918
Nuclear contribution   :      7.38795       4.83767      -0.85940
                        -----------------------------------------
Total Dipole Moment    :      1.41354       0.53807      -0.05022
                        -----------------------------------------
Magnitude (a.u.)       :      1.51332
Magnitude (Debye)      :      3.84655

                             ****ORCA TERMINATED NORMALLY****
TOTAL RUN TIME: 0 days 0 hours 21 minutes 7 seconds 112 msec
