                         Program Version 3.0.3 - RELEASE   -
|  1> ! RI-MP2 RIJK def2-TZVP def2-TZVP/C def2-TZVP/JK TIGHTSCF
|  2> % maxcore 2000
|  3> % mp2 density relaxed end
|  4> *xyz 0 1
|  5>  O       -0.2231164744     0.2061749487     0.5064721729
|  6>  C        0.0470046323     1.1292046712    -0.2120027422
|  7>  C        1.3714828661     1.8672718577    -0.1369970037
|  8>  O        1.3394387213     2.8940396157    -1.1307041732
|  9>  C        2.4218486006     3.6539428085    -1.2185884892
| 10>  N        3.4872318055     3.5159540194    -0.4637790535
| 11>  O        4.3268418422     4.5378959196    -0.9426790249
| 12>  C        3.6524864763     5.1474032615    -1.9162481619
| 13>  N        2.4743965859     4.6641382773    -2.1471408880
| 14>  H       -0.6476010831     1.5176037614    -0.9877694195
| 15>  H        1.5106969907     2.2970833977     0.8622815445
| 16>  H        2.2026511414     1.1753947034    -0.3190472785
| 17>  H        4.1419892850     5.9724278480    -2.4131178829
| 18> *
| 19>
| 20>                          ****END OF INPUT****

CARTESIAN COORDINATES (ANGSTROEM)
---------------------------------
  O     -0.223116    0.206175    0.506472
  C      0.047005    1.129205   -0.212003
  C      1.371483    1.867272   -0.136997
  O      1.339439    2.894040   -1.130704
  C      2.421849    3.653943   -1.218588
  N      3.487232    3.515954   -0.463779
  O      4.326842    4.537896   -0.942679
  C      3.652486    5.147403   -1.916248
  N      2.474397    4.664138   -2.147141
  H     -0.647601    1.517604   -0.987769
  H      1.510697    2.297083    0.862282
  H      2.202651    1.175395   -0.319047
  H      4.141989    5.972428   -2.413118

 Total Charge           Charge          ....    0
 Multiplicity           Mult            ....    1
 Number of Electrons    NEL             ....   66
 Basis Dimension        Dim             ....  303

ORBITAL ENERGIES
----------------

  NO   OCC          E(Eh)            E(eV)
   0   2.0000     -20.676486      -562.6358
   1   2.0000     -20.639192      -561.6210
   2   2.0000     -20.577136      -559.9323
   3   2.0000     -15.634374      -425.4329
   4   2.0000     -15.597708      -424.4352
   5   2.0000     -11.393393      -310.0300
   6   2.0000     -11.383305      -309.7555
   7   2.0000     -11.352880      -308.9276
   8   2.0000     -11.324415      -308.1530
   9   2.0000      -1.543179       -41.9920
  10   2.0000      -1.475113       -40.1399
  11   2.0000      -1.417299       -38.5667
  12   2.0000      -1.273774       -34.6612
  13   2.0000      -1.173671       -31.9372
  14   2.0000      -1.040503       -28.3135
  15   2.0000      -0.900033       -24.4911
  16   2.0000      -0.853504       -23.2250
  17   2.0000      -0.826902       -22.5012
  18   2.0000      -0.781567       -21.2675
  19   2.0000      -0.727715       -19.8021
  20   2.0000      -0.696697       -18.9581
  21   2.0000      -0.692036       -18.8312
  22   2.0000      -0.681822       -18.5533
  23   2.0000      -0.649773       -17.6812
  24   2.0000      -0.631159       -17.1747
  25   2.0000      -0.580270       -15.7899
  26   2.0000      -0.577641       -15.7184
  27   2.0000      -0.541199       -14.7268
  28   2.0000      -0.520541       -14.1647
  29   2.0000      -0.491798       -13.3825
  30   2.0000      -0.467167       -12.7123
  31   2.0000      -0.445260       -12.1161
  32   2.0000      -0.416006       -11.3201
  33   0.0000       0.105303         2.8654
  34   0.0000       0.111005         3.0206
  35   0.0000       0.144821         3.9408
  36   0.0000       0.156730         4.2648
  37   0.0000       0.178809         4.8656

MULLIKEN ATOMIC CHARGES
-----------------------
   0 O :   -0.251757
   1 C :    0.084353
   2 C :   -0.036201
   3 O :   -0.248556
   4 C :    0.295358
   5 N :   -0.182131
   6 O :   -0.096762
   7 C :    0.123473
   8 N :   -0.284163
   9 H :    0.111364
  10 H :    0.154222
  11 H :    0.154222
  12 H :    0.176578
Sum of atomic charges:   -0.0000000

LOEWDIN ATOMIC CHARGES
----------------------
   0 O :    0.148876
   1 C :   -0.285983
   2 C :   -0.274990
   3 O :    0.279309
   4 C :   -0.493895
   5 N :    0.016573
   6 O :    0.273129
   7 C :   -0.334080
   8 N :    0.119509
   9 H :    0.117911
  10 H :    0.146433
  11 H :    0.146434
  12 H :    0.140774

  Mayer bond orders larger than 0.1
B(  0-O ,  1-C ) :   1.9951 B(  1-C ,  2-C ) :   0.8722 B(  1-C ,  9-H ) :   0.9348
B(  2-C ,  3-O ) :   0.8233 B(  2-C , 10-H ) :   0.9039 B(  2-C , 11-H ) :   0.9039
B(  3-O ,  4-C ) :   1.1383 B(  4-C ,  5-N ) :   1.5393 B(  4-C ,  8-N ) :   1.2267
B(  5-N ,  6-O ) :   0.8520 B(  6-O ,  7-C ) :   1.1657 B(  7-C ,  8-N ) :   1.5949
B(  7-C , 12-H ) :   0.9164

MP2 TOTAL ENERGY:     -489.097085063 Eh
FINAL SINGLE POINT ENERGY      -489.097085062925

DIPOLE MOMENT
-------------
                                X             Y             Z
Electronic contribution:      1.55735       1.85942      -0.85375
Nuclear contribution   :     -1.08789      -1.13827       0.44375
                        -----------------------------------------
Total Dipole Moment    :      0.46946       0.72115      -0.41000
                        -----------------------------------------
Magnitude (a.u.)       :      0.95318
Magnitude (Debye)      :      2.42279

                             ****ORCA TERMINATED NORMALLY****
TOTAL RUN TIME: 0 days 0 hours 12 minutes 19 seconds 256 msec
