                         Program Version 3.0.3 - RELEASE   -
|  1> ! RI-MP2 RIJK def2-TZVP def2-TZVP/C def2-TZVP/JK TIGHTSCF
|  2> % maxcore 2000
|  3> % mp2 density relaxed end
|  4> *xyz 0 1
|  5>  C       -1.1278041649     1.4137161205    -0.8071255126
|  6>  O       -0.4078542589     0.2901243835    -0.3490143354
|  7>  C        0.3441532752    -0.3324699422    -1.3445026045
|  8>  C        0.9309338716    -1.7199131991    -0.9689109220
|  9>  C       -0.3632145754    -2.4456156309    -0.5766385001
| 10>  O       -1.2316926180    -2.0361788617    -1.6662017592
| 11>  C       -0.3623096491    -1.1972760166    -2.4345680842
| 12>  C        0.9512077007    -2.0288711808    -2.5087207450
| 13>  C        2.1248671430    -1.5315695620    -3.3439310815
| 14>  H       -0.4593333392     2.1780069874    -1.2342465411
| 15>  H       -1.8730035943     1.1384808603    -1.5665204896
| 16>  H       -1.6444183638     1.8409550828     0.0554045770
| 17>  H        1.0873452258     0.3549107684    -1.7640758630
| 18>  H        1.8005464259    -1.8342144939    -0.3225605776
| 19>  H       -0.2588871435    -3.5364472380    -0.5705534779
| 20>  H       -0.7800223528    -2.1057886848     0.3752811090
| 21>  H       -0.8901285056    -0.8059542255    -3.3035286446
| 22>  H        0.7484433204    -3.0776858983    -2.7458946700
| 23>  H        2.3911879307    -0.4896621073    -3.1503986515
| 24>  H        3.0154960482    -2.1382767456    -3.1468777124
| 25>  H        1.8991834441    -1.6206749163    -4.4123559539
| 26> *
| 27>
| 28>                          ****END OF INPUT****

CARTESIAN COORDINATES (ANGSTROEM)
---------------------------------
  C     -1.127804    1.413716   -0.807126
  O     -0.407854    0.290124   -0.349014
  C      0.344153   -0.332470   -1.344503
  C      0.930934   -1.719913   -0.968911
  C     -0.363215   -2.445616   -0.576639
  O     -1.231693   -2.036179   -1.666202
  C     -0.362310   -1.197276   -2.434568
  C      0.951208   -2.028871   -2.508721
  C      2.124867   -1.531570   -3.343931
  H     -0.459333    2.178007   -1.234247
  H     -1.873004    1.138481   -1.566520
  H     -1.644418    1.840955    0.055405
  H      1.087345    0.354911   -1.764076
  H      1.800546   -1.834214   -0.322561
  H     -0.258887   -3.536447   -0.570553
  H     -0.780022   -2.105789    0.375281
  H     -0.890129   -0.805954   -3.303529
  H      0.748443   -3.077686   -2.745895
  H      2.391188   -0.489662   -3.150399
  H      3.015496   -2.138277   -3.146878
  H      1.899183   -1.620675   -4.412356

 Total Charge           Charge          ....    0
 Multiplicity           Mult            ....    1
 Number of Electrons    NEL             ....   70
 Basis Dimension        Dim             ....  351

ORBITAL ENERGIES
----------------

  NO   OCC          E(Eh)            E(eV)
   0   2.0000     -20.555463      -559.3426
   1   2.0000     -20.544510      -559.0445
   2   2.0000     -11.280156      -306.9487
   3   2.0000     -11.279329      -306.9261
   4   2.0000     -11.270312      -306.6808
   5   2.0000     -11.266203      -306.5690
   6   2.0000     -11.236260      -305.7542
   7   2.0000     -11.234783      -305.7140
   8   2.0000     -11.223508      -305.4072
   9   2.0000      -1.393778       -37.9266
  10   2.0000      -1.361148       -37.0387
  11   2.0000      -1.125171       -30.6174
  12   2.0000      -0.994393       -27.0588
  13   2.0000      -0.965807       -26.2810
  14   2.0000      -0.930576       -25.3223
  15   2.0000      -0.842835       -22.9347
  16   2.0000      -0.790018       -21.4975
  17   2.0000      -0.753103       -20.4930
  18   2.0000      -0.708822       -19.2880
  19   2.0000      -0.680986       -18.5306
  20   2.0000      -0.650702       -17.7065
  21   2.0000      -0.632710       -17.2169
  22   2.0000      -0.601710       -16.3734
  23   2.0000      -0.580641       -15.8001
  24   2.0000      -0.573670       -15.6104
  25   2.0000      -0.553037       -15.0489
  26   2.0000      -0.536464       -14.5979
  27   2.0000      -0.524219       -14.2647
  28   2.0000      -0.502470       -13.6729
  29   2.0000      -0.491107       -13.3637
  30   2.0000      -0.483247       -13.1498
  31   2.0000      -0.460472       -12.5301
  32   2.0000      -0.435708       -11.8562
  33   2.0000      -0.420308       -11.4372
  34   2.0000      -0.379893       -10.3374
  35   0.0000       0.136420         3.7122
  36   0.0000       0.151756         4.1295
  37   0.0000       0.170187         4.6310
  38   0.0000       0.174918         4.7598
  39   0.0000       0.189260         5.1500

MULLIKEN ATOMIC CHARGES
-----------------------
   0 C :   -0.218545
   1 O :   -0.316289
   2 C :   -0.024408
   3 C :   -0.031771
   4 C :   -0.070307
   5 O :   -0.337063
   6 C :    0.083151
   7 C :   -0.142207
   8 C :   -0.418247
   9 H :    0.107211
  10 H :    0.122582
  11 H :    0.141319
  12 H :    0.095751
  13 H :    0.135456
  14 H :    0.108710
  15 H :    0.117039
  16 H :    0.132511
  17 H :    0.114582
  18 H :    0.126749
  19 H :    0.136023
  20 H :    0.137755
Sum of atomic charges:   -0.0000000

LOEWDIN ATOMIC CHARGES
----------------------
   0 C :   -0.348231
   1 O :    0.172884
   2 C :   -0.291989
   3 C :   -0.179852
   4 C :   -0.255911
   5 O :    0.153165
   6 C :   -0.251394
   7 C :   -0.208720
   8 C :   -0.293376
   9 H :    0.101569
  10 H :    0.106200
  11 H :    0.114197
  12 H :    0.137633
  13 H :    0.138538
  14 H :    0.121344
  15 H :    0.126443
  16 H :    0.130222
  17 H :    0.151412
  18 H :    0.121512
  19 H :    0.127187
  20 H :    0.127166

  Mayer bond orders larger than 0.1
B(  0-C ,  1-O ) :   0.9070 B(  0-C ,  9-H ) :   0.9337 B(  0-C , 10-H ) :   0.9332
B(  0-C , 11-H ) :   0.9418 B(  1-O ,  2-C ) :   0.9781 B(  2-C ,  3-C ) :   0.8755
B(  2-C ,  6-C ) :   0.9287 B(  2-C , 12-H ) :   0.9493 B(  3-C ,  4-C ) :   0.9429
B(  3-C ,  7-C ) :   0.8701 B(  3-C , 13-H ) :   0.9002 B(  4-C ,  5-O ) :   0.9203
B(  4-C , 14-H ) :   0.9245 B(  4-C , 15-H ) :   0.9221 B(  5-O ,  6-C ) :   0.9298
B(  6-C ,  7-C ) :   0.9051 B(  6-C , 16-H ) :   0.9030 B(  7-C ,  8-C ) :   0.9110
B(  7-C , 17-H ) :   0.9199 B(  8-C , 18-H ) :   0.9320 B(  8-C , 19-H ) :   0.9362
B(  8-C , 20-H ) :   0.9403

MP2 TOTAL ENERGY:     -423.488354490 Eh
FINAL SINGLE POINT ENERGY      -423.488354489716

DIPOLE MOMENT
-------------
                                X             Y             Z
Electronic contribution:     -3.29217      -1.82358       2.67650
Nuclear contribution   :      3.92165       2.15357      -3.01895
                        -----------------------------------------
Total Dipole Moment    :      0.62948       0.32998      -0.34244
                        -----------------------------------------
Magnitude (a.u.)       :      0.78893
Magnitude (Debye)      :      2.00529

                             ****ORCA TERMINATED NORMALLY****
TOTAL RUN TIME: 0 days 0 hours 29 minutes 57 seconds 366 msec
