                         Program Version 3.0.3 - RELEASE   -
|  1> ! RI-MP2 RIJK def2-TZVP def2-TZVP/C def2-TZVP/JK TIGHTSCF
|  2> % maxcore 2000
|  3> % mp2 density relaxed end
|  4> *xyz 0 1
|  5>  C        0.0332704246     1.2349060652    -0.1827588657
|  6>  O        0.0208773072    -0.1718774118    -0.0582346376
|  7>  C        0.6695963782    -0.6667260846     1.0346293864
|  8>  C        1.3718652960    -0.0400756141     2.0429785107
|  9>  N        1.8643781100    -1.0238380511     2.8727764726
| 10>  C        2.4893382863    -0.7850945739     4.1520577031
| 11>  C        1.4624864646    -2.2609876032     2.4127756252
| 12>  C        0.7278978860    -2.0674612037     1.2678598364
| 13>  O        0.1741699171    -3.0298468409     0.4761950183
| 14>  H        1.0603409520     1.6163521963    -0.2685605954
| 15>  H       -0.5212395512     1.4804504477    -1.0902213189
| 16>  H       -0.4496144425     1.7136787494     0.6805363205
| 17>  H        1.5625495341     1.0007737921     2.2410481514
| 18>  H        1.7577964237    -0.6960544542     4.9661099263
| 19>  H        3.1700728318    -1.6078736994     4.3868801096
| 20>  H        3.0735481082     0.1380738613     4.1079321936
| 21>  H        1.7327433139    -3.1680694548     2.9267236568
| 22>  H       -0.2586796101    -2.5747033402    -0.2549460331
| 23> *
| 24>
| 25>                          ****END OF INPUT****

CARTESIAN COORDINATES (ANGSTROEM)
---------------------------------
  C      0.033270    1.234906   -0.182759
  O      0.020877   -0.171877   -0.058235
  C      0.669596   -0.666726    1.034629
  C      1.371865   -0.040076    2.042979
  N      1.864378   -1.023838    2.872776
  C      2.489338   -0.785095    4.152058
  C      1.462486   -2.260988    2.412776
  C      0.727898   -2.067461    1.267860
  O      0.174170   -3.029847    0.476195
  H      1.060341    1.616352   -0.268561
  H     -0.521240    1.480450   -1.090221
  H     -0.449614    1.713679    0.680536
  H      1.562550    1.000774    2.241048
  H      1.757796   -0.696054    4.966110
  H      3.170073   -1.607874    4.386880
  H      3.073548    0.138074    4.107932
  H      1.732743   -3.168069    2.926724
  H     -0.258680   -2.574703   -0.254946

 Total Charge           Charge          ....    0
 Multiplicity           Mult            ....    1
 Number of Electrons    NEL             ....   68
 Basis Dimension        Dim             ....  333

ORBITAL ENERGIES
----------------

  NO   OCC          E(Eh)            E(eV)
   0   2.0000     -20.581923      -560.0626
   1   2.0000     -20.568115      -559.6869
   2   2.0000     -15.596497      -424.4023
   3   2.0000     -11.283114      -307.0291
   4   2.0000     -11.271080      -306.7017
   5   2.0000     -11.269665      -306.6632
   6   2.0000     -11.265908      -306.5609
   7   2.0000     -11.246353      -306.0288
   8   2.0000     -11.238867      -305.8251
   9   2.0000      -1.409711       -38.3602
  10   2.0000      -1.378301       -37.5055
  11   2.0000      -1.290924       -35.1278
  12   2.0000      -1.068435       -29.0736
  13   2.0000      -0.978285       -26.6205
  14   2.0000      -0.960804       -26.1448
  15   2.0000      -0.904236       -24.6055
  16   2.0000      -0.782830       -21.3019
  17   2.0000      -0.770898       -20.9772
  18   2.0000      -0.728216       -19.8158
  19   2.0000      -0.672517       -18.3001
  20   2.0000      -0.658384       -17.9155
  21   2.0000      -0.641714       -17.4619
  22   2.0000      -0.628319       -17.0974
  23   2.0000      -0.614198       -16.7132
  24   2.0000      -0.598507       -16.2862
  25   2.0000      -0.583247       -15.8710
  26   2.0000      -0.570814       -15.5326
  27   2.0000      -0.546542       -14.8722
  28   2.0000      -0.516102       -14.0439
  29   2.0000      -0.509141       -13.8544
  30   2.0000      -0.495283       -13.4773
  31   2.0000      -0.480527       -13.0758
  32   2.0000      -0.300455        -8.1758
  33   2.0000      -0.288501        -7.8505
  34   0.0000       0.134264         3.6535
  35   0.0000       0.151442         4.1209
  36   0.0000       0.158775         4.3205
  37   0.0000       0.163745         4.4557
  38   0.0000       0.186013         5.0617

MULLIKEN ATOMIC CHARGES
-----------------------
   0 C :   -0.228891
   1 O :   -0.335610
   2 C :    0.206598
   3 C :   -0.249598
   4 N :   -0.005545
   5 C :   -0.315187
   6 C :   -0.178695
   7 C :    0.088875
   8 O :   -0.450204
   9 H :    0.127127
  10 H :    0.146512
  11 H :    0.126658
  12 H :    0.150537
  13 H :    0.143077
  14 H :    0.147756
  15 H :    0.143941
  16 H :    0.143349
  17 H :    0.339301
Sum of atomic charges:   -0.0000000

LOEWDIN ATOMIC CHARGES
----------------------
   0 C :   -0.331325
   1 O :    0.203357
   2 C :   -0.292056
   3 C :   -0.235987
   4 N :    0.214486
   5 C :   -0.279354
   6 C :   -0.208495
   7 C :   -0.293804
   8 O :    0.054165
   9 H :    0.108508
  10 H :    0.115157
  11 H :    0.108350
  12 H :    0.134961
  13 H :    0.118725
  14 H :    0.125878
  15 H :    0.124896
  16 H :    0.136561
  17 H :    0.195977

  Mayer bond orders larger than 0.1
B(  0-C ,  1-O ) :   0.8906 B(  0-C ,  9-H ) :   0.9347 B(  0-C , 10-H ) :   0.9391
B(  0-C , 11-H ) :   0.9356 B(  1-O ,  2-C ) :   1.0097 B(  2-C ,  3-C ) :   1.3631
B(  2-C ,  7-C ) :   1.1877 B(  3-C ,  4-N ) :   1.1212 B(  3-C , 12-H ) :   0.9024
B(  4-N ,  5-C ) :   0.8747 B(  4-N ,  6-C ) :   1.1132 B(  5-C , 13-H ) :   0.9224
B(  5-C , 14-H ) :   0.9344 B(  5-C , 15-H ) :   0.9346 B(  6-C ,  7-C ) :   1.4931
B(  6-C , 16-H ) :   0.9087 B(  7-C ,  8-O ) :   1.1188 B(  8-O , 17-H ) :   0.8277

MP2 TOTAL ENERGY:     -438.368554644 Eh
FINAL SINGLE POINT ENERGY      -438.368554644263

DIPOLE MOMENT
-------------
                                X             Y             Z
Electronic contribution:     -2.01972      -5.09922      -3.22894
Nuclear contribution   :      2.34508       6.16537       3.71230
                        -----------------------------------------
Total Dipole Moment    :      0.32536       1.06615       0.48336
                        -----------------------------------------
Magnitude (a.u.)       :      1.21498
Magnitude (Debye)      :      3.08823

                             ****ORCA TERMINATED NORMALLY****
TOTAL RUN TIME: 0 days 0 hours 15 minutes 28 seconds 180 msec
