                         Program Version 3.0.3 - RELEASE   -
|  1> ! RI-MP2 RIJK def2-TZVP def2-TZVP/C def2-TZVP/JK TIGHTSCF
|  2> % maxcore 2000
|  3> % mp2 density relaxed end
|  4> *xyz 0 1
|  5>  C       -0.0182836720     1.5389107070    -0.0210816131
|  6>  C       -0.0124553945     0.0429540651     0.0031668012
|  7>  C       -0.0525910601    -0.8223060355    -1.0700195271
|  8>  N       -0.0281751739    -2.0847390171    -0.5653076904
|  9>  N        0.0251972439    -2.1117299382     0.7696218800
| 10>  C        0.0353472395    -0.8241043020     1.1280584632
| 11>  C        0.0909156093    -0.4252007669     2.5583125287
| 12>  N        0.1315580624    -1.4655099441     3.4339152014
| 13>  O        0.0992814083     0.7465797373     2.9020456014
| 14>  H        0.8740938962     1.9445140453     0.4631733945
| 15>  H       -0.0601153844     1.9117371588    -1.0486495209
| 16>  H       -0.8722262708     1.9387406937     0.5323258660
| 17>  H       -0.0957621902    -0.6383821963    -2.1321896011
| 18>  H       -0.0456291805    -2.9530631920    -1.0734905696
| 19>  H        0.1178740882    -2.4146943521     3.1017898699
| 20>  H        0.1654171686    -1.2659533629     4.4185141460
| 21> *
| 22>
| 23>                          ****END OF INPUT****

CARTESIAN COORDINATES (ANGSTROEM)
---------------------------------
  C     -0.018284    1.538911   -0.021082
  C     -0.012455    0.042954    0.003167
  C     -0.052591   -0.822306   -1.070020
  N     -0.028175   -2.084739   -0.565308
  N      0.025197   -2.111730    0.769622
  C      0.035347   -0.824104    1.128058
  C      0.090916   -0.425201    2.558313
  N      0.131558   -1.465510    3.433915
  O      0.099281    0.746580    2.902046
  H      0.874094    1.944514    0.463173
  H     -0.060115    1.911737   -1.048650
  H     -0.872226    1.938741    0.532326
  H     -0.095762   -0.638382   -2.132190
  H     -0.045629   -2.953063   -1.073491
  H      0.117874   -2.414694    3.101790
  H      0.165417   -1.265953    4.418514

 Total Charge           Charge          ....    0
 Multiplicity           Mult            ....    1
 Number of Electrons    NEL             ....   66
 Basis Dimension        Dim             ....  321

ORBITAL ENERGIES
----------------

  NO   OCC          E(Eh)            E(eV)
   0   2.0000     -20.512147      -558.1639
   1   2.0000     -15.653696      -425.9587
   2   2.0000     -15.608439      -424.7272
   3   2.0000     -15.571943      -423.7341
   4   2.0000     -11.350450      -308.8614
   5   2.0000     -11.279672      -306.9355
   6   2.0000     -11.264801      -306.5308
   7   2.0000     -11.238907      -305.8262
   8   2.0000     -11.218427      -305.2689
   9   2.0000      -1.394894       -37.9570
  10   2.0000      -1.372585       -37.3499
  11   2.0000      -1.205815       -32.8119
  12   2.0000      -1.112226       -30.2652
  13   2.0000      -1.084438       -29.5091
  14   2.0000      -0.951653       -25.8958
  15   2.0000      -0.892077       -24.2746
  16   2.0000      -0.806407       -21.9434
  17   2.0000      -0.764351       -20.7990
  18   2.0000      -0.742655       -20.2087
  19   2.0000      -0.702875       -19.1262
  20   2.0000      -0.667595       -18.1662
  21   2.0000      -0.633392       -17.2355
  22   2.0000      -0.607322       -16.5261
  23   2.0000      -0.583191       -15.8694
  24   2.0000      -0.564482       -15.3603
  25   2.0000      -0.562025       -15.2935
  26   2.0000      -0.553821       -15.0702
  27   2.0000      -0.533368       -14.5137
  28   2.0000      -0.477792       -13.0014
  29   2.0000      -0.426502       -11.6057
  30   2.0000      -0.407624       -11.0920
  31   2.0000      -0.371622       -10.1123
  32   2.0000      -0.345353        -9.3975
  33   0.0000       0.116812         3.1786
  34   0.0000       0.125939         3.4270
  35   0.0000       0.150302         4.0899
  36   0.0000       0.158371         4.3095
  37   0.0000       0.170363         4.6358

MULLIKEN ATOMIC CHARGES
-----------------------
   0 C :   -0.346306
   1 C :   -0.050999
   2 C :   -0.089159
   3 N :   -0.109931
   4 N :   -0.244015
   5 C :    0.098789
   6 C :    0.209104
   7 N :   -0.464989
   8 O :   -0.364818
   9 H :    0.150511
  10 H :    0.123053
  11 H :    0.150520
  12 H :    0.153347
  13 H :    0.258979
  14 H :    0.272405
  15 H :    0.253508
Sum of atomic charges:    0.0000000

LOEWDIN ATOMIC CHARGES
----------------------
   0 C :   -0.264519
   1 C :   -0.172879
   2 C :   -0.207603
   3 N :    0.134455
   4 N :    0.036195
   5 C :   -0.226339
   6 C :   -0.452394
   7 N :   -0.004735
   8 O :    0.080786
   9 H :    0.138052
  10 H :    0.126045
  11 H :    0.138052
  12 H :    0.139447
  13 H :    0.189672
  14 H :    0.174140
  15 H :    0.171626

  Mayer bond orders larger than 0.1
B(  0-C ,  1-C ) :   0.9079 B(  0-C ,  9-H ) :   0.9278 B(  0-C , 10-H ) :   0.9363
B(  0-C , 11-H ) :   0.9278 B(  1-C ,  2-C ) :   1.4346 B(  1-C ,  5-C ) :   1.2658
B(  2-C ,  3-N ) :   1.1915 B(  2-C ,  4-N ) :   0.1071 B(  2-C , 12-H ) :   0.9018
B(  3-N ,  4-N ) :   1.1173 B(  3-N , 13-H ) :   0.8734 B(  4-N ,  5-C ) :   1.4509
B(  5-C ,  6-C ) :   0.8986 B(  6-C ,  7-N ) :   1.2254 B(  6-C ,  8-O ) :   1.9698
B(  7-N , 14-H ) :   0.8558 B(  7-N , 15-H ) :   0.8621

MP2 TOTAL ENERGY:     -433.414464490 Eh
FINAL SINGLE POINT ENERGY      -433.414464489603

DIPOLE MOMENT
-------------
                                X             Y             Z
Electronic contribution:      0.08445      -3.72405       1.80672
Nuclear contribution   :     -0.12972       2.53504      -2.94704
                        -----------------------------------------
Total Dipole Moment    :     -0.04526      -1.18901      -1.14032
                        -----------------------------------------
Magnitude (a.u.)       :      1.64807
Magnitude (Debye)      :      4.18906

                             ****ORCA TERMINATED NORMALLY****
TOTAL RUN TIME: 0 days 0 hours 15 minutes 9 seconds 282 msec
