                         Program Version 3.0.3 - RELEASE   -
|  1> ! RI-MP2 RIJK def2-TZVP def2-TZVP/C def2-TZVP/JK TIGHTSCF
|  2> % maxcore 2000
|  3> % mp2 density relaxed end
|  4> *xyz 0 1
|  5>  C       -0.0068320446     1.4821791756    -0.4102372581
|  6>  C        1.2479332515     0.7066896160    -0.0306939635
|  7>  C        2.0578464062     0.9910982576     1.2422608242
|  8>  C        1.7853856486     0.0769950637     2.4629230146
|  9>  C        0.7265062934     0.5851271004     3.4683315269
| 10>  C       -0.5222522899     1.2577859745     2.8789401393
| 11>  C       -1.4052147603     0.3631697168     1.9993251099
| 12>  O       -0.7074026069    -0.4876226511     1.1065155259
| 13>  C       -0.1050257404     0.0272867980    -0.0435893188
| 14>  H       -0.3601921498     2.2265971036     0.2917392366
| 15>  H       -0.1652597869     1.7579755493    -1.4476748238
| 16>  H        1.8723906499     0.4294476624    -0.8754601542
| 17>  H        3.1112534601     0.8723767387     0.9687276253
| 18>  H        1.9591394375     2.0438527842     1.5357854645
| 19>  H        1.5115722337    -0.9173503491     2.1045880427
| 20>  H        2.7241780085    -0.0409925390     3.0169837864
| 21>  H        0.4239512010    -0.2508230100     4.1120147100
| 22>  H        1.2011739210     1.3193790541     4.1318471269
| 23>  H       -1.1533418342     1.6229056851     3.6997894040
| 24>  H       -0.2168349223     2.1537536926     2.3291571127
| 25>  H       -1.9666982726    -0.3284558122     2.6376149791
| 26>  H       -2.1376201899     0.9763133159     1.4533727159
| 27>  H       -0.2768190936    -0.6614391372    -0.8671150165
| 28> *
| 29>
| 30>                          ****END OF INPUT****

CARTESIAN COORDINATES (ANGSTROEM)
---------------------------------
  C     -0.006832    1.482179   -0.410237
  C      1.247933    0.706690   -0.030694
  C      2.057846    0.991098    1.242261
  C      1.785386    0.076995    2.462923
  C      0.726506    0.585127    3.468332
  C     -0.522252    1.257786    2.878940
  C     -1.405215    0.363170    1.999325
  O     -0.707403   -0.487623    1.106516
  C     -0.105026    0.027287   -0.043589
  H     -0.360192    2.226597    0.291739
  H     -0.165260    1.757976   -1.447675
  H      1.872391    0.429448   -0.875460
  H      3.111253    0.872377    0.968728
  H      1.959139    2.043853    1.535785
  H      1.511572   -0.917350    2.104588
  H      2.724178   -0.040993    3.016984
  H      0.423951   -0.250823    4.112015
  H      1.201174    1.319379    4.131847
  H     -1.153342    1.622906    3.699789
  H     -0.216835    2.153754    2.329157
  H     -1.966698   -0.328456    2.637615
  H     -2.137620    0.976313    1.453373
  H     -0.276819   -0.661439   -0.867115

 Total Charge           Charge          ....    0
 Multiplicity           Mult            ....    1
 Number of Electrons    NEL             ....   70
 Basis Dimension        Dim             ....  363

ORBITAL ENERGIES
----------------

  NO   OCC          E(Eh)            E(eV)
   0   2.0000     -20.549565      -559.1821
   1   2.0000     -11.276719      -306.8551
   2   2.0000     -11.271414      -306.7108
   3   2.0000     -11.224051      -305.4220
   4   2.0000     -11.221775      -305.3600
   5   2.0000     -11.219964      -305.3108
   6   2.0000     -11.218280      -305.2649
   7   2.0000     -11.215834      -305.1984
   8   2.0000     -11.209555      -305.0275
   9   2.0000      -1.372412       -37.3452
  10   2.0000      -1.130976       -30.7754
  11   2.0000      -1.072779       -29.1918
  12   2.0000      -1.000947       -27.2372
  13   2.0000      -0.939624       -25.5685
  14   2.0000      -0.858901       -23.3719
  15   2.0000      -0.802767       -21.8444
  16   2.0000      -0.794557       -21.6210
  17   2.0000      -0.731451       -19.9038
  18   2.0000      -0.688161       -18.7258
  19   2.0000      -0.652868       -17.7654
  20   2.0000      -0.641813       -17.4646
  21   2.0000      -0.611282       -16.6338
  22   2.0000      -0.601759       -16.3747
  23   2.0000      -0.575574       -15.6622
  24   2.0000      -0.552933       -15.0461
  25   2.0000      -0.546243       -14.8640
  26   2.0000      -0.521642       -14.1946
  27   2.0000      -0.507221       -13.8022
  28   2.0000      -0.484371       -13.1804
  29   2.0000      -0.472919       -12.8688
  30   2.0000      -0.462421       -12.5831
  31   2.0000      -0.454260       -12.3610
  32   2.0000      -0.434071       -11.8117
  33   2.0000      -0.396691       -10.7945
  34   2.0000      -0.366444        -9.9715
  35   0.0000       0.138958         3.7812
  36   0.0000       0.151588         4.1249
  37   0.0000       0.161503         4.3947
  38   0.0000       0.166506         4.5309
  39   0.0000       0.190609         5.1867

MULLIKEN ATOMIC CHARGES
-----------------------
   0 C :   -0.321089
   1 C :   -0.107787
   2 C :   -0.248414
   3 C :   -0.195134
   4 C :   -0.246135
   5 C :   -0.220944
   6 C :   -0.087222
   7 O :   -0.311207
   8 C :    0.062007
   9 H :    0.135321
  10 H :    0.130354
  11 H :    0.115161
  12 H :    0.128084
  13 H :    0.122362
  14 H :    0.130555
  15 H :    0.113822
  16 H :    0.110976
  17 H :    0.116028
  18 H :    0.122314
  19 H :    0.105755
  20 H :    0.116837
  21 H :    0.114383
  22 H :    0.113974
Sum of atomic charges:    0.0000000

LOEWDIN ATOMIC CHARGES
----------------------
   0 C :   -0.221843
   1 C :   -0.208817
   2 C :   -0.245331
   3 C :   -0.265480
   4 C :   -0.269443
   5 C :   -0.282939
   6 C :   -0.319690
   7 O :    0.192253
   8 C :   -0.291896
   9 H :    0.133900
  10 H :    0.130670
  11 H :    0.147089
  12 H :    0.142935
  13 H :    0.138626
  14 H :    0.142303
  15 H :    0.134052
  16 H :    0.138685
  17 H :    0.137770
  18 H :    0.142582
  19 H :    0.130564
  20 H :    0.131432
  21 H :    0.123431
  22 H :    0.139147

  Mayer bond orders larger than 0.1
B(  0-C ,  1-C ) :   0.8711 B(  0-C ,  8-C ) :   0.8720 B(  0-C ,  9-H ) :   0.9247
B(  0-C , 10-H ) :   0.9241 B(  1-C ,  2-C ) :   0.9006 B(  1-C ,  8-C ) :   0.8616
B(  1-C , 11-H ) :   0.9279 B(  2-C ,  3-C ) :   0.8980 B(  2-C , 12-H ) :   0.9331
B(  2-C , 13-H ) :   0.9414 B(  3-C ,  4-C ) :   0.9381 B(  3-C , 14-H ) :   0.9313
B(  3-C , 15-H ) :   0.9333 B(  4-C ,  5-C ) :   0.9102 B(  4-C , 16-H ) :   0.9330
B(  4-C , 17-H ) :   0.9328 B(  5-C ,  6-C ) :   0.9265 B(  5-C , 18-H ) :   0.9271
B(  5-C , 19-H ) :   0.9364 B(  6-C ,  7-O ) :   0.9149 B(  6-C , 20-H ) :   0.9300
B(  6-C , 21-H ) :   0.9418 B(  7-O ,  8-C ) :   0.9528 B(  8-C , 22-H ) :   0.9522

MP2 TOTAL ENERGY:     -387.588653272 Eh
FINAL SINGLE POINT ENERGY      -387.588653271939

DIPOLE MOMENT
-------------
                                X             Y             Z
Electronic contribution:     -1.85931      -2.83867      -2.90959
Nuclear contribution   :      1.87812       3.26882       2.93411
                        -----------------------------------------
Total Dipole Moment    :      0.01881       0.43015       0.02452
                        -----------------------------------------
Magnitude (a.u.)       :      0.43126
Magnitude (Debye)      :      1.09619

                             ****ORCA TERMINATED NORMALLY****
TOTAL RUN TIME: 0 days 0 hours 22 minutes 1 seconds 793 msec
