                         Program Version 3.0.3 - RELEASE   -
|  1> ! RI-MP2 RIJK def2-TZVP def2-TZVP/C def2-TZVP/JK TIGHTSCF
|  2> % maxcore 2000
|  3> % mp2 density relaxed end
|  4> *xyz 0 1
|  5>  C       -0.1367606124     1.4126410839     0.0896320770
|  6>  O       -0.0380012769    -0.0063533116     0.0633781770
|  7>  C       -1.2073345085    -0.6709936015     0.0321832833
|  8>  N       -2.3848996972    -0.0632844370     0.0164562170
|  9>  N       -3.2858508242    -1.0863835458    -0.0348354900
| 10>  C       -4.6934197368    -0.7751239363     0.0385828326
| 11>  C       -2.6855288085    -2.3069896293    -0.0330513567
| 12>  C       -3.4454379651    -3.5931652492    -0.0674692262
| 13>  C       -1.3236958552    -2.0777425941     0.0033687769
| 14>  H        0.8884515622     1.7855038356     0.1146195957
| 15>  H       -0.6534797396     1.7885144247    -0.8000771682
| 16>  H       -0.6838948397     1.7536334035     0.9752541374
| 17>  H       -5.2749961752    -1.5708504089    -0.4314679598
| 18>  H       -5.0314213862    -0.6554570455     1.0754620723
| 19>  H       -4.8694912589     0.1599698328    -0.4954440576
| 20>  H       -4.0789995313    -3.6732652245    -0.9585675020
| 21>  H       -2.7471105038    -4.4322991407    -0.0813573257
| 22>  H       -4.0942496223    -3.7132152866     0.8078400411
| 23>  H       -0.5323342003    -2.8083490394    -0.0038647540
| 24> *
| 25>
| 26>                          ****END OF INPUT****

CARTESIAN COORDINATES (ANGSTROEM)
---------------------------------
  C     -0.136761    1.412641    0.089632
  O     -0.038001   -0.006353    0.063378
  C     -1.207335   -0.670994    0.032183
  N     -2.384900   -0.063284    0.016456
  N     -3.285851   -1.086384   -0.034835
  C     -4.693420   -0.775124    0.038583
  C     -2.685529   -2.306990   -0.033051
  C     -3.445438   -3.593165   -0.067469
  C     -1.323696   -2.077743    0.003369
  H      0.888452    1.785504    0.114620
  H     -0.653480    1.788514   -0.800077
  H     -0.683895    1.753633    0.975254
  H     -5.274996   -1.570850   -0.431468
  H     -5.031421   -0.655457    1.075462
  H     -4.869491    0.159970   -0.495444
  H     -4.079000   -3.673265   -0.958568
  H     -2.747111   -4.432299   -0.081357
  H     -4.094250   -3.713215    0.807840
  H     -0.532334   -2.808349   -0.003865

 Total Charge           Charge          ....    0
 Multiplicity           Mult            ....    1
 Number of Electrons    NEL             ....   68
 Basis Dimension        Dim             ....  339

ORBITAL ENERGIES
----------------

  NO   OCC          E(Eh)            E(eV)
   0   2.0000     -20.575246      -559.8809
   1   2.0000     -15.620389      -425.0524
   2   2.0000     -15.558644      -423.3722
   3   2.0000     -11.303291      -307.5782
   4   2.0000     -11.278914      -306.9149
   5   2.0000     -11.267447      -306.6028
   6   2.0000     -11.267030      -306.5915
   7   2.0000     -11.243030      -305.9384
   8   2.0000     -11.203148      -304.8531
   9   2.0000      -1.412803       -38.4443
  10   2.0000      -1.352373       -36.7999
  11   2.0000      -1.112900       -30.2835
  12   2.0000      -1.074591       -29.2411
  13   2.0000      -0.972002       -26.4495
  14   2.0000      -0.952407       -25.9163
  15   2.0000      -0.907792       -24.7023
  16   2.0000      -0.791057       -21.5257
  17   2.0000      -0.748324       -20.3629
  18   2.0000      -0.698204       -18.9991
  19   2.0000      -0.661752       -18.0072
  20   2.0000      -0.642199       -17.4751
  21   2.0000      -0.632184       -17.2026
  22   2.0000      -0.611723       -16.6458
  23   2.0000      -0.595987       -16.2176
  24   2.0000      -0.581020       -15.8104
  25   2.0000      -0.568667       -15.4742
  26   2.0000      -0.549408       -14.9501
  27   2.0000      -0.535719       -14.5776
  28   2.0000      -0.527916       -14.3653
  29   2.0000      -0.505988       -13.7686
  30   2.0000      -0.475876       -12.9492
  31   2.0000      -0.444780       -12.1031
  32   2.0000      -0.334147        -9.0926
  33   2.0000      -0.319938        -8.7059
  34   0.0000       0.128384         3.4935
  35   0.0000       0.158822         4.3218
  36   0.0000       0.165857         4.5132
  37   0.0000       0.172566         4.6958
  38   0.0000       0.191727         5.2172

MULLIKEN ATOMIC CHARGES
-----------------------
   0 C :   -0.207572
   1 O :   -0.286758
   2 C :    0.227382
   3 N :   -0.312505
   4 N :    0.095375
   5 C :   -0.321971
   6 C :    0.088530
   7 C :   -0.453121
   8 C :   -0.268740
   9 H :    0.139961
  10 H :    0.127146
  11 H :    0.127321
  12 H :    0.143482
  13 H :    0.144659
  14 H :    0.163956
  15 H :    0.148314
  16 H :    0.154163
  17 H :    0.150010
  18 H :    0.140367
Sum of atomic charges:    0.0000000

LOEWDIN ATOMIC CHARGES
----------------------
   0 C :   -0.326053
   1 O :    0.222658
   2 C :   -0.401405
   3 N :    0.042808
   4 N :    0.182024
   5 C :   -0.280460
   6 C :   -0.251750
   7 C :   -0.275278
   8 C :   -0.163834
   9 H :    0.111843
  10 H :    0.108953
  11 H :    0.108949
  12 H :    0.125211
  13 H :    0.120762
  14 H :    0.129942
  15 H :    0.131272
  16 H :    0.138898
  17 H :    0.131923
  18 H :    0.143536

  Mayer bond orders larger than 0.1
B(  0-C ,  1-O ) :   0.8587 B(  0-C ,  9-H ) :   0.9366 B(  0-C , 10-H ) :   0.9363
B(  0-C , 11-H ) :   0.9368 B(  1-O ,  2-C ) :   1.1003 B(  2-C ,  3-N ) :   1.4693
B(  2-C ,  8-C ) :   1.2890 B(  3-N ,  4-N ) :   0.9240 B(  3-N ,  6-C ) :   0.1076
B(  4-N ,  5-C ) :   0.8761 B(  4-N ,  6-C ) :   1.2364 B(  5-C , 12-H ) :   0.9288
B(  5-C , 13-H ) :   0.9261 B(  5-C , 14-H ) :   0.9310 B(  6-C ,  7-C ) :   0.8475
B(  6-C ,  8-C ) :   1.4201 B(  7-C , 15-H ) :   0.9399 B(  7-C , 16-H ) :   0.9447
B(  7-C , 17-H ) :   0.9359 B(  8-C , 18-H ) :   0.9188

MP2 TOTAL ENERGY:     -418.516285217 Eh
FINAL SINGLE POINT ENERGY      -418.516285217255

DIPOLE MOMENT
-------------
                                X             Y             Z
Electronic contribution:      4.44356       1.06949      -0.06923
Nuclear contribution   :     -5.34734      -1.43146       0.06245
                        -----------------------------------------
Total Dipole Moment    :     -0.90378      -0.36197      -0.00679
                        -----------------------------------------
Magnitude (a.u.)       :      0.97359
Magnitude (Debye)      :      2.47468

                             ****ORCA TERMINATED NORMALLY****
TOTAL RUN TIME: 0 days 0 hours 18 minutes 14 seconds 832 msec
