                         Program Version 3.0.3 - RELEASE   -
|  1> ! RI-MP2 RIJK def2-TZVP def2-TZVP/C def2-TZVP/JK TIGHTSCF
|  2> % maxcore 2000
|  3> % mp2 density relaxed end
|  4> *xyz 0 1
|  5>  C        0.1189890248     1.4477079068    -0.0270266354
|  6>  C       -0.0296632543    -0.0272657696     0.1512023475
|  7>  O        1.1110843572    -0.8809654314    -0.0546199432
|  8>  C        0.4234613935    -0.9585912494     1.2167407807
|  9>  C        1.2448596794    -0.7493183408     2.4467978938
| 10>  O        2.1261483252    -1.8391254411     2.6798267233
| 11>  C       -0.8134147524    -1.8160986058     1.0092098493
| 12>  N       -1.9715482671    -0.9140804992     1.2564600446
| 13>  C       -1.2733783803    -0.8842245810    -0.0571470988
| 14>  H        1.0436276791     1.8067947974     0.4315655275
| 15>  H        0.1464338508     1.7083332667    -1.0909137222
| 16>  H       -0.7292191227     1.9653320250     0.4306343484
| 17>  H        1.7920897618     0.2014508722     2.3664597382
| 18>  H        0.5878509467    -0.6898212745     3.3198310077
| 19>  H        2.6829202681    -1.9177759594     1.8970077554
| 20>  H       -0.9061326300    -2.8930475805     1.0557743173
| 21>  H       -2.8192719317    -1.4713349466     1.1361355673
| 22>  H       -1.7872277282    -1.1136526288    -0.9820671413
| 23> *
| 24>
| 25>                          ****END OF INPUT****

CARTESIAN COORDINATES (ANGSTROEM)
---------------------------------
  C      0.118989    1.447708   -0.027027
  C     -0.029663   -0.027266    0.151202
  O      1.111084   -0.880965   -0.054620
  C      0.423461   -0.958591    1.216741
  C      1.244860   -0.749318    2.446798
  O      2.126148   -1.839125    2.679827
  C     -0.813415   -1.816099    1.009210
  N     -1.971548   -0.914080    1.256460
  C     -1.273378   -0.884225   -0.057147
  H      1.043628    1.806795    0.431566
  H      0.146434    1.708333   -1.090914
  H     -0.729219    1.965332    0.430634
  H      1.792090    0.201451    2.366460
  H      0.587851   -0.689821    3.319831
  H      2.682920   -1.917776    1.897008
  H     -0.906133   -2.893048    1.055774
  H     -2.819272   -1.471335    1.136136
  H     -1.787228   -1.113653   -0.982067

 Total Charge           Charge          ....    0
 Multiplicity           Mult            ....    1
 Number of Electrons    NEL             ....   68
 Basis Dimension        Dim             ....  333

ORBITAL ENERGIES
----------------

  NO   OCC          E(Eh)            E(eV)
   0   2.0000     -20.570085      -559.7405
   1   2.0000     -20.558266      -559.4189
   2   2.0000     -15.577665      -423.8898
   3   2.0000     -11.301997      -307.5430
   4   2.0000     -11.293285      -307.3059
   5   2.0000     -11.285007      -307.0807
   6   2.0000     -11.274280      -306.7887
   7   2.0000     -11.273290      -306.7618
   8   2.0000     -11.233082      -305.6677
   9   2.0000      -1.425837       -38.7990
  10   2.0000      -1.361040       -37.0358
  11   2.0000      -1.276114       -34.7248
  12   2.0000      -1.027228       -27.9523
  13   2.0000      -1.003280       -27.3006
  14   2.0000      -0.956934       -26.0395
  15   2.0000      -0.860709       -23.4211
  16   2.0000      -0.818355       -22.2686
  17   2.0000      -0.742812       -20.2129
  18   2.0000      -0.711080       -19.3495
  19   2.0000      -0.689829       -18.7712
  20   2.0000      -0.659924       -17.9574
  21   2.0000      -0.643810       -17.5189
  22   2.0000      -0.613901       -16.7051
  23   2.0000      -0.595062       -16.1925
  24   2.0000      -0.564201       -15.3527
  25   2.0000      -0.551806       -15.0154
  26   2.0000      -0.527699       -14.3594
  27   2.0000      -0.515393       -14.0246
  28   2.0000      -0.504832       -13.7372
  29   2.0000      -0.480058       -13.0630
  30   2.0000      -0.473321       -12.8797
  31   2.0000      -0.451426       -12.2839
  32   2.0000      -0.402264       -10.9462
  33   2.0000      -0.378820       -10.3082
  34   0.0000       0.139623         3.7993
  35   0.0000       0.146317         3.9815
  36   0.0000       0.156808         4.2670
  37   0.0000       0.175281         4.7697
  38   0.0000       0.192701         5.2437

MULLIKEN ATOMIC CHARGES
-----------------------
   0 C :   -0.424369
   1 C :    0.189619
   2 O :   -0.348491
   3 C :    0.104159
   4 C :   -0.006854
   5 O :   -0.470042
   6 C :   -0.095425
   7 N :   -0.375713
   8 C :   -0.092332
   9 H :    0.142249
  10 H :    0.143609
  11 H :    0.154285
  12 H :    0.110510
  13 H :    0.127520
  14 H :    0.325836
  15 H :    0.148928
  16 H :    0.216835
  17 H :    0.149675
Sum of atomic charges:    0.0000000

LOEWDIN ATOMIC CHARGES
----------------------
   0 C :   -0.264539
   1 C :   -0.261181
   2 O :    0.194161
   3 C :   -0.254037
   4 C :   -0.304203
   5 O :   -0.043454
   6 C :   -0.185349
   7 N :    0.008923
   8 C :   -0.189165
   9 H :    0.133709
  10 H :    0.134164
  11 H :    0.140241
  12 H :    0.127184
  13 H :    0.142964
  14 H :    0.179769
  15 H :    0.135964
  16 H :    0.170976
  17 H :    0.133874

  Mayer bond orders larger than 0.1
B(  0-C ,  1-C ) :   0.8669 B(  0-C ,  9-H ) :   0.9357 B(  0-C , 10-H ) :   0.9402
B(  0-C , 11-H ) :   0.9303 B(  1-C ,  2-O ) :   0.9202 B(  1-C ,  3-C ) :   0.8914
B(  1-C ,  8-C ) :   0.9132 B(  2-O ,  3-C ) :   0.8438 B(  3-C ,  4-C ) :   0.9385
B(  3-C ,  6-C ) :   0.8805 B(  4-C ,  5-O ) :   0.9081 B(  4-C , 12-H ) :   0.9257
B(  4-C , 13-H ) :   0.9215 B(  5-O , 14-H ) :   0.8396 B(  6-C ,  7-N ) :   0.9176
B(  6-C ,  8-C ) :   0.9262 B(  6-C , 15-H ) :   0.9121 B(  7-N ,  8-C ) :   0.9468
B(  7-N , 16-H ) :   0.8671 B(  8-C , 17-H ) :   0.9038

MP2 TOTAL ENERGY:     -438.293397962 Eh
FINAL SINGLE POINT ENERGY      -438.293397961728

DIPOLE MOMENT
-------------
                                X             Y             Z
Electronic contribution:      0.69691      -3.80935      -0.29858
Nuclear contribution   :     -1.30197       4.01024      -0.26590
                        -----------------------------------------
Total Dipole Moment    :     -0.60506       0.20088      -0.56448
                        -----------------------------------------
Magnitude (a.u.)       :      0.85153
Magnitude (Debye)      :      2.16440

                             ****ORCA TERMINATED NORMALLY****
TOTAL RUN TIME: 0 days 0 hours 17 minutes 3 seconds 379 msec
