                         Program Version 3.0.3 - RELEASE   -
|  1> ! RI-MP2 RIJK def2-TZVP def2-TZVP/C def2-TZVP/JK TIGHTSCF
|  2> % maxcore 2000
|  3> % mp2 density relaxed end
|  4> *xyz 0 1
|  5>  O       -0.0830522862     1.3381545755    -0.0366949759
|  6>  C       -0.0092088902    -0.0455198463    -0.0602848764
|  7>  C        0.9535445672    -0.7585216400    -0.9681822013
|  8>  C        0.5118238212    -1.9990792541    -1.1819387060
|  9>  C       -0.7282482065    -2.2372488111    -0.3465242924
| 10>  C       -1.2753136832    -0.8128061605    -0.0225939021
| 11>  C       -0.4074001837    -0.7628986300     1.2704469187
| 12>  C       -0.2772979009    -2.2405274070     1.1608354932
| 13>  O       -0.1255790727    -3.1258106791     1.9539813046
| 14>  H        0.6827030163     1.6779693842     0.4389567689
| 15>  H        1.8641832230    -0.3034430781    -1.3349070991
| 16>  H        1.0135768289    -2.7839991976    -1.7318396944
| 17>  H       -1.4033992325    -3.0368252611    -0.6447927830
| 18>  H       -2.2758287751    -0.4253305133    -0.1563542868
| 19>  H       -0.5456763155    -0.1754116014     2.1688642222
| 20> *
| 21>
| 22>                          ****END OF INPUT****

CARTESIAN COORDINATES (ANGSTROEM)
---------------------------------
  O     -0.083052    1.338155   -0.036695
  C     -0.009209   -0.045520   -0.060285
  C      0.953545   -0.758522   -0.968182
  C      0.511824   -1.999079   -1.181939
  C     -0.728248   -2.237249   -0.346524
  C     -1.275314   -0.812806   -0.022594
  C     -0.407400   -0.762899    1.270447
  C     -0.277298   -2.240527    1.160835
  O     -0.125579   -3.125811    1.953981
  H      0.682703    1.677969    0.438957
  H      1.864183   -0.303443   -1.334907
  H      1.013577   -2.783999   -1.731840
  H     -1.403399   -3.036825   -0.644793
  H     -2.275829   -0.425331   -0.156354
  H     -0.545676   -0.175412    2.168864

 Total Charge           Charge          ....    0
 Multiplicity           Mult            ....    1
 Number of Electrons    NEL             ....   64
 Basis Dimension        Dim             ....  315

ORBITAL ENERGIES
----------------

  NO   OCC          E(Eh)            E(eV)
   0   2.0000     -20.591401      -560.3205
   1   2.0000     -20.544619      -559.0475
   2   2.0000     -11.339225      -308.5560
   3   2.0000     -11.326336      -308.2053
   4   2.0000     -11.267857      -306.6140
   5   2.0000     -11.262396      -306.4654
   6   2.0000     -11.258294      -306.3538
   7   2.0000     -11.250071      -306.1300
   8   2.0000     -11.247332      -306.0555
   9   2.0000      -1.406821       -38.2815
  10   2.0000      -1.390766       -37.8447
  11   2.0000      -1.234281       -33.5865
  12   2.0000      -1.063799       -28.9475
  13   2.0000      -0.988124       -26.8882
  14   2.0000      -0.892362       -24.2824
  15   2.0000      -0.815517       -22.1913
  16   2.0000      -0.786076       -21.3902
  17   2.0000      -0.740591       -20.1525
  18   2.0000      -0.720844       -19.6152
  19   2.0000      -0.669765       -18.2252
  20   2.0000      -0.659995       -17.9594
  21   2.0000      -0.637631       -17.3508
  22   2.0000      -0.608330       -16.5535
  23   2.0000      -0.584274       -15.8989
  24   2.0000      -0.573356       -15.6018
  25   2.0000      -0.542796       -14.7702
  26   2.0000      -0.512889       -13.9564
  27   2.0000      -0.497906       -13.5487
  28   2.0000      -0.457017       -12.4361
  29   2.0000      -0.421289       -11.4638
  30   2.0000      -0.411235       -11.1903
  31   2.0000      -0.344997        -9.3879
  32   0.0000       0.116238         3.1630
  33   0.0000       0.130298         3.5456
  34   0.0000       0.149556         4.0696
  35   0.0000       0.166068         4.5189
  36   0.0000       0.174312         4.7433

MULLIKEN ATOMIC CHARGES
-----------------------
   0 O :   -0.451542
   1 C :    0.271192
   2 C :   -0.213024
   3 C :   -0.205712
   4 C :    0.002687
   5 C :   -0.158489
   6 C :   -0.213248
   7 C :    0.142645
   8 O :   -0.265827
   9 H :    0.333651
  10 H :    0.136305
  11 H :    0.145774
  12 H :    0.144602
  13 H :    0.172602
  14 H :    0.158384
Sum of atomic charges:   -0.0000000

LOEWDIN ATOMIC CHARGES
----------------------
   0 O :    0.049757
   1 C :   -0.308811
   2 C :   -0.113463
   3 C :   -0.119131
   4 C :   -0.130565
   5 C :   -0.067562
   6 C :   -0.095934
   7 C :   -0.289308
   8 O :    0.153219
   9 H :    0.189521
  10 H :    0.142538
  11 H :    0.142753
  12 H :    0.150945
  13 H :    0.148757
  14 H :    0.147286

  Mayer bond orders larger than 0.1
B(  0-O ,  1-C ) :   0.9785 B(  0-O ,  9-H ) :   0.8343 B(  1-C ,  2-C ) :   0.9521
B(  1-C ,  5-C ) :   0.9168 B(  1-C ,  6-C ) :   0.7804 B(  2-C ,  3-C ) :   1.7675
B(  2-C , 10-H ) :   0.9212 B(  3-C ,  4-C ) :   0.9198 B(  3-C , 11-H ) :   0.9159
B(  4-C ,  5-C ) :   0.8697 B(  4-C ,  6-C ) :  -0.1020 B(  4-C ,  7-C ) :   0.8258
B(  4-C , 12-H ) :   0.9060 B(  5-C ,  6-C ) :   0.8096 B(  5-C , 13-H ) :   0.8855
B(  6-C ,  7-C ) :   0.9182 B(  6-C , 14-H ) :   0.9086 B(  7-C ,  8-O ) :   2.0260

MP2 TOTAL ENERGY:     -419.896571204 Eh
FINAL SINGLE POINT ENERGY      -419.896571203640

DIPOLE MOMENT
-------------
                                X             Y             Z
Electronic contribution:     -0.05445      -0.97410       1.93939
Nuclear contribution   :      0.24496       1.72853      -2.43379
                        -----------------------------------------
Total Dipole Moment    :      0.19051       0.75442      -0.49439
                        -----------------------------------------
Magnitude (a.u.)       :      0.92188
Magnitude (Debye)      :      2.34324

                             ****ORCA TERMINATED NORMALLY****
TOTAL RUN TIME: 0 days 0 hours 17 minutes 20 seconds 488 msec
