                         Program Version 3.0.3 - RELEASE   -
|  1> ! RI-MP2 RIJK def2-TZVP def2-TZVP/C def2-TZVP/JK TIGHTSCF
|  2> % maxcore 2000
|  3> % mp2 density relaxed end
|  4> *xyz 0 1
|  5>  N       -0.0193919384     1.4454313530    -0.0799952653
|  6>  C       -0.0322764713     0.0461810174    -0.0307098297
|  7>  C       -1.1795835102    -0.7307739299     0.0576882963
|  8>  N       -1.1838833461    -2.0711417900     0.0366737685
|  9>  C        0.0005732872    -2.6419235882    -0.0757462911
| 10>  O        0.0185950667    -3.9879686054    -0.1049180223
| 11>  N        1.1848468968    -2.0192768505    -0.1599683395
| 12>  C        1.1551998826    -0.6987987290    -0.1363871529
| 13>  O        2.3207337580    -0.0242754257    -0.2094972039
| 14>  H        0.8597893220     1.8418954212     0.2232797765
| 15>  H       -0.7946401253     1.8753703733     0.4062755315
| 16>  H       -2.1513693475    -0.2490440469     0.1515560374
| 17>  H        0.9443756176    -4.2478838012    -0.1895669299
| 18>  H        3.0230795878    -0.6868723984    -0.2635367057
| 19> *
| 20>
| 21>                          ****END OF INPUT****

CARTESIAN COORDINATES (ANGSTROEM)
---------------------------------
  N     -0.019392    1.445431   -0.079995
  C     -0.032276    0.046181   -0.030710
  C     -1.179584   -0.730774    0.057688
  N     -1.183883   -2.071142    0.036674
  C      0.000573   -2.641924   -0.075746
  O      0.018595   -3.987969   -0.104918
  N      1.184847   -2.019277   -0.159968
  C      1.155200   -0.698799   -0.136387
  O      2.320734   -0.024275   -0.209497
  H      0.859789    1.841895    0.223280
  H     -0.794640    1.875370    0.406276
  H     -2.151369   -0.249044    0.151556
  H      0.944376   -4.247884   -0.189567
  H      3.023080   -0.686872   -0.263537

 Total Charge           Charge          ....    0
 Multiplicity           Mult            ....    1
 Number of Electrons    NEL             ....   66
 Basis Dimension        Dim             ....  309

ORBITAL ENERGIES
----------------

  NO   OCC          E(Eh)            E(eV)
   0   2.0000     -20.619605      -561.0880
   1   2.0000     -20.597011      -560.4732
   2   2.0000     -15.575597      -423.8335
   3   2.0000     -15.569814      -423.6762
   4   2.0000     -15.558250      -423.3615
   5   2.0000     -11.372627      -309.4649
   6   2.0000     -11.365360      -309.2672
   7   2.0000     -11.293303      -307.3064
   8   2.0000     -11.277738      -306.8828
   9   2.0000      -1.453282       -39.5458
  10   2.0000      -1.434757       -39.0417
  11   2.0000      -1.295451       -35.2510
  12   2.0000      -1.220616       -33.2146
  13   2.0000      -1.197252       -32.5789
  14   2.0000      -1.029957       -28.0266
  15   2.0000      -0.916104       -24.9285
  16   2.0000      -0.874191       -23.7879
  17   2.0000      -0.796182       -21.6652
  18   2.0000      -0.770196       -20.9581
  19   2.0000      -0.701335       -19.0843
  20   2.0000      -0.690285       -18.7836
  21   2.0000      -0.654172       -17.8009
  22   2.0000      -0.643991       -17.5239
  23   2.0000      -0.628338       -17.0980
  24   2.0000      -0.604703       -16.4548
  25   2.0000      -0.592637       -16.1265
  26   2.0000      -0.581183       -15.8148
  27   2.0000      -0.531357       -14.4589
  28   2.0000      -0.508975       -13.8499
  29   2.0000      -0.476984       -12.9794
  30   2.0000      -0.423686       -11.5291
  31   2.0000      -0.420823       -11.4512
  32   2.0000      -0.308498        -8.3947
  33   0.0000       0.102589         2.7916
  34   0.0000       0.130130         3.5410
  35   0.0000       0.143357         3.9010
  36   0.0000       0.156006         4.2451
  37   0.0000       0.158405         4.3104

MULLIKEN ATOMIC CHARGES
-----------------------
   0 N :   -0.512175
   1 C :    0.113464
   2 C :   -0.092046
   3 N :   -0.251128
   4 C :    0.329510
   5 O :   -0.394159
   6 N :   -0.339716
   7 C :    0.257530
   8 O :   -0.430026
   9 H :    0.263972
  10 H :    0.249055
  11 H :    0.127140
  12 H :    0.334998
  13 H :    0.343581
Sum of atomic charges:    0.0000000

LOEWDIN ATOMIC CHARGES
----------------------
   0 N :   -0.071032
   1 C :   -0.240471
   2 C :   -0.193217
   3 N :    0.138380
   4 C :   -0.467003
   5 O :    0.090173
   6 N :    0.117961
   7 C :   -0.348030
   8 O :    0.089936
   9 H :    0.173699
  10 H :    0.170186
  11 H :    0.142431
  12 H :    0.195518
  13 H :    0.201467

  Mayer bond orders larger than 0.1
B(  0-N ,  1-C ) :   1.0375 B(  0-N ,  9-H ) :   0.8660 B(  0-N , 10-H ) :   0.8742
B(  1-C ,  2-C ) :   1.3311 B(  1-C ,  7-C ) :   1.2614 B(  2-C ,  3-N ) :   1.3666
B(  2-C , 11-H ) :   0.9602 B(  3-N ,  4-C ) :   1.4602 B(  4-C ,  5-O ) :   1.1384
B(  4-C ,  6-N ) :   1.3118 B(  5-O , 12-H ) :   0.8192 B(  6-N ,  7-C ) :   1.4275
B(  7-C ,  8-O ) :   1.1265 B(  8-O , 13-H ) :   0.8114

MP2 TOTAL ENERGY:     -469.330360648 Eh
FINAL SINGLE POINT ENERGY      -469.330360647527

DIPOLE MOMENT
-------------
                                X             Y             Z
Electronic contribution:      0.59048      -3.29278      -0.28361
Nuclear contribution   :      0.36862       4.18030       0.66612
                        -----------------------------------------
Total Dipole Moment    :      0.95910       0.88752       0.38251
                        -----------------------------------------
Magnitude (a.u.)       :      1.36158
Magnitude (Debye)      :      3.46085

                             ****ORCA TERMINATED NORMALLY****
TOTAL RUN TIME: 0 days 0 hours 13 minutes 29 seconds 613 msec
