                         Program Version 3.0.3 - RELEASE   -
|  1> ! RI-MP2 RIJK def2-TZVP def2-TZVP/C def2-TZVP/JK TIGHTSCF
|  2> % maxcore 2000
|  3> % mp2 density relaxed end
|  4> *xyz 0 1
|  5>  O       -0.1351946347     1.4194591916    -0.3547966781
|  6>  C        0.0034591951     0.0704461637     0.0902946944
|  7>  C       -1.3780611984    -0.5295636871     0.0598630389
|  8>  O       -2.2943543674     0.1764678458     0.8461124672
|  9>  C       -1.8890346126    -1.1990659358    -1.2028271309
| 10>  C       -1.5814696659    -2.0045187547     0.0303897988
| 11>  C       -0.5859682269    -3.1390671649     0.2561886889
| 12>  O       -1.5162814831    -3.8083627847     1.1316756836
| 13>  C       -2.5310971242    -2.7963666700     0.9207480666
| 14>  H        0.6396989570     1.9147078588    -0.0752904492
| 15>  H        0.6883421167    -0.4971556048    -0.5565250404
| 16>  H        0.3932943402     0.0378998618     1.1182442544
| 17>  H       -2.1967881083     1.1020424316     0.5875551550
| 18>  H       -2.9347767318    -1.0448077637    -1.4479224706
| 19>  H       -1.2214194141    -1.2829187562    -2.0554773258
| 20>  H       -0.3504662552    -3.7404767730    -0.6326180406
| 21>  H        0.3498410680    -2.8807448687     0.7702500348
| 22>  H       -2.8274499578    -2.3028631154     1.8529142098
| 23>  H       -3.4204304264    -3.2060112244     0.4247687431
| 24> *
| 25>
| 26>                          ****END OF INPUT****

CARTESIAN COORDINATES (ANGSTROEM)
---------------------------------
  O     -0.135195    1.419459   -0.354797
  C      0.003459    0.070446    0.090295
  C     -1.378061   -0.529564    0.059863
  O     -2.294354    0.176468    0.846112
  C     -1.889035   -1.199066   -1.202827
  C     -1.581470   -2.004519    0.030390
  C     -0.585968   -3.139067    0.256189
  O     -1.516281   -3.808363    1.131676
  C     -2.531097   -2.796367    0.920748
  H      0.639699    1.914708   -0.075290
  H      0.688342   -0.497156   -0.556525
  H      0.393294    0.037900    1.118244
  H     -2.196788    1.102042    0.587555
  H     -2.934777   -1.044808   -1.447922
  H     -1.221419   -1.282919   -2.055477
  H     -0.350466   -3.740477   -0.632618
  H      0.349841   -2.880745    0.770250
  H     -2.827450   -2.302863    1.852914
  H     -3.420430   -3.206011    0.424769

 Total Charge           Charge          ....    0
 Multiplicity           Mult            ....    1
 Number of Electrons    NEL             ....   70
 Basis Dimension        Dim             ....  339

ORBITAL ENERGIES
----------------

  NO   OCC          E(Eh)            E(eV)
   0   2.0000     -20.575403      -559.8852
   1   2.0000     -20.562081      -559.5227
   2   2.0000     -20.545731      -559.0778
   3   2.0000     -11.293453      -307.3105
   4   2.0000     -11.291950      -307.2696
   5   2.0000     -11.281710      -306.9909
   6   2.0000     -11.274843      -306.8041
   7   2.0000     -11.242116      -305.9135
   8   2.0000     -11.229424      -305.5682
   9   2.0000      -1.391867       -37.8746
  10   2.0000      -1.374961       -37.4146
  11   2.0000      -1.362370       -37.0720
  12   2.0000      -1.142657       -31.0933
  13   2.0000      -0.971976       -26.4488
  14   2.0000      -0.935932       -25.4680
  15   2.0000      -0.923876       -25.1399
  16   2.0000      -0.807333       -21.9686
  17   2.0000      -0.737189       -20.0599
  18   2.0000      -0.722387       -19.6571
  19   2.0000      -0.693098       -18.8602
  20   2.0000      -0.672614       -18.3028
  21   2.0000      -0.664895       -18.0927
  22   2.0000      -0.642876       -17.4936
  23   2.0000      -0.617427       -16.8010
  24   2.0000      -0.587037       -15.9741
  25   2.0000      -0.568307       -15.4644
  26   2.0000      -0.557406       -15.1678
  27   2.0000      -0.541842       -14.7443
  28   2.0000      -0.525580       -14.3018
  29   2.0000      -0.491328       -13.3697
  30   2.0000      -0.472625       -12.8608
  31   2.0000      -0.462927       -12.5969
  32   2.0000      -0.448272       -12.1981
  33   2.0000      -0.394722       -10.7409
  34   2.0000      -0.387048       -10.5321
  35   0.0000       0.120482         3.2785
  36   0.0000       0.148039         4.0284
  37   0.0000       0.164146         4.4666
  38   0.0000       0.171301         4.6613
  39   0.0000       0.186357         5.0710

MULLIKEN ATOMIC CHARGES
-----------------------
   0 O :   -0.481403
   1 C :   -0.144168
   2 C :    0.287699
   3 O :   -0.478558
   4 C :   -0.305023
   5 C :   -0.083239
   6 C :    0.011331
   7 O :   -0.329535
   8 C :   -0.020693
   9 H :    0.323916
  10 H :    0.103208
  11 H :    0.120500
  12 H :    0.334515
  13 H :    0.135858
  14 H :    0.126539
  15 H :    0.095870
  16 H :    0.091558
  17 H :    0.116524
  18 H :    0.095100
Sum of atomic charges:    0.0000000

LOEWDIN ATOMIC CHARGES
----------------------
   0 O :   -0.051076
   1 C :   -0.305923
   2 C :   -0.346803
   3 O :    0.032037
   4 C :   -0.169275
   5 C :   -0.203159
   6 C :   -0.232258
   7 O :    0.113333
   8 C :   -0.215910
   9 H :    0.174696
  10 H :    0.126028
  11 H :    0.125809
  12 H :    0.187633
  13 H :    0.142078
  14 H :    0.138488
  15 H :    0.119802
  16 H :    0.118247
  17 H :    0.125868
  18 H :    0.120384

  Mayer bond orders larger than 0.1
B(  0-O ,  1-C ) :   1.0130 B(  0-O ,  9-H ) :   0.8438 B(  1-C ,  2-C ) :   0.9152
B(  1-C , 10-H ) :   0.9216 B(  1-C , 11-H ) :   0.9315 B(  2-C ,  3-O ) :   1.0174
B(  2-C ,  4-C ) :   0.8707 B(  2-C ,  5-C ) :   0.8084 B(  3-O , 12-H ) :   0.8222
B(  4-C ,  5-C ) :   0.9046 B(  4-C , 13-H ) :   0.9144 B(  4-C , 14-H ) :   0.9060
B(  5-C ,  6-C ) :   0.9654 B(  5-C ,  8-C ) :   0.9683 B(  6-C ,  7-O ) :   0.9740
B(  6-C , 15-H ) :   0.9110 B(  6-C , 16-H ) :   0.9025 B(  7-O ,  8-C ) :   0.9536
B(  8-C , 17-H ) :   0.9059 B(  8-C , 18-H ) :   0.9118

MP2 TOTAL ENERGY:     -459.378931482 Eh
FINAL SINGLE POINT ENERGY      -459.378931482472

DIPOLE MOMENT
-------------
                                X             Y             Z
Electronic contribution:     -1.19052       0.22039       1.55991
Nuclear contribution   :      2.02753       0.58510      -2.00345
                        -----------------------------------------
Total Dipole Moment    :      0.83702       0.80549      -0.44354
                        -----------------------------------------
Magnitude (a.u.)       :      1.24344
Magnitude (Debye)      :      3.16058

                             ****ORCA TERMINATED NORMALLY****
TOTAL RUN TIME: 0 days 0 hours 15 minutes 21 seconds 807 msec
