                         Program Version 3.0.3 - RELEASE   -
|  1> ! RI-MP2 RIJK def2-TZVP def2-TZVP/C def2-TZVP/JK TIGHTSCF
|  2> % maxcore 2000
|  3> % mp2 density relaxed end
|  4> *xyz 0 1
|  5>  C        0.3915502137     1.1473431988     0.1547031614
|  6>  O        0.0019302865    -0.1775426301     0.4406489527
|  7>  C       -1.3622346973    -0.4922876128     0.1832872634
|  8>  C       -2.2254656548     0.1839238481     1.2416519433
|  9>  C       -1.7808232897    -0.5371129225    -1.3386524526
| 10>  C       -0.7599809339    -1.7067745928    -1.4930081105
| 11>  C       -1.5285527870    -2.0109761395    -0.1665646217
| 12>  C       -2.7993704741    -1.6749273574    -0.9850128835
| 13>  O       -4.0084430115    -1.4503337738    -0.3025133650
| 14>  H        1.4723650839     1.1992048638     0.3107113550
| 15>  H        0.1750615231     1.4244111605    -0.8878741395
| 16>  H       -0.0873396745     1.8843022698     0.8142448125
| 17>  H       -2.1973300200     1.2726408771     1.1252140810
| 18>  H       -3.2621639343    -0.1350974215     1.1923644452
| 19>  H       -1.8177525438    -0.0521298814     2.2299489795
| 20>  H       -1.9383984538     0.3006727975    -2.0210257855
| 21>  H       -0.9387281678    -2.3965658759    -2.3212823723
| 22>  H        0.2892324105    -1.4543992868    -1.3853015108
| 23>  H       -1.3823701844    -2.8576612323     0.5053135449
| 24>  H       -2.9700584970    -2.3651763042    -1.8204617431
| 25>  H       -4.6671779338    -1.1815990847    -0.9501101945
| 26> *
| 27>
| 28>                          ****END OF INPUT****

CARTESIAN COORDINATES (ANGSTROEM)
---------------------------------
  C      0.391550    1.147343    0.154703
  O      0.001930   -0.177543    0.440649
  C     -1.362235   -0.492288    0.183287
  C     -2.225466    0.183924    1.241652
  C     -1.780823   -0.537113   -1.338652
  C     -0.759981   -1.706775   -1.493008
  C     -1.528553   -2.010976   -0.166565
  C     -2.799370   -1.674927   -0.985013
  O     -4.008443   -1.450334   -0.302513
  H      1.472365    1.199205    0.310711
  H      0.175062    1.424411   -0.887874
  H     -0.087340    1.884302    0.814245
  H     -2.197330    1.272641    1.125214
  H     -3.262164   -0.135097    1.192364
  H     -1.817753   -0.052130    2.229949
  H     -1.938398    0.300673   -2.021026
  H     -0.938728   -2.396566   -2.321282
  H      0.289232   -1.454399   -1.385302
  H     -1.382370   -2.857661    0.505314
  H     -2.970058   -2.365176   -1.820462
  H     -4.667178   -1.181599   -0.950110

 Total Charge           Charge          ....    0
 Multiplicity           Mult            ....    1
 Number of Electrons    NEL             ....   70
 Basis Dimension        Dim             ....  351

ORBITAL ENERGIES
----------------

  NO   OCC          E(Eh)            E(eV)
   0   2.0000     -20.560266      -559.4733
   1   2.0000     -20.544112      -559.0337
   2   2.0000     -11.289210      -307.1950
   3   2.0000     -11.288706      -307.1813
   4   2.0000     -11.265759      -306.5569
   5   2.0000     -11.241571      -305.8987
   6   2.0000     -11.238758      -305.8221
   7   2.0000     -11.225374      -305.4580
   8   2.0000     -11.198455      -304.7255
   9   2.0000      -1.375221       -37.4217
  10   2.0000      -1.366459       -37.1832
  11   2.0000      -1.192929       -32.4613
  12   2.0000      -0.991293       -26.9745
  13   2.0000      -0.927735       -25.2450
  14   2.0000      -0.880119       -23.9492
  15   2.0000      -0.860415       -23.4131
  16   2.0000      -0.833887       -22.6912
  17   2.0000      -0.719995       -19.5921
  18   2.0000      -0.706202       -19.2167
  19   2.0000      -0.676999       -18.4221
  20   2.0000      -0.642935       -17.4952
  21   2.0000      -0.626351       -17.0439
  22   2.0000      -0.609819       -16.5940
  23   2.0000      -0.591776       -16.1031
  24   2.0000      -0.578755       -15.7487
  25   2.0000      -0.549857       -14.9624
  26   2.0000      -0.535022       -14.5587
  27   2.0000      -0.502409       -13.6712
  28   2.0000      -0.496944       -13.5225
  29   2.0000      -0.470773       -12.8104
  30   2.0000      -0.450830       -12.2677
  31   2.0000      -0.447776       -12.1846
  32   2.0000      -0.417666       -11.3653
  33   2.0000      -0.415640       -11.3101
  34   2.0000      -0.403878       -10.9901
  35   0.0000       0.135937         3.6990
  36   0.0000       0.149409         4.0656
  37   0.0000       0.162831         4.4309
  38   0.0000       0.177638         4.8338
  39   0.0000       0.194131         5.2826

MULLIKEN ATOMIC CHARGES
-----------------------
   0 C :   -0.224678
   1 O :   -0.332838
   2 C :    0.217947
   3 C :   -0.452054
   4 C :   -0.137371
   5 C :   -0.273833
   6 C :   -0.078187
   7 C :    0.006497
   8 O :   -0.480333
   9 H :    0.141253
  10 H :    0.111757
  11 H :    0.117274
  12 H :    0.119755
  13 H :    0.169167
  14 H :    0.134737
  15 H :    0.143250
  16 H :    0.115152
  17 H :    0.146356
  18 H :    0.137051
  19 H :    0.096729
  20 H :    0.322368
Sum of atomic charges:    0.0000000

LOEWDIN ATOMIC CHARGES
----------------------
   0 C :   -0.357720
   1 O :    0.173454
   2 C :   -0.296797
   3 C :   -0.278867
   4 C :   -0.150304
   5 C :   -0.191607
   6 C :   -0.123516
   7 C :   -0.292322
   8 O :   -0.012242
   9 H :    0.113670
  10 H :    0.103456
  11 H :    0.102362
  12 H :    0.123071
  13 H :    0.131970
  14 H :    0.130450
  15 H :    0.122235
  16 H :    0.127067
  17 H :    0.135808
  18 H :    0.128933
  19 H :    0.132959
  20 H :    0.177936

  Mayer bond orders larger than 0.1
B(  0-C ,  1-O ) :   0.9025 B(  0-C ,  9-H ) :   0.9425 B(  0-C , 10-H ) :   0.9318
B(  0-C , 11-H ) :   0.9340 B(  1-O ,  2-C ) :   0.8962 B(  2-C ,  3-C ) :   0.9039
B(  2-C ,  4-C ) :   0.8715 B(  2-C ,  6-C ) :   0.8736 B(  3-C , 12-H ) :   0.9319
B(  3-C , 13-H ) :   0.9208 B(  3-C , 14-H ) :   0.9465 B(  4-C ,  5-C ) :   0.9082
B(  4-C ,  7-C ) :   0.8554 B(  4-C , 15-H ) :   0.8732 B(  5-C ,  6-C ) :   0.9139
B(  5-C , 16-H ) :   0.9330 B(  5-C , 17-H ) :   0.9112 B(  6-C ,  7-C ) :   0.8926
B(  6-C , 18-H ) :   0.8762 B(  7-C ,  8-O ) :   1.0564 B(  7-C , 19-H ) :   0.9814
B(  8-O , 20-H ) :   0.8402

MP2 TOTAL ENERGY:     -423.456981124 Eh
FINAL SINGLE POINT ENERGY      -423.456981124272

DIPOLE MOMENT
-------------
                                X             Y             Z
Electronic contribution:     -1.82116      -3.54738      -0.35959
Nuclear contribution   :      1.51666       3.94995      -0.37523
                        -----------------------------------------
Total Dipole Moment    :     -0.30450       0.40257      -0.73482
                        -----------------------------------------
Magnitude (a.u.)       :      0.89148
Magnitude (Debye)      :      2.26597

                             ****ORCA TERMINATED NORMALLY****
TOTAL RUN TIME: 0 days 0 hours 19 minutes 21 seconds 73 msec
