                         Program Version 3.0.3 - RELEASE   -
|  1> ! RI-MP2 RIJK def2-TZVP def2-TZVP/C def2-TZVP/JK TIGHTSCF
|  2> % maxcore 2000
|  3> % mp2 density relaxed end
|  4> *xyz 0 1
|  5>  O       -0.0358205437     1.2936009376     0.0097421607
|  6>  C        1.1197091425     1.9850969374     0.0019196689
|  7>  N        2.3099619603     1.4966125364    -0.0125744445
|  8>  C        2.4588820938     0.1303794773    -0.0213805825
|  9>  C        1.3723843738    -0.6935713833    -0.0149644882
| 10>  C        1.0471668048    -2.0851861379    -0.0191809149
| 11>  C       -0.3261342208    -2.1228999575    -0.0057157182
| 12>  N       -0.9472399141    -0.8642592612     0.0072554553
| 13>  C        0.0592352060    -0.0523319913     0.0015722621
| 14>  H        0.9357019555     3.0525037369     0.0094708331
| 15>  H        3.4832717939    -0.2294399524    -0.0335189272
| 16>  H        1.7307877197    -2.9193094810    -0.0304661038
| 17>  H       -0.9530445817    -3.0049952110    -0.0042074510
| 18> *
| 19>
| 20>                          ****END OF INPUT****

CARTESIAN COORDINATES (ANGSTROEM)
---------------------------------
  O     -0.035821    1.293601    0.009742
  C      1.119709    1.985097    0.001920
  N      2.309962    1.496613   -0.012574
  C      2.458882    0.130379   -0.021381
  C      1.372384   -0.693571   -0.014964
  C      1.047167   -2.085186   -0.019181
  C     -0.326134   -2.122900   -0.005716
  N     -0.947240   -0.864259    0.007255
  C      0.059235   -0.052332    0.001572
  H      0.935702    3.052504    0.009471
  H      3.483272   -0.229440   -0.033519
  H      1.730788   -2.919309   -0.030466
  H     -0.953045   -3.004995   -0.004207

 Total Charge           Charge          ....    0
 Multiplicity           Mult            ....    1
 Number of Electrons    NEL             ....   62
 Basis Dimension        Dim             ....  303

ORBITAL ENERGIES
----------------

  NO   OCC          E(Eh)            E(eV)
   0   2.0000     -20.672803      -562.5356
   1   2.0000     -15.595383      -424.3719
   2   2.0000     -15.552810      -423.2135
   3   2.0000     -11.386543      -309.8436
   4   2.0000     -11.352804      -308.9255
   5   2.0000     -11.319413      -308.0169
   6   2.0000     -11.271703      -306.7186
   7   2.0000     -11.260133      -306.4038
   8   2.0000     -11.227781      -305.5235
   9   2.0000      -1.514832       -41.2207
  10   2.0000      -1.282962       -34.9112
  11   2.0000      -1.276832       -34.7444
  12   2.0000      -1.083877       -29.4938
  13   2.0000      -1.031397       -28.0657
  14   2.0000      -0.920382       -25.0449
  15   2.0000      -0.909270       -24.7425
  16   2.0000      -0.811837       -22.0912
  17   2.0000      -0.766970       -20.8703
  18   2.0000      -0.713587       -19.4177
  19   2.0000      -0.691757       -18.8237
  20   2.0000      -0.684375       -18.6228
  21   2.0000      -0.657043       -17.8790
  22   2.0000      -0.620610       -16.8876
  23   2.0000      -0.576432       -15.6855
  24   2.0000      -0.538630       -14.6569
  25   2.0000      -0.537940       -14.6381
  26   2.0000      -0.518686       -14.1142
  27   2.0000      -0.471715       -12.8360
  28   2.0000      -0.445574       -12.1247
  29   2.0000      -0.361757        -9.8439
  30   2.0000      -0.318473        -8.6661
  31   0.0000       0.042586         1.1588
  32   0.0000       0.131663         3.5827
  33   0.0000       0.155109         4.2207
  34   0.0000       0.167228         4.5505
  35   0.0000       0.175042         4.7631

MULLIKEN ATOMIC CHARGES
-----------------------
   0 O :   -0.160933
   1 C :    0.129556
   2 N :   -0.255051
   3 C :    0.003670
   4 C :    0.014105
   5 C :   -0.267557
   6 C :   -0.003575
   7 N :   -0.231478
   8 C :    0.180276
   9 H :    0.163353
  10 H :    0.150972
  11 H :    0.140125
  12 H :    0.136537
Sum of atomic charges:   -0.0000000

LOEWDIN ATOMIC CHARGES
----------------------
   0 O :    0.389267
   1 C :   -0.284085
   2 N :    0.117038
   3 C :   -0.128744
   4 C :   -0.139206
   5 C :   -0.160111
   6 C :   -0.177495
   7 N :    0.118002
   8 C :   -0.302173
   9 H :    0.142327
  10 H :    0.147402
  11 H :    0.142805
  12 H :    0.134972

  Mayer bond orders larger than 0.1
B(  0-O ,  1-C ) :   1.0922 B(  0-O ,  8-C ) :   1.0293 B(  1-C ,  2-N ) :   1.6184
B(  1-C ,  9-H ) :   0.9310 B(  2-N ,  3-C ) :   1.1863 B(  3-C ,  4-C ) :   1.3723
B(  3-C , 10-H ) :   0.9398 B(  4-C ,  5-C ) :   1.1352 B(  4-C ,  8-C ) :   1.0506
B(  5-C ,  6-C ) :   1.5132 B(  5-C , 11-H ) :   0.9169 B(  6-C ,  7-N ) :   1.1291
B(  6-C , 12-H ) :   0.9396 B(  7-N ,  8-C ) :   1.6891

MP2 TOTAL ENERGY:     -414.929002067 Eh
FINAL SINGLE POINT ENERGY      -414.929002066506

DIPOLE MOMENT
-------------
                                X             Y             Z
Electronic contribution:     -1.16328       2.67542       0.02597
Nuclear contribution   :      1.96965      -2.64575      -0.03385
                        -----------------------------------------
Total Dipole Moment    :      0.80637       0.02967      -0.00789
                        -----------------------------------------
Magnitude (a.u.)       :      0.80695
Magnitude (Debye)      :      2.05110

                             ****ORCA TERMINATED NORMALLY****
TOTAL RUN TIME: 0 days 0 hours 15 minutes 3 seconds 169 msec
