                         Program Version 3.0.3 - RELEASE   -
|  1> ! RI-MP2 RIJK def2-TZVP def2-TZVP/C def2-TZVP/JK TIGHTSCF
|  2> % maxcore 2000
|  3> % mp2 density relaxed end
|  4> *xyz 0 1
|  5>  C        0.0799334882     1.3198835092    -0.5406759278
|  6>  N       -0.1085570685     0.1608513388     0.3191003081
|  7>  C       -1.3851576008    -0.5397610388     0.2155960509
|  8>  C       -1.3480968343    -1.8687782922    -0.5793766039
|  9>  C       -0.9914509427    -1.7405099587    -2.0710190616
| 10>  C       -0.7512771110    -3.1340294059    -2.6697117420
| 11>  C       -2.0674124469    -0.9905212872    -2.8690209889
| 12>  C       -1.9087305554    -0.8184175067     1.5730315875
| 13>  N       -2.3188370434    -1.0585097332     2.6264344199
| 14>  H        1.0679900979     1.7461012618    -0.3448215168
| 15>  H        0.0044473100     1.1208207417    -1.6225081017
| 16>  H       -0.6595718864     2.0873547135    -0.2880929924
| 17>  H        0.6647280716    -0.4885279451     0.2548366382
| 18>  H       -2.1048645242     0.1401625002    -0.2551485364
| 19>  H       -0.6223387007    -2.5268615679    -0.0839482573
| 20>  H       -2.3224492874    -2.3632718340    -0.4767222912
| 21>  H       -0.0506177473    -1.1789743926    -2.1495463001
| 22>  H       -1.6579857205    -3.7475923087    -2.6106734842
| 23>  H       -0.4660979120    -3.0645949072    -3.7242417350
| 24>  H        0.0453798444    -3.6664764427    -2.1399208658
| 25>  H       -3.0306129302    -1.5111316090    -2.8092122379
| 26>  H       -2.2191602754     0.0322532311    -2.5107929775
| 27>  H       -1.7912496749    -0.9262965563    -3.9262883842
| 28> *
| 29>
| 30>                          ****END OF INPUT****

CARTESIAN COORDINATES (ANGSTROEM)
---------------------------------
  C      0.079933    1.319884   -0.540676
  N     -0.108557    0.160851    0.319100
  C     -1.385158   -0.539761    0.215596
  C     -1.348097   -1.868778   -0.579377
  C     -0.991451   -1.740510   -2.071019
  C     -0.751277   -3.134029   -2.669712
  C     -2.067412   -0.990521   -2.869021
  C     -1.908731   -0.818418    1.573032
  N     -2.318837   -1.058510    2.626434
  H      1.067990    1.746101   -0.344822
  H      0.004447    1.120821   -1.622508
  H     -0.659572    2.087355   -0.288093
  H      0.664728   -0.488528    0.254837
  H     -2.104865    0.140163   -0.255149
  H     -0.622339   -2.526862   -0.083948
  H     -2.322449   -2.363272   -0.476722
  H     -0.050618   -1.178974   -2.149546
  H     -1.657986   -3.747592   -2.610673
  H     -0.466098   -3.064595   -3.724242
  H      0.045380   -3.666476   -2.139921
  H     -3.030613   -1.511132   -2.809212
  H     -2.219160    0.032253   -2.510793
  H     -1.791250   -0.926297   -3.926288

 Total Charge           Charge          ....    0
 Multiplicity           Mult            ....    1
 Number of Electrons    NEL             ....   70
 Basis Dimension        Dim             ....  363

ORBITAL ENERGIES
----------------

  NO   OCC          E(Eh)            E(eV)
   0   2.0000     -15.564245      -423.5246
   1   2.0000     -15.559410      -423.3931
   2   2.0000     -11.310730      -307.7806
   3   2.0000     -11.262369      -306.4646
   4   2.0000     -11.260722      -306.4198
   5   2.0000     -11.247273      -306.0539
   6   2.0000     -11.246491      -306.0326
   7   2.0000     -11.228530      -305.5438
   8   2.0000     -11.226579      -305.4907
   9   2.0000      -1.240203       -33.7476
  10   2.0000      -1.200373       -32.6638
  11   2.0000      -1.106364       -30.1057
  12   2.0000      -1.028066       -27.9751
  13   2.0000      -0.944891       -25.7118
  14   2.0000      -0.924205       -25.1489
  15   2.0000      -0.885255       -24.0890
  16   2.0000      -0.787762       -21.4361
  17   2.0000      -0.718635       -19.5551
  18   2.0000      -0.675865       -18.3912
  19   2.0000      -0.658282       -17.9128
  20   2.0000      -0.623912       -16.9775
  21   2.0000      -0.611055       -16.6276
  22   2.0000      -0.587285       -15.9808
  23   2.0000      -0.576535       -15.6883
  24   2.0000      -0.558724       -15.2037
  25   2.0000      -0.550535       -14.9808
  26   2.0000      -0.545320       -14.8389
  27   2.0000      -0.537839       -14.6353
  28   2.0000      -0.529017       -14.3953
  29   2.0000      -0.494742       -13.4626
  30   2.0000      -0.482390       -13.1265
  31   2.0000      -0.478867       -13.0306
  32   2.0000      -0.455164       -12.3856
  33   2.0000      -0.443926       -12.0798
  34   2.0000      -0.389377       -10.5955
  35   0.0000       0.117845         3.2067
  36   0.0000       0.139646         3.8000
  37   0.0000       0.143335         3.9003
  38   0.0000       0.153515         4.1774
  39   0.0000       0.180155         4.9023

MULLIKEN ATOMIC CHARGES
-----------------------
   0 C :   -0.304356
   1 N :   -0.348322
   2 C :    0.076026
   3 C :   -0.328520
   4 C :   -0.001127
   5 C :   -0.390477
   6 C :   -0.424244
   7 C :   -0.127975
   8 N :   -0.059021
   9 H :    0.145090
  10 H :    0.112274
  11 H :    0.142846
  12 H :    0.213649
  13 H :    0.134398
  14 H :    0.139498
  15 H :    0.136980
  16 H :    0.084329
  17 H :    0.127607
  18 H :    0.136063
  19 H :    0.132330
  20 H :    0.131786
  21 H :    0.133243
  22 H :    0.137924
Sum of atomic charges:   -0.0000000

LOEWDIN ATOMIC CHARGES
----------------------
   0 C :   -0.352015
   1 N :   -0.001825
   2 C :   -0.292078
   3 C :   -0.218628
   4 C :   -0.310676
   5 C :   -0.291609
   6 C :   -0.294909
   7 C :   -0.167203
   8 N :    0.055879
   9 H :    0.120393
  10 H :    0.098069
  11 H :    0.119211
  12 H :    0.170890
  13 H :    0.170681
  14 H :    0.148126
  15 H :    0.152058
  16 H :    0.149004
  17 H :    0.125567
  18 H :    0.124382
  19 H :    0.123231
  20 H :    0.126502
  21 H :    0.118495
  22 H :    0.126455

  Mayer bond orders larger than 0.1
B(  0-C ,  1-N ) :   0.9323 B(  0-C ,  9-H ) :   0.9381 B(  0-C , 10-H ) :   0.9228
B(  0-C , 11-H ) :   0.9386 B(  1-N ,  2-C ) :   0.9530 B(  1-N , 12-H ) :   0.8861
B(  2-C ,  3-C ) :   0.9388 B(  2-C ,  7-C ) :   0.9183 B(  2-C , 13-H ) :   0.9223
B(  3-C ,  4-C ) :   0.9059 B(  3-C , 14-H ) :   0.9209 B(  3-C , 15-H ) :   0.9225
B(  4-C ,  5-C ) :   0.9167 B(  4-C ,  6-C ) :   0.9083 B(  4-C , 16-H ) :   0.9272
B(  5-C , 17-H ) :   0.9326 B(  5-C , 18-H ) :   0.9419 B(  5-C , 19-H ) :   0.9395
B(  6-C , 20-H ) :   0.9295 B(  6-C , 21-H ) :   0.9396 B(  6-C , 22-H ) :   0.9373
B(  7-C ,  8-N ) :   2.8918

MP2 TOTAL ENERGY:     -383.801824812 Eh
FINAL SINGLE POINT ENERGY      -383.801824811708

DIPOLE MOMENT
-------------
                                X             Y             Z
Electronic contribution:     -2.37801       1.03089      12.60890
Nuclear contribution   :      3.05247      -0.92537     -14.49976
                        -----------------------------------------
Total Dipole Moment    :      0.67446       0.10552      -1.89086
                        -----------------------------------------
Magnitude (a.u.)       :      2.01031
Magnitude (Debye)      :      5.10981

                             ****ORCA TERMINATED NORMALLY****
TOTAL RUN TIME: 0 days 0 hours 20 minutes 44 seconds 555 msec
