                         Program Version 3.0.3 - RELEASE   -
|  1> ! RI-MP2 RIJK def2-TZVP def2-TZVP/C def2-TZVP/JK TIGHTSCF
|  2> % maxcore 2000
|  3> % mp2 density relaxed end
|  4> *xyz 0 1
|  5>  C       -0.1277896723     1.3108945472    -0.2794605989
|  6>  C        0.1990797139    -0.1317032352     0.0405187318
|  7>  C        1.6241819951    -0.6324931341     0.0958202218
|  8>  C        0.7889902811    -0.6031296796     1.3574811206
|  9>  C        1.1603607586     0.4055980979     2.4317975236
| 10>  C        0.2586705154    -1.8862315409     1.9435599034
| 11>  C        0.2668948973    -3.2099439443     1.2251572607
| 12>  C        1.1863577918    -2.9870932618     2.4009983887
| 13>  H        0.6200940204     2.0022576405     0.1184858868
| 14>  H       -0.1669642000     1.4650621681    -1.3638462501
| 15>  H       -1.1015913651     1.6033164092     0.1301747344
| 16>  H       -0.5041990819    -0.8399544625    -0.3919576490
| 17>  H        1.8677540779    -1.5786232330    -0.3756681092
| 18>  H        2.4169863483     0.1059883269     0.0189857710
| 19>  H        1.5623185060     1.3320452701     2.0145292103
| 20>  H        0.2904939514     0.6670649379     3.0466637170
| 21>  H        1.9206127926    -0.0137373154     3.1002969116
| 22>  H       -0.6079498904    -1.7248646151     2.5828270899
| 23>  H       -0.5905846589    -3.8607475197     1.3577666093
| 24>  H        0.7130266266    -3.2738596467     0.2386773669
| 25>  H        2.2432446662    -2.8661941152     2.1864771800
| 26>  H        0.9752499061    -3.4996159843     3.3331287494
| 27> *
| 28>
| 29>                          ****END OF INPUT****

CARTESIAN COORDINATES (ANGSTROEM)
---------------------------------
  C     -0.127790    1.310895   -0.279461
  C      0.199080   -0.131703    0.040519
  C      1.624182   -0.632493    0.095820
  C      0.788990   -0.603130    1.357481
  C      1.160361    0.405598    2.431798
  C      0.258671   -1.886232    1.943560
  C      0.266895   -3.209944    1.225157
  C      1.186358   -2.987093    2.400998
  H      0.620094    2.002258    0.118486
  H     -0.166964    1.465062   -1.363846
  H     -1.101591    1.603316    0.130175
  H     -0.504199   -0.839954   -0.391958
  H      1.867754   -1.578623   -0.375668
  H      2.416986    0.105988    0.018986
  H      1.562319    1.332045    2.014529
  H      0.290494    0.667065    3.046664
  H      1.920613   -0.013737    3.100297
  H     -0.607950   -1.724865    2.582827
  H     -0.590585   -3.860748    1.357767
  H      0.713027   -3.273860    0.238677
  H      2.243245   -2.866194    2.186477
  H      0.975250   -3.499616    3.333129

 Total Charge           Charge          ....    0
 Multiplicity           Mult            ....    1
 Number of Electrons    NEL             ....   62
 Basis Dimension        Dim             ....  332

ORBITAL ENERGIES
----------------

  NO   OCC          E(Eh)            E(eV)
   0   2.0000     -11.232488      -305.6515
   1   2.0000     -11.226420      -305.4864
   2   2.0000     -11.222235      -305.3725
   3   2.0000     -11.220065      -305.3135
   4   2.0000     -11.217925      -305.2553
   5   2.0000     -11.214633      -305.1657
   6   2.0000     -11.212829      -305.1166
   7   2.0000     -11.211120      -305.0701
   8   2.0000      -1.166500       -31.7421
   9   2.0000      -1.110935       -30.2301
  10   2.0000      -0.978585       -26.6287
  11   2.0000      -0.942127       -25.6366
  12   2.0000      -0.846888       -23.0450
  13   2.0000      -0.817425       -22.2433
  14   2.0000      -0.778334       -21.1795
  15   2.0000      -0.718512       -19.5517
  16   2.0000      -0.679310       -18.4850
  17   2.0000      -0.643875       -17.5207
  18   2.0000      -0.598953       -16.2984
  19   2.0000      -0.581700       -15.8289
  20   2.0000      -0.569390       -15.4939
  21   2.0000      -0.549816       -14.9612
  22   2.0000      -0.533297       -14.5117
  23   2.0000      -0.525316       -14.2946
  24   2.0000      -0.508773       -13.8444
  25   2.0000      -0.496396       -13.5076
  26   2.0000      -0.477373       -12.9900
  27   2.0000      -0.437627       -11.9084
  28   2.0000      -0.413567       -11.2537
  29   2.0000      -0.392834       -10.6896
  30   2.0000      -0.365572        -9.9477
  31   0.0000       0.141305         3.8451
  32   0.0000       0.158989         4.3263
  33   0.0000       0.164087         4.4650
  34   0.0000       0.165195         4.4952
  35   0.0000       0.190112         5.1732

MULLIKEN ATOMIC CHARGES
-----------------------
   0 C :   -0.401265
   1 C :   -0.081477
   2 C :   -0.338482
   3 C :    0.119098
   4 C :   -0.427473
   5 C :   -0.099819
   6 C :   -0.272700
   7 C :   -0.263916
   8 H :    0.117934
   9 H :    0.134154
  10 H :    0.129912
  11 H :    0.120044
  12 H :    0.128361
  13 H :    0.123019
  14 H :    0.124006
  15 H :    0.127476
  16 H :    0.138928
  17 H :    0.110885
  18 H :    0.128177
  19 H :    0.126528
  20 H :    0.128664
  21 H :    0.127945
Sum of atomic charges:    0.0000000

LOEWDIN ATOMIC CHARGES
----------------------
   0 C :   -0.295819
   1 C :   -0.210762
   2 C :   -0.191877
   3 C :   -0.242771
   4 C :   -0.260782
   5 C :   -0.191270
   6 C :   -0.227811
   7 C :   -0.224145
   8 H :    0.122560
   9 H :    0.125669
  10 H :    0.124674
  11 H :    0.152009
  12 H :    0.129621
  13 H :    0.135004
  14 H :    0.123391
  15 H :    0.126830
  16 H :    0.129275
  17 H :    0.152547
  18 H :    0.130213
  19 H :    0.130378
  20 H :    0.134613
  21 H :    0.128452

  Mayer bond orders larger than 0.1
B(  0-C ,  1-C ) :   0.9029 B(  0-C ,  8-H ) :   0.9375 B(  0-C ,  9-H ) :   0.9405
B(  0-C , 10-H ) :   0.9413 B(  1-C ,  2-C ) :   0.8891 B(  1-C ,  3-C ) :   0.8469
B(  1-C , 11-H ) :   0.9318 B(  2-C ,  3-C ) :   0.8644 B(  2-C , 12-H ) :   0.9264
B(  2-C , 13-H ) :   0.9268 B(  3-C ,  4-C ) :   0.9106 B(  3-C ,  5-C ) :   0.9147
B(  4-C , 14-H ) :   0.9339 B(  4-C , 15-H ) :   0.9420 B(  4-C , 16-H ) :   0.9386
B(  5-C ,  6-C ) :   0.8863 B(  5-C ,  7-C ) :   0.8781 B(  5-C , 17-H ) :   0.9296
B(  6-C ,  7-C ) :   0.9027 B(  6-C , 18-H ) :   0.9321 B(  6-C , 19-H ) :   0.9303
B(  7-C , 20-H ) :   0.9278 B(  7-C , 21-H ) :   0.9302

MP2 TOTAL ENERGY:     -312.469328676 Eh
FINAL SINGLE POINT ENERGY      -312.469328676074

DIPOLE MOMENT
-------------
                                X             Y             Z
Electronic contribution:     -0.27573      -2.45381       0.13068
Nuclear contribution   :      0.21611       2.49731      -0.10736
                        -----------------------------------------
Total Dipole Moment    :     -0.05961       0.04350       0.02332
                        -----------------------------------------
Magnitude (a.u.)       :      0.07740
Magnitude (Debye)      :      0.19673

                             ****ORCA TERMINATED NORMALLY****
TOTAL RUN TIME: 0 days 0 hours 15 minutes 22 seconds 500 msec
