                         Program Version 3.0.3 - RELEASE   -
|  1> ! RI-MP2 RIJK def2-TZVP def2-TZVP/C def2-TZVP/JK TIGHTSCF
|  2> % maxcore 2000
|  3> % mp2 density relaxed end
|  4> *xyz 0 1
|  5>  C        0.8520536593     1.4278361293     0.5778210278
|  6>  C        0.9816091694    -0.0674466161     0.2679463180
|  7>  C        0.8065840309    -0.4485539533    -1.2191494042
|  8>  C       -0.5522760289     0.0076487191    -1.7704070824
|  9>  O        1.7619224551     0.1829424390    -2.0740555051
| 10>  C        3.1298364415     0.2009891731    -1.6860448645
| 11>  C        0.8537726253    -1.9735470985    -1.3503042514
| 12>  C        1.3945626973    -2.6530748060    -2.5298515527
| 13>  O        2.1181857816    -2.6366017768    -1.2899096763
| 14>  H        1.5036915935     2.0279656222    -0.0632711638
| 15>  H       -0.1714858550     1.7851287165     0.4321425458
| 16>  H        1.1234483183     1.6276853988     1.6188246800
| 17>  H        1.9544134830    -0.4384848687     0.6085886917
| 18>  H        0.2351904830    -0.6266186984     0.8452950435
| 19>  H       -0.6337072640     1.0953523027    -1.7313845727
| 20>  H       -0.6524355052    -0.3007554860    -2.8144672447
| 21>  H       -1.3773063600    -0.4267238606    -1.1973703118
| 22>  H        3.5087437888    -0.7963060187    -1.4512351051
| 23>  H        3.6742823735     0.6026585126    -2.5451781859
| 24>  H        3.3088444558     0.8654719732    -0.8302696330
| 25>  H        0.0682602907    -2.4825980371    -0.7867654244
| 26>  H        1.0038951929    -3.6261421090    -2.8229055711
| 27>  H        1.8299510633    -2.0530235174    -3.3245373980
| 28> *
| 29>
| 30>                          ****END OF INPUT****

CARTESIAN COORDINATES (ANGSTROEM)
---------------------------------
  C      0.852054    1.427836    0.577821
  C      0.981609   -0.067447    0.267946
  C      0.806584   -0.448554   -1.219149
  C     -0.552276    0.007649   -1.770407
  O      1.761922    0.182942   -2.074056
  C      3.129836    0.200989   -1.686045
  C      0.853773   -1.973547   -1.350304
  C      1.394563   -2.653075   -2.529852
  O      2.118186   -2.636602   -1.289910
  H      1.503692    2.027966   -0.063271
  H     -0.171486    1.785129    0.432143
  H      1.123448    1.627685    1.618825
  H      1.954413   -0.438485    0.608589
  H      0.235190   -0.626619    0.845295
  H     -0.633707    1.095352   -1.731385
  H     -0.652436   -0.300755   -2.814467
  H     -1.377306   -0.426724   -1.197370
  H      3.508744   -0.796306   -1.451235
  H      3.674282    0.602659   -2.545178
  H      3.308844    0.865472   -0.830270
  H      0.068260   -2.482598   -0.786765
  H      1.003895   -3.626142   -2.822906
  H      1.829951   -2.053024   -3.324537

 Total Charge           Charge          ....    0
 Multiplicity           Mult            ....    1
 Number of Electrons    NEL             ....   72
 Basis Dimension        Dim             ....  363

ORBITAL ENERGIES
----------------

  NO   OCC          E(Eh)            E(eV)
   0   2.0000     -20.565433      -559.6139
   1   2.0000     -20.549119      -559.1700
   2   2.0000     -11.291852      -307.2669
   3   2.0000     -11.283138      -307.0298
   4   2.0000     -11.277856      -306.8861
   5   2.0000     -11.258696      -306.3647
   6   2.0000     -11.224628      -305.4377
   7   2.0000     -11.215900      -305.2001
   8   2.0000     -11.215096      -305.1783
   9   2.0000      -1.410355       -38.3777
  10   2.0000      -1.362768       -37.0828
  11   2.0000      -1.080874       -29.4121
  12   2.0000      -1.001710       -27.2579
  13   2.0000      -0.925489       -25.1838
  14   2.0000      -0.911670       -24.8078
  15   2.0000      -0.898203       -24.4413
  16   2.0000      -0.835362       -22.7314
  17   2.0000      -0.759442       -20.6655
  18   2.0000      -0.699076       -19.0228
  19   2.0000      -0.675637       -18.3850
  20   2.0000      -0.641085       -17.4448
  21   2.0000      -0.634911       -17.2768
  22   2.0000      -0.607525       -16.5316
  23   2.0000      -0.585143       -15.9225
  24   2.0000      -0.572436       -15.5768
  25   2.0000      -0.552585       -15.0366
  26   2.0000      -0.541224       -14.7275
  27   2.0000      -0.531178       -14.4541
  28   2.0000      -0.523192       -14.2368
  29   2.0000      -0.506104       -13.7718
  30   2.0000      -0.497655       -13.5419
  31   2.0000      -0.482276       -13.1234
  32   2.0000      -0.471649       -12.8342
  33   2.0000      -0.453990       -12.3537
  34   2.0000      -0.425757       -11.5854
  35   2.0000      -0.401305       -10.9201
  36   0.0000       0.135714         3.6930
  37   0.0000       0.154691         4.2094
  38   0.0000       0.167555         4.5594
  39   0.0000       0.174247         4.7415
  40   0.0000       0.190172         5.1748

MULLIKEN ATOMIC CHARGES
-----------------------
   0 C :   -0.428658
   1 C :   -0.261538
   2 C :    0.278775
   3 C :   -0.433888
   4 O :   -0.331629
   5 C :   -0.261538
   6 C :   -0.013378
   7 C :   -0.074638
   8 O :   -0.347146
   9 H :    0.141553
  10 H :    0.133741
  11 H :    0.139674
  12 H :    0.144123
  13 H :    0.119019
  14 H :    0.145333
  15 H :    0.139940
  16 H :    0.125724
  17 H :    0.159217
  18 H :    0.138230
  19 H :    0.112227
  20 H :    0.121557
  21 H :    0.117550
  22 H :    0.135750
Sum of atomic charges:    0.0000000

LOEWDIN ATOMIC CHARGES
----------------------
   0 C :   -0.315653
   1 C :   -0.254228
   2 C :   -0.371603
   3 C :   -0.259686
   4 O :    0.174005
   5 C :   -0.353525
   6 C :   -0.263236
   7 C :   -0.257562
   8 O :    0.142325
   9 H :    0.124731
  10 H :    0.120938
  11 H :    0.123204
  12 H :    0.146243
  13 H :    0.144763
  14 H :    0.129201
  15 H :    0.130507
  16 H :    0.128008
  17 H :    0.110185
  18 H :    0.112907
  19 H :    0.101051
  20 H :    0.142678
  21 H :    0.118686
  22 H :    0.126063

  Mayer bond orders larger than 0.1
B(  0-C ,  1-C ) :   0.9130 B(  0-C ,  9-H ) :   0.9384 B(  0-C , 10-H ) :   0.9406
B(  0-C , 11-H ) :   0.9411 B(  1-C ,  2-C ) :   0.9123 B(  1-C , 12-H ) :   0.9320
B(  1-C , 13-H ) :   0.9189 B(  2-C ,  3-C ) :   0.8716 B(  2-C ,  4-O ) :   0.9410
B(  2-C ,  6-C ) :   0.9068 B(  3-C , 14-H ) :   0.9411 B(  3-C , 15-H ) :   0.9364
B(  3-C , 16-H ) :   0.9332 B(  4-O ,  5-C ) :   0.8857 B(  5-C , 17-H ) :   0.9277
B(  5-C , 18-H ) :   0.9413 B(  5-C , 19-H ) :   0.9277 B(  6-C ,  7-C ) :   0.9828
B(  6-C ,  8-O ) :   0.8854 B(  6-C , 20-H ) :   0.9080 B(  7-C ,  8-O ) :   0.8916
B(  7-C , 21-H ) :   0.9199 B(  7-C , 22-H ) :   0.9071

MP2 TOTAL ENERGY:     -424.690974578 Eh
FINAL SINGLE POINT ENERGY      -424.690974578008

DIPOLE MOMENT
-------------
                                X             Y             Z
Electronic contribution:      2.02635      -5.82450      -2.92107
Nuclear contribution   :     -2.42939       5.89473       2.99640
                        -----------------------------------------
Total Dipole Moment    :     -0.40305       0.07023       0.07533
                        -----------------------------------------
Magnitude (a.u.)       :      0.41600
Magnitude (Debye)      :      1.05738

                             ****ORCA TERMINATED NORMALLY****
TOTAL RUN TIME: 0 days 0 hours 20 minutes 22 seconds 646 msec
