                         Program Version 3.0.3 - RELEASE   -
|  1> ! RI-MP2 RIJK def2-TZVP def2-TZVP/C def2-TZVP/JK TIGHTSCF
|  2> % maxcore 2000
|  3> % mp2 density relaxed end
|  4> *xyz 0 1
|  5>  N        0.0264972726     1.3801387702     0.1789428828
|  6>  C        0.0047150541     0.0101346551    -0.0391106638
|  7>  N       -1.1521671073    -0.5543349263    -0.1644335733
|  8>  O       -1.1595469636    -1.9198653100    -0.5065749214
|  9>  C       -0.0189707617    -2.6811461991    -0.6297740665
| 10>  N       -0.0840654767    -3.9235112307    -0.8981196702
| 11>  C        1.2498574031    -1.9963079693    -0.4493360094
| 12>  C        1.2716583391    -0.6878075539    -0.1707296572
| 13>  H        0.7383712621     1.6964577530     0.8226033057
| 14>  H       -0.8861935246     1.7591410245     0.3965920319
| 15>  H       -1.0576422039    -4.2194283087    -0.9884674882
| 16>  H        2.1417062484    -2.5995343834    -0.5623015887
| 17>  H        2.1957627583    -0.1330594014    -0.0505795115
| 18> *
| 19>
| 20>                          ****END OF INPUT****

CARTESIAN COORDINATES (ANGSTROEM)
---------------------------------
  N      0.026497    1.380139    0.178943
  C      0.004715    0.010135   -0.039111
  N     -1.152167   -0.554335   -0.164434
  O     -1.159547   -1.919865   -0.506575
  C     -0.018971   -2.681146   -0.629774
  N     -0.084065   -3.923511   -0.898120
  C      1.249857   -1.996308   -0.449336
  C      1.271658   -0.687808   -0.170730
  H      0.738371    1.696458    0.822603
  H     -0.886194    1.759141    0.396592
  H     -1.057642   -4.219428   -0.988467
  H      2.141706   -2.599534   -0.562302
  H      2.195763   -0.133059   -0.050580

 Total Charge           Charge          ....    0
 Multiplicity           Mult            ....    1
 Number of Electrons    NEL             ....   58
 Basis Dimension        Dim             ....  278

ORBITAL ENERGIES
----------------

  NO   OCC          E(Eh)            E(eV)
   0   2.0000     -20.623877      -561.2042
   1   2.0000     -15.621972      -425.0955
   2   2.0000     -15.594967      -424.3606
   3   2.0000     -15.539685      -422.8563
   4   2.0000     -11.350250      -308.8560
   5   2.0000     -11.341030      -308.6051
   6   2.0000     -11.283230      -307.0323
   7   2.0000     -11.281532      -306.9861
   8   2.0000      -1.459880       -39.7253
   9   2.0000      -1.278852       -34.7993
  10   2.0000      -1.213228       -33.0136
  11   2.0000      -1.133827       -30.8530
  12   2.0000      -1.094445       -29.7814
  13   2.0000      -0.920690       -25.0532
  14   2.0000      -0.862669       -23.4744
  15   2.0000      -0.762378       -20.7454
  16   2.0000      -0.741306       -20.1720
  17   2.0000      -0.692906       -18.8549
  18   2.0000      -0.678945       -18.4750
  19   2.0000      -0.650655       -17.7052
  20   2.0000      -0.624164       -16.9844
  21   2.0000      -0.611187       -16.6312
  22   2.0000      -0.557284       -15.1645
  23   2.0000      -0.537315       -14.6211
  24   2.0000      -0.490176       -13.3384
  25   2.0000      -0.471240       -12.8231
  26   2.0000      -0.432645       -11.7729
  27   2.0000      -0.418779       -11.3956
  28   2.0000      -0.340236        -9.2583
  29   0.0000       0.058714         1.5977
  30   0.0000       0.119498         3.2517
  31   0.0000       0.152479         4.1492
  32   0.0000       0.173359         4.7173
  33   0.0000       0.175316         4.7706

MULLIKEN ATOMIC CHARGES
-----------------------
   0 N :   -0.502447
   1 C :    0.257195
   2 N :   -0.140693
   3 O :   -0.147202
   4 C :    0.168033
   5 N :   -0.390992
   6 C :   -0.113098
   7 C :   -0.176325
   8 H :    0.255245
   9 H :    0.261527
  10 H :    0.225199
  11 H :    0.156033
  12 H :    0.147523
Sum of atomic charges:   -0.0000000

LOEWDIN ATOMIC CHARGES
----------------------
   0 N :   -0.053642
   1 C :   -0.379426
   2 N :    0.048181
   3 O :    0.216570
   4 C :   -0.409116
   5 N :   -0.060158
   6 C :   -0.088377
   7 C :   -0.109305
   8 H :    0.171945
   9 H :    0.176719
  10 H :    0.167821
  11 H :    0.163280
  12 H :    0.155509

  Mayer bond orders larger than 0.1
B(  0-N ,  1-C ) :   1.0445 B(  0-N ,  8-H ) :   0.8672 B(  0-N ,  9-H ) :   0.8654
B(  1-C ,  2-N ) :   1.7057 B(  1-C ,  7-C ) :   1.0096 B(  2-N ,  3-O ) :   0.8004
B(  3-O ,  4-C ) :   1.0784 B(  4-C ,  5-N ) :   1.9463 B(  4-C ,  6-C ) :   1.0350
B(  5-N , 10-H ) :   0.8550 B(  6-C ,  7-C ) :   1.6679 B(  6-C , 11-H ) :   0.9271
B(  7-C , 12-H ) :   0.9088

MP2 TOTAL ENERGY:     -394.099885387 Eh
FINAL SINGLE POINT ENERGY      -394.099885387052

DIPOLE MOMENT
-------------
                                X             Y             Z
Electronic contribution:     -2.15532      -1.39829      -0.47537
Nuclear contribution   :      3.00911       2.70752       1.17400
                        -----------------------------------------
Total Dipole Moment    :      0.85379       1.30923       0.69863
                        -----------------------------------------
Magnitude (a.u.)       :      1.71205
Magnitude (Debye)      :      4.35169

                             ****ORCA TERMINATED NORMALLY****
TOTAL RUN TIME: 0 days 0 hours 10 minutes 16 seconds 883 msec
