                         Program Version 3.0.3 - RELEASE   -
|  1> ! RI-MP2 RIJK def2-TZVP def2-TZVP/C def2-TZVP/JK TIGHTSCF
|  2> % maxcore 2000
|  3> % mp2 density relaxed end
|  4> *xyz 0 1
|  5>  C       -0.1539784226     1.4932678499    -0.1247596795
|  6>  C       -0.0390174882    -0.0262567776     0.0320671623
|  7>  C        0.7643770306    -0.4893106549     1.2609404307
|  8>  C        0.1345913841    -0.0111943370     2.5912821344
|  9>  C        0.6961146410    -0.6995812896     3.8086034867
| 10>  C        1.1597367508    -1.9491466686     3.7747859758
| 11>  C        1.1623294952    -2.7284176045     2.5131735805
| 12>  N       -0.1358177728    -2.8190399616     1.7785207443
| 13>  C        0.9537239244    -1.9958074187     1.2356993440
| 14>  H        0.8354233535     1.9638087260    -0.1617568108
| 15>  H       -0.6782428863     1.7518379578    -1.0501549355
| 16>  H       -0.7069763242     1.9483384322     0.7025037718
| 17>  H       -1.0398208315    -0.4736891898     0.0849652237
| 18>  H        0.4327383419    -0.4413522102    -0.8686825836
| 19>  H        1.7735438975    -0.0544100523     1.1957246243
| 20>  H        0.2642199529     1.0717914527     2.6869325582
| 21>  H       -0.9492764167    -0.1855071793     2.5505455225
| 22>  H        0.6863912216    -0.1483665600     4.7451827273
| 23>  H        1.5456547175    -2.4276867571     4.6701219251
| 24>  H        1.7952653257    -3.6114191229     2.4893745431
| 25>  H       -0.1806381226    -3.7059589913     1.2824237018
| 26>  H        1.4785919481    -2.3715759631     0.3579710529
| 27> *
| 28>
| 29>                          ****END OF INPUT****

CARTESIAN COORDINATES (ANGSTROEM)
---------------------------------
  C     -0.153978    1.493268   -0.124760
  C     -0.039017   -0.026257    0.032067
  C      0.764377   -0.489311    1.260940
  C      0.134591   -0.011194    2.591282
  C      0.696115   -0.699581    3.808603
  C      1.159737   -1.949147    3.774786
  C      1.162329   -2.728418    2.513174
  N     -0.135818   -2.819040    1.778521
  C      0.953724   -1.995807    1.235699
  H      0.835423    1.963809   -0.161757
  H     -0.678243    1.751838   -1.050155
  H     -0.706976    1.948338    0.702504
  H     -1.039821   -0.473689    0.084965
  H      0.432738   -0.441352   -0.868683
  H      1.773544   -0.054410    1.195725
  H      0.264220    1.071791    2.686933
  H     -0.949276   -0.185507    2.550546
  H      0.686391   -0.148367    4.745183
  H      1.545655   -2.427687    4.670122
  H      1.795265   -3.611419    2.489375
  H     -0.180638   -3.705959    1.282424
  H      1.478592   -2.371576    0.357971

 Total Charge           Charge          ....    0
 Multiplicity           Mult            ....    1
 Number of Electrons    NEL             ....   68
 Basis Dimension        Dim             ....  357

ORBITAL ENERGIES
----------------

  NO   OCC          E(Eh)            E(eV)
   0   2.0000     -15.553225      -423.2248
   1   2.0000     -11.255759      -306.2848
   2   2.0000     -11.253692      -306.2285
   3   2.0000     -11.226292      -305.4829
   4   2.0000     -11.221794      -305.3605
   5   2.0000     -11.218239      -305.2638
   6   2.0000     -11.217922      -305.2552
   7   2.0000     -11.216561      -305.2181
   8   2.0000     -11.210984      -305.0664
   9   2.0000      -1.259589       -34.2752
  10   2.0000      -1.091732       -29.7075
  11   2.0000      -1.049678       -28.5632
  12   2.0000      -0.973018       -26.4772
  13   2.0000      -0.926989       -25.2247
  14   2.0000      -0.854506       -23.2523
  15   2.0000      -0.825992       -22.4764
  16   2.0000      -0.773476       -21.0474
  17   2.0000      -0.716427       -19.4950
  18   2.0000      -0.689432       -18.7604
  19   2.0000      -0.635546       -17.2941
  20   2.0000      -0.611953       -16.6521
  21   2.0000      -0.604077       -16.4378
  22   2.0000      -0.579722       -15.7750
  23   2.0000      -0.564053       -15.3486
  24   2.0000      -0.530442       -14.4341
  25   2.0000      -0.516650       -14.0588
  26   2.0000      -0.499493       -13.5919
  27   2.0000      -0.489673       -13.3247
  28   2.0000      -0.480048       -13.0628
  29   2.0000      -0.464367       -12.6361
  30   2.0000      -0.452089       -12.3020
  31   2.0000      -0.439275       -11.9533
  32   2.0000      -0.388316       -10.5666
  33   2.0000      -0.332079        -9.0363
  34   0.0000       0.131451         3.5770
  35   0.0000       0.148272         4.0347
  36   0.0000       0.150619         4.0985
  37   0.0000       0.165670         4.5081
  38   0.0000       0.174214         4.7406

MULLIKEN ATOMIC CHARGES
-----------------------
   0 C :   -0.403105
   1 C :   -0.234369
   2 C :   -0.033574
   3 C :   -0.182326
   4 C :   -0.157596
   5 C :   -0.233544
   6 C :    0.038386
   7 N :   -0.412846
   8 C :   -0.030134
   9 H :    0.121692
  10 H :    0.135833
  11 H :    0.133371
  12 H :    0.125887
  13 H :    0.105439
  14 H :    0.082158
  15 H :    0.127636
  16 H :    0.119982
  17 H :    0.117578
  18 H :    0.118027
  19 H :    0.124710
  20 H :    0.213549
  21 H :    0.123245
Sum of atomic charges:    0.0000000

LOEWDIN ATOMIC CHARGES
----------------------
   0 C :   -0.319633
   1 C :   -0.269177
   2 C :   -0.231204
   3 C :   -0.223175
   4 C :   -0.154970
   5 C :   -0.161260
   6 C :   -0.236646
   7 N :    0.009191
   8 C :   -0.235920
   9 H :    0.120619
  10 H :    0.121211
  11 H :    0.120172
  12 H :    0.141423
  13 H :    0.136438
  14 H :    0.159098
  15 H :    0.142106
  16 H :    0.155369
  17 H :    0.140735
  18 H :    0.142678
  19 H :    0.138486
  20 H :    0.165163
  21 H :    0.139296

  Mayer bond orders larger than 0.1
B(  0-C ,  1-C ) :   0.9122 B(  0-C ,  9-H ) :   0.9367 B(  0-C , 10-H ) :   0.9426
B(  0-C , 11-H ) :   0.9422 B(  1-C ,  2-C ) :   0.8983 B(  1-C , 12-H ) :   0.9364
B(  1-C , 13-H ) :   0.9351 B(  2-C ,  3-C ) :   0.9453 B(  2-C ,  8-C ) :   0.9304
B(  2-C , 14-H ) :   0.9212 B(  3-C ,  4-C ) :   0.9467 B(  3-C , 15-H ) :   0.9318
B(  3-C , 16-H ) :   0.8794 B(  4-C ,  5-C ) :   1.8069 B(  4-C , 17-H ) :   0.9301
B(  5-C ,  6-C ) :   0.9526 B(  5-C , 18-H ) :   0.9340 B(  6-C ,  7-N ) :   0.9137
B(  6-C ,  8-C ) :   0.9096 B(  6-C , 19-H ) :   0.9229 B(  7-N ,  8-C ) :   0.8940
B(  7-N , 20-H ) :   0.8660 B(  8-C , 21-H ) :   0.9265

MP2 TOTAL ENERGY:     -366.542205244 Eh
FINAL SINGLE POINT ENERGY      -366.542205243546

DIPOLE MOMENT
-------------
                                X             Y             Z
Electronic contribution:      1.40081      -6.07427       4.41064
Nuclear contribution   :     -0.97001       5.91263      -4.74593
                        -----------------------------------------
Total Dipole Moment    :      0.43081      -0.16164      -0.33529
                        -----------------------------------------
Magnitude (a.u.)       :      0.56933
Magnitude (Debye)      :      1.44712

                             ****ORCA TERMINATED NORMALLY****
TOTAL RUN TIME: 0 days 0 hours 34 minutes 31 seconds 399 msec
