                         Program Version 3.0.3 - RELEASE   -
|  1> ! RI-MP2 RIJK def2-TZVP def2-TZVP/C def2-TZVP/JK TIGHTSCF
|  2> % maxcore 2000
|  3> % mp2 density relaxed end
|  4> *xyz 0 1
|  5>  O       -0.0245867125    -0.1271877094    -0.1595145737
|  6>  C        0.0063333490     1.0605210693     0.0445704791
|  7>  C        1.2409614253     1.9192249150     0.0368257775
|  8>  C        1.1835976245     3.1835612566     0.9468637241
|  9>  C        1.4313307342     4.1113349402    -0.2732462959
| 10>  C        1.3687402854     2.8819199357    -1.2249818633
| 11>  O        2.5420834972     2.5305354345    -1.9079929237
| 12>  C        3.4406000329     1.9468196033    -0.9664807216
| 13>  C        2.5568542945     1.1351458557    -0.0037677786
| 14>  H       -0.9361608025     1.6266016660     0.2353513834
| 15>  H        0.2039064911     3.3258521127     1.4130801070
| 16>  H        1.9396646530     3.2090455674     1.7352395297
| 17>  H        0.6635201994     4.8670038487    -0.4536064264
| 18>  H        2.4063099930     4.6038163834    -0.2862755168
| 19>  H        0.5479670044     2.8890853215    -1.9459817737
| 20>  H        4.1563968915     1.3402630951    -1.5261633926
| 21>  H        4.0008686964     2.7269759462    -0.4289333962
| 22>  H        3.0109284650     1.0209025253     0.9842036469
| 23>  H        2.3531692383     0.1394385129    -0.4053871451
| 24> *
| 25>
| 26>                          ****END OF INPUT****

CARTESIAN COORDINATES (ANGSTROEM)
---------------------------------
  O     -0.024587   -0.127188   -0.159515
  C      0.006333    1.060521    0.044570
  C      1.240961    1.919225    0.036826
  C      1.183598    3.183561    0.946864
  C      1.431331    4.111335   -0.273246
  C      1.368740    2.881920   -1.224982
  O      2.542083    2.530535   -1.907993
  C      3.440600    1.946820   -0.966481
  C      2.556854    1.135146   -0.003768
  H     -0.936161    1.626602    0.235351
  H      0.203906    3.325852    1.413080
  H      1.939665    3.209046    1.735240
  H      0.663520    4.867004   -0.453606
  H      2.406310    4.603816   -0.286276
  H      0.547967    2.889085   -1.945982
  H      4.156397    1.340263   -1.526163
  H      4.000869    2.726976   -0.428933
  H      3.010928    1.020903    0.984204
  H      2.353169    0.139439   -0.405387

 Total Charge           Charge          ....    0
 Multiplicity           Mult            ....    1
 Number of Electrons    NEL             ....   68
 Basis Dimension        Dim             ....  339

ORBITAL ENERGIES
----------------

  NO   OCC          E(Eh)            E(eV)
   0   2.0000     -20.563438      -559.5596
   1   2.0000     -20.558165      -559.4161
   2   2.0000     -11.332776      -308.3805
   3   2.0000     -11.295307      -307.3609
   4   2.0000     -11.281034      -306.9725
   5   2.0000     -11.250205      -306.1336
   6   2.0000     -11.243128      -305.9411
   7   2.0000     -11.234685      -305.7113
   8   2.0000     -11.230166      -305.5883
   9   2.0000      -1.398480       -38.0546
  10   2.0000      -1.391468       -37.8638
  11   2.0000      -1.142401       -31.0863
  12   2.0000      -1.039776       -28.2937
  13   2.0000      -0.952862       -25.9287
  14   2.0000      -0.909214       -24.7410
  15   2.0000      -0.847403       -23.0590
  16   2.0000      -0.797162       -21.6919
  17   2.0000      -0.749662       -20.3993
  18   2.0000      -0.708432       -19.2774
  19   2.0000      -0.675876       -18.3915
  20   2.0000      -0.659990       -17.9592
  21   2.0000      -0.636266       -17.3137
  22   2.0000      -0.610678       -16.6174
  23   2.0000      -0.595566       -16.2062
  24   2.0000      -0.574101       -15.6221
  25   2.0000      -0.551611       -15.0101
  26   2.0000      -0.533602       -14.5201
  27   2.0000      -0.513475       -13.9724
  28   2.0000      -0.504931       -13.7399
  29   2.0000      -0.492836       -13.4108
  30   2.0000      -0.459022       -12.4906
  31   2.0000      -0.434285       -11.8175
  32   2.0000      -0.428350       -11.6560
  33   2.0000      -0.404095       -10.9960
  34   0.0000       0.119539         3.2528
  35   0.0000       0.131672         3.5830
  36   0.0000       0.152602         4.1525
  37   0.0000       0.162821         4.4306
  38   0.0000       0.171748         4.6735

MULLIKEN ATOMIC CHARGES
-----------------------
   0 O :   -0.265101
   1 C :    0.031368
   2 C :    0.268496
   3 C :   -0.319041
   4 C :   -0.227932
   5 C :   -0.016977
   6 O :   -0.301447
   7 C :   -0.046160
   8 C :   -0.320643
   9 H :    0.079732
  10 H :    0.126675
  11 H :    0.122330
  12 H :    0.122581
  13 H :    0.128076
  14 H :    0.115945
  15 H :    0.127688
  16 H :    0.097104
  17 H :    0.125276
  18 H :    0.152030
Sum of atomic charges:    0.0000000

LOEWDIN ATOMIC CHARGES
----------------------
   0 O :    0.137256
   1 C :   -0.264032
   2 C :   -0.227687
   3 C :   -0.196050
   4 C :   -0.219238
   5 C :   -0.242741
   6 O :    0.184669
   7 C :   -0.291545
   8 C :   -0.211593
   9 H :    0.115889
  10 H :    0.134834
  11 H :    0.133140
  12 H :    0.131197
  13 H :    0.136917
  14 H :    0.138370
  15 H :    0.128649
  16 H :    0.118412
  17 H :    0.141901
  18 H :    0.151655

  Mayer bond orders larger than 0.1
B(  0-O ,  1-C ) :   1.9884 B(  1-C ,  2-C ) :   0.8285 B(  1-C ,  9-H ) :   0.9507
B(  2-C ,  3-C ) :   0.8947 B(  2-C ,  5-C ) :   0.8518 B(  2-C ,  8-C ) :   0.8814
B(  3-C ,  4-C ) :   0.9621 B(  3-C , 10-H ) :   0.9110 B(  3-C , 11-H ) :   0.9178
B(  4-C ,  5-C ) :   0.8797 B(  4-C , 12-H ) :   0.9157 B(  4-C , 13-H ) :   0.9186
B(  5-C ,  6-O ) :   1.0084 B(  5-C , 14-H ) :   0.9319 B(  6-O ,  7-C ) :   0.8999
B(  7-C ,  8-C ) :   0.9574 B(  7-C , 15-H ) :   0.9297 B(  7-C , 16-H ) :   0.9284
B(  8-C , 17-H ) :   0.9260 B(  8-C , 18-H ) :   0.9127

MP2 TOTAL ENERGY:     -422.322849978 Eh
FINAL SINGLE POINT ENERGY      -422.322849977525

DIPOLE MOMENT
-------------
                                X             Y             Z
Electronic contribution:     -2.57406      -3.93909      -2.50928
Nuclear contribution   :      2.80408       4.83751       3.14207
                        -----------------------------------------
Total Dipole Moment    :      0.23002       0.89842       0.63279
                        -----------------------------------------
Magnitude (a.u.)       :      1.12271
Magnitude (Debye)      :      2.85371

                             ****ORCA TERMINATED NORMALLY****
TOTAL RUN TIME: 0 days 0 hours 19 minutes 28 seconds 697 msec
