                         Program Version 3.0.3 - RELEASE   -
|  1> ! RI-MP2 RIJK def2-TZVP def2-TZVP/C def2-TZVP/JK TIGHTSCF
|  2> % maxcore 2000
|  3> % mp2 density relaxed end
|  4> *xyz 0 1
|  5>  C        0.0901148058    -1.1458031083     0.0883976292
|  6>  C       -0.0038317559     0.0520357007     0.0272441129
|  7>  C       -0.0697269984     1.4668799568    -0.0523335771
|  8>  N       -1.1402509293     2.1636806765     0.0673130343
|  9>  C       -0.6941064149     3.5350449804    -0.0110708810
| 10>  C        0.5136237438     3.9884358595     0.8571932014
| 11>  C        1.3477405922     2.7897971297     1.2503613618
| 12>  N        1.1757170457     2.2193486363    -0.1740203150
| 13>  C        0.6789555570     3.5871092614    -0.5865206414
| 14>  H        0.1598109492    -2.2045204342     0.1402860057
| 15>  H       -1.4382785052     4.2900835275    -0.2273819636
| 16>  H        0.5142704951     4.9724477797     1.3084329360
| 17>  H        2.3999443316     3.0390608182     1.3974911452
| 18>  H        1.0052918487     2.1262630747     2.0514064298
| 19>  H        1.0422123045     4.0884869912    -1.4748537981
| 20> *
| 21>
| 22>                          ****END OF INPUT****

CARTESIAN COORDINATES (ANGSTROEM)
---------------------------------
  C      0.090115   -1.145803    0.088398
  C     -0.003832    0.052036    0.027244
  C     -0.069727    1.466880   -0.052334
  N     -1.140251    2.163681    0.067313
  C     -0.694106    3.535045   -0.011071
  C      0.513624    3.988436    0.857193
  C      1.347741    2.789797    1.250361
  N      1.175717    2.219349   -0.174020
  C      0.678956    3.587109   -0.586521
  H      0.159811   -2.204520    0.140286
  H     -1.438279    4.290084   -0.227382
  H      0.514270    4.972448    1.308433
  H      2.399944    3.039061    1.397491
  H      1.005292    2.126263    2.051406
  H      1.042212    4.088487   -1.474854

 Total Charge           Charge          ....    0
 Multiplicity           Mult            ....    1
 Number of Electrons    NEL             ....   62
 Basis Dimension        Dim             ....  315

ORBITAL ENERGIES
----------------

  NO   OCC          E(Eh)            E(eV)
   0   2.0000     -15.582982      -424.0345
   1   2.0000     -15.568848      -423.6499
   2   2.0000     -11.327606      -308.2398
   3   2.0000     -11.279155      -306.9214
   4   2.0000     -11.276283      -306.8433
   5   2.0000     -11.275518      -306.8224
   6   2.0000     -11.257554      -306.3336
   7   2.0000     -11.249716      -306.1203
   8   2.0000     -11.245875      -306.0158
   9   2.0000      -1.346670       -36.6448
  10   2.0000      -1.188516       -32.3412
  11   2.0000      -1.105776       -30.0897
  12   2.0000      -1.037480       -28.2313
  13   2.0000      -0.952606       -25.9217
  14   2.0000      -0.880752       -23.9665
  15   2.0000      -0.821657       -22.3584
  16   2.0000      -0.771375       -20.9902
  17   2.0000      -0.721767       -19.6403
  18   2.0000      -0.711341       -19.3566
  19   2.0000      -0.673258       -18.3203
  20   2.0000      -0.621088       -16.9007
  21   2.0000      -0.611137       -16.6299
  22   2.0000      -0.564339       -15.3564
  23   2.0000      -0.540227       -14.7003
  24   2.0000      -0.499168       -13.5831
  25   2.0000      -0.478272       -13.0144
  26   2.0000      -0.454656       -12.3718
  27   2.0000      -0.420806       -11.4507
  28   2.0000      -0.413314       -11.2469
  29   2.0000      -0.394496       -10.7348
  30   2.0000      -0.347025        -9.4430
  31   0.0000       0.091811         2.4983
  32   0.0000       0.151600         4.1252
  33   0.0000       0.156886         4.2691
  34   0.0000       0.166673         4.5354
  35   0.0000       0.170971         4.6524

MULLIKEN ATOMIC CHARGES
-----------------------
   0 C :   -0.084908
   1 C :    0.080053
   2 C :   -0.097033
   3 N :   -0.192824
   4 C :   -0.063793
   5 C :   -0.192399
   6 C :   -0.117629
   7 N :   -0.194394
   8 C :   -0.040299
   9 H :    0.199984
  10 H :    0.140005
  11 H :    0.143388
  12 H :    0.137473
  13 H :    0.132062
  14 H :    0.150314
Sum of atomic charges:   -0.0000000

LOEWDIN ATOMIC CHARGES
----------------------
   0 C :   -0.045723
   1 C :   -0.057417
   2 C :   -0.292428
   3 N :    0.169761
   4 C :   -0.221306
   5 C :   -0.167390
   6 C :   -0.194125
   7 N :    0.151708
   8 C :   -0.166850
   9 H :    0.130982
  10 H :    0.148728
  11 H :    0.140477
  12 H :    0.138670
  13 H :    0.130413
  14 H :    0.134502

  Mayer bond orders larger than 0.1
B(  0-C ,  1-C ) :   2.6186 B(  0-C ,  2-C ) :  -0.1535 B(  0-C ,  9-H ) :   0.8698
B(  1-C ,  2-C ) :   1.2192 B(  2-C ,  3-N ) :   1.8492 B(  2-C ,  7-N ) :   0.9274
B(  3-N ,  4-C ) :   0.9839 B(  4-C ,  5-C ) :   0.8165 B(  4-C ,  8-C ) :   0.8930
B(  4-C , 10-H ) :   0.9409 B(  5-C ,  6-C ) :   0.9893 B(  5-C ,  8-C ) :   0.8440
B(  5-C , 11-H ) :   0.9149 B(  6-C ,  7-N ) :   0.8631 B(  6-C , 12-H ) :   0.9161
B(  6-C , 13-H ) :   0.9211 B(  7-N ,  8-C ) :   0.9121 B(  8-C , 14-H ) :   0.9042

MP2 TOTAL ENERGY:     -378.892633726 Eh
FINAL SINGLE POINT ENERGY      -378.892633725946

DIPOLE MOMENT
-------------
                                X             Y             Z
Electronic contribution:     -1.70683      -2.83268      -1.71416
Nuclear contribution   :      2.18663       3.42690       2.01269
                        -----------------------------------------
Total Dipole Moment    :      0.47980       0.59422       0.29853
                        -----------------------------------------
Magnitude (a.u.)       :      0.82001
Magnitude (Debye)      :      2.08431

                             ****ORCA TERMINATED NORMALLY****
TOTAL RUN TIME: 0 days 0 hours 18 minutes 23 seconds 83 msec
