                         Program Version 3.0.3 - RELEASE   -
|  1> ! RI-MP2 RIJK def2-TZVP def2-TZVP/C def2-TZVP/JK TIGHTSCF
|  2> % maxcore 2000
|  3> % mp2 density relaxed end
|  4> *xyz 0 1
|  5>  C       -0.1065475338     1.5324687834    -0.1052982091
|  6>  C        0.0222439645     0.0295105436     0.0204178206
|  7>  C        1.3501677229    -0.6673030385    -0.1844773797
|  8>  C        0.6981300644    -0.6557499050     1.1838705415
|  9>  C        1.3545973841     0.1326449068     2.3080132983
| 10>  C        2.3198931742    -0.7719052747     3.0839697875
| 11>  O        1.6770921368    -1.9382564910     3.5689060930
| 12>  C        1.1471767255    -2.7288109006     2.5178109438
| 13>  C        0.1031348507    -1.9562828446     1.7047392862
| 14>  H        0.7889793251     2.0528946659     0.2458337875
| 15>  H       -0.2595743579     1.8200753060    -1.1514177107
| 16>  H       -0.9584042358     1.9121005100     0.4704068826
| 17>  H       -0.8395809034    -0.5097691080    -0.3688891947
| 18>  H        1.3735588360    -1.5947634315    -0.7480599107
| 19>  H        2.2243902503    -0.0399743689    -0.3335383924
| 20>  H        1.9007386241     1.0022569105     1.9290783238
| 21>  H        0.5883424662     0.5037088776     3.0015278969
| 22>  H        3.1679683129    -1.0508730999     2.4347324414
| 23>  H        2.7213001080    -0.2574054401     3.9621351549
| 24>  H        1.9608737590    -3.0672292549     1.8530609913
| 25>  H        0.7078938172    -3.6119429209     2.9912243326
| 26>  H       -0.7556418324    -1.7377671473     2.3533809696
| 27>  H       -0.2609884988    -2.5786533479     0.8788633758
| 28> *
| 29>
| 30>                          ****END OF INPUT****

CARTESIAN COORDINATES (ANGSTROEM)
---------------------------------
  C     -0.106548    1.532469   -0.105298
  C      0.022244    0.029511    0.020418
  C      1.350168   -0.667303   -0.184477
  C      0.698130   -0.655750    1.183871
  C      1.354597    0.132645    2.308013
  C      2.319893   -0.771905    3.083970
  O      1.677092   -1.938256    3.568906
  C      1.147177   -2.728811    2.517811
  C      0.103135   -1.956283    1.704739
  H      0.788979    2.052895    0.245834
  H     -0.259574    1.820075   -1.151418
  H     -0.958404    1.912101    0.470407
  H     -0.839581   -0.509769   -0.368889
  H      1.373559   -1.594763   -0.748060
  H      2.224390   -0.039974   -0.333538
  H      1.900739    1.002257    1.929078
  H      0.588342    0.503709    3.001528
  H      3.167968   -1.050873    2.434732
  H      2.721300   -0.257405    3.962135
  H      1.960874   -3.067229    1.853061
  H      0.707894   -3.611943    2.991224
  H     -0.755642   -1.737767    2.353381
  H     -0.260988   -2.578653    0.878863

 Total Charge           Charge          ....    0
 Multiplicity           Mult            ....    1
 Number of Electrons    NEL             ....   70
 Basis Dimension        Dim             ....  363

ORBITAL ENERGIES
----------------

  NO   OCC          E(Eh)            E(eV)
   0   2.0000     -20.546240      -559.0916
   1   2.0000     -11.268063      -306.6196
   2   2.0000     -11.267588      -306.6067
   3   2.0000     -11.233785      -305.6868
   4   2.0000     -11.228387      -305.5399
   5   2.0000     -11.221005      -305.3391
   6   2.0000     -11.220417      -305.3231
   7   2.0000     -11.219355      -305.2942
   8   2.0000     -11.217280      -305.2377
   9   2.0000      -1.368437       -37.2371
  10   2.0000      -1.159436       -31.5498
  11   2.0000      -1.023526       -27.8516
  12   2.0000      -1.019792       -27.7499
  13   2.0000      -0.951589       -25.8941
  14   2.0000      -0.863886       -23.5075
  15   2.0000      -0.835860       -22.7449
  16   2.0000      -0.783144       -21.3104
  17   2.0000      -0.730262       -19.8714
  18   2.0000      -0.672694       -18.3049
  19   2.0000      -0.642993       -17.4967
  20   2.0000      -0.634562       -17.2673
  21   2.0000      -0.626290       -17.0422
  22   2.0000      -0.599182       -16.3046
  23   2.0000      -0.572987       -15.5918
  24   2.0000      -0.564101       -15.3500
  25   2.0000      -0.548971       -14.9383
  26   2.0000      -0.534131       -14.5344
  27   2.0000      -0.529246       -14.4015
  28   2.0000      -0.505036       -13.7427
  29   2.0000      -0.488529       -13.2936
  30   2.0000      -0.463895       -12.6232
  31   2.0000      -0.451098       -12.2750
  32   2.0000      -0.431282       -11.7358
  33   2.0000      -0.396097       -10.7783
  34   2.0000      -0.372557       -10.1378
  35   0.0000       0.136037         3.7018
  36   0.0000       0.151572         4.1245
  37   0.0000       0.157444         4.2843
  38   0.0000       0.174550         4.7498
  39   0.0000       0.189181         5.1479

MULLIKEN ATOMIC CHARGES
-----------------------
   0 C :   -0.404572
   1 C :   -0.072198
   2 C :   -0.339685
   3 C :    0.101720
   4 C :   -0.231302
   5 C :   -0.061179
   6 O :   -0.307661
   7 C :   -0.072188
   8 C :   -0.228629
   9 H :    0.121116
  10 H :    0.136160
  11 H :    0.131443
  12 H :    0.112644
  13 H :    0.128308
  14 H :    0.122632
  15 H :    0.105007
  16 H :    0.108187
  17 H :    0.094104
  18 H :    0.121943
  19 H :    0.093235
  20 H :    0.121951
  21 H :    0.108190
  22 H :    0.110774
Sum of atomic charges:   -0.0000000

LOEWDIN ATOMIC CHARGES
----------------------
   0 C :   -0.294206
   1 C :   -0.215096
   2 C :   -0.193453
   3 C :   -0.236956
   4 C :   -0.223765
   5 C :   -0.311960
   6 O :    0.150272
   7 C :   -0.312396
   8 C :   -0.225280
   9 H :    0.123302
  10 H :    0.126101
  11 H :    0.125287
  12 H :    0.149405
  13 H :    0.131476
  14 H :    0.134539
  15 H :    0.142185
  16 H :    0.144433
  17 H :    0.121205
  18 H :    0.128217
  19 H :    0.120900
  20 H :    0.128007
  21 H :    0.143905
  22 H :    0.143880

  Mayer bond orders larger than 0.1
B(  0-C ,  1-C ) :   0.8996 B(  0-C ,  9-H ) :   0.9384 B(  0-C , 10-H ) :   0.9393
B(  0-C , 11-H ) :   0.9403 B(  1-C ,  2-C ) :   0.9190 B(  1-C ,  3-C ) :   0.8223
B(  1-C , 12-H ) :   0.9290 B(  2-C ,  3-C ) :   0.8681 B(  2-C , 13-H ) :   0.9232
B(  2-C , 14-H ) :   0.9235 B(  3-C ,  4-C ) :   0.9399 B(  3-C ,  8-C ) :   0.9165
B(  4-C ,  5-C ) :   0.9553 B(  4-C , 15-H ) :   0.9171 B(  4-C , 16-H ) :   0.9115
B(  5-C ,  6-O ) :   0.9378 B(  5-C , 17-H ) :   0.9383 B(  5-C , 18-H ) :   0.9320
B(  6-O ,  7-C ) :   0.9325 B(  7-C ,  8-C ) :   0.9553 B(  7-C , 19-H ) :   0.9351
B(  7-C , 20-H ) :   0.9321 B(  8-C , 21-H ) :   0.9144 B(  8-C , 22-H ) :   0.9164

MP2 TOTAL ENERGY:     -387.616566619 Eh
FINAL SINGLE POINT ENERGY      -387.616566619435

DIPOLE MOMENT
-------------
                                X             Y             Z
Electronic contribution:      1.01882      -3.39479       3.95771
Nuclear contribution   :     -1.09454       3.60362      -4.47816
                        -----------------------------------------
Total Dipole Moment    :     -0.07572       0.20883      -0.52045
                        -----------------------------------------
Magnitude (a.u.)       :      0.56587
Magnitude (Debye)      :      1.43833

                             ****ORCA TERMINATED NORMALLY****
TOTAL RUN TIME: 0 days 0 hours 20 minutes 37 seconds 730 msec
