                         Program Version 3.0.3 - RELEASE   -
|  1> ! RI-MP2 RIJK def2-TZVP def2-TZVP/C def2-TZVP/JK TIGHTSCF
|  2> % maxcore 2000
|  3> % mp2 density relaxed end
|  4> *xyz 0 1
|  5>  C       -0.0831612176     1.6219332135     0.1832349937
|  6>  C        0.0126461256     0.1031888648     0.0119527375
|  7>  C       -1.3637086294    -0.5630998845    -0.0953079360
|  8>  C       -1.3440861190    -2.1075375363    -0.0871124570
|  9>  C       -0.5346735394    -2.6953871901    -1.2442857704
| 10>  O       -0.7262352850    -2.5995423583     1.0985258250
| 11>  C       -2.8194643679    -2.6037406590    -0.1496576663
| 12>  C       -2.9507081751    -4.0552089751    -0.0541328375
| 13>  N       -3.0641231135    -5.2030879277     0.0132978682
| 14>  H        0.9102935434     2.0748188635     0.2547891741
| 15>  H       -0.6004015727     2.0874437341    -0.6632548059
| 16>  H       -0.6352737863     1.8866085600     1.0920975827
| 17>  H        0.6036672579    -0.1219329633    -0.8829749826
| 18>  H        0.5530515890    -0.3379547173     0.8564141401
| 19>  H       -1.9865801532    -0.2295026936     0.7490274650
| 20>  H       -1.8768655233    -0.2145753304    -1.0014283277
| 21>  H        0.5160242174    -2.4158252952    -1.1497914833
| 22>  H       -0.5962156469    -3.7862507139    -1.2318720046
| 23>  H       -0.9096384930    -2.3325493689    -2.2058551599
| 24>  H       -1.1888871296    -2.2346197573     1.8613764649
| 25>  H       -3.3912198786    -2.1498761524     0.6694669027
| 26>  H       -3.2889046626    -2.2687494828    -1.0814834829
| 27> *
| 28>
| 29>                          ****END OF INPUT****

CARTESIAN COORDINATES (ANGSTROEM)
---------------------------------
  C     -0.083161    1.621933    0.183235
  C      0.012646    0.103189    0.011953
  C     -1.363709   -0.563100   -0.095308
  C     -1.344086   -2.107538   -0.087112
  C     -0.534674   -2.695387   -1.244286
  O     -0.726235   -2.599542    1.098526
  C     -2.819464   -2.603741   -0.149658
  C     -2.950708   -4.055209   -0.054133
  N     -3.064123   -5.203088    0.013298
  H      0.910294    2.074819    0.254789
  H     -0.600402    2.087444   -0.663255
  H     -0.635274    1.886609    1.092098
  H      0.603667   -0.121933   -0.882975
  H      0.553052   -0.337955    0.856414
  H     -1.986580   -0.229503    0.749027
  H     -1.876866   -0.214575   -1.001428
  H      0.516024   -2.415825   -1.149791
  H     -0.596216   -3.786251   -1.231872
  H     -0.909638   -2.332549   -2.205855
  H     -1.188887   -2.234620    1.861376
  H     -3.391220   -2.149876    0.669467
  H     -3.288905   -2.268749   -1.081483

 Total Charge           Charge          ....    0
 Multiplicity           Mult            ....    1
 Number of Electrons    NEL             ....   70
 Basis Dimension        Dim             ....  357

ORBITAL ENERGIES
----------------

  NO   OCC          E(Eh)            E(eV)
   0   2.0000     -20.570353      -559.7478
   1   2.0000     -15.564582      -423.5338
   2   2.0000     -11.315767      -307.9177
   3   2.0000     -11.282466      -307.0115
   4   2.0000     -11.269746      -306.6654
   5   2.0000     -11.241658      -305.9011
   6   2.0000     -11.231400      -305.6219
   7   2.0000     -11.224854      -305.4438
   8   2.0000     -11.224321      -305.4293
   9   2.0000      -1.382080       -37.6083
  10   2.0000      -1.214335       -33.0437
  11   2.0000      -1.107550       -30.1380
  12   2.0000      -1.057205       -28.7680
  13   2.0000      -0.989506       -26.9258
  14   2.0000      -0.946555       -25.7571
  15   2.0000      -0.840981       -22.8843
  16   2.0000      -0.791992       -21.5512
  17   2.0000      -0.716630       -19.5005
  18   2.0000      -0.669276       -18.2119
  19   2.0000      -0.666344       -18.1321
  20   2.0000      -0.650833       -17.7101
  21   2.0000      -0.636936       -17.3319
  22   2.0000      -0.584824       -15.9139
  23   2.0000      -0.579678       -15.7738
  24   2.0000      -0.552801       -15.0425
  25   2.0000      -0.549141       -14.9429
  26   2.0000      -0.542551       -14.7636
  27   2.0000      -0.531571       -14.4648
  28   2.0000      -0.521904       -14.2017
  29   2.0000      -0.503794       -13.7089
  30   2.0000      -0.483855       -13.1664
  31   2.0000      -0.482394       -13.1266
  32   2.0000      -0.463879       -12.6228
  33   2.0000      -0.454186       -12.3590
  34   2.0000      -0.437131       -11.8949
  35   0.0000       0.106161         2.8888
  36   0.0000       0.138416         3.7665
  37   0.0000       0.146136         3.9766
  38   0.0000       0.160510         4.3677
  39   0.0000       0.169928         4.6240

MULLIKEN ATOMIC CHARGES
-----------------------
   0 C :   -0.388289
   1 C :   -0.195753
   2 C :   -0.293715
   3 C :    0.235564
   4 C :   -0.447493
   5 O :   -0.457275
   6 C :   -0.162698
   7 C :   -0.170962
   8 N :   -0.046343
   9 H :    0.139879
  10 H :    0.122349
  11 H :    0.122917
  12 H :    0.117544
  13 H :    0.124015
  14 H :    0.111883
  15 H :    0.117218
  16 H :    0.150605
  17 H :    0.169638
  18 H :    0.124954
  19 H :    0.312986
  20 H :    0.153999
  21 H :    0.158978
Sum of atomic charges:   -0.0000000

LOEWDIN ATOMIC CHARGES
----------------------
   0 C :   -0.319382
   1 C :   -0.291649
   2 C :   -0.240636
   3 C :   -0.395545
   4 C :   -0.258657
   5 O :    0.026008
   6 C :   -0.219372
   7 C :   -0.194806
   8 N :    0.058861
   9 H :    0.122742
  10 H :    0.120520
  11 H :    0.119917
  12 H :    0.136983
  13 H :    0.139678
  14 H :    0.140363
  15 H :    0.144731
  16 H :    0.132126
  17 H :    0.138119
  18 H :    0.130113
  19 H :    0.177827
  20 H :    0.163633
  21 H :    0.168424

  Mayer bond orders larger than 0.1
B(  0-C ,  1-C ) :   0.9154 B(  0-C ,  9-H ) :   0.9444 B(  0-C , 10-H ) :   0.9365
B(  0-C , 11-H ) :   0.9418 B(  1-C ,  2-C ) :   0.9290 B(  1-C , 12-H ) :   0.9331
B(  1-C , 13-H ) :   0.9332 B(  2-C ,  3-C ) :   0.9318 B(  2-C , 14-H ) :   0.9194
B(  2-C , 15-H ) :   0.9199 B(  3-C ,  4-C ) :   0.8822 B(  3-C ,  5-O ) :   0.9044
B(  3-C ,  6-C ) :   0.9057 B(  4-C , 16-H ) :   0.9400 B(  4-C , 17-H ) :   0.9315
B(  4-C , 18-H ) :   0.9297 B(  5-O , 19-H ) :   0.8395 B(  6-C ,  7-C ) :   0.9536
B(  6-C , 20-H ) :   0.8981 B(  6-C , 21-H ) :   0.9036 B(  7-C ,  8-N ) :   2.8862

MP2 TOTAL ENERGY:     -403.690716396 Eh
FINAL SINGLE POINT ENERGY      -403.690716395804

DIPOLE MOMENT
-------------
                                X             Y             Z
Electronic contribution:     -5.72772     -12.41669       2.21627
Nuclear contribution   :      5.68546      14.36103      -2.33366
                        -----------------------------------------
Total Dipole Moment    :     -0.04226       1.94433      -0.11739
                        -----------------------------------------
Magnitude (a.u.)       :      1.94833
Magnitude (Debye)      :      4.95227

                             ****ORCA TERMINATED NORMALLY****
TOTAL RUN TIME: 0 days 0 hours 18 minutes 13 seconds 293 msec
