                         Program Version 3.0.3 - RELEASE   -
|  1> ! RI-MP2 RIJK def2-TZVP def2-TZVP/C def2-TZVP/JK TIGHTSCF
|  2> % maxcore 2000
|  3> % mp2 density relaxed end
|  4> *xyz 0 1
|  5>  C       -0.0421292574     1.5789202944    -0.1314728612
|  6>  C        0.0035847609     0.0612842540    -0.0070335471
|  7>  C        1.0569122373    -0.6782847532    -0.8976068817
|  8>  N        1.7629436372    -1.1654918400     0.3314772727
|  9>  C        0.7193872070    -0.5689515554     1.2366585704
| 10>  C        1.8246289417     0.1875474533     2.0200426671
| 11>  C        2.1215232883    -0.3000472863     3.4360653897
| 12>  C        2.7548937050    -0.3111136534     0.8824264755
| 13>  O        3.8525107360    -0.0359937072     0.4906788325
| 14>  H        0.9557444838     2.0254244469    -0.0713400138
| 15>  H       -0.4715026915     1.8704869237    -1.0957668397
| 16>  H       -0.6591136369     2.0234113085     0.6569702057
| 17>  H       -1.0039752467    -0.3454688974    -0.1302191980
| 18>  H        0.6598833738    -1.5031182281    -1.4939811087
| 19>  H        1.6896938188    -0.0494638722    -1.5309148193
| 20>  H        0.1204901658    -1.2744428096     1.8181083464
| 21>  H        1.7423425238     1.2781159276     2.0023976096
| 22>  H        2.1853355865    -1.3920778760     3.4733713003
| 23>  H        3.0745166041     0.1058936758     3.7877100042
| 24>  H        1.3386865824     0.0188673846     4.1318196154
| 25> *
| 26>
| 27>                          ****END OF INPUT****

CARTESIAN COORDINATES (ANGSTROEM)
---------------------------------
  C     -0.042129    1.578920   -0.131473
  C      0.003585    0.061284   -0.007034
  C      1.056912   -0.678285   -0.897607
  N      1.762944   -1.165492    0.331477
  C      0.719387   -0.568952    1.236659
  C      1.824629    0.187547    2.020043
  C      2.121523   -0.300047    3.436065
  C      2.754894   -0.311114    0.882426
  O      3.852511   -0.035994    0.490679
  H      0.955744    2.025424   -0.071340
  H     -0.471503    1.870487   -1.095767
  H     -0.659114    2.023411    0.656970
  H     -1.003975   -0.345469   -0.130219
  H      0.659883   -1.503118   -1.493981
  H      1.689694   -0.049464   -1.530915
  H      0.120490   -1.274443    1.818108
  H      1.742343    1.278116    2.002398
  H      2.185336   -1.392078    3.473371
  H      3.074517    0.105894    3.787710
  H      1.338687    0.018867    4.131820

 Total Charge           Charge          ....    0
 Multiplicity           Mult            ....    1
 Number of Electrons    NEL             ....   68
 Basis Dimension        Dim             ....  345

ORBITAL ENERGIES
----------------

  NO   OCC          E(Eh)            E(eV)
   0   2.0000     -20.540229      -558.9281
   1   2.0000     -15.566264      -423.5796
   2   2.0000     -11.347142      -308.7714
   3   2.0000     -11.271823      -306.7219
   4   2.0000     -11.271022      -306.7001
   5   2.0000     -11.253419      -306.2211
   6   2.0000     -11.251081      -306.1575
   7   2.0000     -11.233940      -305.6910
   8   2.0000     -11.231818      -305.6333
   9   2.0000      -1.396594       -38.0032
  10   2.0000      -1.284552       -34.9544
  11   2.0000      -1.073628       -29.2149
  12   2.0000      -1.044148       -28.4127
  13   2.0000      -0.951558       -25.8932
  14   2.0000      -0.918649       -24.9977
  15   2.0000      -0.852560       -23.1993
  16   2.0000      -0.779803       -21.2195
  17   2.0000      -0.708685       -19.2843
  18   2.0000      -0.678279       -18.4569
  19   2.0000      -0.666483       -18.1359
  20   2.0000      -0.665740       -18.1157
  21   2.0000      -0.597234       -16.2516
  22   2.0000      -0.582141       -15.8409
  23   2.0000      -0.580827       -15.8051
  24   2.0000      -0.574807       -15.6413
  25   2.0000      -0.550888       -14.9904
  26   2.0000      -0.544444       -14.8151
  27   2.0000      -0.529873       -14.4186
  28   2.0000      -0.507313       -13.8047
  29   2.0000      -0.491965       -13.3871
  30   2.0000      -0.471069       -12.8184
  31   2.0000      -0.447447       -12.1757
  32   2.0000      -0.414235       -11.2719
  33   2.0000      -0.375973       -10.2307
  34   0.0000       0.125001         3.4015
  35   0.0000       0.130899         3.5620
  36   0.0000       0.152809         4.1581
  37   0.0000       0.169652         4.6165
  38   0.0000       0.182675         4.9708

MULLIKEN ATOMIC CHARGES
-----------------------
   0 C :   -0.450778
   1 C :   -0.026046
   2 C :   -0.173372
   3 N :   -0.124556
   4 C :   -0.062113
   5 C :   -0.059899
   6 C :   -0.433022
   7 C :    0.146959
   8 O :   -0.274779
   9 H :    0.141440
  10 H :    0.143013
  11 H :    0.136290
  12 H :    0.112473
  13 H :    0.126839
  14 H :    0.129545
  15 H :    0.111705
  16 H :    0.126656
  17 H :    0.141486
  18 H :    0.151032
  19 H :    0.137128
Sum of atomic charges:   -0.0000000

LOEWDIN ATOMIC CHARGES
----------------------
   0 C :   -0.297688
   1 C :   -0.236224
   2 C :   -0.204031
   3 N :    0.173685
   4 C :   -0.163928
   5 C :   -0.207585
   6 C :   -0.286023
   7 C :   -0.385738
   8 O :    0.141230
   9 H :    0.126339
  10 H :    0.128130
  11 H :    0.127004
  12 H :    0.146322
  13 H :    0.127042
  14 H :    0.131415
  15 H :    0.134767
  16 H :    0.157562
  17 H :    0.130014
  18 H :    0.131987
  19 H :    0.125720

  Mayer bond orders larger than 0.1
B(  0-C ,  1-C ) :   0.8991 B(  0-C ,  9-H ) :   0.9325 B(  0-C , 10-H ) :   0.9361
B(  0-C , 11-H ) :   0.9366 B(  1-C ,  2-C ) :   0.9376 B(  1-C ,  4-C ) :   0.8936
B(  1-C , 12-H ) :   0.9224 B(  2-C ,  3-N ) :   0.8789 B(  2-C , 13-H ) :   0.9181
B(  2-C , 14-H ) :   0.9228 B(  3-N ,  4-C ) :   0.9140 B(  3-N ,  7-C ) :   1.0174
B(  4-C ,  5-C ) :   0.9097 B(  4-C , 15-H ) :   0.9023 B(  5-C ,  6-C ) :   0.8823
B(  5-C ,  7-C ) :   0.8895 B(  5-C , 16-H ) :   0.8970 B(  6-C , 17-H ) :   0.9343
B(  6-C , 18-H ) :   0.9376 B(  6-C , 19-H ) :   0.9362 B(  7-C ,  8-O ) :   2.0414

MP2 TOTAL ENERGY:     -402.448598635 Eh
FINAL SINGLE POINT ENERGY      -402.448598635406

DIPOLE MOMENT
-------------
                                X             Y             Z
Electronic contribution:      5.72837      -3.42856      -2.09504
Nuclear contribution   :     -7.20349       3.77714       2.36144
                        -----------------------------------------
Total Dipole Moment    :     -1.47512       0.34858       0.26640
                        -----------------------------------------
Magnitude (a.u.)       :      1.53898
Magnitude (Debye)      :      3.91177

                             ****ORCA TERMINATED NORMALLY****
TOTAL RUN TIME: 0 days 0 hours 21 minutes 18 seconds 922 msec
