                         Program Version 3.0.3 - RELEASE   -
|  1> ! RI-MP2 RIJK def2-TZVP def2-TZVP/C def2-TZVP/JK TIGHTSCF
|  2> % maxcore 2000
|  3> % mp2 density relaxed end
|  4> *xyz 0 1
|  5>  O        0.3323970868     1.4015947924     0.1211206910
|  6>  C        0.1632131102    -0.0040888711     0.0890701257
|  7>  C        0.2283872458    -0.5745252483     1.5276613226
|  8>  C       -1.3283225385    -0.5758781042     1.5825319712
|  9>  C       -1.9477095046     0.6616132618     2.2436904764
| 10>  C       -3.3231104809     1.0020983946     1.6456960014
| 11>  C       -3.2802618388     1.0606330658     0.1379541625
| 12>  C       -2.3706146238     0.4099220384    -0.5916924614
| 13>  C       -1.3353685045    -0.4694551458     0.0289289723
| 14>  H       -0.2743409963     1.7876760286    -0.5207550785
| 15>  H        0.8347135983    -0.4538095771    -0.6550261365
| 16>  H        0.6491065734    -1.5834276603     1.5480642235
| 17>  H        0.7569515066     0.0520367612     2.2497670329
| 18>  H       -1.7884730719    -1.4870621274     1.9767241727
| 19>  H       -2.0253498351     0.5152547620     3.3270768346
| 20>  H       -1.2841619454     1.5158842251     2.0795129891
| 21>  H       -4.0759379895     0.2633940080     1.9600577613
| 22>  H       -3.6746942177     1.9622649971     2.0418419601
| 23>  H       -4.0447413427     1.6544348681    -0.3582964796
| 24>  H       -2.3917402156     0.4828744429    -1.6782038203
| 25>  H       -1.3644993056    -1.4671123919    -0.4255555108
| 26> *
| 27>
| 28>                          ****END OF INPUT****

CARTESIAN COORDINATES (ANGSTROEM)
---------------------------------
  O      0.332397    1.401595    0.121121
  C      0.163213   -0.004089    0.089070
  C      0.228387   -0.574525    1.527661
  C     -1.328323   -0.575878    1.582532
  C     -1.947710    0.661613    2.243690
  C     -3.323110    1.002098    1.645696
  C     -3.280262    1.060633    0.137954
  C     -2.370615    0.409922   -0.591692
  C     -1.335369   -0.469455    0.028929
  H     -0.274341    1.787676   -0.520755
  H      0.834714   -0.453810   -0.655026
  H      0.649107   -1.583428    1.548064
  H      0.756952    0.052037    2.249767
  H     -1.788473   -1.487062    1.976724
  H     -2.025350    0.515255    3.327077
  H     -1.284162    1.515884    2.079513
  H     -4.075938    0.263394    1.960058
  H     -3.674694    1.962265    2.041842
  H     -4.044741    1.654435   -0.358296
  H     -2.391740    0.482874   -1.678204
  H     -1.364499   -1.467112   -0.425556

 Total Charge           Charge          ....    0
 Multiplicity           Mult            ....    1
 Number of Electrons    NEL             ....   68
 Basis Dimension        Dim             ....  351

ORBITAL ENERGIES
----------------

  NO   OCC          E(Eh)            E(eV)
   0   2.0000     -20.548269      -559.1468
   1   2.0000     -11.275055      -306.8098
   2   2.0000     -11.231115      -305.6142
   3   2.0000     -11.227600      -305.5185
   4   2.0000     -11.224706      -305.4398
   5   2.0000     -11.224359      -305.4303
   6   2.0000     -11.223552      -305.4084
   7   2.0000     -11.214981      -305.1752
   8   2.0000     -11.213993      -305.1483
   9   2.0000      -1.357040       -36.9269
  10   2.0000      -1.143500       -31.1162
  11   2.0000      -1.065296       -28.9882
  12   2.0000      -1.009735       -27.4763
  13   2.0000      -0.918116       -24.9832
  14   2.0000      -0.877115       -23.8675
  15   2.0000      -0.818731       -22.2788
  16   2.0000      -0.766290       -20.8518
  17   2.0000      -0.700946       -19.0737
  18   2.0000      -0.690393       -18.7866
  19   2.0000      -0.652760       -17.7625
  20   2.0000      -0.649475       -17.6731
  21   2.0000      -0.606339       -16.4993
  22   2.0000      -0.589235       -16.0339
  23   2.0000      -0.567135       -15.4325
  24   2.0000      -0.538772       -14.6607
  25   2.0000      -0.524686       -14.2774
  26   2.0000      -0.514747       -14.0070
  27   2.0000      -0.514125       -13.9901
  28   2.0000      -0.488264       -13.2863
  29   2.0000      -0.460833       -12.5399
  30   2.0000      -0.447327       -12.1724
  31   2.0000      -0.416732       -11.3398
  32   2.0000      -0.400186       -10.8896
  33   2.0000      -0.347860        -9.4657
  34   0.0000       0.134025         3.6470
  35   0.0000       0.140280         3.8172
  36   0.0000       0.156161         4.2494
  37   0.0000       0.171662         4.6712
  38   0.0000       0.176875         4.8130

MULLIKEN ATOMIC CHARGES
-----------------------
   0 O :   -0.474432
   1 C :    0.035664
   2 C :   -0.218013
   3 C :   -0.033918
   4 C :   -0.300441
   5 C :   -0.167401
   6 C :   -0.135501
   7 C :   -0.345745
   8 C :    0.024199
   9 H :    0.322640
  10 H :    0.093798
  11 H :    0.117811
  12 H :    0.117034
  13 H :    0.102758
  14 H :    0.117551
  15 H :    0.141261
  16 H :    0.117450
  17 H :    0.126037
  18 H :    0.123348
  19 H :    0.127941
  20 H :    0.107958
Sum of atomic charges:   -0.0000000

LOEWDIN ATOMIC CHARGES
----------------------
   0 O :   -0.015189
   1 C :   -0.293020
   2 C :   -0.200336
   3 C :   -0.195150
   4 C :   -0.236854
   5 C :   -0.250143
   6 C :   -0.159799
   7 C :   -0.176146
   8 C :   -0.191299
   9 H :    0.174539
  10 H :    0.119503
  11 H :    0.135456
  12 H :    0.133727
  13 H :    0.139152
  14 H :    0.136171
  15 H :    0.148128
  16 H :    0.145355
  17 H :    0.142360
  18 H :    0.140967
  19 H :    0.142629
  20 H :    0.159951

  Mayer bond orders larger than 0.1
B(  0-O ,  1-C ) :   0.9946 B(  0-O ,  9-H ) :   0.8363 B(  1-C ,  2-C ) :   0.8938
B(  1-C ,  8-C ) :   0.9090 B(  1-C , 10-H ) :   0.9557 B(  2-C ,  3-C ) :   0.9125
B(  2-C , 11-H ) :   0.9174 B(  2-C , 12-H ) :   0.9096 B(  3-C ,  4-C ) :   0.9081
B(  3-C ,  8-C ) :   0.9257 B(  3-C , 13-H ) :   0.9198 B(  4-C ,  5-C ) :   0.9278
B(  4-C , 14-H ) :   0.9338 B(  4-C , 15-H ) :   0.9258 B(  5-C ,  6-C ) :   0.9396
B(  5-C , 16-H ) :   0.9114 B(  5-C , 17-H ) :   0.9308 B(  6-C ,  7-C ) :   1.8006
B(  6-C , 18-H ) :   0.9301 B(  7-C ,  8-C ) :   0.8868 B(  7-C , 19-H ) :   0.9367
B(  8-C , 20-H ) :   0.9041

MP2 TOTAL ENERGY:     -386.416296962 Eh
FINAL SINGLE POINT ENERGY      -386.416296961756

DIPOLE MOMENT
-------------
                                X             Y             Z
Electronic contribution:      1.41064       0.62301      -2.52309
Nuclear contribution   :     -1.91097      -0.91632       2.33521
                        -----------------------------------------
Total Dipole Moment    :     -0.50033      -0.29331      -0.18788
                        -----------------------------------------
Magnitude (a.u.)       :      0.60964
Magnitude (Debye)      :      1.54957

                             ****ORCA TERMINATED NORMALLY****
TOTAL RUN TIME: 0 days 0 hours 21 minutes 53 seconds 855 msec
