                         Program Version 3.0.3 - RELEASE   -
|  1> ! RI-MP2 RIJK def2-TZVP def2-TZVP/C def2-TZVP/JK TIGHTSCF
|  2> % maxcore 2000
|  3> % mp2 density relaxed end
|  4> *xyz 0 1
|  5>  C        0.0587145978     1.5259395244    -0.0290935765
|  6>  C       -0.0263189641     0.0247812836    -0.0147902856
|  7>  C       -1.1998759766    -0.6759020112     0.0070834107
|  8>  C       -2.5460918592    -0.0082523647     0.0191842544
|  9>  C       -1.1449583370    -2.1355112071     0.0190755949
| 10>  O       -2.1314287395    -2.8684998965     0.0392876061
| 11>  C        0.2216454067    -2.6738971990     0.0061211541
| 12>  N        1.3153987475    -1.9748293321    -0.0147000643
| 13>  N        1.1661113422    -0.6437272307    -0.0247274803
| 14>  H        1.0951238265     1.8750003995    -0.0499766998
| 15>  H       -0.4539711389     1.9357051360    -0.9048393296
| 16>  H       -0.4235616299     1.9508870457     0.8566875686
| 17>  H       -2.7045271431     0.6160402862    -0.8682983779
| 18>  H       -3.3129517493    -0.7845158854     0.0391640501
| 19>  H       -2.6787038589     0.6365267233     0.8961404133
| 20>  H        0.3420719319    -3.7528654019     0.0143804639
| 21>  H        2.0348743238    -0.1338796801    -0.0408880019
| 22> *
| 23>
| 24>                          ****END OF INPUT****

CARTESIAN COORDINATES (ANGSTROEM)
---------------------------------
  C      0.058715    1.525940   -0.029094
  C     -0.026319    0.024781   -0.014790
  C     -1.199876   -0.675902    0.007083
  C     -2.546092   -0.008252    0.019184
  C     -1.144958   -2.135511    0.019076
  O     -2.131429   -2.868500    0.039288
  C      0.221645   -2.673897    0.006121
  N      1.315399   -1.974829   -0.014700
  N      1.166111   -0.643727   -0.024727
  H      1.095124    1.875000   -0.049977
  H     -0.453971    1.935705   -0.904839
  H     -0.423562    1.950887    0.856688
  H     -2.704527    0.616040   -0.868298
  H     -3.312952   -0.784516    0.039164
  H     -2.678704    0.636527    0.896140
  H      0.342072   -3.752865    0.014380
  H      2.034874   -0.133880   -0.040888

 Total Charge           Charge          ....    0
 Multiplicity           Mult            ....    1
 Number of Electrons    NEL             ....   66
 Basis Dimension        Dim             ....  327

ORBITAL ENERGIES
----------------

  NO   OCC          E(Eh)            E(eV)
   0   2.0000     -20.508417      -558.0624
   1   2.0000     -15.656038      -426.0225
   2   2.0000     -15.638962      -425.5578
   3   2.0000     -11.319409      -308.0168
   4   2.0000     -11.317889      -307.9754
   5   2.0000     -11.276766      -306.8564
   6   2.0000     -11.264017      -306.5095
   7   2.0000     -11.238917      -305.8265
   8   2.0000     -11.222290      -305.3740
   9   2.0000      -1.389362       -37.8065
  10   2.0000      -1.350316       -36.7440
  11   2.0000      -1.171040       -31.8656
  12   2.0000      -1.099125       -29.9087
  13   2.0000      -1.007858       -27.4252
  14   2.0000      -0.961176       -26.1549
  15   2.0000      -0.872518       -23.7424
  16   2.0000      -0.849119       -23.1057
  17   2.0000      -0.755655       -20.5624
  18   2.0000      -0.733834       -19.9686
  19   2.0000      -0.648491       -17.6463
  20   2.0000      -0.637006       -17.3338
  21   2.0000      -0.620240       -16.8776
  22   2.0000      -0.594438       -16.1755
  23   2.0000      -0.590154       -16.0589
  24   2.0000      -0.579772       -15.7764
  25   2.0000      -0.568070       -15.4580
  26   2.0000      -0.558974       -15.2105
  27   2.0000      -0.523957       -14.2576
  28   2.0000      -0.514942       -14.0123
  29   2.0000      -0.493737       -13.4353
  30   2.0000      -0.409685       -11.1481
  31   2.0000      -0.398372       -10.8403
  32   2.0000      -0.321708        -8.7541
  33   0.0000       0.100072         2.7231
  34   0.0000       0.110991         3.0202
  35   0.0000       0.120064         3.2671
  36   0.0000       0.138773         3.7762
  37   0.0000       0.177019         4.8169

MULLIKEN ATOMIC CHARGES
-----------------------
   0 C :   -0.399383
   1 C :    0.129741
   2 C :   -0.045241
   3 C :   -0.434013
   4 C :    0.186638
   5 O :   -0.380952
   6 C :   -0.098177
   7 N :   -0.179032
   8 N :   -0.098304
   9 H :    0.131867
  10 H :    0.160291
  11 H :    0.160401
  12 H :    0.137503
  13 H :    0.188166
  14 H :    0.137237
  15 H :    0.147336
  16 H :    0.255924
Sum of atomic charges:   -0.0000000

LOEWDIN ATOMIC CHARGES
----------------------
   0 C :   -0.256177
   1 C :   -0.214218
   2 C :   -0.135884
   3 C :   -0.260014
   4 C :   -0.369836
   5 O :    0.074208
   6 C :   -0.194246
   7 N :    0.060128
   8 N :    0.131923
   9 H :    0.129190
  10 H :    0.141425
  11 H :    0.141417
  12 H :    0.131510
  13 H :    0.145547
  14 H :    0.131446
  15 H :    0.147535
  16 H :    0.196046

  Mayer bond orders larger than 0.1
B(  0-C ,  1-C ) :   0.8659 B(  0-C ,  9-H ) :   0.9440 B(  0-C , 10-H ) :   0.9289
B(  0-C , 11-H ) :   0.9288 B(  1-C ,  2-C ) :   1.4186 B(  1-C ,  8-N ) :   1.1917
B(  2-C ,  3-C ) :   0.8908 B(  2-C ,  4-C ) :   1.0549 B(  3-C , 12-H ) :   0.9333
B(  3-C , 13-H ) :   0.9255 B(  3-C , 14-H ) :   0.9330 B(  4-C ,  5-O ) :   1.8269
B(  4-C ,  6-C ) :   1.0744 B(  6-C ,  7-N ) :   1.6317 B(  6-C , 15-H ) :   0.9185
B(  7-N ,  8-N ) :   1.0006 B(  8-N , 16-H ) :   0.8707

MP2 TOTAL ENERGY:     -417.330792088 Eh
FINAL SINGLE POINT ENERGY      -417.330792088316

DIPOLE MOMENT
-------------
                                X             Y             Z
Electronic contribution:      3.11227      -7.86157       0.02775
Nuclear contribution   :     -2.03037       9.88015      -0.06033
                        -----------------------------------------
Total Dipole Moment    :      1.08190       2.01857      -0.03259
                        -----------------------------------------
Magnitude (a.u.)       :      2.29046
Magnitude (Debye)      :      5.82189

                             ****ORCA TERMINATED NORMALLY****
TOTAL RUN TIME: 0 days 0 hours 17 minutes 49 seconds 223 msec
