                         Program Version 3.0.3 - RELEASE   -
|  1> ! RI-MP2 RIJK def2-TZVP def2-TZVP/C def2-TZVP/JK TIGHTSCF
|  2> % maxcore 2000
|  3> % mp2 density relaxed end
|  4> *xyz 0 1
|  5>  C        0.4712011355     1.6265627929    -0.6122701505
|  6>  C        0.0342697356     0.2576262148    -0.0624185127
|  7>  C        0.2111239372    -0.8356423494    -1.0937882096
|  8>  C        1.2248064509    -1.6481816316    -0.8017367018
|  9>  C        1.8882518704    -1.2644030878     0.4969308528
| 10>  C        0.8865456794    -0.2709318263     1.1259492557
| 11>  C        1.4014062781     0.6894264878     2.2244519763
| 12>  C        0.5198968981    -0.1352948335     3.1778259497
| 13>  O        0.0328940782    -0.9509588324     2.0965993108
| 14>  H        1.5319397629     1.6249806242    -0.8851789654
| 15>  H       -0.0988452258     1.8742764846    -1.5135372466
| 16>  H        0.3044143174     2.4293895233     0.1126027292
| 17>  H       -1.0049669776     0.3296833342     0.2798310454
| 18>  H       -0.4060291672    -0.8940182212    -1.9841258727
| 19>  H        1.5620178468    -2.4789596454    -1.4114444102
| 20>  H        2.0529170099    -2.1082620156     1.1755142111
| 21>  H        2.8669857165    -0.7941268515     0.3242028912
| 22>  H        2.4761398719     0.6479784214     2.4117996953
| 23>  H        1.1027578414     1.7320892246     2.1078074278
| 24>  H        1.0607007927    -0.7260556935     3.9283644682
| 25>  H       -0.2902240724     0.4090765206     3.6782921262
| 26> *
| 27>
| 28>                          ****END OF INPUT****

CARTESIAN COORDINATES (ANGSTROEM)
---------------------------------
  C      0.471201    1.626563   -0.612270
  C      0.034270    0.257626   -0.062419
  C      0.211124   -0.835642   -1.093788
  C      1.224806   -1.648182   -0.801737
  C      1.888252   -1.264403    0.496931
  C      0.886546   -0.270932    1.125949
  C      1.401406    0.689426    2.224452
  C      0.519897   -0.135295    3.177826
  O      0.032894   -0.950959    2.096599
  H      1.531940    1.624981   -0.885179
  H     -0.098845    1.874276   -1.513537
  H      0.304414    2.429390    0.112603
  H     -1.004967    0.329683    0.279831
  H     -0.406029   -0.894018   -1.984126
  H      1.562018   -2.478960   -1.411444
  H      2.052917   -2.108262    1.175514
  H      2.866986   -0.794127    0.324203
  H      2.476140    0.647978    2.411800
  H      1.102758    1.732089    2.107807
  H      1.060701   -0.726056    3.928364
  H     -0.290224    0.409077    3.678292

 Total Charge           Charge          ....    0
 Multiplicity           Mult            ....    1
 Number of Electrons    NEL             ....   68
 Basis Dimension        Dim             ....  351

ORBITAL ENERGIES
----------------

  NO   OCC          E(Eh)            E(eV)
   0   2.0000     -20.537121      -558.8435
   1   2.0000     -11.284549      -307.0682
   2   2.0000     -11.273194      -306.7592
   3   2.0000     -11.227624      -305.5192
   4   2.0000     -11.226370      -305.4851
   5   2.0000     -11.222026      -305.3669
   6   2.0000     -11.221376      -305.3492
   7   2.0000     -11.218915      -305.2822
   8   2.0000     -11.218000      -305.2573
   9   2.0000      -1.369986       -37.2792
  10   2.0000      -1.130780       -30.7701
  11   2.0000      -1.012767       -27.5588
  12   2.0000      -1.004230       -27.3265
  13   2.0000      -0.949608       -25.8401
  14   2.0000      -0.894113       -24.3301
  15   2.0000      -0.825523       -22.4636
  16   2.0000      -0.739000       -20.1092
  17   2.0000      -0.720769       -19.6131
  18   2.0000      -0.679935       -18.5020
  19   2.0000      -0.651072       -17.7166
  20   2.0000      -0.631071       -17.1723
  21   2.0000      -0.613637       -16.6979
  22   2.0000      -0.580846       -15.8056
  23   2.0000      -0.564748       -15.3676
  24   2.0000      -0.547613       -14.9013
  25   2.0000      -0.531156       -14.4535
  26   2.0000      -0.523760       -14.2522
  27   2.0000      -0.507534       -13.8107
  28   2.0000      -0.484369       -13.1804
  29   2.0000      -0.473612       -12.8876
  30   2.0000      -0.453612       -12.3434
  31   2.0000      -0.443391       -12.0653
  32   2.0000      -0.396126       -10.7791
  33   2.0000      -0.345301        -9.3961
  34   0.0000       0.130921         3.5626
  35   0.0000       0.157253         4.2791
  36   0.0000       0.160778         4.3750
  37   0.0000       0.167377         4.5546
  38   0.0000       0.178940         4.8692

MULLIKEN ATOMIC CHARGES
-----------------------
   0 C :   -0.434865
   1 C :    0.045732
   2 C :   -0.214337
   3 C :   -0.192328
   4 C :   -0.216973
   5 C :    0.226712
   6 C :   -0.282094
   7 C :   -0.019997
   8 O :   -0.343889
   9 H :    0.133563
  10 H :    0.136216
  11 H :    0.126337
  12 H :    0.106999
  13 H :    0.124438
  14 H :    0.123144
  15 H :    0.129102
  16 H :    0.115184
  17 H :    0.125767
  18 H :    0.121423
  19 H :    0.093287
  20 H :    0.096578
Sum of atomic charges:   -0.0000000

LOEWDIN ATOMIC CHARGES
----------------------
   0 C :   -0.284800
   1 C :   -0.218829
   2 C :   -0.137987
   3 C :   -0.153873
   4 C :   -0.203682
   5 C :   -0.252731
   6 C :   -0.210032
   7 C :   -0.279597
   8 O :    0.151397
   9 H :    0.126406
  10 H :    0.126313
  11 H :    0.119073
  12 H :    0.159156
  13 H :    0.137436
  14 H :    0.135579
  15 H :    0.147137
  16 H :    0.143857
  17 H :    0.132398
  18 H :    0.132694
  19 H :    0.115079
  20 H :    0.115006

  Mayer bond orders larger than 0.1
B(  0-C ,  1-C ) :   0.8565 B(  0-C ,  9-H ) :   0.9337 B(  0-C , 10-H ) :   0.9370
B(  0-C , 11-H ) :   0.9376 B(  1-C ,  2-C ) :   0.9442 B(  1-C ,  5-C ) :   0.8879
B(  1-C , 12-H ) :   0.9109 B(  2-C ,  3-C ) :   1.8037 B(  2-C , 13-H ) :   0.9267
B(  3-C ,  4-C ) :   0.9699 B(  3-C , 14-H ) :   0.9315 B(  4-C ,  5-C ) :   0.9396
B(  4-C , 15-H ) :   0.9070 B(  4-C , 16-H ) :   0.9014 B(  5-C ,  6-C ) :   0.8773
B(  5-C ,  8-O ) :   0.9488 B(  6-C ,  7-C ) :   0.9843 B(  6-C , 17-H ) :   0.9247
B(  6-C , 18-H ) :   0.9275 B(  7-C ,  8-O ) :   0.9477 B(  7-C , 19-H ) :   0.9157
B(  7-C , 20-H ) :   0.9167

MP2 TOTAL ENERGY:     -386.404403024 Eh
FINAL SINGLE POINT ENERGY      -386.404403023608

DIPOLE MOMENT
-------------
                                X             Y             Z
Electronic contribution:     -1.69787      -4.27066       0.91676
Nuclear contribution   :      2.16275       4.82300      -0.90811
                        -----------------------------------------
Total Dipole Moment    :      0.46488       0.55234       0.00865
                        -----------------------------------------
Magnitude (a.u.)       :      0.72199
Magnitude (Debye)      :      1.83515

                             ****ORCA TERMINATED NORMALLY****
TOTAL RUN TIME: 0 days 0 hours 19 minutes 48 seconds 560 msec
