                         Program Version 3.0.3 - RELEASE   -
|  1> ! RI-MP2 RIJK def2-TZVP def2-TZVP/C def2-TZVP/JK TIGHTSCF
|  2> % maxcore 2000
|  3> % mp2 density relaxed end
|  4> *xyz 0 1
|  5>  C       -0.0299414384     1.5634530093     0.0989688058
|  6>  C        0.0038478117     0.0353610616     0.0114768270
|  7>  C       -1.3829349777    -0.5972119295     0.0339401682
|  8>  C       -1.4161161637    -2.1269697949    -0.0345024341
|  9>  C       -2.7710757606    -2.4384338932     0.6119943796
| 10>  C       -2.9210469195    -1.3298731004     1.6851234418
| 11>  C       -4.3412391966    -0.7632105022     1.7513534841
| 12>  C       -2.4545892897    -1.7992551444     3.0679791500
| 13>  O       -2.0275679309    -0.2741900161     1.2665742156
| 14>  H        0.9808875454     1.9826090291     0.1000403879
| 15>  H       -0.5696310447     1.9957633365    -0.7512474803
| 16>  H       -0.5364138001     1.8823969342     1.0135114658
| 17>  H        0.5099292771    -0.2786517960    -0.9106138380
| 18>  H        0.5807309271    -0.3755816504     0.8493025570
| 19>  H       -1.9744927629    -0.1847991651    -0.8042898734
| 20>  H       -1.3238720395    -2.5091476980    -1.0544957528
| 21>  H       -0.5927142150    -2.5429767966     0.5577143230
| 22>  H       -3.5718195536    -2.3549493472    -0.1308373657
| 23>  H       -2.8268160902    -3.4402139772     1.0453991042
| 24>  H       -5.0600771245    -1.5397170326     2.0349129517
| 25>  H       -4.3998015792     0.0435492058     2.4882614368
| 26>  H       -4.6376010842    -0.3589663979     0.7788166451
| 27>  H       -1.4612415937    -2.2547995588     3.0102012513
| 28>  H       -2.3956066192    -0.9479165346     3.7523586228
| 29>  H       -3.1481708373    -2.5346549718     3.4893828765
| 30> *
| 31>
| 32>                          ****END OF INPUT****

CARTESIAN COORDINATES (ANGSTROEM)
---------------------------------
  C     -0.029941    1.563453    0.098969
  C      0.003848    0.035361    0.011477
  C     -1.382935   -0.597212    0.033940
  C     -1.416116   -2.126970   -0.034502
  C     -2.771076   -2.438434    0.611994
  C     -2.921047   -1.329873    1.685123
  C     -4.341239   -0.763211    1.751353
  C     -2.454589   -1.799255    3.067979
  O     -2.027568   -0.274190    1.266574
  H      0.980888    1.982609    0.100040
  H     -0.569631    1.995763   -0.751247
  H     -0.536414    1.882397    1.013511
  H      0.509929   -0.278652   -0.910614
  H      0.580731   -0.375582    0.849303
  H     -1.974493   -0.184799   -0.804290
  H     -1.323872   -2.509148   -1.054496
  H     -0.592714   -2.542977    0.557714
  H     -3.571820   -2.354949   -0.130837
  H     -2.826816   -3.440214    1.045399
  H     -5.060077   -1.539717    2.034913
  H     -4.399802    0.043549    2.488261
  H     -4.637601   -0.358966    0.778817
  H     -1.461242   -2.254800    3.010201
  H     -2.395607   -0.947917    3.752359
  H     -3.148171   -2.534655    3.489383

 Total Charge           Charge          ....    0
 Multiplicity           Mult            ....    1
 Number of Electrons    NEL             ....   72
 Basis Dimension        Dim             ....  375

ORBITAL ENERGIES
----------------

  NO   OCC          E(Eh)            E(eV)
   0   2.0000     -20.535441      -558.7978
   1   2.0000     -11.279227      -306.9234
   2   2.0000     -11.268723      -306.6375
   3   2.0000     -11.220759      -305.3324
   4   2.0000     -11.219745      -305.3048
   5   2.0000     -11.214374      -305.1586
   6   2.0000     -11.208372      -304.9953
   7   2.0000     -11.208216      -304.9911
   8   2.0000     -11.203773      -304.8702
   9   2.0000      -1.363348       -37.0986
  10   2.0000      -1.072330       -29.1796
  11   2.0000      -1.061250       -28.8781
  12   2.0000      -1.004916       -27.3451
  13   2.0000      -0.932584       -25.3769
  14   2.0000      -0.906775       -24.6746
  15   2.0000      -0.830401       -22.5964
  16   2.0000      -0.787544       -21.4302
  17   2.0000      -0.744720       -20.2649
  18   2.0000      -0.676465       -18.4076
  19   2.0000      -0.643422       -17.5084
  20   2.0000      -0.608142       -16.5484
  21   2.0000      -0.594398       -16.1744
  22   2.0000      -0.580853       -15.8058
  23   2.0000      -0.570336       -15.5196
  24   2.0000      -0.560412       -15.2496
  25   2.0000      -0.552603       -15.0371
  26   2.0000      -0.530257       -14.4290
  27   2.0000      -0.519507       -14.1365
  28   2.0000      -0.505743       -13.7620
  29   2.0000      -0.491530       -13.3752
  30   2.0000      -0.487369       -13.2620
  31   2.0000      -0.476992       -12.9796
  32   2.0000      -0.459515       -12.5040
  33   2.0000      -0.450891       -12.2694
  34   2.0000      -0.441234       -12.0066
  35   2.0000      -0.398095       -10.8327
  36   0.0000       0.131559         3.5799
  37   0.0000       0.154825         4.2130
  38   0.0000       0.156297         4.2531
  39   0.0000       0.164439         4.4746
  40   0.0000       0.190511         5.1841

MULLIKEN ATOMIC CHARGES
-----------------------
   0 C :   -0.391136
   1 C :   -0.182433
   2 C :    0.054164
   3 C :   -0.231534
   4 C :   -0.244071
   5 C :    0.234457
   6 C :   -0.409107
   7 C :   -0.414389
   8 O :   -0.318739
   9 H :    0.128692
  10 H :    0.115103
  11 H :    0.143169
  12 H :    0.102547
  13 H :    0.102417
  14 H :    0.062958
  15 H :    0.124985
  16 H :    0.111393
  17 H :    0.119305
  18 H :    0.125961
  19 H :    0.123940
  20 H :    0.132938
  21 H :    0.126957
  22 H :    0.126231
  23 H :    0.135556
  24 H :    0.120637
Sum of atomic charges:    0.0000000

LOEWDIN ATOMIC CHARGES
----------------------
   0 C :   -0.318717
   1 C :   -0.276270
   2 C :   -0.316868
   3 C :   -0.238771
   4 C :   -0.218947
   5 C :   -0.374762
   6 C :   -0.275638
   7 C :   -0.274552
   8 O :    0.206924
   9 H :    0.118888
  10 H :    0.119498
  11 H :    0.125819
  12 H :    0.138810
  13 H :    0.138077
  14 H :    0.136248
  15 H :    0.136808
  16 H :    0.139273
  17 H :    0.141027
  18 H :    0.139498
  19 H :    0.125612
  20 H :    0.126956
  21 H :    0.124835
  22 H :    0.124167
  23 H :    0.127792
  24 H :    0.124292

  Mayer bond orders larger than 0.1
B(  0-C ,  1-C ) :   0.9254 B(  0-C ,  9-H ) :   0.9408 B(  0-C , 10-H ) :   0.9370
B(  0-C , 11-H ) :   0.9372 B(  1-C ,  2-C ) :   0.9248 B(  1-C , 12-H ) :   0.9322
B(  1-C , 13-H ) :   0.9260 B(  2-C ,  3-C ) :   0.9352 B(  2-C ,  8-O ) :   0.9441
B(  2-C , 14-H ) :   0.9212 B(  3-C ,  4-C ) :   0.9375 B(  3-C , 15-H ) :   0.9248
B(  3-C , 16-H ) :   0.9232 B(  4-C ,  5-C ) :   0.8958 B(  4-C , 17-H ) :   0.9294
B(  4-C , 18-H ) :   0.9267 B(  5-C ,  6-C ) :   0.9047 B(  5-C ,  7-C ) :   0.9136
B(  5-C ,  8-O ) :   0.8876 B(  6-C , 19-H ) :   0.9347 B(  6-C , 20-H ) :   0.9389
B(  6-C , 21-H ) :   0.9356 B(  7-C , 22-H ) :   0.9374 B(  7-C , 23-H ) :   0.9375
B(  7-C , 24-H ) :   0.9318

MP2 TOTAL ENERGY:     -388.847371455 Eh
FINAL SINGLE POINT ENERGY      -388.847371455322

DIPOLE MOMENT
-------------
                                X             Y             Z
Electronic contribution:     -0.44020      -0.50554      -0.40598
Nuclear contribution   :      0.37458       0.00168       0.15721
                        -----------------------------------------
Total Dipole Moment    :     -0.06562      -0.50386      -0.24878
                        -----------------------------------------
Magnitude (a.u.)       :      0.56575
Magnitude (Debye)      :      1.43802

                             ****ORCA TERMINATED NORMALLY****
TOTAL RUN TIME: 0 days 0 hours 34 minutes 39 seconds 722 msec
