                         Program Version 3.0.3 - RELEASE   -
|  1> ! RI-MP2 RIJK def2-TZVP def2-TZVP/C def2-TZVP/JK TIGHTSCF
|  2> % maxcore 2000
|  3> % mp2 density relaxed end
|  4> *xyz 0 1
|  5>  O       -0.9356378610     0.6268409513     0.0555224645
|  6>  C        0.1329365628    -0.2827321637    -0.1497889858
|  7>  C        1.0667938489     0.1829886622    -1.1954553672
|  8>  N        1.7881087065     0.5717392470    -2.0090260666
|  9>  C        0.8756889189    -0.5840319840     1.1208657925
| 10>  C        2.1996686223    -0.7323768124     1.4594850010
| 11>  N        2.2799266504    -1.0305826676     2.7872535097
| 12>  N        1.0804061520    -1.0698781950     3.2901101263
| 13>  N        0.2223219898    -0.8089281824     2.2882920269
| 14>  H       -0.5629671571     1.4726010933     0.3353612193
| 15>  H       -0.3519013027    -1.1928009169    -0.5252445357
| 16>  H        3.0753166531    -0.6435104116     0.8375582796
| 17>  H       -0.7681442338    -0.7510963901     2.4699993055
| 18> *
| 19>
| 20>                          ****END OF INPUT****

CARTESIAN COORDINATES (ANGSTROEM)
---------------------------------
  O     -0.935638    0.626841    0.055522
  C      0.132937   -0.282732   -0.149789
  C      1.066794    0.182989   -1.195455
  N      1.788109    0.571739   -2.009026
  C      0.875689   -0.584032    1.120866
  C      2.199669   -0.732377    1.459485
  N      2.279927   -1.030583    2.787254
  N      1.080406   -1.069878    3.290110
  N      0.222322   -0.808928    2.288292
  H     -0.562967    1.472601    0.335361
  H     -0.351901   -1.192801   -0.525245
  H      3.075317   -0.643510    0.837558
  H     -0.768144   -0.751096    2.469999

 Total Charge           Charge          ....    0
 Multiplicity           Mult            ....    1
 Number of Electrons    NEL             ....   64
 Basis Dimension        Dim             ....  303

ORBITAL ENERGIES
----------------

  NO   OCC          E(Eh)            E(eV)
   0   2.0000     -20.624482      -561.2207
   1   2.0000     -15.678946      -426.6458
   2   2.0000     -15.663416      -426.2232
   3   2.0000     -15.615752      -424.9262
   4   2.0000     -15.605960      -424.6598
   5   2.0000     -11.387576      -309.8717
   6   2.0000     -11.317859      -307.9746
   7   2.0000     -11.302339      -307.5523
   8   2.0000     -11.279315      -306.9258
   9   2.0000      -1.460887       -39.7528
  10   2.0000      -1.432690       -38.9855
  11   2.0000      -1.249494       -34.0004
  12   2.0000      -1.224992       -33.3337
  13   2.0000      -1.127914       -30.6921
  14   2.0000      -1.031427       -28.0666
  15   2.0000      -0.886523       -24.1235
  16   2.0000      -0.864731       -23.5305
  17   2.0000      -0.799315       -21.7505
  18   2.0000      -0.779323       -21.2065
  19   2.0000      -0.701438       -19.0871
  20   2.0000      -0.690769       -18.7968
  21   2.0000      -0.652692       -17.7606
  22   2.0000      -0.638508       -17.3747
  23   2.0000      -0.609488       -16.5850
  24   2.0000      -0.583195       -15.8695
  25   2.0000      -0.555413       -15.1136
  26   2.0000      -0.529117       -14.3980
  27   2.0000      -0.499245       -13.5852
  28   2.0000      -0.491940       -13.3864
  29   2.0000      -0.459673       -12.5083
  30   2.0000      -0.439009       -11.9461
  31   2.0000      -0.382325       -10.4036
  32   0.0000       0.084729         2.3056
  33   0.0000       0.121265         3.2998
  34   0.0000       0.136203         3.7063
  35   0.0000       0.140147         3.8136
  36   0.0000       0.161792         4.4026

MULLIKEN ATOMIC CHARGES
-----------------------
   0 O :   -0.447316
   1 C :    0.287912
   2 C :   -0.191879
   3 N :   -0.039313
   4 C :   -0.085507
   5 C :   -0.134586
   6 N :   -0.136420
   7 N :   -0.122607
   8 N :   -0.069213
   9 H :    0.336655
  10 H :    0.154627
  11 H :    0.169513
  12 H :    0.278135
Sum of atomic charges:    0.0000000

LOEWDIN ATOMIC CHARGES
----------------------
   0 O :    0.014168
   1 C :   -0.307927
   2 C :   -0.156659
   3 N :    0.090102
   4 C :   -0.248878
   5 C :   -0.235854
   6 N :    0.014852
   7 N :   -0.037606
   8 N :    0.150626
   9 H :    0.190555
  10 H :    0.180294
  11 H :    0.147386
  12 H :    0.198942

  Mayer bond orders larger than 0.1
B(  0-O ,  1-C ) :   0.8644 B(  0-O ,  9-H ) :   0.8286 B(  1-C ,  2-C ) :   0.9352
B(  1-C ,  4-C ) :   0.9621 B(  1-C , 10-H ) :   0.8692 B(  2-C ,  3-N ) :   2.8296
B(  4-C ,  5-C ) :   1.4387 B(  4-C ,  7-N ) :   0.1293 B(  4-C ,  8-N ) :   1.1508
B(  5-C ,  6-N ) :   1.3751 B(  5-C , 11-H ) :   0.9273 B(  6-N ,  7-N ) :   1.3036
B(  7-N ,  8-N ) :   1.0464 B(  8-N , 12-H ) :   0.8512

MP2 TOTAL ENERGY:     -448.191276585 Eh
FINAL SINGLE POINT ENERGY      -448.191276585472

DIPOLE MOMENT
-------------
                                X             Y             Z
Electronic contribution:      0.76381      -0.09973       0.15784
Nuclear contribution   :     -2.12885       0.19781      -0.33410
                        -----------------------------------------
Total Dipole Moment    :     -1.36504       0.09808      -0.17626
                        -----------------------------------------
Magnitude (a.u.)       :      1.37986
Magnitude (Debye)      :      3.50732

                             ****ORCA TERMINATED NORMALLY****
TOTAL RUN TIME: 0 days 0 hours 13 minutes 59 seconds 53 msec
