                         Program Version 3.0.3 - RELEASE   -
|  1> ! RI-MP2 RIJK def2-TZVP def2-TZVP/C def2-TZVP/JK TIGHTSCF
|  2> % maxcore 2000
|  3> % mp2 density relaxed end
|  4> *xyz 0 1
|  5>  O        0.0021122204    -0.0501135388     0.2671672672
|  6>  C       -0.0245877122     1.1539855527     0.0900630648
|  7>  C       -1.3369949406     1.8979948910    -0.1213243784
|  8>  C       -1.2173908556     3.3785573840    -0.3264418380
|  9>  C       -0.0532632230     4.0179885934    -0.3267459638
| 10>  C        1.2614815021     3.3320820619    -0.1235744541
| 11>  N        1.1179951372     1.9007685242     0.0708827044
| 12>  H       -1.8394995673     1.4205984250    -0.9725801648
| 13>  H       -1.9744646169     1.6690930493     0.7425809026
| 14>  H       -2.1409300589     3.9308930972    -0.4796907608
| 15>  H       -0.0031154424     5.0918356507    -0.4782779225
| 16>  H        1.9138708096     3.5277760297    -0.9894798087
| 17>  H        1.7767148250     3.7769937565     0.7426106473
| 18>  H        1.9560607225     1.3566540333     0.2170927847
| 19> *
| 20>
| 21>                          ****END OF INPUT****

CARTESIAN COORDINATES (ANGSTROEM)
---------------------------------
  O      0.002112   -0.050114    0.267167
  C     -0.024588    1.153986    0.090063
  C     -1.336995    1.897995   -0.121324
  C     -1.217391    3.378557   -0.326442
  C     -0.053263    4.017989   -0.326746
  C      1.261482    3.332082   -0.123574
  N      1.117995    1.900769    0.070883
  H     -1.839500    1.420598   -0.972580
  H     -1.974465    1.669093    0.742581
  H     -2.140930    3.930893   -0.479691
  H     -0.003115    5.091836   -0.478278
  H      1.913871    3.527776   -0.989480
  H      1.776715    3.776994    0.742611
  H      1.956061    1.356654    0.217093

 Total Charge           Charge          ....    0
 Multiplicity           Mult            ....    1
 Number of Electrons    NEL             ....   52
 Basis Dimension        Dim             ....  259

ORBITAL ENERGIES
----------------

  NO   OCC          E(Eh)            E(eV)
   0   2.0000     -20.507660      -558.0418
   1   2.0000     -15.583800      -424.0568
   2   2.0000     -11.347525      -308.7818
   3   2.0000     -11.286327      -307.1166
   4   2.0000     -11.247307      -306.0548
   5   2.0000     -11.245784      -306.0134
   6   2.0000     -11.245231      -305.9983
   7   2.0000      -1.376124       -37.4462
   8   2.0000      -1.237990       -33.6874
   9   2.0000      -1.094137       -29.7730
  10   2.0000      -1.020758       -27.7762
  11   2.0000      -0.915223       -24.9045
  12   2.0000      -0.825916       -22.4743
  13   2.0000      -0.728533       -19.8244
  14   2.0000      -0.688554       -18.7365
  15   2.0000      -0.657957       -17.9039
  16   2.0000      -0.650379       -17.6977
  17   2.0000      -0.625198       -17.0125
  18   2.0000      -0.597200       -16.2506
  19   2.0000      -0.583872       -15.8880
  20   2.0000      -0.542226       -14.7547
  21   2.0000      -0.521794       -14.1987
  22   2.0000      -0.512344       -13.9416
  23   2.0000      -0.415232       -11.2990
  24   2.0000      -0.393174       -10.6988
  25   2.0000      -0.367193        -9.9918
  26   0.0000       0.125590         3.4175
  27   0.0000       0.148944         4.0530
  28   0.0000       0.155366         4.2277
  29   0.0000       0.165324         4.4987
  30   0.0000       0.176985         4.8160

MULLIKEN ATOMIC CHARGES
-----------------------
   0 O :   -0.356592
   1 C :    0.162978
   2 C :   -0.116317
   3 C :   -0.223222
   4 C :   -0.151641
   5 C :   -0.069084
   6 N :   -0.290512
   7 H :    0.142787
   8 H :    0.142768
   9 H :    0.130743
  10 H :    0.134458
  11 H :    0.126845
  12 H :    0.126842
  13 H :    0.239950
Sum of atomic charges:    0.0000000

LOEWDIN ATOMIC CHARGES
----------------------
   0 O :    0.071007
   1 C :   -0.451741
   2 C :   -0.215137
   3 C :   -0.165776
   4 C :   -0.177812
   5 C :   -0.268062
   6 N :    0.120988
   7 H :    0.161614
   8 H :    0.161630
   9 H :    0.145593
  10 H :    0.147445
  11 H :    0.139539
  12 H :    0.139504
  13 H :    0.191207

  Mayer bond orders larger than 0.1
B(  0-O ,  1-C ) :   1.9991 B(  1-C ,  2-C ) :   0.9296 B(  1-C ,  6-N ) :   1.1869
B(  2-C ,  3-C ) :   0.8911 B(  2-C ,  7-H ) :   0.9047 B(  2-C ,  8-H ) :   0.9047
B(  3-C ,  4-C ) :   1.8074 B(  3-C ,  9-H ) :   0.9218 B(  4-C ,  5-C ) :   0.9468
B(  4-C , 10-H ) :   0.9222 B(  5-C ,  6-N ) :   0.9167 B(  5-C , 11-H ) :   0.9191
B(  5-C , 12-H ) :   0.9191 B(  6-N , 13-H ) :   0.8600

MP2 TOTAL ENERGY:     -324.065842119 Eh
FINAL SINGLE POINT ENERGY      -324.065842119290

DIPOLE MOMENT
-------------
                                X             Y             Z
Electronic contribution:      0.53509      -3.62303       0.56606
Nuclear contribution   :     -0.21237       5.10004      -0.75383
                        -----------------------------------------
Total Dipole Moment    :      0.32272       1.47701      -0.18777
                        -----------------------------------------
Magnitude (a.u.)       :      1.52347
Magnitude (Debye)      :      3.87235

                             ****ORCA TERMINATED NORMALLY****
TOTAL RUN TIME: 0 days 0 hours 7 minutes 25 seconds 613 msec
