                         Program Version 3.0.3 - RELEASE   -
|  1> ! RI-MP2 RIJK def2-TZVP def2-TZVP/C def2-TZVP/JK TIGHTSCF
|  2> % maxcore 2000
|  3> % mp2 density relaxed end
|  4> *xyz 0 1
|  5>  C       -1.0937026209    -0.2478734612     0.3381371641
|  6>  C       -1.2385781205    -1.3540799546    -0.7104789909
|  7>  C       -1.1412232240    -2.7405303069    -0.0552372327
|  8>  O       -2.5445668550    -1.1852188263    -1.2725877081
|  9>  C       -0.1436715551    -1.2314781833    -1.7773405351
| 10>  C       -0.3747643840    -1.5280765098    -3.2206145804
| 11>  C       -0.0451827523    -0.0984388997    -2.7989805405
| 12>  C       -1.0799577728     0.9558999431    -2.9484428772
| 13>  O       -0.8132735817     2.1107625751    -3.1891394916
| 14>  H       -0.0963191268    -0.2697955361     0.7869401523
| 15>  H       -1.2433713097     0.7349180972    -0.1157438595
| 16>  H       -1.8370107260    -0.3775065132     1.1295663524
| 17>  H       -1.9464295103    -2.8656585845     0.6741759701
| 18>  H       -1.2249530039    -3.5331750325    -0.8083273967
| 19>  H       -0.1849484990    -2.8730396750     0.4597474127
| 20>  H       -2.7818464076    -2.0009510155    -1.7258140360
| 21>  H        0.8314879620    -1.5226349426    -1.3946945786
| 22>  H        0.3721923764    -2.0723404977    -3.7868399408
| 23>  H       -1.3971406889    -1.6964752113    -3.5443445153
| 24>  H        0.9556700217     0.2657767763    -3.0070627855
| 25>  H       -2.1263568016     0.6126658686    -2.8336595027
| 26> *
| 27>
| 28>                          ****END OF INPUT****

CARTESIAN COORDINATES (ANGSTROEM)
---------------------------------
  C     -1.093703   -0.247873    0.338137
  C     -1.238578   -1.354080   -0.710479
  C     -1.141223   -2.740530   -0.055237
  O     -2.544567   -1.185219   -1.272588
  C     -0.143672   -1.231478   -1.777341
  C     -0.374764   -1.528077   -3.220615
  C     -0.045183   -0.098439   -2.798981
  C     -1.079958    0.955900   -2.948443
  O     -0.813274    2.110763   -3.189139
  H     -0.096319   -0.269796    0.786940
  H     -1.243371    0.734918   -0.115744
  H     -1.837011   -0.377507    1.129566
  H     -1.946430   -2.865659    0.674176
  H     -1.224953   -3.533175   -0.808327
  H     -0.184948   -2.873040    0.459747
  H     -2.781846   -2.000951   -1.725814
  H      0.831488   -1.522635   -1.394695
  H      0.372192   -2.072340   -3.786840
  H     -1.397141   -1.696475   -3.544345
  H      0.955670    0.265777   -3.007063
  H     -2.126357    0.612666   -2.833660

 Total Charge           Charge          ....    0
 Multiplicity           Mult            ....    1
 Number of Electrons    NEL             ....   70
 Basis Dimension        Dim             ....  351

ORBITAL ENERGIES
----------------

  NO   OCC          E(Eh)            E(eV)
   0   2.0000     -20.568128      -559.6872
   1   2.0000     -20.539373      -558.9048
   2   2.0000     -11.318408      -307.9895
   3   2.0000     -11.306145      -307.6559
   4   2.0000     -11.255765      -306.2849
   5   2.0000     -11.250526      -306.1424
   6   2.0000     -11.245894      -306.0163
   7   2.0000     -11.231721      -305.6307
   8   2.0000     -11.220951      -305.3376
   9   2.0000      -1.379352       -37.5341
  10   2.0000      -1.376825       -37.4653
  11   2.0000      -1.167380       -31.7660
  12   2.0000      -1.059077       -28.8190
  13   2.0000      -0.953582       -25.9483
  14   2.0000      -0.912425       -24.8283
  15   2.0000      -0.862419       -23.4676
  16   2.0000      -0.800633       -21.7863
  17   2.0000      -0.763932       -20.7877
  18   2.0000      -0.703095       -19.1322
  19   2.0000      -0.683458       -18.5978
  20   2.0000      -0.650710       -17.7067
  21   2.0000      -0.631942       -17.1960
  22   2.0000      -0.612428       -16.6650
  23   2.0000      -0.595297       -16.1989
  24   2.0000      -0.568277       -15.4636
  25   2.0000      -0.554807       -15.0971
  26   2.0000      -0.546690       -14.8762
  27   2.0000      -0.542143       -14.7525
  28   2.0000      -0.528331       -14.3766
  29   2.0000      -0.523861       -14.2550
  30   2.0000      -0.494872       -13.4662
  31   2.0000      -0.464029       -12.6269
  32   2.0000      -0.447513       -12.1774
  33   2.0000      -0.412641       -11.2285
  34   2.0000      -0.403383       -10.9766
  35   0.0000       0.118404         3.2219
  36   0.0000       0.132211         3.5977
  37   0.0000       0.149338         4.0637
  38   0.0000       0.164679         4.4812
  39   0.0000       0.175950         4.7878

MULLIKEN ATOMIC CHARGES
-----------------------
   0 C :   -0.378948
   1 C :    0.214330
   2 C :   -0.424605
   3 O :   -0.481337
   4 C :   -0.135071
   5 C :   -0.310953
   6 C :   -0.025413
   7 C :    0.031995
   8 O :   -0.282447
   9 H :    0.123468
  10 H :    0.149866
  11 H :    0.135654
  12 H :    0.151670
  13 H :    0.131719
  14 H :    0.132172
  15 H :    0.313884
  16 H :    0.128899
  17 H :    0.145680
  18 H :    0.130711
  19 H :    0.133895
  20 H :    0.114830
Sum of atomic charges:   -0.0000000

LOEWDIN ATOMIC CHARGES
----------------------
   0 C :   -0.258353
   1 C :   -0.408874
   2 C :   -0.275788
   3 O :    0.013479
   4 C :   -0.170096
   5 C :   -0.194055
   6 C :   -0.187625
   7 C :   -0.295266
   8 O :    0.116732
   9 H :    0.129568
  10 H :    0.132736
  11 H :    0.129013
  12 H :    0.129618
  13 H :    0.125253
  14 H :    0.129688
  15 H :    0.173020
  16 H :    0.161359
  17 H :    0.135981
  18 H :    0.136786
  19 H :    0.155639
  20 H :    0.121184

  Mayer bond orders larger than 0.1
B(  0-C ,  1-C ) :   0.9083 B(  0-C ,  9-H ) :   0.9288 B(  0-C , 10-H ) :   0.9325
B(  0-C , 11-H ) :   0.9351 B(  1-C ,  2-C ) :   0.9320 B(  1-C ,  3-O ) :   0.8935
B(  1-C ,  4-C ) :   0.9250 B(  2-C , 12-H ) :   0.9426 B(  2-C , 13-H ) :   0.9205
B(  2-C , 14-H ) :   0.9315 B(  3-O , 15-H ) :   0.8433 B(  4-C ,  5-C ) :   0.8941
B(  4-C ,  6-C ) :   0.7887 B(  4-C , 16-H ) :   0.9096 B(  5-C ,  6-C ) :   0.8213
B(  5-C , 17-H ) :   0.9237 B(  5-C , 18-H ) :   0.9269 B(  6-C ,  7-C ) :   0.8996
B(  6-C , 19-H ) :   0.9240 B(  7-C ,  8-O ) :   1.9693 B(  7-C , 20-H ) :   0.9492

MP2 TOTAL ENERGY:     -423.525212479 Eh
FINAL SINGLE POINT ENERGY      -423.525212479141

DIPOLE MOMENT
-------------
                                X             Y             Z
Electronic contribution:     -0.75221       6.15996      -5.63475
Nuclear contribution   :      1.02343      -7.93421       6.00635
                        -----------------------------------------
Total Dipole Moment    :      0.27123      -1.77425       0.37160
                        -----------------------------------------
Magnitude (a.u.)       :      1.83293
Magnitude (Debye)      :      4.65893

                             ****ORCA TERMINATED NORMALLY****
TOTAL RUN TIME: 0 days 0 hours 20 minutes 49 seconds 368 msec
