                         Program Version 3.0.3 - RELEASE   -
|  1> ! RI-MP2 RIJK def2-TZVP def2-TZVP/C def2-TZVP/JK TIGHTSCF
|  2> % maxcore 2000
|  3> % mp2 density relaxed end
|  4> *xyz 0 1
|  5>  O       -0.0516546759     1.4171645077     0.0388035911
|  6>  C       -0.0835841489     0.0148297108     0.0227973853
|  7>  C       -1.4759010001    -0.5968835301    -0.2359027828
|  8>  O       -0.9668556393    -1.2607066213    -1.4417531921
|  9>  C        0.2624274015    -0.6516007795    -1.2965323488
| 10>  N        1.2691631706    -0.6155491355    -2.0384439878
| 11>  C        1.2151122511    -1.3206485993    -3.3245911467
| 12>  C        1.7077026253    -0.4788954276    -4.4123468912
| 13>  C        2.1023004521     0.2028767933    -5.3189495177
| 14>  H        0.7737371071     1.6890934665    -0.3794185514
| 15>  H        0.4386016812    -0.4216242430     0.8848067873
| 16>  H       -1.8461288326    -1.3280113182     0.4846208844
| 17>  H       -2.2385694897     0.1428205305    -0.4861033422
| 18>  H        1.8522971776    -2.2117263148    -3.2471089587
| 19>  H        0.2036648771    -1.6752471045    -3.5648348927
| 20>  H        2.4545687430     0.8062996551    -6.1183579159
| 21> *
| 22>
| 23>                          ****END OF INPUT****

CARTESIAN COORDINATES (ANGSTROEM)
---------------------------------
  O     -0.051655    1.417165    0.038804
  C     -0.083584    0.014830    0.022797
  C     -1.475901   -0.596884   -0.235903
  O     -0.966856   -1.260707   -1.441753
  C      0.262427   -0.651601   -1.296532
  N      1.269163   -0.615549   -2.038444
  C      1.215112   -1.320649   -3.324591
  C      1.707703   -0.478895   -4.412347
  C      2.102300    0.202877   -5.318950
  H      0.773737    1.689093   -0.379419
  H      0.438602   -0.421624    0.884807
  H     -1.846129   -1.328011    0.484621
  H     -2.238569    0.142821   -0.486103
  H      1.852297   -2.211726   -3.247109
  H      0.203665   -1.675247   -3.564835
  H      2.454569    0.806300   -6.118358

 Total Charge           Charge          ....    0
 Multiplicity           Mult            ....    1
 Number of Electrons    NEL             ....   66
 Basis Dimension        Dim             ....  321

ORBITAL ENERGIES
----------------

  NO   OCC          E(Eh)            E(eV)
   0   2.0000     -20.604006      -560.6635
   1   2.0000     -20.582881      -560.0887
   2   2.0000     -15.561435      -423.4482
   3   2.0000     -11.347251      -308.7744
   4   2.0000     -11.316044      -307.9252
   5   2.0000     -11.309025      -307.7342
   6   2.0000     -11.285864      -307.1040
   7   2.0000     -11.231429      -305.6227
   8   2.0000     -11.219881      -305.3085
   9   2.0000      -1.448932       -39.4274
  10   2.0000      -1.386800       -37.7368
  11   2.0000      -1.237171       -33.6651
  12   2.0000      -1.052891       -28.6506
  13   2.0000      -1.027803       -27.9679
  14   2.0000      -0.961496       -26.1636
  15   2.0000      -0.892006       -24.2727
  16   2.0000      -0.770240       -20.9593
  17   2.0000      -0.734517       -19.9872
  18   2.0000      -0.723106       -19.6767
  19   2.0000      -0.702904       -19.1270
  20   2.0000      -0.687682       -18.7128
  21   2.0000      -0.642520       -17.4839
  22   2.0000      -0.636059       -17.3081
  23   2.0000      -0.608499       -16.5581
  24   2.0000      -0.601846       -16.3771
  25   2.0000      -0.565311       -15.3829
  26   2.0000      -0.533536       -14.5183
  27   2.0000      -0.507894       -13.8205
  28   2.0000      -0.474929       -12.9235
  29   2.0000      -0.433179       -11.7874
  30   2.0000      -0.410820       -11.1790
  31   2.0000      -0.389562       -10.6005
  32   2.0000      -0.380783       -10.3616
  33   0.0000       0.134347         3.6558
  34   0.0000       0.145146         3.9496
  35   0.0000       0.161982         4.4078
  36   0.0000       0.170277         4.6335
  37   0.0000       0.174146         4.7388

MULLIKEN ATOMIC CHARGES
-----------------------
   0 O :   -0.475470
   1 C :    0.085632
   2 C :   -0.016647
   3 O :   -0.281812
   4 C :    0.134907
   5 N :   -0.257581
   6 C :   -0.246168
   7 C :   -0.022776
   8 C :   -0.119374
   9 H :    0.340780
  10 H :    0.114980
  11 H :    0.122854
  12 H :    0.124101
  13 H :    0.150266
  14 H :    0.155418
  15 H :    0.190891
Sum of atomic charges:    0.0000000

LOEWDIN ATOMIC CHARGES
----------------------
   0 O :   -0.004920
   1 C :   -0.298428
   2 C :   -0.202958
   3 O :    0.211433
   4 C :   -0.362758
   5 N :    0.109415
   6 C :   -0.262675
   7 C :   -0.107091
   8 C :   -0.098100
   9 H :    0.190704
  10 H :    0.140211
  11 H :    0.123222
  12 H :    0.130425
  13 H :    0.155719
  14 H :    0.149121
  15 H :    0.126680

  Mayer bond orders larger than 0.1
B(  0-O ,  1-C ) :   0.9794 B(  0-O ,  9-H ) :   0.8272 B(  1-C ,  2-C ) :   0.9400
B(  1-C ,  4-C ) :   0.8969 B(  1-C , 10-H ) :   0.9367 B(  2-C ,  3-O ) :   0.8913
B(  2-C , 11-H ) :   0.9183 B(  2-C , 12-H ) :   0.9095 B(  3-O ,  4-C ) :   1.0511
B(  4-C ,  5-N ) :   1.9311 B(  5-N ,  6-C ) :   0.8928 B(  6-C ,  7-C ) :   1.0784
B(  6-C , 13-H ) :   0.9086 B(  6-C , 14-H ) :   0.9435 B(  7-C ,  8-C ) :   2.6235
B(  8-C , 15-H ) :   0.9034

MP2 TOTAL ENERGY:     -437.095531881 Eh
FINAL SINGLE POINT ENERGY      -437.095531880502

DIPOLE MOMENT
-------------
                                X             Y             Z
Electronic contribution:      0.74680       0.27210      -0.45946
Nuclear contribution   :     -0.99920      -0.53802       0.89276
                        -----------------------------------------
Total Dipole Moment    :     -0.25241      -0.26592       0.43330
                        -----------------------------------------
Magnitude (a.u.)       :      0.56761
Magnitude (Debye)      :      1.44274

                             ****ORCA TERMINATED NORMALLY****
TOTAL RUN TIME: 0 days 0 hours 13 minutes 12 seconds 204 msec
