                         Program Version 3.0.3 - RELEASE   -
|  1> ! RI-MP2 RIJK def2-TZVP def2-TZVP/C def2-TZVP/JK TIGHTSCF
|  2> % maxcore 2000
|  3> % mp2 density relaxed end
|  4> *xyz 0 1
|  5>  C        0.0123346689     1.6076874140     0.3082960698
|  6>  C        0.0888267881     0.1026481959     0.2021271860
|  7>  N        1.2662085195    -0.6320208430    -0.1556056611
|  8>  C        2.5345456913     0.0332471687    -0.4471659020
|  9>  C        0.7892778637    -0.7959595558     1.2437048539
| 10>  C        1.4836396292    -0.1548267542     2.4069903936
| 11>  O        2.1091958017     0.8805139932     2.3847903061
| 12>  C        0.2179734162    -2.0839780244     1.5520169101
| 13>  C       -0.2670494837    -3.1431192614     1.8492897727
| 14>  H        0.8461961688     2.0320886172     0.8654350186
| 15>  H       -0.0019063659     2.0430443477    -0.6972725441
| 16>  H       -0.9203789913     1.8941564974     0.8036959113
| 17>  H       -0.8202136079    -0.3587947561    -0.1843388986
| 18>  H        2.7837473311     0.8704211771     0.2094753243
| 19>  H        3.3313887324    -0.7127806689    -0.3797968004
| 20>  H        2.4870287680     0.3824469930    -1.4832705222
| 21>  H        1.3811802796    -0.7417290546     3.3433318331
| 22>  H       -0.6903416800    -4.0855675058     2.0952123287
| 23> *
| 24>
| 25>                          ****END OF INPUT****

CARTESIAN COORDINATES (ANGSTROEM)
---------------------------------
  C      0.012335    1.607687    0.308296
  C      0.088827    0.102648    0.202127
  N      1.266209   -0.632021   -0.155606
  C      2.534546    0.033247   -0.447166
  C      0.789278   -0.795960    1.243705
  C      1.483640   -0.154827    2.406990
  O      2.109196    0.880514    2.384790
  C      0.217973   -2.083978    1.552017
  C     -0.267049   -3.143119    1.849290
  H      0.846196    2.032089    0.865435
  H     -0.001906    2.043044   -0.697273
  H     -0.920379    1.894156    0.803696
  H     -0.820214   -0.358795   -0.184339
  H      2.783747    0.870421    0.209475
  H      3.331389   -0.712781   -0.379797
  H      2.487029    0.382447   -1.483271
  H      1.381180   -0.741729    3.343332
  H     -0.690342   -4.085568    2.095212

 Total Charge           Charge          ....    0
 Multiplicity           Mult            ....    1
 Number of Electrons    NEL             ....   66
 Basis Dimension        Dim             ....  333

ORBITAL ENERGIES
----------------

  NO   OCC          E(Eh)            E(eV)
   0   2.0000     -20.565408      -559.6132
   1   2.0000     -15.585029      -424.0902
   2   2.0000     -11.346674      -308.7587
   3   2.0000     -11.302532      -307.5575
   4   2.0000     -11.292039      -307.2720
   5   2.0000     -11.250301      -306.1362
   6   2.0000     -11.244111      -305.9678
   7   2.0000     -11.234928      -305.7179
   8   2.0000     -11.229570      -305.5721
   9   2.0000      -1.406575       -38.2749
  10   2.0000      -1.295892       -35.2630
  11   2.0000      -1.066127       -29.0108
  12   2.0000      -1.022365       -27.8200
  13   2.0000      -0.985262       -26.8103
  14   2.0000      -0.933961       -25.4144
  15   2.0000      -0.805395       -21.9159
  16   2.0000      -0.789841       -21.4927
  17   2.0000      -0.748975       -20.3807
  18   2.0000      -0.703172       -19.1343
  19   2.0000      -0.659020       -17.9328
  20   2.0000      -0.655448       -17.8356
  21   2.0000      -0.620033       -16.8720
  22   2.0000      -0.602379       -16.3916
  23   2.0000      -0.585223       -15.9247
  24   2.0000      -0.559346       -15.2206
  25   2.0000      -0.552439       -15.0326
  26   2.0000      -0.533916       -14.5286
  27   2.0000      -0.493312       -13.4237
  28   2.0000      -0.485521       -13.2117
  29   2.0000      -0.441795       -12.0219
  30   2.0000      -0.403215       -10.9720
  31   2.0000      -0.399670       -10.8756
  32   2.0000      -0.362997        -9.8777
  33   0.0000       0.102304         2.7838
  34   0.0000       0.139606         3.7989
  35   0.0000       0.158804         4.3213
  36   0.0000       0.168985         4.5983
  37   0.0000       0.175559         4.7772

MULLIKEN ATOMIC CHARGES
-----------------------
   0 C :   -0.413604
   1 C :   -0.027016
   2 N :   -0.201723
   3 C :   -0.326167
   4 C :   -0.133358
   5 C :    0.120469
   6 O :   -0.298324
   7 C :    0.038276
   8 C :   -0.104517
   9 H :    0.172138
  10 H :    0.142256
  11 H :    0.143225
  12 H :    0.135424
  13 H :    0.156128
  14 H :    0.145651
  15 H :    0.141732
  16 H :    0.113764
  17 H :    0.195645
Sum of atomic charges:    0.0000000

LOEWDIN ATOMIC CHARGES
----------------------
   0 C :   -0.290537
   1 C :   -0.211652
   2 N :    0.157903
   3 C :   -0.314185
   4 C :   -0.244634
   5 C :   -0.250647
   6 O :    0.128077
   7 C :   -0.070398
   8 C :   -0.079139
   9 H :    0.134456
  10 H :    0.133547
  11 H :    0.134051
  12 H :    0.153454
  13 H :    0.115261
  14 H :    0.123352
  15 H :    0.123103
  16 H :    0.129182
  17 H :    0.128804

  Mayer bond orders larger than 0.1
B(  0-C ,  1-C ) :   0.8890 B(  0-C ,  9-H ) :   0.9290 B(  0-C , 10-H ) :   0.9266
B(  0-C , 11-H ) :   0.9298 B(  1-C ,  2-N ) :   0.9692 B(  1-C ,  4-C ) :   0.8259
B(  1-C , 12-H ) :   0.9160 B(  2-N ,  3-C ) :   0.8644 B(  2-N ,  4-C ) :   0.8225
B(  3-C , 13-H ) :   0.9195 B(  3-C , 14-H ) :   0.9369 B(  3-C , 15-H ) :   0.9296
B(  4-C ,  5-C ) :   0.9714 B(  4-C ,  7-C ) :   1.0874 B(  4-C ,  8-C ) :  -0.1489
B(  5-C ,  6-O ) :   1.8811 B(  5-C , 16-H ) :   0.9477 B(  7-C ,  8-C ) :   2.6046
B(  8-C , 17-H ) :   0.8800

MP2 TOTAL ENERGY:     -401.183760094 Eh
FINAL SINGLE POINT ENERGY      -401.183760094181

DIPOLE MOMENT
-------------
                                X             Y             Z
Electronic contribution:     -0.21235      -4.50156       4.15388
Nuclear contribution   :     -0.21534       4.45994      -4.33831
                        -----------------------------------------
Total Dipole Moment    :     -0.42769      -0.04162      -0.18443
                        -----------------------------------------
Magnitude (a.u.)       :      0.46762
Magnitude (Debye)      :      1.18858

                             ****ORCA TERMINATED NORMALLY****
TOTAL RUN TIME: 0 days 0 hours 19 minutes 1 seconds 700 msec
