                         Program Version 3.0.3 - RELEASE   -
|  1> ! RI-MP2 RIJK def2-TZVP def2-TZVP/C def2-TZVP/JK TIGHTSCF
|  2> % maxcore 2000
|  3> % mp2 density relaxed end
|  4> *xyz 0 1
|  5>  O       -0.0245401414     0.1201474402     0.5625135592
|  6>  C       -0.0044229781     1.2456318622     0.1151177342
|  7>  C       -1.3034164125     1.9584327699    -0.2660242121
|  8>  O       -1.1276959333     3.1589401837    -0.9979316526
|  9>  C       -0.0471510546     3.9072775947    -0.5160612375
| 10>  O        1.1728647677     3.2432844182    -0.7285571322
| 11>  C        1.2533588496     2.0450401372    -0.0006759770
| 12>  C        2.1935289335     2.0070378185     1.2064307961
| 13>  C        2.5680214628     1.3218723060    -0.0726011421
| 14>  H       -1.9132771366     1.2824523259    -0.8701581618
| 15>  H       -1.8483651546     2.1456064530     0.6751486021
| 16>  H       -0.0106714945     4.8306138416    -1.0955764577
| 17>  H       -0.1779460320     4.1297422342     0.5592491323
| 18>  H        2.6777172106     2.9479661543     1.4405861098
| 19>  H        1.8902397894     1.3956776398     2.0482221866
| 20>  H        2.5164993486     0.2401802141    -0.1076248651
| 21>  H        3.3164041452     1.7901420465    -0.7011215423
| 22> *
| 23>
| 24>                          ****END OF INPUT****

CARTESIAN COORDINATES (ANGSTROEM)
---------------------------------
  O     -0.024540    0.120147    0.562514
  C     -0.004423    1.245632    0.115118
  C     -1.303416    1.958433   -0.266024
  O     -1.127696    3.158940   -0.997932
  C     -0.047151    3.907278   -0.516061
  O      1.172865    3.243284   -0.728557
  C      1.253359    2.045040   -0.000676
  C      2.193529    2.007038    1.206431
  C      2.568021    1.321872   -0.072601
  H     -1.913277    1.282452   -0.870158
  H     -1.848365    2.145606    0.675149
  H     -0.010671    4.830614   -1.095576
  H     -0.177946    4.129742    0.559249
  H      2.677717    2.947966    1.440586
  H      1.890240    1.395678    2.048222
  H      2.516499    0.240180   -0.107625
  H      3.316404    1.790142   -0.701122

 Total Charge           Charge          ....    0
 Multiplicity           Mult            ....    1
 Number of Electrons    NEL             ....   68
 Basis Dimension        Dim             ....  327

ORBITAL ENERGIES
----------------

  NO   OCC          E(Eh)            E(eV)
   0   2.0000     -20.585393      -560.1570
   1   2.0000     -20.583304      -560.1002
   2   2.0000     -20.555364      -559.3399
   3   2.0000     -11.346634      -308.7576
   4   2.0000     -11.346554      -308.7554
   5   2.0000     -11.308445      -307.7184
   6   2.0000     -11.303160      -307.5746
   7   2.0000     -11.248646      -306.0912
   8   2.0000     -11.244912      -305.9896
   9   2.0000      -1.450307       -39.4649
  10   2.0000      -1.399428       -38.0804
  11   2.0000      -1.372883       -37.3580
  12   2.0000      -1.155010       -31.4294
  13   2.0000      -1.022133       -27.8136
  14   2.0000      -0.917087       -24.9552
  15   2.0000      -0.891046       -24.2466
  16   2.0000      -0.844585       -22.9823
  17   2.0000      -0.756896       -20.5962
  18   2.0000      -0.727178       -19.7875
  19   2.0000      -0.712448       -19.3867
  20   2.0000      -0.670896       -18.2560
  21   2.0000      -0.662901       -18.0384
  22   2.0000      -0.647126       -17.6092
  23   2.0000      -0.614795       -16.7294
  24   2.0000      -0.601831       -16.3766
  25   2.0000      -0.594159       -16.1679
  26   2.0000      -0.548020       -14.9124
  27   2.0000      -0.532216       -14.4823
  28   2.0000      -0.526464       -14.3258
  29   2.0000      -0.501769       -13.6538
  30   2.0000      -0.476144       -12.9565
  31   2.0000      -0.471031       -12.8174
  32   2.0000      -0.408957       -11.1283
  33   2.0000      -0.395015       -10.7489
  34   0.0000       0.116377         3.1668
  35   0.0000       0.141322         3.8456
  36   0.0000       0.163110         4.4385
  37   0.0000       0.172081         4.6826
  38   0.0000       0.184987         5.0338

MULLIKEN ATOMIC CHARGES
-----------------------
   0 O :   -0.302174
   1 C :    0.148544
   2 C :   -0.069757
   3 O :   -0.295162
   4 C :    0.061295
   5 O :   -0.280880
   6 C :    0.178435
   7 C :   -0.289177
   8 C :   -0.260943
   9 H :    0.152146
  10 H :    0.126295
  11 H :    0.141180
  12 H :    0.091278
  13 H :    0.143429
  14 H :    0.148430
  15 H :    0.157510
  16 H :    0.149549
Sum of atomic charges:    0.0000000

LOEWDIN ATOMIC CHARGES
----------------------
   0 O :    0.156109
   1 C :   -0.298584
   2 C :   -0.275641
   3 O :    0.162150
   4 C :   -0.385684
   5 O :    0.216875
   6 C :   -0.306327
   7 C :   -0.185298
   8 C :   -0.181659
   9 H :    0.147597
  10 H :    0.140832
  11 H :    0.127184
  12 H :    0.110540
  13 H :    0.140297
  14 H :    0.140848
  15 H :    0.145881
  16 H :    0.144880

  Mayer bond orders larger than 0.1
B(  0-O ,  1-C ) :   1.9274 B(  1-C ,  2-C ) :   0.9078 B(  1-C ,  6-C ) :   0.9313
B(  2-C ,  3-O ) :   0.9258 B(  2-C ,  9-H ) :   0.9134 B(  2-C , 10-H ) :   0.9275
B(  3-O ,  4-C ) :   0.9770 B(  4-C ,  5-O ) :   0.9605 B(  4-C , 11-H ) :   0.9275
B(  4-C , 12-H ) :   0.9261 B(  5-O ,  6-C ) :   0.9596 B(  6-C ,  7-C ) :   0.8283
B(  6-C ,  8-C ) :   0.8420 B(  7-C ,  8-C ) :   0.9565 B(  7-C , 13-H ) :   0.9214
B(  7-C , 14-H ) :   0.9102 B(  8-C , 15-H ) :   0.9148 B(  8-C , 16-H ) :   0.9235

MP2 TOTAL ENERGY:     -458.219656161 Eh
FINAL SINGLE POINT ENERGY      -458.219656161277

DIPOLE MOMENT
-------------
                                X             Y             Z
Electronic contribution:     -2.18873      -0.97688      -2.08910
Nuclear contribution   :      2.35152       1.59934       2.46266
                        -----------------------------------------
Total Dipole Moment    :      0.16279       0.62246       0.37356
                        -----------------------------------------
Magnitude (a.u.)       :      0.74398
Magnitude (Debye)      :      1.89105

                             ****ORCA TERMINATED NORMALLY****
TOTAL RUN TIME: 0 days 0 hours 15 minutes 7 seconds 328 msec
