                         Program Version 3.0.3 - RELEASE   -
|  1> ! RI-MP2 RIJK def2-TZVP def2-TZVP/C def2-TZVP/JK TIGHTSCF
|  2> % maxcore 2000
|  3> % mp2 density relaxed end
|  4> *xyz 0 1
|  5>  C        0.0016522965     1.6001111486     0.1511116542
|  6>  C       -0.0572277276     0.0682725801    -0.0075062411
|  7>  C        0.7590859647    -0.6024238558     1.0158860696
|  8>  N        1.4129716450    -1.1067272404     1.8231106598
|  9>  C       -1.4628029729    -0.4655876177     0.0278743155
| 10>  N       -2.5183406091     0.2126499012     0.3693011441
| 11>  O       -3.5414189463    -0.6582382675     0.2358759252
| 12>  N       -3.0360237783    -1.8828422844    -0.2028761078
| 13>  N       -1.7931100425    -1.7621549322    -0.3265802659
| 14>  H        1.0382599367     1.9359957145     0.0906078926
| 15>  H       -0.5761789057     2.0766380037    -0.6434224349
| 16>  H       -0.4126925719     1.9066551245     1.1130424007
| 17>  H        0.3635081712    -0.2138725745    -0.9810189521
| 18> *
| 19>
| 20>                          ****END OF INPUT****

CARTESIAN COORDINATES (ANGSTROEM)
---------------------------------
  C      0.001652    1.600111    0.151112
  C     -0.057228    0.068273   -0.007506
  C      0.759086   -0.602424    1.015886
  N      1.412972   -1.106727    1.823111
  C     -1.462803   -0.465588    0.027874
  N     -2.518341    0.212650    0.369301
  O     -3.541419   -0.658238    0.235876
  N     -3.036024   -1.882842   -0.202876
  N     -1.793110   -1.762155   -0.326580
  H      1.038260    1.935996    0.090608
  H     -0.576179    2.076638   -0.643422
  H     -0.412693    1.906655    1.113042
  H      0.363508   -0.213873   -0.981019

 Total Charge           Charge          ....    0
 Multiplicity           Mult            ....    1
 Number of Electrons    NEL             ....   64
 Basis Dimension        Dim             ....  303

ORBITAL ENERGIES
----------------

  NO   OCC          E(Eh)            E(eV)
   0   2.0000     -20.721000      -563.8471
   1   2.0000     -15.747300      -428.5058
   2   2.0000     -15.690641      -426.9640
   3   2.0000     -15.672928      -426.4820
   4   2.0000     -15.592944      -424.3056
   5   2.0000     -11.361653      -309.1663
   6   2.0000     -11.335848      -308.4641
   7   2.0000     -11.295054      -307.3540
   8   2.0000     -11.269099      -306.6478
   9   2.0000      -1.607733       -43.7486
  10   2.0000      -1.365250       -37.1503
  11   2.0000      -1.258924       -34.2571
  12   2.0000      -1.235683       -33.6246
  13   2.0000      -1.116951       -30.3938
  14   2.0000      -0.978182       -26.6177
  15   2.0000      -0.935565       -25.4580
  16   2.0000      -0.889444       -24.2030
  17   2.0000      -0.779597       -21.2139
  18   2.0000      -0.749422       -20.3928
  19   2.0000      -0.717395       -19.5213
  20   2.0000      -0.666126       -18.1262
  21   2.0000      -0.633812       -17.2469
  22   2.0000      -0.603129       -16.4120
  23   2.0000      -0.584141       -15.8953
  24   2.0000      -0.575217       -15.6524
  25   2.0000      -0.567212       -15.4346
  26   2.0000      -0.542417       -14.7599
  27   2.0000      -0.530128       -14.4255
  28   2.0000      -0.520463       -14.1625
  29   2.0000      -0.485804       -13.2194
  30   2.0000      -0.480559       -13.0767
  31   2.0000      -0.460878       -12.5411
  32   0.0000       0.056055         1.5253
  33   0.0000       0.105934         2.8826
  34   0.0000       0.135783         3.6948
  35   0.0000       0.159697         4.3456
  36   0.0000       0.167631         4.5615

MULLIKEN ATOMIC CHARGES
-----------------------
   0 C :   -0.383220
   1 C :    0.074314
   2 C :   -0.190372
   3 N :   -0.044414
   4 C :    0.096732
   5 N :   -0.093976
   6 O :    0.006472
   7 N :    0.009036
   8 N :   -0.108599
   9 H :    0.161137
  10 H :    0.156905
  11 H :    0.158882
  12 H :    0.157103
Sum of atomic charges:    0.0000000

LOEWDIN ATOMIC CHARGES
----------------------
   0 C :   -0.249134
   1 C :   -0.230378
   2 C :   -0.158464
   3 N :    0.082923
   4 C :   -0.336866
   5 N :    0.056692
   6 O :    0.197992
   7 N :   -0.021906
   8 N :    0.056648
   9 H :    0.136078
  10 H :    0.134916
  11 H :    0.137871
  12 H :    0.193626

  Mayer bond orders larger than 0.1
B(  0-C ,  1-C ) :   0.9197 B(  0-C ,  9-H ) :   0.9289 B(  0-C , 10-H ) :   0.9328
B(  0-C , 11-H ) :   0.9174 B(  1-C ,  2-C ) :   0.9043 B(  1-C ,  4-C ) :   0.9241
B(  1-C , 12-H ) :   0.9049 B(  2-C ,  3-N ) :   2.8489 B(  4-C ,  5-N ) :   1.5591
B(  4-C ,  8-N ) :   1.2204 B(  5-N ,  6-O ) :   0.9606 B(  5-N ,  7-N ) :   0.1239
B(  6-O ,  7-N ) :   0.9230 B(  7-N ,  8-N ) :   1.4302

MP2 TOTAL ENERGY:     -448.144691192 Eh
FINAL SINGLE POINT ENERGY      -448.144691192332

DIPOLE MOMENT
-------------
                                X             Y             Z
Electronic contribution:     -4.80556      -5.99649       0.68910
Nuclear contribution   :      4.83642       7.18512      -1.63115
                        -----------------------------------------
Total Dipole Moment    :      0.03086       1.18863      -0.94205
                        -----------------------------------------
Magnitude (a.u.)       :      1.51699
Magnitude (Debye)      :      3.85588

                             ****ORCA TERMINATED NORMALLY****
TOTAL RUN TIME: 0 days 0 hours 13 minutes 47 seconds 461 msec
