                         Program Version 3.0.3 - RELEASE   -
|  1> ! RI-MP2 RIJK def2-TZVP def2-TZVP/C def2-TZVP/JK TIGHTSCF
|  2> % maxcore 2000
|  3> % mp2 density relaxed end
|  4> *xyz 0 1
|  5>  O        0.0575419126     1.4890360081     0.0145440747
|  6>  C        0.0960491706     0.0732249112     0.1262016274
|  7>  C       -1.3320696342    -0.4555017034     0.0708053028
|  8>  C       -2.3478012479     0.2831199632     0.9873008902
|  9>  O       -3.1845056951     0.6227872764    -0.1358257905
| 10>  C       -2.2097287419     0.1253959904    -1.0735414922
| 11>  C       -1.4487415482    -1.9640425872     0.1783629699
| 12>  C       -0.4816311270    -2.9433184805    -0.4425201359
| 13>  C       -0.5805572183    -2.8286633844     1.0606686604
| 14>  H        0.9595751281     1.8189177721     0.0501683173
| 15>  H        0.6873107421    -0.3639061666    -0.6930172838
| 16>  H        0.5681999044    -0.2277877764     1.0739634672
| 17>  H       -2.8722202518    -0.3421651707     1.7202122342
| 18>  H       -1.9441618822     1.1744254328     1.4797570310
| 19>  H       -1.7353473914     0.9358440188    -1.6374426222
| 20>  H       -2.6386318591    -0.6090413164    -1.7662124174
| 21>  H       -2.4892376325    -2.2776925338     0.1337396144
| 22>  H       -0.8898817439    -3.8255481777    -0.9231930745
| 23>  H        0.4183722837    -2.5663305407    -0.9154373353
| 24>  H        0.2538720722    -2.3756521437     1.5843829283
| 25>  H       -1.0566743305    -3.6322087715     1.6117317739
| 26> *
| 27>
| 28>                          ****END OF INPUT****

CARTESIAN COORDINATES (ANGSTROEM)
---------------------------------
  O      0.057542    1.489036    0.014544
  C      0.096049    0.073225    0.126202
  C     -1.332070   -0.455502    0.070805
  C     -2.347801    0.283120    0.987301
  O     -3.184506    0.622787   -0.135826
  C     -2.209729    0.125396   -1.073541
  C     -1.448742   -1.964043    0.178363
  C     -0.481631   -2.943318   -0.442520
  C     -0.580557   -2.828663    1.060669
  H      0.959575    1.818918    0.050168
  H      0.687311   -0.363906   -0.693017
  H      0.568200   -0.227788    1.073963
  H     -2.872220   -0.342165    1.720212
  H     -1.944162    1.174425    1.479757
  H     -1.735347    0.935844   -1.637443
  H     -2.638632   -0.609041   -1.766212
  H     -2.489238   -2.277693    0.133740
  H     -0.889882   -3.825548   -0.923193
  H      0.418372   -2.566331   -0.915437
  H      0.253872   -2.375652    1.584383
  H     -1.056674   -3.632209    1.611732

 Total Charge           Charge          ....    0
 Multiplicity           Mult            ....    1
 Number of Electrons    NEL             ....   70
 Basis Dimension        Dim             ....  351

ORBITAL ENERGIES
----------------

  NO   OCC          E(Eh)            E(eV)
   0   2.0000     -20.563432      -559.5594
   1   2.0000     -20.535979      -558.8124
   2   2.0000     -11.284573      -307.0688
   3   2.0000     -11.264753      -306.5295
   4   2.0000     -11.264743      -306.5292
   5   2.0000     -11.240775      -305.8770
   6   2.0000     -11.238653      -305.8193
   7   2.0000     -11.231374      -305.6212
   8   2.0000     -11.230746      -305.6041
   9   2.0000      -1.373889       -37.3854
  10   2.0000      -1.361344       -37.0441
  11   2.0000      -1.152171       -31.3522
  12   2.0000      -1.039632       -28.2898
  13   2.0000      -0.924369       -25.1534
  14   2.0000      -0.907078       -24.6828
  15   2.0000      -0.829122       -22.5616
  16   2.0000      -0.827324       -22.5126
  17   2.0000      -0.726008       -19.7557
  18   2.0000      -0.717490       -19.5239
  19   2.0000      -0.677461       -18.4347
  20   2.0000      -0.653660       -17.7870
  21   2.0000      -0.651500       -17.7282
  22   2.0000      -0.631554       -17.1855
  23   2.0000      -0.596364       -16.2279
  24   2.0000      -0.578347       -15.7376
  25   2.0000      -0.554809       -15.0971
  26   2.0000      -0.546925       -14.8826
  27   2.0000      -0.522440       -14.2163
  28   2.0000      -0.488536       -13.2937
  29   2.0000      -0.486452       -13.2370
  30   2.0000      -0.457468       -12.4483
  31   2.0000      -0.448823       -12.2131
  32   2.0000      -0.418871       -11.3981
  33   2.0000      -0.400150       -10.8886
  34   2.0000      -0.398148       -10.8342
  35   0.0000       0.128194         3.4883
  36   0.0000       0.151049         4.1102
  37   0.0000       0.156294         4.2530
  38   0.0000       0.163264         4.4426
  39   0.0000       0.182203         4.9580

MULLIKEN ATOMIC CHARGES
-----------------------
   0 O :   -0.470396
   1 C :   -0.105922
   2 C :    0.204059
   3 C :   -0.064149
   4 O :   -0.333813
   5 C :   -0.064187
   6 C :   -0.217226
   7 C :   -0.262652
   8 C :   -0.262607
   9 H :    0.313581
  10 H :    0.102517
  11 H :    0.102525
  12 H :    0.094346
  13 H :    0.104264
  14 H :    0.104305
  15 H :    0.094362
  16 H :    0.139285
  17 H :    0.133499
  18 H :    0.127359
  19 H :    0.127351
  20 H :    0.133496
Sum of atomic charges:    0.0000000

LOEWDIN ATOMIC CHARGES
----------------------
   0 O :   -0.034553
   1 C :   -0.306117
   2 C :   -0.256051
   3 C :   -0.226473
   4 O :    0.113814
   5 C :   -0.226445
   6 C :   -0.192844
   7 C :   -0.225688
   8 C :   -0.225674
   9 H :    0.173770
  10 H :    0.122433
  11 H :    0.122443
  12 H :    0.117046
  13 H :    0.121894
  14 H :    0.121898
  15 H :    0.117055
  16 H :    0.160884
  17 H :    0.131473
  18 H :    0.129828
  19 H :    0.129835
  20 H :    0.131473

  Mayer bond orders larger than 0.1
B(  0-O ,  1-C ) :   0.9947 B(  0-O ,  9-H ) :   0.8470 B(  1-C ,  2-C ) :   0.8768
B(  1-C , 10-H ) :   0.9290 B(  1-C , 11-H ) :   0.9289 B(  2-C ,  3-C ) :   0.9450
B(  2-C ,  5-C ) :   0.9451 B(  2-C ,  6-C ) :   0.8630 B(  3-C ,  4-O ) :   0.9699
B(  3-C , 12-H ) :   0.9064 B(  3-C , 13-H ) :   0.8944 B(  4-O ,  5-C ) :   0.9699
B(  5-C , 14-H ) :   0.8945 B(  5-C , 15-H ) :   0.9064 B(  6-C ,  7-C ) :   0.8716
B(  6-C ,  8-C ) :   0.8716 B(  6-C , 16-H ) :   0.9299 B(  7-C ,  8-C ) :   0.8912
B(  7-C , 17-H ) :   0.9299 B(  7-C , 18-H ) :   0.9331 B(  8-C , 19-H ) :   0.9331
B(  8-C , 20-H ) :   0.9299

MP2 TOTAL ENERGY:     -423.473830767 Eh
FINAL SINGLE POINT ENERGY      -423.473830766933

DIPOLE MOMENT
-------------
                                X             Y             Z
Electronic contribution:     -2.77967       4.62117      -0.53898
Nuclear contribution   :      4.02231      -5.22922       0.66922
                        -----------------------------------------
Total Dipole Moment    :      1.24265      -0.60805       0.13024
                        -----------------------------------------
Magnitude (a.u.)       :      1.38955
Magnitude (Debye)      :      3.53197

                             ****ORCA TERMINATED NORMALLY****
TOTAL RUN TIME: 0 days 0 hours 17 minutes 43 seconds 686 msec
