                         Program Version 3.0.3 - RELEASE   -
|  1> ! RI-MP2 RIJK def2-TZVP def2-TZVP/C def2-TZVP/JK TIGHTSCF
|  2> % maxcore 2000
|  3> % mp2 density relaxed end
|  4> *xyz 0 1
|  5>  C        0.2234705814     1.6450586005     0.0573708489
|  6>  C       -0.0788729426     0.1426495220     0.0364418111
|  7>  C        0.5578994433    -0.5694301122    -1.1537206270
|  8>  C        2.0986307753    -0.7721537332    -1.2228349076
|  9>  N        1.9598384831    -2.2536512690    -1.4704179313
| 10>  C        1.2808575668    -2.7891613601    -0.2704531376
| 11>  C        0.4548587592    -2.0951328133    -1.2773420056
| 12>  C       -0.4625226308    -2.8456377544    -2.2145598910
| 13>  O        0.1054400131    -4.0834676241    -2.5911306154
| 14>  H        1.3015080215     1.8332907100     0.1108090598
| 15>  H       -0.1528954540     2.1370289425    -0.8463524402
| 16>  H       -0.2410219033     2.1317865989     0.9201023039
| 17>  H        0.2685751538    -0.3134587877     0.9713266944
| 18>  H       -1.1652907785    -0.0131873672     0.0064842470
| 19>  H        0.2055909963    -0.1032440057    -2.0811629646
| 20>  H        2.5845833703    -0.2885309742    -2.0719566655
| 21>  H        2.6628765944    -0.5413165531    -0.3117777447
| 22>  H        1.2322148770    -3.8727003004    -0.2680687850
| 23>  H        1.4912633245    -2.3334779233     0.6942617301
| 24>  H       -1.4243352340    -3.0652929205    -1.7354420242
| 25>  H       -0.6710729507    -2.2130713369    -3.0946400407
| 26>  H        1.0305066138    -3.8902639286    -2.8009998249
| 27> *
| 28>
| 29>                          ****END OF INPUT****

CARTESIAN COORDINATES (ANGSTROEM)
---------------------------------
  C      0.223471    1.645059    0.057371
  C     -0.078873    0.142650    0.036442
  C      0.557899   -0.569430   -1.153721
  C      2.098631   -0.772154   -1.222835
  N      1.959838   -2.253651   -1.470418
  C      1.280858   -2.789161   -0.270453
  C      0.454859   -2.095133   -1.277342
  C     -0.462523   -2.845638   -2.214560
  O      0.105440   -4.083468   -2.591131
  H      1.301508    1.833291    0.110809
  H     -0.152895    2.137029   -0.846352
  H     -0.241022    2.131787    0.920102
  H      0.268575   -0.313459    0.971327
  H     -1.165291   -0.013187    0.006484
  H      0.205591   -0.103244   -2.081163
  H      2.584583   -0.288531   -2.071957
  H      2.662877   -0.541317   -0.311778
  H      1.232215   -3.872700   -0.268069
  H      1.491263   -2.333478    0.694262
  H     -1.424335   -3.065293   -1.735442
  H     -0.671073   -2.213071   -3.094640
  H      1.030507   -3.890264   -2.801000

 Total Charge           Charge          ....    0
 Multiplicity           Mult            ....    1
 Number of Electrons    NEL             ....   70
 Basis Dimension        Dim             ....  357

ORBITAL ENERGIES
----------------

  NO   OCC          E(Eh)            E(eV)
   0   2.0000     -20.548967      -559.1658
   1   2.0000     -15.562565      -423.4789
   2   2.0000     -11.278076      -306.8920
   3   2.0000     -11.266653      -306.5812
   4   2.0000     -11.258500      -306.3594
   5   2.0000     -11.255396      -306.2749
   6   2.0000     -11.241884      -305.9072
   7   2.0000     -11.230337      -305.5930
   8   2.0000     -11.222570      -305.3816
   9   2.0000      -1.359841       -37.0032
  10   2.0000      -1.289482       -35.0886
  11   2.0000      -1.070619       -29.1330
  12   2.0000      -0.990532       -26.9538
  13   2.0000      -0.976980       -26.5850
  14   2.0000      -0.903609       -24.5885
  15   2.0000      -0.828188       -22.5361
  16   2.0000      -0.823322       -22.4037
  17   2.0000      -0.726538       -19.7701
  18   2.0000      -0.707261       -19.2456
  19   2.0000      -0.670275       -18.2391
  20   2.0000      -0.636267       -17.3137
  21   2.0000      -0.615954       -16.7610
  22   2.0000      -0.606423       -16.5016
  23   2.0000      -0.587934       -15.9985
  24   2.0000      -0.563567       -15.3354
  25   2.0000      -0.552203       -15.0262
  26   2.0000      -0.546798       -14.8791
  27   2.0000      -0.530637       -14.4394
  28   2.0000      -0.501135       -13.6366
  29   2.0000      -0.495850       -13.4928
  30   2.0000      -0.464253       -12.6330
  31   2.0000      -0.444951       -12.1077
  32   2.0000      -0.443467       -12.0673
  33   2.0000      -0.420379       -11.4391
  34   2.0000      -0.369310       -10.0494
  35   0.0000       0.129747         3.5306
  36   0.0000       0.151391         4.1196
  37   0.0000       0.156367         4.2550
  38   0.0000       0.163559         4.4507
  39   0.0000       0.186248         5.0681

MULLIKEN ATOMIC CHARGES
-----------------------
   0 C :   -0.391957
   1 C :   -0.208230
   2 C :   -0.079996
   3 C :   -0.170334
   4 N :   -0.286620
   5 C :   -0.166811
   6 C :    0.030219
   7 C :   -0.003785
   8 O :   -0.478847
   9 H :    0.126527
  10 H :    0.125655
  11 H :    0.138041
  12 H :    0.103151
  13 H :    0.114288
  14 H :    0.100812
  15 H :    0.128439
  16 H :    0.116286
  17 H :    0.145066
  18 H :    0.124964
  19 H :    0.111119
  20 H :    0.090258
  21 H :    0.331756
Sum of atomic charges:   -0.0000000

LOEWDIN ATOMIC CHARGES
----------------------
   0 C :   -0.315572
   1 C :   -0.275093
   2 C :   -0.208287
   3 C :   -0.220895
   4 N :    0.096295
   5 C :   -0.228340
   6 C :   -0.244728
   7 C :   -0.313291
   8 O :   -0.036776
   9 H :    0.121212
  10 H :    0.121504
  11 H :    0.122211
  12 H :    0.136235
  13 H :    0.139561
  14 H :    0.155328
  15 H :    0.127397
  16 H :    0.124317
  17 H :    0.139078
  18 H :    0.125552
  19 H :    0.132451
  20 H :    0.121611
  21 H :    0.180230

  Mayer bond orders larger than 0.1
B(  0-C ,  1-C ) :   0.9167 B(  0-C ,  9-H ) :   0.9402 B(  0-C , 10-H ) :   0.9379
B(  0-C , 11-H ) :   0.9407 B(  1-C ,  2-C ) :   0.9170 B(  1-C , 12-H ) :   0.9299
B(  1-C , 13-H ) :   0.9315 B(  2-C ,  3-C ) :   0.9608 B(  2-C ,  6-C ) :   0.8775
B(  2-C , 14-H ) :   0.9194 B(  3-C ,  4-N ) :   0.9199 B(  3-C , 15-H ) :   0.9188
B(  3-C , 16-H ) :   0.9340 B(  4-N ,  5-C ) :   0.8592 B(  4-N ,  6-C ) :   0.8701
B(  5-C ,  6-C ) :   0.9628 B(  5-C , 17-H ) :   0.9145 B(  5-C , 18-H ) :   0.9114
B(  6-C ,  7-C ) :   0.9220 B(  7-C ,  8-O ) :   0.9368 B(  7-C , 19-H ) :   0.9291
B(  7-C , 20-H ) :   0.9213 B(  8-O , 21-H ) :   0.8180

MP2 TOTAL ENERGY:     -403.618421450 Eh
FINAL SINGLE POINT ENERGY      -403.618421449714

DIPOLE MOMENT
-------------
                                X             Y             Z
Electronic contribution:      1.39827      -7.75289      -3.55622
Nuclear contribution   :     -1.49437       8.77617       4.04743
                        -----------------------------------------
Total Dipole Moment    :     -0.09610       1.02328       0.49121
                        -----------------------------------------
Magnitude (a.u.)       :      1.13914
Magnitude (Debye)      :      2.89545

                             ****ORCA TERMINATED NORMALLY****
TOTAL RUN TIME: 0 days 0 hours 32 minutes 39 seconds 215 msec
