                         Program Version 3.0.3 - RELEASE   -
|  1> ! RI-MP2 RIJK def2-TZVP def2-TZVP/C def2-TZVP/JK TIGHTSCF
|  2> % maxcore 2000
|  3> % mp2 density relaxed end
|  4> *xyz 0 1
|  5>  O       -0.1175816515     1.3486986259    -0.1851115236
|  6>  C        0.0770483113     0.0420264444    -0.0592285458
|  7>  N        1.2298056345    -0.4264397901     0.2288197317
|  8>  O        1.3266797346    -1.8350235562     0.3390721473
|  9>  C        0.2616961627    -2.6512390471     0.1517290012
| 10>  O        0.3730147576    -3.8339624502     0.2509396261
| 11>  C       -1.0805229997    -1.9984191558    -0.1901106732
| 12>  O       -2.0836283955    -2.5981600592    -0.3775109367
| 13>  O       -1.0760566037    -0.6169361664    -0.2763867794
| 14>  H        0.7286923598     1.7906904748    -0.0231787376
| 15> *
| 16>
| 17>                          ****END OF INPUT****

CARTESIAN COORDINATES (ANGSTROEM)
---------------------------------
  O     -0.117582    1.348699   -0.185112
  C      0.077048    0.042026   -0.059229
  N      1.229806   -0.426440    0.228820
  O      1.326680   -1.835024    0.339072
  C      0.261696   -2.651239    0.151729
  O      0.373015   -3.833962    0.250940
  C     -1.080523   -1.998419   -0.190111
  O     -2.083628   -2.598160   -0.377511
  O     -1.076057   -0.616936   -0.276387
  H      0.728692    1.790690   -0.023179

 Total Charge           Charge          ....    0
 Multiplicity           Mult            ....    1
 Number of Electrons    NEL             ....   66
 Basis Dimension        Dim             ....  285

ORBITAL ENERGIES
----------------

  NO   OCC          E(Eh)            E(eV)
   0   2.0000     -20.701277      -563.3104
   1   2.0000     -20.681577      -562.7743
   2   2.0000     -20.667660      -562.3956
   3   2.0000     -20.623668      -561.1985
   4   2.0000     -20.601606      -560.5982
   5   2.0000     -15.667039      -426.3218
   6   2.0000     -11.471255      -312.1487
   7   2.0000     -11.459219      -311.8212
   8   2.0000     -11.443097      -311.3825
   9   2.0000      -1.583660       -43.0936
  10   2.0000      -1.519378       -41.3444
  11   2.0000      -1.499114       -40.7930
  12   2.0000      -1.451674       -39.5021
  13   2.0000      -1.427166       -38.8352
  14   2.0000      -1.218756       -33.1640
  15   2.0000      -1.014422       -27.6038
  16   2.0000      -0.967553       -26.3284
  17   2.0000      -0.862786       -23.4776
  18   2.0000      -0.820064       -22.3151
  19   2.0000      -0.764336       -20.7986
  20   2.0000      -0.739543       -20.1240
  21   2.0000      -0.721440       -19.6314
  22   2.0000      -0.696220       -18.9451
  23   2.0000      -0.685275       -18.6473
  24   2.0000      -0.683374       -18.5955
  25   2.0000      -0.656303       -17.8589
  26   2.0000      -0.621188       -16.9034
  27   2.0000      -0.576463       -15.6864
  28   2.0000      -0.570068       -15.5123
  29   2.0000      -0.539418       -14.6783
  30   2.0000      -0.537030       -14.6133
  31   2.0000      -0.483482       -13.1562
  32   2.0000      -0.436688       -11.8829
  33   0.0000       0.039677         1.0797
  34   0.0000       0.111838         3.0433
  35   0.0000       0.141094         3.8394
  36   0.0000       0.146984         3.9996
  37   0.0000       0.210142         5.7182

MULLIKEN ATOMIC CHARGES
-----------------------
   0 O :   -0.370113
   1 C :    0.364392
   2 N :   -0.174333
   3 O :   -0.103794
   4 C :    0.236863
   5 O :   -0.217857
   6 C :    0.246391
   7 O :   -0.182067
   8 O :   -0.166071
   9 H :    0.366589
Sum of atomic charges:   -0.0000000

LOEWDIN ATOMIC CHARGES
----------------------
   0 O :    0.134942
   1 C :   -0.546908
   2 N :    0.012525
   3 O :    0.246274
   4 C :   -0.464609
   5 O :    0.207791
   6 C :   -0.395963
   7 O :    0.237388
   8 O :    0.348211
   9 H :    0.220349

  Mayer bond orders larger than 0.1
B(  0-O ,  1-C ) :   1.1794 B(  0-O ,  9-H ) :   0.8006 B(  1-C ,  2-N ) :   1.7168
B(  1-C ,  8-O ) :   1.0716 B(  2-N ,  3-O ) :   0.7668 B(  3-O ,  4-C ) :   1.1242
B(  4-C ,  5-O ) :   2.0099 B(  4-C ,  6-C ) :   0.8830 B(  6-C ,  7-O ) :   2.0737
B(  6-C ,  8-O ) :   0.9739

MP2 TOTAL ENERGY:     -544.884487590 Eh
FINAL SINGLE POINT ENERGY      -544.884487590385

DIPOLE MOMENT
-------------
                                X             Y             Z
Electronic contribution:     -0.46666      -1.46301      -0.01228
Nuclear contribution   :      0.79280       2.96454      -0.00884
                        -----------------------------------------
Total Dipole Moment    :      0.32614       1.50153      -0.02111
                        -----------------------------------------
Magnitude (a.u.)       :      1.53668
Magnitude (Debye)      :      3.90594

                             ****ORCA TERMINATED NORMALLY****
TOTAL RUN TIME: 0 days 0 hours 11 minutes 9 seconds 954 msec
