                         Program Version 3.0.3 - RELEASE   -
|  1> ! RI-MP2 RIJK def2-TZVP def2-TZVP/C def2-TZVP/JK TIGHTSCF
|  2> % maxcore 2000
|  3> % mp2 density relaxed end
|  4> *xyz 0 1
|  5>  O       -0.0747480003     1.4092480802     0.0079917691
|  6>  C        0.0172036792     0.0030301531     0.0214844223
|  7>  C        0.7741219187    -0.5699556817     1.2206169240
|  8>  N        0.5805853629    -2.0094827474     1.3696085097
|  9>  C       -0.4194830188    -2.5418889997     0.8182170872
| 10>  O       -1.4177299629    -1.9624887501     0.0812211020
| 11>  C       -1.4236867545    -0.5332669181     0.0555220857
| 12>  C       -2.1792813057    -0.0119841503     1.2090565610
| 13>  N       -2.7793675395     0.3772397642     2.1155081548
| 14>  H        0.8118965169     1.7783760972     0.0741445447
| 15>  H        0.4643107196    -0.3819035507    -0.9080749110
| 16>  H        1.8488943301    -0.3792861646     1.1185550604
| 17>  H        0.4454420880    -0.0611235142     2.1355864232
| 18>  H       -0.5957915661    -3.6132045239     0.8737410993
| 19>  H       -1.9511570677    -0.2447608540    -0.8572899224
| 20> *
| 21>
| 22>                          ****END OF INPUT****

CARTESIAN COORDINATES (ANGSTROEM)
---------------------------------
  O     -0.074748    1.409248    0.007992
  C      0.017204    0.003030    0.021484
  C      0.774122   -0.569956    1.220617
  N      0.580585   -2.009483    1.369609
  C     -0.419483   -2.541889    0.818217
  O     -1.417730   -1.962489    0.081221
  C     -1.423687   -0.533267    0.055522
  C     -2.179281   -0.011984    1.209057
  N     -2.779368    0.377240    2.115508
  H      0.811897    1.778376    0.074145
  H      0.464311   -0.381904   -0.908075
  H      1.848894   -0.379286    1.118555
  H      0.445442   -0.061124    2.135586
  H     -0.595792   -3.613205    0.873741
  H     -1.951157   -0.244761   -0.857290

 Total Charge           Charge          ....    0
 Multiplicity           Mult            ....    1
 Number of Electrons    NEL             ....   66
 Basis Dimension        Dim             ....  315

ORBITAL ENERGIES
----------------

  NO   OCC          E(Eh)            E(eV)
   0   2.0000     -20.630618      -561.3876
   1   2.0000     -20.594930      -560.4165
   2   2.0000     -15.584395      -424.0730
   3   2.0000     -15.572252      -423.7425
   4   2.0000     -11.359829      -309.1167
   5   2.0000     -11.356109      -309.0154
   6   2.0000     -11.325273      -308.1763
   7   2.0000     -11.281951      -306.9975
   8   2.0000     -11.280454      -306.9567
   9   2.0000      -1.462943       -39.8087
  10   2.0000      -1.404615       -38.2215
  11   2.0000      -1.245103       -33.8810
  12   2.0000      -1.228655       -33.4334
  13   2.0000      -1.097133       -29.8545
  14   2.0000      -0.981994       -26.7214
  15   2.0000      -0.913252       -24.8509
  16   2.0000      -0.828778       -22.5522
  17   2.0000      -0.752344       -20.4723
  18   2.0000      -0.741002       -20.1637
  19   2.0000      -0.712040       -19.3756
  20   2.0000      -0.691795       -18.8247
  21   2.0000      -0.631254       -17.1773
  22   2.0000      -0.624267       -16.9872
  23   2.0000      -0.616274       -16.7697
  24   2.0000      -0.585323       -15.9275
  25   2.0000      -0.578307       -15.7365
  26   2.0000      -0.555874       -15.1261
  27   2.0000      -0.535185       -14.5631
  28   2.0000      -0.496350       -13.5064
  29   2.0000      -0.479286       -13.0420
  30   2.0000      -0.471153       -12.8207
  31   2.0000      -0.426324       -11.6009
  32   2.0000      -0.419365       -11.4115
  33   0.0000       0.111851         3.0436
  34   0.0000       0.133936         3.6446
  35   0.0000       0.142837         3.8868
  36   0.0000       0.155971         4.2442
  37   0.0000       0.169616         4.6155

MULLIKEN ATOMIC CHARGES
-----------------------
   0 O :   -0.451934
   1 C :    0.016887
   2 C :   -0.180179
   3 N :   -0.251181
   4 C :    0.084782
   5 O :   -0.260748
   6 C :    0.254611
   7 C :   -0.210821
   8 N :   -0.040868
   9 H :    0.328020
  10 H :    0.112528
  11 H :    0.134243
  12 H :    0.158820
  13 H :    0.151097
  14 H :    0.154743
Sum of atomic charges:    0.0000000

LOEWDIN ATOMIC CHARGES
----------------------
   0 O :    0.012127
   1 C :   -0.335817
   2 C :   -0.277690
   3 N :    0.085839
   4 C :   -0.339324
   5 O :    0.252182
   6 C :   -0.260199
   7 C :   -0.156488
   8 N :    0.085840
   9 H :    0.184964
  10 H :    0.146526
  11 H :    0.138509
  12 H :    0.149345
  13 H :    0.139542
  14 H :    0.174644

  Mayer bond orders larger than 0.1
B(  0-O ,  1-C ) :   0.9986 B(  0-O ,  9-H ) :   0.8364 B(  1-C ,  2-C ) :   0.9309
B(  1-C ,  6-C ) :   0.8731 B(  1-C , 10-H ) :   0.9271 B(  2-C ,  3-N ) :   0.9213
B(  2-C , 11-H ) :   0.9249 B(  2-C , 12-H ) :   0.9081 B(  3-N ,  4-C ) :   1.8533
B(  4-C ,  5-O ) :   1.0321 B(  4-C , 13-H ) :   0.9209 B(  5-O ,  6-C ) :   0.8727
B(  6-C ,  7-C ) :   0.9332 B(  6-C , 14-H ) :   0.8998 B(  7-C ,  8-N ) :   2.8337

MP2 TOTAL ENERGY:     -453.221693075 Eh
FINAL SINGLE POINT ENERGY      -453.221693075273

DIPOLE MOMENT
-------------
                                X             Y             Z
Electronic contribution:     -3.96175      -0.79490       0.68797
Nuclear contribution   :      5.08250       0.79066      -1.85798
                        -----------------------------------------
Total Dipole Moment    :      1.12076      -0.00424      -1.17001
                        -----------------------------------------
Magnitude (a.u.)       :      1.62020
Magnitude (Debye)      :      4.11822

                             ****ORCA TERMINATED NORMALLY****
TOTAL RUN TIME: 0 days 0 hours 15 minutes 10 seconds 436 msec
