                         Program Version 3.0.3 - RELEASE   -
|  1> ! RI-MP2 RIJK def2-TZVP def2-TZVP/C def2-TZVP/JK TIGHTSCF
|  2> % maxcore 2000
|  3> % mp2 density relaxed end
|  4> *xyz 0 1
|  5>  C       -0.4748297802     0.7399612877    -0.5369312077
|  6>  C       -0.3065502356    -0.6715255964     0.0043468143
|  7>  O        0.3994348895    -1.5155715173    -0.9319159435
|  8>  C        1.7384434505    -1.4692792243    -0.8849787715
|  9>  O        2.3774829596    -0.7790872073    -0.1313244031
| 10>  C        2.3805058427    -2.3654982766    -1.9450569386
| 11>  C        1.6669020592    -3.5914284827    -2.2706698463
| 12>  C        1.1011085351    -4.6171510390    -2.5443208071
| 13>  C        0.4062710317    -5.8539124144    -2.8703054903
| 14>  H        0.4963960309     1.2286184148    -0.6434600411
| 15>  H       -0.9758305560     0.7267649067    -1.5091535374
| 16>  H       -1.0828335199     1.3311603567     0.1552739445
| 17>  H        0.2368493582    -0.6674363866     0.9519291865
| 18>  H       -1.2712880475    -1.1655728048     0.1400461665
| 19>  H        2.4915651247    -1.7414587344    -2.8436202278
| 20>  H        3.3959840867    -2.5719885945    -1.5936741165
| 21>  H        0.9514010351    -6.7282751631    -2.4979457897
| 22>  H       -0.5948836161    -5.8738552141    -2.4256664976
| 23>  H        0.2896440015    -5.9725404103    -3.9532227736
| 24> *
| 25>
| 26>                          ****END OF INPUT****

CARTESIAN COORDINATES (ANGSTROEM)
---------------------------------
  C     -0.474830    0.739961   -0.536931
  C     -0.306550   -0.671526    0.004347
  O      0.399435   -1.515572   -0.931916
  C      1.738443   -1.469279   -0.884979
  O      2.377483   -0.779087   -0.131324
  C      2.380506   -2.365498   -1.945057
  C      1.666902   -3.591428   -2.270670
  C      1.101109   -4.617151   -2.544321
  C      0.406271   -5.853912   -2.870305
  H      0.496396    1.228618   -0.643460
  H     -0.975831    0.726765   -1.509154
  H     -1.082834    1.331160    0.155274
  H      0.236849   -0.667436    0.951929
  H     -1.271288   -1.165573    0.140046
  H      2.491565   -1.741459   -2.843620
  H      3.395984   -2.571989   -1.593674
  H      0.951401   -6.728275   -2.497946
  H     -0.594884   -5.873855   -2.425666
  H      0.289644   -5.972540   -3.953223

 Total Charge           Charge          ....    0
 Multiplicity           Mult            ....    1
 Number of Electrons    NEL             ....   68
 Basis Dimension        Dim             ....  339

ORBITAL ENERGIES
----------------

  NO   OCC          E(Eh)            E(eV)
   0   2.0000     -20.600417      -560.5658
   1   2.0000     -20.542840      -558.9991
   2   2.0000     -11.383958      -309.7733
   3   2.0000     -11.288766      -307.1829
   4   2.0000     -11.269103      -306.6479
   5   2.0000     -11.248352      -306.0832
   6   2.0000     -11.228166      -305.5339
   7   2.0000     -11.223054      -305.3948
   8   2.0000     -11.222251      -305.3730
   9   2.0000      -1.460696       -39.7475
  10   2.0000      -1.361129       -37.0382
  11   2.0000      -1.087523       -29.5930
  12   2.0000      -1.043630       -28.3986
  13   2.0000      -1.016286       -27.6546
  14   2.0000      -0.938613       -25.5410
  15   2.0000      -0.880037       -23.9470
  16   2.0000      -0.770856       -20.9761
  17   2.0000      -0.721526       -19.6337
  18   2.0000      -0.688870       -18.7451
  19   2.0000      -0.664965       -18.0946
  20   2.0000      -0.648226       -17.6391
  21   2.0000      -0.616607       -16.7787
  22   2.0000      -0.607203       -16.5228
  23   2.0000      -0.595184       -16.1958
  24   2.0000      -0.586510       -15.9598
  25   2.0000      -0.583099       -15.8669
  26   2.0000      -0.565795       -15.3961
  27   2.0000      -0.530109       -14.4250
  28   2.0000      -0.525090       -14.2884
  29   2.0000      -0.496567       -13.5123
  30   2.0000      -0.461722       -12.5641
  31   2.0000      -0.456879       -12.4323
  32   2.0000      -0.372865       -10.1462
  33   2.0000      -0.371326       -10.1043
  34   0.0000       0.131521         3.5789
  35   0.0000       0.144958         3.9445
  36   0.0000       0.159504         4.3403
  37   0.0000       0.173669         4.7258
  38   0.0000       0.182496         4.9660

MULLIKEN ATOMIC CHARGES
-----------------------
   0 C :   -0.410781
   1 C :   -0.040437
   2 O :   -0.235337
   3 C :    0.323549
   4 O :   -0.334902
   5 C :   -0.329879
   6 C :   -0.004689
   7 C :    0.023661
   8 C :   -0.479548
   9 H :    0.153931
  10 H :    0.131673
  11 H :    0.131617
  12 H :    0.128355
  13 H :    0.129192
  14 H :    0.160298
  15 H :    0.168785
  16 H :    0.161418
  17 H :    0.162009
  18 H :    0.161087
Sum of atomic charges:    0.0000000

LOEWDIN ATOMIC CHARGES
----------------------
   0 C :   -0.318364
   1 C :   -0.298540
   2 O :    0.265600
   3 C :   -0.474679
   4 O :    0.118086
   5 C :   -0.213929
   6 C :   -0.087838
   7 C :   -0.102034
   8 C :   -0.294544
   9 H :    0.128520
  10 H :    0.124032
  11 H :    0.128468
  12 H :    0.131343
  13 H :    0.128918
  14 H :    0.173043
  15 H :    0.169415
  16 H :    0.140639
  17 H :    0.141306
  18 H :    0.140557

  Mayer bond orders larger than 0.1
B(  0-C ,  1-C ) :   0.9349 B(  0-C ,  9-H ) :   0.9358 B(  0-C , 10-H ) :   0.9324
B(  0-C , 11-H ) :   0.9296 B(  1-C ,  2-O ) :   0.8213 B(  1-C , 12-H ) :   0.9337
B(  1-C , 13-H ) :   0.9302 B(  2-O ,  3-C ) :   1.1476 B(  3-C ,  4-O ) :   1.9300
B(  3-C ,  5-C ) :   0.9500 B(  5-C ,  6-C ) :   0.9584 B(  5-C , 14-H ) :   0.9146
B(  5-C , 15-H ) :   0.9337 B(  6-C ,  7-C ) :   2.7056 B(  7-C ,  8-C ) :   0.8686
B(  8-C , 16-H ) :   0.9476 B(  8-C , 17-H ) :   0.9438 B(  8-C , 18-H ) :   0.9482

MP2 TOTAL ENERGY:     -422.320490260 Eh
FINAL SINGLE POINT ENERGY      -422.320490259626

DIPOLE MOMENT
-------------
                                X             Y             Z
Electronic contribution:      5.00360      -0.43426       0.81788
Nuclear contribution   :     -5.71063       0.18258      -1.11846
                        -----------------------------------------
Total Dipole Moment    :     -0.70703      -0.25169      -0.30058
                        -----------------------------------------
Magnitude (a.u.)       :      0.80845
Magnitude (Debye)      :      2.05491

                             ****ORCA TERMINATED NORMALLY****
TOTAL RUN TIME: 0 days 0 hours 14 minutes 20 seconds 779 msec
