                         Program Version 3.0.3 - RELEASE   -
|  1> ! RI-MP2 RIJK def2-TZVP def2-TZVP/C def2-TZVP/JK TIGHTSCF
|  2> % maxcore 2000
|  3> % mp2 density relaxed end
|  4> *xyz 0 1
|  5>  C       -0.0632098811     1.3630889809     0.2412934662
|  6>  O       -0.0309312895    -0.0170600423    -0.0269015849
|  7>  C       -1.2991194557    -0.6261986115     0.0709215740
|  8>  C       -1.1482740706    -2.1127387844    -0.2226277559
|  9>  C       -2.4803427138    -2.8651725066    -0.1598178802
| 10>  C       -2.3134846861    -4.3634400276    -0.4420380411
| 11>  N       -3.5690110265    -5.0975280436    -0.4084448141
| 12>  C       -3.9527785274    -5.8620702510     0.6488078346
| 13>  O       -3.2961863434    -6.0545677359     1.6502240514
| 14>  H        0.9573286233     1.7410399500     0.1420333361
| 15>  H       -0.7122217056     1.9036505442    -0.4666955715
| 16>  H       -0.4223191912     1.5744418568     1.2614023154
| 17>  H       -1.7219202765    -0.4754006208     1.0799342662
| 18>  H       -2.0038979101    -0.1625419588    -0.6426458931
| 19>  H       -0.6939483478    -2.2266176572    -1.2146768830
| 20>  H       -0.4396701087    -2.5404118346     0.4966466282
| 21>  H       -2.9376599701    -2.7464566723     0.8299100991
| 22>  H       -3.1857439220    -2.4349830548    -0.8842568669
| 23>  H       -1.8390705941    -4.5128902267    -1.4195680392
| 24>  H       -1.6710538357    -4.8203912392     0.3145119334
| 25>  H       -4.2227829531    -4.9785422307    -1.1659218347
| 26>  H       -4.9538438144    -6.3103591339     0.4872160099
| 27> *
| 28>
| 29>                          ****END OF INPUT****

CARTESIAN COORDINATES (ANGSTROEM)
---------------------------------
  C     -0.063210    1.363089    0.241293
  O     -0.030931   -0.017060   -0.026902
  C     -1.299119   -0.626199    0.070922
  C     -1.148274   -2.112739   -0.222628
  C     -2.480343   -2.865173   -0.159818
  C     -2.313485   -4.363440   -0.442038
  N     -3.569011   -5.097528   -0.408445
  C     -3.952779   -5.862070    0.648808
  O     -3.296186   -6.054568    1.650224
  H      0.957329    1.741040    0.142033
  H     -0.712222    1.903651   -0.466696
  H     -0.422319    1.574442    1.261402
  H     -1.721920   -0.475401    1.079934
  H     -2.003898   -0.162542   -0.642646
  H     -0.693948   -2.226618   -1.214677
  H     -0.439670   -2.540412    0.496647
  H     -2.937660   -2.746457    0.829910
  H     -3.185744   -2.434983   -0.884257
  H     -1.839071   -4.512890   -1.419568
  H     -1.671054   -4.820391    0.314512
  H     -4.222783   -4.978542   -1.165922
  H     -4.953844   -6.310359    0.487216

 Total Charge           Charge          ....    0
 Multiplicity           Mult            ....    1
 Number of Electrons    NEL             ....   72
 Basis Dimension        Dim             ....  357

ORBITAL ENERGIES
----------------

  NO   OCC          E(Eh)            E(eV)
   0   2.0000     -20.555468      -559.3427
   1   2.0000     -20.520493      -558.3910
   2   2.0000     -15.588783      -424.1924
   3   2.0000     -11.347708      -308.7868
   4   2.0000     -11.276079      -306.8377
   5   2.0000     -11.271019      -306.7000
   6   2.0000     -11.266176      -306.5682
   7   2.0000     -11.230189      -305.5890
   8   2.0000     -11.223890      -305.4176
   9   2.0000      -1.381216       -37.5848
  10   2.0000      -1.377061       -37.4717
  11   2.0000      -1.235852       -33.6292
  12   2.0000      -1.077047       -29.3079
  13   2.0000      -0.994553       -27.0632
  14   2.0000      -0.923130       -25.1197
  15   2.0000      -0.864097       -23.5133
  16   2.0000      -0.812220       -22.1016
  17   2.0000      -0.800194       -21.7744
  18   2.0000      -0.738936       -20.1075
  19   2.0000      -0.678168       -18.4539
  20   2.0000      -0.654438       -17.8082
  21   2.0000      -0.651582       -17.7304
  22   2.0000      -0.631884       -17.1944
  23   2.0000      -0.624308       -16.9883
  24   2.0000      -0.597394       -16.2559
  25   2.0000      -0.588903       -16.0249
  26   2.0000      -0.566143       -15.4055
  27   2.0000      -0.535225       -14.5642
  28   2.0000      -0.514758       -14.0073
  29   2.0000      -0.504170       -13.7192
  30   2.0000      -0.496272       -13.5042
  31   2.0000      -0.478967       -13.0334
  32   2.0000      -0.474539       -12.9129
  33   2.0000      -0.429498       -11.6872
  34   2.0000      -0.424010       -11.5379
  35   2.0000      -0.392776       -10.6880
  36   0.0000       0.123737         3.3671
  37   0.0000       0.140053         3.8110
  38   0.0000       0.154912         4.2154
  39   0.0000       0.170329         4.6349
  40   0.0000       0.177182         4.8214

MULLIKEN ATOMIC CHARGES
-----------------------
   0 C :   -0.215058
   1 O :   -0.300631
   2 C :   -0.054620
   3 C :   -0.177376
   4 C :   -0.259101
   5 C :   -0.107782
   6 N :   -0.324489
   7 C :    0.197198
   8 O :   -0.370241
   9 H :    0.139274
  10 H :    0.109210
  11 H :    0.111655
  12 H :    0.093127
  13 H :    0.086334
  14 H :    0.111444
  15 H :    0.122360
  16 H :    0.133422
  17 H :    0.100174
  18 H :    0.133989
  19 H :    0.155656
  20 H :    0.237946
  21 H :    0.077509
Sum of atomic charges:    0.0000000

LOEWDIN ATOMIC CHARGES
----------------------
   0 C :   -0.363213
   1 O :    0.133665
   2 C :   -0.332595
   3 C :   -0.265972
   4 C :   -0.271333
   5 C :   -0.276888
   6 N :    0.081125
   7 C :   -0.441038
   8 O :    0.052058
   9 H :    0.113451
  10 H :    0.100383
  11 H :    0.101113
  12 H :    0.119165
  13 H :    0.117261
  14 H :    0.140235
  15 H :    0.143457
  16 H :    0.142792
  17 H :    0.133208
  18 H :    0.133654
  19 H :    0.148386
  20 H :    0.182709
  21 H :    0.108376

  Mayer bond orders larger than 0.1
B(  0-C ,  1-O ) :   0.9214 B(  0-C ,  9-H ) :   0.9395 B(  0-C , 10-H ) :   0.9371
B(  0-C , 11-H ) :   0.9374 B(  1-O ,  2-C ) :   0.9653 B(  2-C ,  3-C ) :   0.9528
B(  2-C , 12-H ) :   0.9262 B(  2-C , 13-H ) :   0.9245 B(  3-C ,  4-C ) :   0.9238
B(  3-C , 14-H ) :   0.9225 B(  3-C , 15-H ) :   0.9247 B(  4-C ,  5-C ) :   0.9334
B(  4-C , 16-H ) :   0.9241 B(  4-C , 17-H ) :   0.9281 B(  5-C ,  6-N ) :   0.8158
B(  5-C , 18-H ) :   0.9425 B(  5-C , 19-H ) :   0.9161 B(  6-N ,  7-C ) :   1.1662
B(  6-N , 20-H ) :   0.8743 B(  7-C ,  8-O ) :   1.8842 B(  7-C , 21-H ) :   0.9298

MP2 TOTAL ENERGY:     -440.777969876 Eh
FINAL SINGLE POINT ENERGY      -440.777969875805

DIPOLE MOMENT
-------------
                                X             Y             Z
Electronic contribution:     -2.73138      -8.98872       1.82599
Nuclear contribution   :      2.03254       9.85974      -3.01733
                        -----------------------------------------
Total Dipole Moment    :     -0.69884       0.87102      -1.19134
                        -----------------------------------------
Magnitude (a.u.)       :      1.63289
Magnitude (Debye)      :      4.15048

                             ****ORCA TERMINATED NORMALLY****
TOTAL RUN TIME: 0 days 0 hours 14 minutes 53 seconds 32 msec
