                         Program Version 3.0.3 - RELEASE   -
|  1> ! RI-MP2 RIJK def2-TZVP def2-TZVP/C def2-TZVP/JK TIGHTSCF
|  2> % maxcore 2000
|  3> % mp2 density relaxed end
|  4> *xyz 0 1
|  5>  O        0.0146125500     0.0108389510     0.0040937051
|  6>  C       -0.0385865381     1.2057562806     0.0103242893
|  7>  C       -1.1901440799     2.1696760969     0.0298105058
|  8>  C       -0.5833987544     3.3691994974     0.7732751865
|  9>  O        0.7563293944     3.0530664784     1.1400461101
| 10>  C        1.0981056735     2.2723639581     0.0015399103
| 11>  O        0.7279526103     3.0644649943    -1.1200859692
| 12>  C       -0.6021348718     3.3766528735    -0.7166430076
| 13>  H       -2.2320956984     1.8923479558     0.0415852513
| 14>  H       -1.1100892378     4.0247241017     1.4495088812
| 15>  H        2.1410987577     1.9765807196    -0.0130443395
| 16>  H       -1.1455921457     4.0388394827    -1.3728220132
| 17> *
| 18>
| 19>                          ****END OF INPUT****

CARTESIAN COORDINATES (ANGSTROEM)
---------------------------------
  O      0.014613    0.010839    0.004094
  C     -0.038587    1.205756    0.010324
  C     -1.190144    2.169676    0.029811
  C     -0.583399    3.369199    0.773275
  O      0.756329    3.053066    1.140046
  C      1.098106    2.272364    0.001540
  O      0.727953    3.064465   -1.120086
  C     -0.602135    3.376653   -0.716643
  H     -2.232096    1.892348    0.041585
  H     -1.110089    4.024724    1.449509
  H      2.141099    1.976581   -0.013044
  H     -1.145592    4.038839   -1.372822

 Total Charge           Charge          ....    0
 Multiplicity           Mult            ....    1
 Number of Electrons    NEL             ....   58
 Basis Dimension        Dim             ....  272

ORBITAL ENERGIES
----------------

  NO   OCC          E(Eh)            E(eV)
   0   2.0000     -20.601352      -560.5913
   1   2.0000     -20.601330      -560.5907
   2   2.0000     -20.571249      -559.7721
   3   2.0000     -11.364141      -309.2340
   4   2.0000     -11.353190      -308.9360
   5   2.0000     -11.325547      -308.1838
   6   2.0000     -11.324790      -308.1632
   7   2.0000     -11.269089      -306.6475
   8   2.0000      -1.494032       -40.6547
   9   2.0000      -1.411099       -38.3980
  10   2.0000      -1.367948       -37.2238
  11   2.0000      -1.161162       -31.5968
  12   2.0000      -1.010892       -27.5078
  13   2.0000      -0.854590       -23.2546
  14   2.0000      -0.850840       -23.1525
  15   2.0000      -0.802376       -21.8338
  16   2.0000      -0.761763       -20.7286
  17   2.0000      -0.692781       -18.8515
  18   2.0000      -0.667194       -18.1553
  19   2.0000      -0.645026       -17.5521
  20   2.0000      -0.626918       -17.0593
  21   2.0000      -0.616963       -16.7884
  22   2.0000      -0.594618       -16.1804
  23   2.0000      -0.558166       -15.1885
  24   2.0000      -0.544627       -14.8200
  25   2.0000      -0.519355       -14.1324
  26   2.0000      -0.467538       -12.7223
  27   2.0000      -0.435748       -11.8573
  28   2.0000      -0.390157       -10.6167
  29   0.0000       0.126834         3.4513
  30   0.0000       0.144298         3.9266
  31   0.0000       0.172751         4.7008
  32   0.0000       0.175900         4.7865
  33   0.0000       0.178488         4.8569

MULLIKEN ATOMIC CHARGES
-----------------------
   0 O :   -0.242598
   1 C :    0.162421
   2 C :   -0.188194
   3 C :    0.010698
   4 O :   -0.286609
   5 C :    0.170181
   6 O :   -0.286607
   7 C :    0.010685
   8 H :    0.165308
   9 H :    0.161118
  10 H :    0.162488
  11 H :    0.161109
Sum of atomic charges:   -0.0000000

LOEWDIN ATOMIC CHARGES
----------------------
   0 O :    0.180865
   1 C :   -0.278594
   2 C :   -0.148407
   3 C :   -0.225315
   4 O :    0.212959
   5 C :   -0.318256
   6 O :    0.212951
   7 C :   -0.225323
   8 H :    0.153215
   9 H :    0.145278
  10 H :    0.145353
  11 H :    0.145273

  Mayer bond orders larger than 0.1
B(  0-O ,  1-C ) :   2.0307 B(  1-C ,  2-C ) :   0.9321 B(  1-C ,  5-C ) :   0.8822
B(  2-C ,  3-C ) :   0.8354 B(  2-C ,  7-C ) :   0.8354 B(  2-C ,  8-H ) :   0.9036
B(  3-C ,  4-O ) :   0.9413 B(  3-C ,  7-C ) :   0.9155 B(  3-C ,  9-H ) :   0.9179
B(  4-O ,  5-C ) :   0.9538 B(  5-C ,  6-O ) :   0.9538 B(  5-C , 10-H ) :   0.8952
B(  6-O ,  7-C ) :   0.9413 B(  7-C , 11-H ) :   0.9179

MP2 TOTAL ENERGY:     -417.792695858 Eh
FINAL SINGLE POINT ENERGY      -417.792695857613

DIPOLE MOMENT
-------------
                                X             Y             Z
Electronic contribution:      1.60878      -1.64456      -0.02861
Nuclear contribution   :     -2.37615       2.51344       0.04245
                        -----------------------------------------
Total Dipole Moment    :     -0.76738       0.86887       0.01383
                        -----------------------------------------
Magnitude (a.u.)       :      1.15931
Magnitude (Debye)      :      2.94673

                             ****ORCA TERMINATED NORMALLY****
TOTAL RUN TIME: 0 days 0 hours 10 minutes 12 seconds 851 msec
