                         Program Version 3.0.3 - RELEASE   -
|  1> ! RI-MP2 RIJK def2-TZVP def2-TZVP/C def2-TZVP/JK TIGHTSCF
|  2> % maxcore 2000
|  3> % mp2 density relaxed end
|  4> *xyz 0 1
|  5>  C       -0.0939137378     1.5651006690     0.0098872833
|  6>  C        0.1718697171     0.0732611520     0.0390016991
|  7>  O        1.3294179429    -0.3603907322    -0.7535444130
|  8>  C        1.7778872220    -1.1860179811     0.3330026192
|  9>  C        2.2023809391    -0.2915634348     1.4430217756
| 10>  O        2.7884521402     0.9486212205     1.1936234838
| 11>  C        0.7206337052    -0.6226330031     1.2875444368
| 12>  C       -0.1196210625    -1.2547050108     2.3577422092
| 13>  H        0.7332812075     2.1292700211     0.4428293152
| 14>  H       -0.2628941984     1.8998663081    -1.0189485821
| 15>  H       -1.0003485482     1.7858939343     0.5844677638
| 16>  H       -0.7049167695    -0.4731895625    -0.3362002034
| 17>  H        2.1289752720    -2.1848810856     0.0955419064
| 18>  H        2.6549081050    -0.7870712423     2.2987985584
| 19>  H        2.7497432409     1.0640152330     0.2340134607
| 20>  H       -0.5931764206    -0.4942596480     2.9902283201
| 21>  H       -0.9145779166    -1.8768010929     1.9299506655
| 22>  H        0.4841125216    -1.8918678248     3.0118506914
| 23> *
| 24>
| 25>                          ****END OF INPUT****

CARTESIAN COORDINATES (ANGSTROEM)
---------------------------------
  C     -0.093914    1.565101    0.009887
  C      0.171870    0.073261    0.039002
  O      1.329418   -0.360391   -0.753544
  C      1.777887   -1.186018    0.333003
  C      2.202381   -0.291563    1.443022
  O      2.788452    0.948621    1.193623
  C      0.720634   -0.622633    1.287544
  C     -0.119621   -1.254705    2.357742
  H      0.733281    2.129270    0.442829
  H     -0.262894    1.899866   -1.018949
  H     -1.000349    1.785894    0.584468
  H     -0.704917   -0.473190   -0.336200
  H      2.128975   -2.184881    0.095542
  H      2.654908   -0.787071    2.298799
  H      2.749743    1.064015    0.234013
  H     -0.593176   -0.494260    2.990228
  H     -0.914578   -1.876801    1.929951
  H      0.484113   -1.891868    3.011851

 Total Charge           Charge          ....    0
 Multiplicity           Mult            ....    1
 Number of Electrons    NEL             ....   62
 Basis Dimension        Dim             ....  308

ORBITAL ENERGIES
----------------

  NO   OCC          E(Eh)            E(eV)
   0   2.0000     -20.561818      -559.5155
   1   2.0000     -20.558166      -559.4161
   2   2.0000     -11.293655      -307.3160
   3   2.0000     -11.289185      -307.1944
   4   2.0000     -11.287569      -307.1504
   5   2.0000     -11.245732      -306.0119
   6   2.0000     -11.232190      -305.6434
   7   2.0000     -11.218367      -305.2673
   8   2.0000      -1.406433       -38.2710
   9   2.0000      -1.357661       -36.9438
  10   2.0000      -1.119350       -30.4591
  11   2.0000      -1.027239       -27.9526
  12   2.0000      -0.971077       -26.4243
  13   2.0000      -0.871850       -23.7243
  14   2.0000      -0.820398       -22.3242
  15   2.0000      -0.753125       -20.4936
  16   2.0000      -0.691578       -18.8188
  17   2.0000      -0.678006       -18.4495
  18   2.0000      -0.633325       -17.2336
  19   2.0000      -0.613626       -16.6976
  20   2.0000      -0.588865       -16.0238
  21   2.0000      -0.583596       -15.8805
  22   2.0000      -0.565810       -15.3965
  23   2.0000      -0.557121       -15.1600
  24   2.0000      -0.555189       -15.1075
  25   2.0000      -0.531574       -14.4649
  26   2.0000      -0.507313       -13.8047
  27   2.0000      -0.475408       -12.9365
  28   2.0000      -0.465083       -12.6555
  29   2.0000      -0.384067       -10.4510
  30   2.0000      -0.376673       -10.2498
  31   0.0000       0.131837         3.5875
  32   0.0000       0.155202         4.2233
  33   0.0000       0.173735         4.7276
  34   0.0000       0.178170         4.8483
  35   0.0000       0.189013         5.1433

MULLIKEN ATOMIC CHARGES
-----------------------
   0 C :   -0.393862
   1 C :    0.077015
   2 O :   -0.356827
   3 C :    0.030255
   4 C :    0.035686
   5 O :   -0.468062
   6 C :   -0.017156
   7 C :   -0.410613
   8 H :    0.144149
   9 H :    0.140729
  10 H :    0.128529
  11 H :    0.094766
  12 H :    0.130110
  13 H :    0.120036
  14 H :    0.336556
  15 H :    0.142846
  16 H :    0.133060
  17 H :    0.132782
Sum of atomic charges:   -0.0000000

LOEWDIN ATOMIC CHARGES
----------------------
   0 C :   -0.294637
   1 C :   -0.251032
   2 O :    0.148133
   3 C :   -0.220631
   4 C :   -0.290663
   5 O :    0.000147
   6 C :   -0.205048
   7 C :   -0.275156
   8 H :    0.128381
   9 H :    0.129561
  10 H :    0.131528
  11 H :    0.144765
  12 H :    0.129464
  13 H :    0.150462
  14 H :    0.183356
  15 H :    0.131900
  16 H :    0.127916
  17 H :    0.131556

  Mayer bond orders larger than 0.1
B(  0-C ,  1-C ) :   0.9339 B(  0-C ,  8-H ) :   0.9267 B(  0-C ,  9-H ) :   0.9298
B(  0-C , 10-H ) :   0.9274 B(  1-C ,  2-O ) :   0.8836 B(  1-C ,  6-C ) :   0.9240
B(  1-C , 11-H ) :   0.9114 B(  2-O ,  3-C ) :   0.9394 B(  3-C ,  4-C ) :   0.9007
B(  3-C ,  6-C ) :   0.8526 B(  3-C , 12-H ) :   0.9098 B(  4-C ,  5-O ) :   0.9831
B(  4-C ,  6-C ) :   0.8460 B(  4-C , 13-H ) :   0.9546 B(  5-O , 14-H ) :   0.8166
B(  6-C ,  7-C ) :   0.8911 B(  7-C , 15-H ) :   0.9365 B(  7-C , 16-H ) :   0.9398
B(  7-C , 17-H ) :   0.9301

MP2 TOTAL ENERGY:     -384.263624272 Eh
FINAL SINGLE POINT ENERGY      -384.263624272051

DIPOLE MOMENT
-------------
                                X             Y             Z
Electronic contribution:      4.84986      -0.69424      -2.52125
Nuclear contribution   :     -5.47475       0.22382       2.75819
                        -----------------------------------------
Total Dipole Moment    :     -0.62489      -0.47042       0.23694
                        -----------------------------------------
Magnitude (a.u.)       :      0.81726
Magnitude (Debye)      :      2.07732

                             ****ORCA TERMINATED NORMALLY****
TOTAL RUN TIME: 0 days 0 hours 12 minutes 19 seconds 734 msec
