                         Program Version 3.0.3 - RELEASE   -
|  1> ! RI-MP2 RIJK def2-TZVP def2-TZVP/C def2-TZVP/JK TIGHTSCF
|  2> % maxcore 2000
|  3> % mp2 density relaxed end
|  4> *xyz 0 1
|  5>  O       -0.1088233174     0.2821992882     0.4577804100
|  6>  C       -0.0303547505     1.3008190603    -0.1792426075
|  7>  C        1.1729729479     2.2147746348    -0.2029436579
|  8>  C        1.7328469492     2.3760268211    -1.6319506359
|  9>  N        2.8047673275     3.3541721831    -1.7129479976
| 10>  C        2.5507681782     4.6886204183    -1.7642426314
| 11>  O        1.4387588901     5.1740212694    -1.7839599895
| 12>  H       -0.8761940209     1.6409088324    -0.8215634162
| 13>  H        0.8529907948     3.2075846457     0.1378891984
| 14>  H        1.9308392371     1.8256389883     0.4821563894
| 15>  H        2.1121725065     1.4202183429    -2.0039975904
| 16>  H        0.9339013604     2.7076671080    -2.3017797483
| 17>  H        3.7594782852     3.0464882201    -1.6233585519
| 18>  H        3.4797597620     5.2909540874    -1.7970530913
| 19> *
| 20>
| 21>                          ****END OF INPUT****

CARTESIAN COORDINATES (ANGSTROEM)
---------------------------------
  O     -0.108823    0.282199    0.457780
  C     -0.030355    1.300819   -0.179243
  C      1.172973    2.214775   -0.202944
  C      1.732847    2.376027   -1.631951
  N      2.804767    3.354172   -1.712948
  C      2.550768    4.688620   -1.764243
  O      1.438759    5.174021   -1.783960
  H     -0.876194    1.640909   -0.821563
  H      0.852991    3.207585    0.137889
  H      1.930839    1.825639    0.482156
  H      2.112173    1.420218   -2.003998
  H      0.933901    2.707667   -2.301780
  H      3.759478    3.046488   -1.623359
  H      3.479760    5.290954   -1.797053

 Total Charge           Charge          ....    0
 Multiplicity           Mult            ....    1
 Number of Electrons    NEL             ....   54
 Basis Dimension        Dim             ....  259

ORBITAL ENERGIES
----------------

  NO   OCC          E(Eh)            E(eV)
   0   2.0000     -20.562264      -559.5277
   1   2.0000     -20.535674      -558.8041
   2   2.0000     -15.604683      -424.6250
   3   2.0000     -11.361205      -309.1541
   4   2.0000     -11.336749      -308.4886
   5   2.0000     -11.291609      -307.2603
   6   2.0000     -11.247709      -306.0657
   7   2.0000      -1.400677       -38.1143
   8   2.0000      -1.396647       -38.0047
   9   2.0000      -1.251950       -34.0673
  10   2.0000      -1.065531       -28.9946
  11   2.0000      -0.932046       -25.3623
  12   2.0000      -0.818548       -22.2738
  13   2.0000      -0.800804       -21.7910
  14   2.0000      -0.759233       -20.6598
  15   2.0000      -0.681239       -18.5375
  16   2.0000      -0.668041       -18.1783
  17   2.0000      -0.635779       -17.3004
  18   2.0000      -0.625260       -17.0142
  19   2.0000      -0.597654       -16.2630
  20   2.0000      -0.591076       -16.0840
  21   2.0000      -0.557965       -15.1830
  22   2.0000      -0.522677       -14.2228
  23   2.0000      -0.508560       -13.8386
  24   2.0000      -0.448294       -12.1987
  25   2.0000      -0.431301       -11.7363
  26   2.0000      -0.405510       -11.0345
  27   0.0000       0.116346         3.1659
  28   0.0000       0.124471         3.3870
  29   0.0000       0.150458         4.0942
  30   0.0000       0.168273         4.5789
  31   0.0000       0.172442         4.6924

MULLIKEN ATOMIC CHARGES
-----------------------
   0 O :   -0.261943
   1 C :    0.083416
   2 C :   -0.149923
   3 C :   -0.164178
   4 N :   -0.326885
   5 C :    0.203221
   6 O :   -0.368778
   7 H :    0.083034
   8 H :    0.153059
   9 H :    0.116297
  10 H :    0.150146
  11 H :    0.147135
  12 H :    0.246944
  13 H :    0.088454
Sum of atomic charges:   -0.0000000

LOEWDIN ATOMIC CHARGES
----------------------
   0 O :    0.133307
   1 C :   -0.295035
   2 C :   -0.262337
   3 C :   -0.272491
   4 N :    0.080630
   5 C :   -0.435151
   6 O :    0.057176
   7 H :    0.112631
   8 H :    0.159105
   9 H :    0.141646
  10 H :    0.137810
  11 H :    0.145807
  12 H :    0.185344
  13 H :    0.111559

  Mayer bond orders larger than 0.1
B(  0-O ,  1-C ) :   1.9927 B(  1-C ,  2-C ) :   0.8837 B(  1-C ,  7-H ) :   0.9327
B(  2-C ,  3-C ) :   0.8947 B(  2-C ,  8-H ) :   0.9131 B(  2-C ,  9-H ) :   0.9028
B(  3-C ,  4-N ) :   0.8607 B(  3-C , 10-H ) :   0.9280 B(  3-C , 11-H ) :   0.9248
B(  4-N ,  5-C ) :   1.1574 B(  4-N , 12-H ) :   0.8712 B(  5-C ,  6-O ) :   1.8733
B(  5-C , 13-H ) :   0.9297

MP2 TOTAL ENERGY:     -361.163026024 Eh
FINAL SINGLE POINT ENERGY      -361.163026023581

DIPOLE MOMENT
-------------
                                X             Y             Z
Electronic contribution:     -1.16628       0.15025       0.62477
Nuclear contribution   :      2.46073      -0.27140      -1.02894
                        -----------------------------------------
Total Dipole Moment    :      1.29446      -0.12115      -0.40417
                        -----------------------------------------
Magnitude (a.u.)       :      1.36149
Magnitude (Debye)      :      3.46062

                             ****ORCA TERMINATED NORMALLY****
TOTAL RUN TIME: 0 days 0 hours 6 minutes 5 seconds 297 msec
