                         Program Version 3.0.3 - RELEASE   -
|  1> ! RI-MP2 RIJK def2-TZVP def2-TZVP/C def2-TZVP/JK TIGHTSCF
|  2> % maxcore 2000
|  3> % mp2 density relaxed end
|  4> *xyz 0 1
|  5>  O        0.0854793040     1.2970249837    -0.4720244042
|  6>  C        0.0514121127     0.0303490476     0.1681041058
|  7>  C       -1.3552239294    -0.5061477574     0.2437781659
|  8>  C       -2.3648040432     0.1091143819     1.2177938370
|  9>  C       -3.3254964340    -1.0264512270     1.5021119813
| 10>  C       -2.9465428446    -2.1605040968     0.9049025833
| 11>  C       -1.7256583880    -1.9459928905     0.0713487752
| 12>  N       -1.8707239109    -0.9845886246    -1.0527106515
| 13>  H       -0.2938715573     1.1584027117    -1.3479883002
| 14>  H        0.6904967062    -0.6979914835    -0.3523927235
| 15>  H        0.4608434667     0.1834927293     1.1724634834
| 16>  H       -1.8641654711     0.4493698609     2.1343172476
| 17>  H       -2.8621316046     0.9928207965     0.7990755917
| 18>  H       -4.2183695241    -0.8994007739     2.1037570611
| 19>  H       -3.4566015654    -3.1144752679     0.9674012752
| 20>  H       -1.0068668355    -2.7421907843    -0.0943107425
| 21>  H       -2.8560806816    -0.7480704257    -1.1567663755
| 22> *
| 23>
| 24>                          ****END OF INPUT****

CARTESIAN COORDINATES (ANGSTROEM)
---------------------------------
  O      0.085479    1.297025   -0.472024
  C      0.051412    0.030349    0.168104
  C     -1.355224   -0.506148    0.243778
  C     -2.364804    0.109114    1.217794
  C     -3.325496   -1.026451    1.502112
  C     -2.946543   -2.160504    0.904903
  C     -1.725658   -1.945993    0.071349
  N     -1.870724   -0.984589   -1.052711
  H     -0.293872    1.158403   -1.347988
  H      0.690497   -0.697991   -0.352393
  H      0.460843    0.183493    1.172463
  H     -1.864165    0.449370    2.134317
  H     -2.862132    0.992821    0.799076
  H     -4.218370   -0.899401    2.103757
  H     -3.456602   -3.114475    0.967401
  H     -1.006867   -2.742191   -0.094311
  H     -2.856081   -0.748070   -1.156766

 Total Charge           Charge          ....    0
 Multiplicity           Mult            ....    1
 Number of Electrons    NEL             ....   60
 Basis Dimension        Dim             ....  302

ORBITAL ENERGIES
----------------

  NO   OCC          E(Eh)            E(eV)
   0   2.0000     -20.550585      -559.2099
   1   2.0000     -15.561292      -423.4443
   2   2.0000     -11.275128      -306.8118
   3   2.0000     -11.266620      -306.5803
   4   2.0000     -11.265671      -306.5545
   5   2.0000     -11.240784      -305.8773
   6   2.0000     -11.238841      -305.8244
   7   2.0000     -11.237472      -305.7872
   8   2.0000      -1.357084       -36.9281
   9   2.0000      -1.277352       -34.7585
  10   2.0000      -1.088917       -29.6309
  11   2.0000      -0.994867       -27.0717
  12   2.0000      -0.939600       -25.5678
  13   2.0000      -0.871773       -23.7222
  14   2.0000      -0.775407       -21.0999
  15   2.0000      -0.758313       -20.6347
  16   2.0000      -0.710182       -19.3250
  17   2.0000      -0.665842       -18.1185
  18   2.0000      -0.635300       -17.2874
  19   2.0000      -0.609367       -16.5817
  20   2.0000      -0.590952       -16.0806
  21   2.0000      -0.568625       -15.4731
  22   2.0000      -0.552444       -15.0328
  23   2.0000      -0.526949       -14.3390
  24   2.0000      -0.511665       -13.9231
  25   2.0000      -0.477610       -12.9964
  26   2.0000      -0.456763       -12.4292
  27   2.0000      -0.438738       -11.9387
  28   2.0000      -0.410599       -11.1730
  29   2.0000      -0.347588        -9.4583
  30   0.0000       0.131122         3.5680
  31   0.0000       0.142592         3.8801
  32   0.0000       0.165266         4.4971
  33   0.0000       0.170479         4.6390
  34   0.0000       0.175684         4.7806

MULLIKEN ATOMIC CHARGES
-----------------------
   0 O :   -0.476266
   1 C :    0.001556
   2 C :    0.039309
   3 C :   -0.146104
   4 C :   -0.205264
   5 C :   -0.184112
   6 C :   -0.049676
   7 N :   -0.390526
   8 H :    0.322890
   9 H :    0.108160
  10 H :    0.105404
  11 H :    0.119308
  12 H :    0.134488
  13 H :    0.133634
  14 H :    0.136933
  15 H :    0.129752
  16 H :    0.220515
Sum of atomic charges:    0.0000000

LOEWDIN ATOMIC CHARGES
----------------------
   0 O :   -0.046695
   1 C :   -0.308305
   2 C :   -0.283052
   3 C :   -0.200531
   4 C :   -0.149311
   5 C :   -0.152143
   6 C :   -0.209738
   7 N :    0.027804
   8 H :    0.178410
   9 H :    0.125986
  10 H :    0.132107
  11 H :    0.150547
  12 H :    0.148640
  13 H :    0.137068
  14 H :    0.140061
  15 H :    0.140859
  16 H :    0.168293

  Mayer bond orders larger than 0.1
B(  0-O ,  1-C ) :   0.9169 B(  0-O ,  8-H ) :   0.8372 B(  1-C ,  2-C ) :   0.9357
B(  1-C ,  9-H ) :   0.9277 B(  1-C , 10-H ) :   0.9233 B(  2-C ,  3-C ) :   0.9457
B(  2-C ,  6-C ) :   0.8883 B(  2-C ,  7-N ) :   0.8630 B(  3-C ,  4-C ) :   0.9360
B(  3-C , 11-H ) :   0.8989 B(  3-C , 12-H ) :   0.9132 B(  4-C ,  5-C ) :   1.7739
B(  4-C , 13-H ) :   0.9288 B(  5-C ,  6-C ) :   0.9319 B(  5-C , 14-H ) :   0.9262
B(  6-C ,  7-N ) :   0.9392 B(  6-C , 15-H ) :   0.9088 B(  7-N , 16-H ) :   0.8686

MP2 TOTAL ENERGY:     -363.225261115 Eh
FINAL SINGLE POINT ENERGY      -363.225261115383

DIPOLE MOMENT
-------------
                                X             Y             Z
Electronic contribution:      0.08767      -0.31812      -1.20406
Nuclear contribution   :     -0.71855      -0.15311       1.56768
                        -----------------------------------------
Total Dipole Moment    :     -0.63089      -0.47123       0.36362
                        -----------------------------------------
Magnitude (a.u.)       :      0.86735
Magnitude (Debye)      :      2.20463

                             ****ORCA TERMINATED NORMALLY****
TOTAL RUN TIME: 0 days 0 hours 12 minutes 34 seconds 313 msec
