                         Program Version 3.0.3 - RELEASE   -
|  1> ! RI-MP2 RIJK def2-TZVP def2-TZVP/C def2-TZVP/JK TIGHTSCF
|  2> % maxcore 2000
|  3> % mp2 density relaxed end
|  4> *xyz 0 1
|  5>  O       -0.1020252346     1.4277748443    -0.0692825054
|  6>  C        0.0139230797     0.0348577829     0.0700913036
|  7>  C        0.1182968493    -0.5957226429     1.4921991219
|  8>  C       -0.7360365435    -1.7617975741     0.9158208824
|  9>  C       -1.3112608238    -0.7386894938    -0.1060055974
| 10>  C        0.1617344765    -2.7744949118     0.2031124306
| 11>  C        1.1738966905    -2.0984129323    -0.7305737226
| 12>  O        1.9943144750    -2.7293481026    -1.3505845743
| 13>  C        1.0898414206    -0.5677196298    -0.8373418907
| 14>  H        0.7775177468     1.8170777682    -0.0102819270
| 15>  H        1.1110505376    -0.8260184702     1.8934302769
| 16>  H       -0.4437647231     0.0010187839     2.2139957399
| 17>  H       -1.4408126374    -2.2511906954     1.5891986044
| 18>  H       -2.1410828123    -0.1671196221     0.3154389245
| 19>  H       -1.5767716814    -1.0893091767    -1.1083026469
| 20>  H        0.7303743663    -3.3852605537     0.9147364716
| 21>  H       -0.4245542160    -3.4770362080    -0.4021558960
| 22>  H        0.8962106440    -0.3083018477    -1.8852319289
| 23>  H        2.0835666460    -0.1679200481    -0.5926052965
| 24> *
| 25>
| 26>                          ****END OF INPUT****

CARTESIAN COORDINATES (ANGSTROEM)
---------------------------------
  O     -0.102025    1.427775   -0.069283
  C      0.013923    0.034858    0.070091
  C      0.118297   -0.595723    1.492199
  C     -0.736037   -1.761798    0.915821
  C     -1.311261   -0.738689   -0.106006
  C      0.161734   -2.774495    0.203112
  C      1.173897   -2.098413   -0.730574
  O      1.994314   -2.729348   -1.350585
  C      1.089841   -0.567720   -0.837342
  H      0.777518    1.817078   -0.010282
  H      1.111051   -0.826018    1.893430
  H     -0.443765    0.001019    2.213996
  H     -1.440813   -2.251191    1.589199
  H     -2.141083   -0.167120    0.315439
  H     -1.576772   -1.089309   -1.108303
  H      0.730374   -3.385261    0.914736
  H     -0.424554   -3.477036   -0.402156
  H      0.896211   -0.308302   -1.885232
  H      2.083567   -0.167920   -0.592605

 Total Charge           Charge          ....    0
 Multiplicity           Mult            ....    1
 Number of Electrons    NEL             ....   68
 Basis Dimension        Dim             ....  339

ORBITAL ENERGIES
----------------

  NO   OCC          E(Eh)            E(eV)
   0   2.0000     -20.568542      -559.6985
   1   2.0000     -20.545485      -559.0711
   2   2.0000     -11.335762      -308.4618
   3   2.0000     -11.300980      -307.5153
   4   2.0000     -11.247522      -306.0606
   5   2.0000     -11.242829      -305.9329
   6   2.0000     -11.241093      -305.8857
   7   2.0000     -11.232920      -305.6633
   8   2.0000     -11.231486      -305.6243
   9   2.0000      -1.391675       -37.8694
  10   2.0000      -1.379148       -37.5285
  11   2.0000      -1.171656       -31.8824
  12   2.0000      -1.015280       -27.6272
  13   2.0000      -1.009419       -27.4677
  14   2.0000      -0.918988       -25.0069
  15   2.0000      -0.841162       -22.8892
  16   2.0000      -0.783693       -21.3254
  17   2.0000      -0.721758       -19.6400
  18   2.0000      -0.715849       -19.4793
  19   2.0000      -0.653661       -17.7870
  20   2.0000      -0.642879       -17.4936
  21   2.0000      -0.636425       -17.3180
  22   2.0000      -0.621082       -16.9005
  23   2.0000      -0.607145       -16.5212
  24   2.0000      -0.580292       -15.7905
  25   2.0000      -0.555537       -15.1169
  26   2.0000      -0.544846       -14.8260
  27   2.0000      -0.536960       -14.6114
  28   2.0000      -0.492029       -13.3888
  29   2.0000      -0.481618       -13.1055
  30   2.0000      -0.457328       -12.4445
  31   2.0000      -0.448448       -12.2029
  32   2.0000      -0.424736       -11.5577
  33   2.0000      -0.404657       -11.0113
  34   0.0000       0.121022         3.2932
  35   0.0000       0.128680         3.5016
  36   0.0000       0.139601         3.7987
  37   0.0000       0.168573         4.5871
  38   0.0000       0.176004         4.7893

MULLIKEN ATOMIC CHARGES
-----------------------
   0 O :   -0.451157
   1 C :    0.314190
   2 C :   -0.338873
   3 C :    0.040823
   4 C :   -0.323665
   5 C :   -0.287219
   6 C :    0.101031
   7 O :   -0.263969
   8 C :   -0.304451
   9 H :    0.314800
  10 H :    0.121403
  11 H :    0.126983
  12 H :    0.124554
  13 H :    0.131735
  14 H :    0.124228
  15 H :    0.142795
  16 H :    0.144026
  17 H :    0.150337
  18 H :    0.132430
Sum of atomic charges:    0.0000000

LOEWDIN ATOMIC CHARGES
----------------------
   0 O :    0.017301
   1 C :   -0.372759
   2 C :   -0.183052
   3 C :   -0.217665
   4 C :   -0.171941
   5 C :   -0.213605
   6 C :   -0.302310
   7 O :    0.154217
   8 C :   -0.199842
   9 H :    0.177531
  10 H :    0.128505
  11 H :    0.142842
  12 H :    0.140012
  13 H :    0.146254
  14 H :    0.131258
  15 H :    0.155540
  16 H :    0.156202
  17 H :    0.158604
  18 H :    0.152909

  Mayer bond orders larger than 0.1
B(  0-O ,  1-C ) :   1.0059 B(  0-O ,  9-H ) :   0.8377 B(  1-C ,  2-C ) :   0.8907
B(  1-C ,  4-C ) :   0.8746 B(  1-C ,  8-C ) :   0.8698 B(  2-C ,  3-C ) :   0.8881
B(  2-C , 10-H ) :   0.9191 B(  2-C , 11-H ) :   0.9179 B(  3-C ,  4-C ) :   0.8879
B(  3-C ,  5-C ) :   0.8517 B(  3-C , 12-H ) :   0.9269 B(  4-C , 13-H ) :   0.9177
B(  4-C , 14-H ) :   0.9237 B(  5-C ,  6-C ) :   0.9431 B(  5-C ,  8-C ) :  -0.1080
B(  5-C , 15-H ) :   0.9087 B(  5-C , 16-H ) :   0.9106 B(  6-C ,  7-O ) :   2.0587
B(  6-C ,  8-C ) :   0.8958 B(  8-C , 17-H ) :   0.9097 B(  8-C , 18-H ) :   0.8983

MP2 TOTAL ENERGY:     -422.348617840 Eh
FINAL SINGLE POINT ENERGY      -422.348617840141

DIPOLE MOMENT
-------------
                                X             Y             Z
Electronic contribution:      2.78894      -0.36165      -2.63272
Nuclear contribution   :     -3.05747       0.64850       3.29809
                        -----------------------------------------
Total Dipole Moment    :     -0.26853       0.28684       0.66538
                        -----------------------------------------
Magnitude (a.u.)       :      0.77273
Magnitude (Debye)      :      1.96413

                             ****ORCA TERMINATED NORMALLY****
TOTAL RUN TIME: 0 days 0 hours 19 minutes 17 seconds 546 msec
