                         Program Version 3.0.3 - RELEASE   -
|  1> ! RI-MP2 RIJK def2-TZVP def2-TZVP/C def2-TZVP/JK TIGHTSCF
|  2> % maxcore 2000
|  3> % mp2 density relaxed end
|  4> *xyz 0 1
|  5>  C       -0.3461688025     1.1629720414    -0.1124765530
|  6>  C        1.1214201090     1.0576644004     0.2609445176
|  7>  C        0.3201642771    -0.1731723924    -0.0006162099
|  8>  O        0.0500391370    -0.9647586530     1.1386819121
|  9>  C       -0.9518626841    -1.8479039503     0.9947355489
| 10>  N       -1.6732758116    -2.0957278416    -0.0654247073
| 11>  C       -2.5376963969    -3.1047293340     0.3326481795
| 12>  C       -2.3214725436    -3.4502817177     1.6332340661
| 13>  N       -1.2864592721    -2.6254166148     2.0587685544
| 14>  H       -1.0379051105     1.4338256213     0.6766287687
| 15>  H       -0.6188328836     1.5166062396    -1.1001159509
| 16>  H        1.8752311860     1.3424751258    -0.4640482943
| 17>  H        1.3842154887     1.2587185862     1.2932690507
| 18>  H        0.4855823618    -0.7603122761    -0.8969073630
| 19>  H       -3.2637312103    -3.5145567552    -0.3522793222
| 20>  H       -2.7797200559    -4.1706341676     2.2890635394
| 21>  H       -0.8512986583    -2.6018252520     2.9646970232
| 22> *
| 23>
| 24>                          ****END OF INPUT****

CARTESIAN COORDINATES (ANGSTROEM)
---------------------------------
  C     -0.346169    1.162972   -0.112477
  C      1.121420    1.057664    0.260945
  C      0.320164   -0.173172   -0.000616
  O      0.050039   -0.964759    1.138682
  C     -0.951863   -1.847904    0.994736
  N     -1.673276   -2.095728   -0.065425
  C     -2.537696   -3.104729    0.332648
  C     -2.321473   -3.450282    1.633234
  N     -1.286459   -2.625417    2.058769
  H     -1.037905    1.433826    0.676629
  H     -0.618833    1.516606   -1.100116
  H      1.875231    1.342475   -0.464048
  H      1.384215    1.258719    1.293269
  H      0.485582   -0.760312   -0.896907
  H     -3.263731   -3.514557   -0.352279
  H     -2.779720   -4.170634    2.289064
  H     -0.851299   -2.601825    2.964697

 Total Charge           Charge          ....    0
 Multiplicity           Mult            ....    1
 Number of Electrons    NEL             ....   66
 Basis Dimension        Dim             ....  327

ORBITAL ENERGIES
----------------

  NO   OCC          E(Eh)            E(eV)
   0   2.0000     -20.602691      -560.6277
   1   2.0000     -15.609941      -424.7681
   2   2.0000     -15.532965      -422.6735
   3   2.0000     -11.353773      -308.9519
   4   2.0000     -11.291450      -307.2560
   5   2.0000     -11.252775      -306.2036
   6   2.0000     -11.241473      -305.8960
   7   2.0000     -11.231071      -305.6130
   8   2.0000     -11.228432      -305.5412
   9   2.0000      -1.445335       -39.3296
  10   2.0000      -1.323308       -36.0090
  11   2.0000      -1.167019       -31.7562
  12   2.0000      -1.140218       -31.0269
  13   2.0000      -0.993705       -27.0401
  14   2.0000      -0.863699       -23.5024
  15   2.0000      -0.835078       -22.7236
  16   2.0000      -0.817787       -22.2531
  17   2.0000      -0.784150       -21.3378
  18   2.0000      -0.757524       -20.6133
  19   2.0000      -0.682180       -18.5631
  20   2.0000      -0.657341       -17.8871
  21   2.0000      -0.638633       -17.3781
  22   2.0000      -0.619263       -16.8510
  23   2.0000      -0.604709       -16.4550
  24   2.0000      -0.577565       -15.7163
  25   2.0000      -0.553232       -15.0542
  26   2.0000      -0.528548       -14.3825
  27   2.0000      -0.520650       -14.1676
  28   2.0000      -0.440675       -11.9914
  29   2.0000      -0.431593       -11.7443
  30   2.0000      -0.416217       -11.3258
  31   2.0000      -0.402052       -10.9404
  32   2.0000      -0.304016        -8.2727
  33   0.0000       0.137643         3.7454
  34   0.0000       0.163266         4.4427
  35   0.0000       0.174204         4.7403
  36   0.0000       0.182323         4.9613
  37   0.0000       0.185057         5.0357

MULLIKEN ATOMIC CHARGES
-----------------------
   0 C :   -0.258161
   1 C :   -0.236089
   2 C :    0.050248
   3 O :   -0.282855
   4 C :    0.368036
   5 N :   -0.337540
   6 C :   -0.123191
   7 C :   -0.094007
   8 N :   -0.283162
   9 H :    0.134989
  10 H :    0.132417
  11 H :    0.133104
  12 H :    0.135511
  13 H :    0.124226
  14 H :    0.133448
  15 H :    0.148350
  16 H :    0.254679
Sum of atomic charges:   -0.0000000

LOEWDIN ATOMIC CHARGES
----------------------
   0 C :   -0.222890
   1 C :   -0.225746
   2 C :   -0.280914
   3 O :    0.272126
   4 C :   -0.443707
   5 N :    0.087146
   6 C :   -0.265938
   7 C :   -0.249034
   8 N :    0.184081
   9 H :    0.138390
  10 H :    0.133933
  11 H :    0.133091
  12 H :    0.138085
  13 H :    0.141946
  14 H :    0.131985
  15 H :    0.133031
  16 H :    0.194416

  Mayer bond orders larger than 0.1
B(  0-C ,  1-C ) :   0.9049 B(  0-C ,  2-C ) :   0.9153 B(  0-C ,  9-H ) :   0.9237
B(  0-C , 10-H ) :   0.9205 B(  1-C ,  2-C ) :   0.8813 B(  1-C , 11-H ) :   0.9260
B(  1-C , 12-H ) :   0.9202 B(  2-C ,  3-O ) :   0.8742 B(  2-C , 13-H ) :   0.9303
B(  3-O ,  4-C ) :   1.0764 B(  4-C ,  5-N ) :   1.4999 B(  4-C ,  8-N ) :   1.1774
B(  5-N ,  6-C ) :   1.2239 B(  6-C ,  7-C ) :   1.5760 B(  6-C , 14-H ) :   0.9405
B(  7-C ,  8-N ) :   1.0640 B(  7-C , 15-H ) :   0.9142 B(  8-N , 16-H ) :   0.8635

MP2 TOTAL ENERGY:     -417.307765540 Eh
FINAL SINGLE POINT ENERGY      -417.307765539532

DIPOLE MOMENT
-------------
                                X             Y             Z
Electronic contribution:     -1.42175      -4.75334       2.02496
Nuclear contribution   :      1.67156       4.71894      -1.16826
                        -----------------------------------------
Total Dipole Moment    :      0.24981      -0.03440       0.85670
                        -----------------------------------------
Magnitude (a.u.)       :      0.89304
Magnitude (Debye)      :      2.26993

                             ****ORCA TERMINATED NORMALLY****
TOTAL RUN TIME: 0 days 0 hours 15 minutes 0 seconds 38 msec
