                         Program Version 3.0.3 - RELEASE   -
|  1> ! RI-MP2 RIJK def2-TZVP def2-TZVP/C def2-TZVP/JK TIGHTSCF
|  2> % maxcore 2000
|  3> % mp2 density relaxed end
|  4> *xyz 0 1
|  5>  O       -0.0353661567     1.3959882791     0.0415142776
|  6>  C        0.0213167065    -0.0231327935    -0.0123324267
|  7>  C       -1.3930860711    -0.5236338232     0.0059401841
|  8>  C       -2.2827707659    -0.4217324225     1.2642408397
|  9>  C       -2.8816171720    -1.7165127373     0.7492847912
| 10>  C       -2.9203747111    -1.6616867358    -0.7447121549
| 11>  C       -2.3465356290    -0.3315341321    -1.1937638031
| 12>  N       -1.6511850212    -2.0688682150    -0.0440754949
| 13>  H        0.8650199841     1.7330562684     0.0314906879
| 14>  H        0.5211319257    -0.3783637104    -0.9274783874
| 15>  H        0.5671923705    -0.4438807900     0.8470126281
| 16>  H       -1.7003856667    -0.5917322573     2.1739541545
| 17>  H       -2.9157225829     0.4623609210     1.3853519781
| 18>  H       -3.4172442277    -2.4765504351     1.3072490722
| 19>  H       -3.4856179865    -2.3798315445    -1.3283611239
| 20>  H       -2.9832284907     0.5578519516    -1.2168624247
| 21>  H       -1.8123563851    -0.4333457236    -2.1424141277
| 22> *
| 23>
| 24>                          ****END OF INPUT****

CARTESIAN COORDINATES (ANGSTROEM)
---------------------------------
  O     -0.035366    1.395988    0.041514
  C      0.021317   -0.023133   -0.012332
  C     -1.393086   -0.523634    0.005940
  C     -2.282771   -0.421732    1.264241
  C     -2.881617   -1.716513    0.749285
  C     -2.920375   -1.661687   -0.744712
  C     -2.346536   -0.331534   -1.193764
  N     -1.651185   -2.068868   -0.044075
  H      0.865020    1.733056    0.031491
  H      0.521132   -0.378364   -0.927478
  H      0.567192   -0.443881    0.847013
  H     -1.700386   -0.591732    2.173954
  H     -2.915723    0.462361    1.385352
  H     -3.417244   -2.476550    1.307249
  H     -3.485618   -2.379832   -1.328361
  H     -2.983228    0.557852   -1.216862
  H     -1.812356   -0.433346   -2.142414

 Total Charge           Charge          ....    0
 Multiplicity           Mult            ....    1
 Number of Electrons    NEL             ....   60
 Basis Dimension        Dim             ....  302

ORBITAL ENERGIES
----------------

  NO   OCC          E(Eh)            E(eV)
   0   2.0000     -20.562663      -559.5385
   1   2.0000     -15.556463      -423.3129
   2   2.0000     -11.279255      -306.9241
   3   2.0000     -11.268204      -306.6234
   4   2.0000     -11.260300      -306.4083
   5   2.0000     -11.259591      -306.3890
   6   2.0000     -11.228232      -305.5357
   7   2.0000     -11.228214      -305.5352
   8   2.0000      -1.366680       -37.1892
   9   2.0000      -1.312915       -35.7262
  10   2.0000      -1.023601       -27.8536
  11   2.0000      -0.988209       -26.8905
  12   2.0000      -0.948443       -25.8084
  13   2.0000      -0.864322       -23.5194
  14   2.0000      -0.756052       -20.5732
  15   2.0000      -0.721356       -19.6291
  16   2.0000      -0.703386       -19.1401
  17   2.0000      -0.671442       -18.2709
  18   2.0000      -0.646064       -17.5803
  19   2.0000      -0.609227       -16.5779
  20   2.0000      -0.598122       -16.2757
  21   2.0000      -0.556585       -15.1454
  22   2.0000      -0.551698       -15.0125
  23   2.0000      -0.532044       -14.4777
  24   2.0000      -0.481119       -13.0919
  25   2.0000      -0.468626       -12.7520
  26   2.0000      -0.440901       -11.9975
  27   2.0000      -0.427697       -11.6382
  28   2.0000      -0.402485       -10.9522
  29   2.0000      -0.375232       -10.2106
  30   0.0000       0.129257         3.5172
  31   0.0000       0.159825         4.3491
  32   0.0000       0.177660         4.8344
  33   0.0000       0.178537         4.8582
  34   0.0000       0.180917         4.9230

MULLIKEN ATOMIC CHARGES
-----------------------
   0 O :   -0.469107
   1 C :   -0.082717
   2 C :    0.065951
   3 C :   -0.157605
   4 C :   -0.114262
   5 C :   -0.114244
   6 C :   -0.157635
   7 N :   -0.214297
   8 H :    0.318078
   9 H :    0.103210
  10 H :    0.103243
  11 H :    0.110292
  12 H :    0.116271
  13 H :    0.133122
  14 H :    0.133124
  15 H :    0.116275
  16 H :    0.110300
Sum of atomic charges:    0.0000000

LOEWDIN ATOMIC CHARGES
----------------------
   0 O :   -0.040290
   1 C :   -0.313169
   2 C :   -0.239971
   3 C :   -0.186641
   4 C :   -0.213674
   5 C :   -0.213676
   6 C :   -0.186637
   7 N :    0.154069
   8 H :    0.174433
   9 H :    0.123832
  10 H :    0.123837
  11 H :    0.144123
  12 H :    0.131617
  13 H :    0.133203
  14 H :    0.133203
  15 H :    0.131617
  16 H :    0.144124

  Mayer bond orders larger than 0.1
B(  0-O ,  1-C ) :   1.0589 B(  0-O ,  2-C ) :  -0.1196 B(  0-O ,  8-H ) :   0.8468
B(  1-C ,  2-C ) :   0.8983 B(  1-C ,  9-H ) :   0.9216 B(  1-C , 10-H ) :   0.9216
B(  2-C ,  3-C ) :   0.9465 B(  2-C ,  6-C ) :   0.9466 B(  2-C ,  7-N ) :   0.9380
B(  3-C ,  4-C ) :   0.9604 B(  3-C , 11-H ) :   0.9116 B(  3-C , 12-H ) :   0.9014
B(  4-C ,  5-C ) :   0.9121 B(  4-C ,  7-N ) :   0.8931 B(  4-C , 13-H ) :   0.9133
B(  5-C ,  6-C ) :   0.9604 B(  5-C ,  7-N ) :   0.8931 B(  5-C , 14-H ) :   0.9133
B(  6-C , 15-H ) :   0.9014 B(  6-C , 16-H ) :   0.9116

MP2 TOTAL ENERGY:     -363.185512392 Eh
FINAL SINGLE POINT ENERGY      -363.185512391584

DIPOLE MOMENT
-------------
                                X             Y             Z
Electronic contribution:     -0.04295      -1.04505      -0.03731
Nuclear contribution   :      0.21965       1.39129       0.04594
                        -----------------------------------------
Total Dipole Moment    :      0.17670       0.34624       0.00864
                        -----------------------------------------
Magnitude (a.u.)       :      0.38882
Magnitude (Debye)      :      0.98830

                             ****ORCA TERMINATED NORMALLY****
TOTAL RUN TIME: 0 days 0 hours 12 minutes 20 seconds 694 msec
