                         Program Version 3.0.3 - RELEASE   -
|  1> ! RI-MP2 RIJK def2-TZVP def2-TZVP/C def2-TZVP/JK TIGHTSCF
|  2> % maxcore 2000
|  3> % mp2 density relaxed end
|  4> *xyz 0 1
|  5>  C        0.0393854318     1.5676231177    -0.0055528841
|  6>  C        0.0582515783     0.0468137738    -0.0201111060
|  7>  C        0.7820888481    -0.7114359091    -1.1342897140
|  8>  C        2.2565158573    -0.8219133847    -0.6326336635
|  9>  O        2.3378674904    -0.1385134120     0.6124868005
| 10>  C        1.0319938265    -0.7026942867     0.9488292569
| 11>  C        0.7941568264    -0.8690599514     2.4166551819
| 12>  C        1.2272693008    -1.8079253347    -0.1991813101
| 13>  O        1.0388204409    -3.1599137564    -0.2924464839
| 14>  H        1.0573213034     1.9620093295    -0.0488986000
| 15>  H       -0.5201287264     1.9588787028    -0.8621575543
| 16>  H       -0.4397810752     1.9504100793     0.9027545517
| 17>  H       -0.9474431582    -0.3705444601     0.1029082696
| 18>  H        0.5356846374    -0.7909693858    -2.1857660563
| 19>  H        3.1236995053    -0.8684443737    -1.2775567499
| 20>  H        0.8043765646     0.1052281774     2.9177404082
| 21>  H       -0.1786333023    -1.3367788743     2.5954897198
| 22>  H        1.5703258943    -1.4911579890     2.8724388739
| 23>  H        1.7547123966    -3.6019626928     0.1790924397
| 24> *
| 25>
| 26>                          ****END OF INPUT****

CARTESIAN COORDINATES (ANGSTROEM)
---------------------------------
  C      0.039385    1.567623   -0.005553
  C      0.058252    0.046814   -0.020111
  C      0.782089   -0.711436   -1.134290
  C      2.256516   -0.821913   -0.632634
  O      2.337867   -0.138513    0.612487
  C      1.031994   -0.702694    0.948829
  C      0.794157   -0.869060    2.416655
  C      1.227269   -1.807925   -0.199181
  O      1.038820   -3.159914   -0.292446
  H      1.057321    1.962009   -0.048899
  H     -0.520129    1.958879   -0.862158
  H     -0.439781    1.950410    0.902755
  H     -0.947443   -0.370544    0.102908
  H      0.535685   -0.790969   -2.185766
  H      3.123700   -0.868444   -1.277557
  H      0.804377    0.105228    2.917740
  H     -0.178633   -1.336779    2.595490
  H      1.570326   -1.491158    2.872439
  H      1.754712   -3.601963    0.179092

 Total Charge           Charge          ....    0
 Multiplicity           Mult            ....    1
 Number of Electrons    NEL             ....   68
 Basis Dimension        Dim             ....  339

ORBITAL ENERGIES
----------------

  NO   OCC          E(Eh)            E(eV)
   0   2.0000     -20.585013      -560.1467
   1   2.0000     -20.551359      -559.2309
   2   2.0000     -11.295016      -307.3530
   3   2.0000     -11.292730      -307.2908
   4   2.0000     -11.285645      -307.0980
   5   2.0000     -11.234457      -305.7051
   6   2.0000     -11.233854      -305.6887
   7   2.0000     -11.224550      -305.4355
   8   2.0000     -11.207241      -304.9645
   9   2.0000      -1.411641       -38.4127
  10   2.0000      -1.381942       -37.6045
  11   2.0000      -1.145313       -31.1655
  12   2.0000      -1.036994       -28.2180
  13   2.0000      -0.992599       -27.0100
  14   2.0000      -0.889897       -24.2153
  15   2.0000      -0.836447       -22.7609
  16   2.0000      -0.785693       -21.3798
  17   2.0000      -0.752883       -20.4870
  18   2.0000      -0.683977       -18.6120
  19   2.0000      -0.669051       -18.2058
  20   2.0000      -0.638854       -17.3841
  21   2.0000      -0.615709       -16.7543
  22   2.0000      -0.603063       -16.4102
  23   2.0000      -0.577327       -15.7099
  24   2.0000      -0.560774       -15.2594
  25   2.0000      -0.552524       -15.0349
  26   2.0000      -0.539681       -14.6855
  27   2.0000      -0.529692       -14.4137
  28   2.0000      -0.517626       -14.0853
  29   2.0000      -0.489651       -13.3241
  30   2.0000      -0.456386       -12.4189
  31   2.0000      -0.405049       -11.0219
  32   2.0000      -0.389781       -10.6065
  33   2.0000      -0.365362        -9.9420
  34   0.0000       0.125260         3.4085
  35   0.0000       0.149330         4.0635
  36   0.0000       0.168127         4.5750
  37   0.0000       0.180843         4.9210
  38   0.0000       0.186485         5.0745

MULLIKEN ATOMIC CHARGES
-----------------------
   0 C :   -0.449587
   1 C :    0.031849
   2 C :   -0.204929
   3 C :   -0.024825
   4 O :   -0.319445
   5 C :    0.157405
   6 C :   -0.426227
   7 C :    0.112952
   8 O :   -0.438377
   9 H :    0.152392
  10 H :    0.130198
  11 H :    0.124228
  12 H :    0.105922
  13 H :    0.138600
  14 H :    0.145305
  15 H :    0.150040
  16 H :    0.141453
  17 H :    0.136786
  18 H :    0.336258
Sum of atomic charges:    0.0000000

LOEWDIN ATOMIC CHARGES
----------------------
   0 C :   -0.295620
   1 C :   -0.206168
   2 C :   -0.128821
   3 C :   -0.224850
   4 O :    0.188488
   5 C :   -0.236324
   6 C :   -0.271653
   7 C :   -0.277590
   8 O :    0.043185
   9 H :    0.130723
  10 H :    0.124932
  11 H :    0.123501
  12 H :    0.158904
  13 H :    0.140008
  14 H :    0.133811
  15 H :    0.137598
  16 H :    0.135623
  17 H :    0.132036
  18 H :    0.192216

  Mayer bond orders larger than 0.1
B(  0-C ,  1-C ) :   0.8883 B(  0-C ,  9-H ) :   0.9412 B(  0-C , 10-H ) :   0.9359
B(  0-C , 11-H ) :   0.9348 B(  1-C ,  2-C ) :   0.9024 B(  1-C ,  5-C ) :   0.9002
B(  1-C , 12-H ) :   0.9142 B(  2-C ,  3-C ) :   0.8295 B(  2-C ,  7-C ) :   0.8497
B(  2-C , 13-H ) :   0.9107 B(  3-C ,  4-O ) :   0.9587 B(  3-C ,  7-C ) :   0.9097
B(  3-C , 14-H ) :   0.9156 B(  4-O ,  5-C ) :   0.8888 B(  5-C ,  6-C ) :   0.8411
B(  5-C ,  7-C ) :   0.8547 B(  6-C , 15-H ) :   0.9438 B(  6-C , 16-H ) :   0.9392
B(  6-C , 17-H ) :   0.9380 B(  7-C ,  8-O ) :   1.0624 B(  8-O , 18-H ) :   0.8306

MP2 TOTAL ENERGY:     -422.258327910 Eh
FINAL SINGLE POINT ENERGY      -422.258327909887

DIPOLE MOMENT
-------------
                                X             Y             Z
Electronic contribution:      3.66858      -5.01309      -2.75906
Nuclear contribution   :     -3.69262       4.70065       2.87592
                        -----------------------------------------
Total Dipole Moment    :     -0.02405      -0.31244       0.11687
                        -----------------------------------------
Magnitude (a.u.)       :      0.33445
Magnitude (Debye)      :      0.85009

                             ****ORCA TERMINATED NORMALLY****
TOTAL RUN TIME: 0 days 0 hours 18 minutes 51 seconds 979 msec
