                         Program Version 3.0.3 - RELEASE   -
|  1> ! RI-MP2 RIJK def2-TZVP def2-TZVP/C def2-TZVP/JK TIGHTSCF
|  2> % maxcore 2000
|  3> % mp2 density relaxed end
|  4> *xyz 0 1
|  5>  C        0.0432021351     1.6488162936     0.3459389839
|  6>  C       -0.0076976611     0.1737103362    -0.0894651866
|  7>  C       -1.3950615913    -0.3677955280    -0.1537420388
|  8>  C       -2.1799479116    -0.8446456474    -1.1633423294
|  9>  C       -1.9228777504    -1.0153755773    -2.6221128201
| 10>  N       -3.3855895727    -1.1897395048    -0.5851117272
| 11>  N       -3.3794353126    -0.9612883131     0.6498537740
| 12>  O       -2.0984789227    -0.4221163189     0.9835331140
| 13>  H        1.0792947134     1.9948025456     0.3935721661
| 14>  H       -0.4986548581     2.2850099429    -0.3598963776
| 15>  H       -0.4083953492     1.7771050033     1.3328167085
| 16>  H        0.4558403225     0.0525390941    -1.0730984184
| 17>  H        0.5763278753    -0.4347539838     0.6115359781
| 18>  H       -2.0383427542    -2.0614876400    -2.9228244443
| 19>  H       -2.6249539004    -0.4241988014    -3.2187450320
| 20>  H       -0.9094656519    -0.6984672608    -2.8799701303
| 21> *
| 22>
| 23>                          ****END OF INPUT****

CARTESIAN COORDINATES (ANGSTROEM)
---------------------------------
  C      0.043202    1.648816    0.345939
  C     -0.007698    0.173710   -0.089465
  C     -1.395062   -0.367796   -0.153742
  C     -2.179948   -0.844646   -1.163342
  C     -1.922878   -1.015376   -2.622113
  N     -3.385590   -1.189740   -0.585112
  N     -3.379435   -0.961288    0.649854
  O     -2.098479   -0.422116    0.983533
  H      1.079295    1.994803    0.393572
  H     -0.498655    2.285010   -0.359896
  H     -0.408395    1.777105    1.332817
  H      0.455840    0.052539   -1.073098
  H      0.576328   -0.434754    0.611536
  H     -2.038343   -2.061488   -2.922824
  H     -2.624954   -0.424199   -3.218745
  H     -0.909466   -0.698467   -2.879970

 Total Charge           Charge          ....    0
 Multiplicity           Mult            ....    1
 Number of Electrons    NEL             ....   60
 Basis Dimension        Dim             ....  296

ORBITAL ENERGIES
----------------

  NO   OCC          E(Eh)            E(eV)
   0   2.0000     -20.648929      -561.8859
   1   2.0000     -15.681208      -426.7074
   2   2.0000     -15.628244      -425.2661
   3   2.0000     -11.318507      -307.9922
   4   2.0000     -11.268090      -306.6203
   5   2.0000     -11.260301      -306.4084
   6   2.0000     -11.242591      -305.9264
   7   2.0000     -11.236106      -305.7500
   8   2.0000      -1.518580       -41.3227
   9   2.0000      -1.306878       -35.5620
  10   2.0000      -1.126221       -30.6460
  11   2.0000      -1.052901       -28.6509
  12   2.0000      -0.969600       -26.3841
  13   2.0000      -0.903220       -24.5779
  14   2.0000      -0.846733       -23.0408
  15   2.0000      -0.804776       -21.8991
  16   2.0000      -0.696315       -18.9477
  17   2.0000      -0.679634       -18.4938
  18   2.0000      -0.633008       -17.2250
  19   2.0000      -0.621620       -16.9151
  20   2.0000      -0.588427       -16.0119
  21   2.0000      -0.584101       -15.8942
  22   2.0000      -0.564340       -15.3565
  23   2.0000      -0.544598       -14.8193
  24   2.0000      -0.539215       -14.6728
  25   2.0000      -0.519440       -14.1347
  26   2.0000      -0.517301       -14.0765
  27   2.0000      -0.479350       -13.0438
  28   2.0000      -0.458548       -12.4777
  29   2.0000      -0.354167        -9.6374
  30   0.0000       0.105918         2.8822
  31   0.0000       0.128351         3.4926
  32   0.0000       0.155213         4.2236
  33   0.0000       0.172793         4.7019
  34   0.0000       0.186626         5.0784

MULLIKEN ATOMIC CHARGES
-----------------------
   0 C :   -0.388221
   1 C :   -0.212985
   2 C :    0.141088
   3 C :   -0.002592
   4 C :   -0.410166
   5 N :   -0.108096
   6 N :   -0.038249
   7 O :   -0.113312
   8 H :    0.138303
   9 H :    0.131959
  10 H :    0.148623
  11 H :    0.126761
  12 H :    0.139676
  13 H :    0.157898
  14 H :    0.157238
  15 H :    0.132075
Sum of atomic charges:   -0.0000000

LOEWDIN ATOMIC CHARGES
----------------------
   0 C :   -0.301653
   1 C :   -0.252399
   2 C :   -0.278394
   3 C :   -0.277194
   4 C :   -0.267384
   5 N :    0.040301
   6 N :   -0.020357
   7 O :    0.270679
   8 H :    0.123959
   9 H :    0.124726
  10 H :    0.127934
  11 H :    0.148846
  12 H :    0.153199
  13 H :    0.138178
  14 H :    0.137867
  15 H :    0.131691

  Mayer bond orders larger than 0.1
B(  0-C ,  1-C ) :   0.9130 B(  0-C ,  8-H ) :   0.9357 B(  0-C ,  9-H ) :   0.9333
B(  0-C , 10-H ) :   0.9363 B(  1-C ,  2-C ) :   0.8999 B(  1-C , 11-H ) :   0.9466
B(  1-C , 12-H ) :   0.9198 B(  2-C ,  3-C ) :   1.5069 B(  2-C ,  7-O ) :   1.1391
B(  3-C ,  4-C ) :   0.8760 B(  3-C ,  5-N ) :   1.2536 B(  4-C , 13-H ) :   0.9318
B(  4-C , 14-H ) :   0.9313 B(  4-C , 15-H ) :   0.9500 B(  5-N ,  6-N ) :   1.4361
B(  6-N ,  7-O ) :   0.8557

MP2 TOTAL ENERGY:     -379.276775916 Eh
FINAL SINGLE POINT ENERGY      -379.276775915869

DIPOLE MOMENT
-------------
                                X             Y             Z
Electronic contribution:     -7.72321      -4.50758       4.41562
Nuclear contribution   :      9.15492       4.95402      -5.19730
                        -----------------------------------------
Total Dipole Moment    :      1.43171       0.44644      -0.78168
                        -----------------------------------------
Magnitude (a.u.)       :      1.69119
Magnitude (Debye)      :      4.29866

                             ****ORCA TERMINATED NORMALLY****
TOTAL RUN TIME: 0 days 0 hours 11 minutes 18 seconds 307 msec
