                         Program Version 3.0.3 - RELEASE   -
|  1> ! RI-MP2 RIJK def2-TZVP def2-TZVP/C def2-TZVP/JK TIGHTSCF
|  2> % maxcore 2000
|  3> % mp2 density relaxed end
|  4> *xyz 0 1
|  5>  N        0.0579486941    -1.1525495056    -0.4409253469
|  6>  C        0.0209057437    -0.0071639953    -0.2948735436
|  7>  C       -0.0211048368     1.4390763699    -0.0918777857
|  8>  C        1.3689186540     2.0350921876     0.1645859519
|  9>  O        2.2129470267     1.9632533159    -1.0008954813
| 10>  C        2.3909756379     3.3995282854    -1.0385499883
| 11>  C        1.4804085258     3.5603416547     0.1741983767
| 12>  C        0.4217781608     4.5917052652     0.4234673042
| 13>  C        1.6206985562     4.4866622271     1.3394208331
| 14>  H       -0.4645782871     1.9155682917    -0.9720211603
| 15>  H       -0.6732986141     1.6519328844     0.7638961605
| 16>  H        1.8336883034     1.5324109369     1.0232847053
| 17>  H        3.4401335435     3.6830736144    -0.8880430161
| 18>  H        2.0310454953     3.8316384870    -1.9806864549
| 19>  H        0.3667700533     5.4342962276    -0.2585471140
| 20>  H       -0.5415254907     4.2680089206     0.8047943480
| 21>  H        1.4680263132     4.0820614339     2.3351428084
| 22>  H        2.3797008809     5.2604720286     1.2847101829
| 23> *
| 24>
| 25>                          ****END OF INPUT****

CARTESIAN COORDINATES (ANGSTROEM)
---------------------------------
  N      0.057949   -1.152550   -0.440925
  C      0.020906   -0.007164   -0.294874
  C     -0.021105    1.439076   -0.091878
  C      1.368919    2.035092    0.164586
  O      2.212947    1.963253   -1.000895
  C      2.390976    3.399528   -1.038550
  C      1.480409    3.560342    0.174198
  C      0.421778    4.591705    0.423467
  C      1.620699    4.486662    1.339421
  H     -0.464578    1.915568   -0.972021
  H     -0.673299    1.651933    0.763896
  H      1.833688    1.532411    1.023285
  H      3.440134    3.683074   -0.888043
  H      2.031045    3.831638   -1.980686
  H      0.366770    5.434296   -0.258547
  H     -0.541525    4.268009    0.804794
  H      1.468026    4.082061    2.335143
  H      2.379701    5.260472    1.284710

 Total Charge           Charge          ....    0
 Multiplicity           Mult            ....    1
 Number of Electrons    NEL             ....   66
 Basis Dimension        Dim             ....  333

ORBITAL ENERGIES
----------------

  NO   OCC          E(Eh)            E(eV)
   0   2.0000     -20.566016      -559.6297
   1   2.0000     -15.565548      -423.5601
   2   2.0000     -11.313299      -307.8505
   3   2.0000     -11.294938      -307.3509
   4   2.0000     -11.284840      -307.0761
   5   2.0000     -11.270333      -306.6814
   6   2.0000     -11.262709      -306.4739
   7   2.0000     -11.251856      -306.1786
   8   2.0000     -11.249994      -306.1279
   9   2.0000      -1.399382       -38.0791
  10   2.0000      -1.214876       -33.0585
  11   2.0000      -1.166526       -31.7428
  12   2.0000      -1.072170       -29.1752
  13   2.0000      -0.954571       -25.9752
  14   2.0000      -0.916311       -24.9341
  15   2.0000      -0.851466       -23.1696
  16   2.0000      -0.752568       -20.4784
  17   2.0000      -0.717299       -19.5187
  18   2.0000      -0.695786       -18.9333
  19   2.0000      -0.687623       -18.7112
  20   2.0000      -0.661674       -18.0051
  21   2.0000      -0.632058       -17.1992
  22   2.0000      -0.581995       -15.8369
  23   2.0000      -0.574569       -15.6348
  24   2.0000      -0.555122       -15.1056
  25   2.0000      -0.546113       -14.8605
  26   2.0000      -0.537339       -14.6217
  27   2.0000      -0.489983       -13.3331
  28   2.0000      -0.470984       -12.8161
  29   2.0000      -0.456528       -12.4228
  30   2.0000      -0.453119       -12.3300
  31   2.0000      -0.431674       -11.7464
  32   2.0000      -0.411008       -11.1841
  33   0.0000       0.120135         3.2690
  34   0.0000       0.140668         3.8278
  35   0.0000       0.147024         4.0007
  36   0.0000       0.151008         4.1091
  37   0.0000       0.177390         4.8270

MULLIKEN ATOMIC CHARGES
-----------------------
   0 N :   -0.051950
   1 C :   -0.181304
   2 C :   -0.151485
   3 C :    0.098693
   4 O :   -0.316536
   5 C :   -0.009393
   6 C :   -0.035027
   7 C :   -0.260785
   8 C :   -0.270041
   9 H :    0.163342
  10 H :    0.150545
  11 H :    0.109775
  12 H :    0.103389
  13 H :    0.101975
  14 H :    0.138140
  15 H :    0.135187
  16 H :    0.137645
  17 H :    0.137831
Sum of atomic charges:    0.0000000

LOEWDIN ATOMIC CHARGES
----------------------
   0 N :    0.061186
   1 C :   -0.187932
   2 C :   -0.224543
   3 C :   -0.232331
   4 O :    0.153178
   5 C :   -0.218115
   6 C :   -0.221093
   7 C :   -0.204114
   8 C :   -0.201112
   9 H :    0.169585
  10 H :    0.167411
  11 H :    0.145682
  12 H :    0.122781
  13 H :    0.121730
  14 H :    0.137314
  15 H :    0.135220
  16 H :    0.137483
  17 H :    0.137671

  Mayer bond orders larger than 0.1
B(  0-N ,  1-C ) :   2.8780 B(  1-C ,  2-C ) :   0.9481 B(  2-C ,  3-C ) :   0.8796
B(  2-C ,  9-H ) :   0.9000 B(  2-C , 10-H ) :   0.9019 B(  3-C ,  4-O ) :   0.9824
B(  3-C ,  6-C ) :   0.9184 B(  3-C , 11-H ) :   0.9198 B(  4-O ,  5-C ) :   0.9494
B(  5-C ,  6-C ) :   0.9669 B(  5-C , 12-H ) :   0.9103 B(  5-C , 13-H ) :   0.9128
B(  6-C ,  7-C ) :   0.8621 B(  6-C ,  8-C ) :   0.8687 B(  7-C ,  8-C ) :   0.9135
B(  7-C , 14-H ) :   0.9219 B(  7-C , 15-H ) :   0.9214 B(  8-C , 16-H ) :   0.9245
B(  8-C , 17-H ) :   0.9239

MP2 TOTAL ENERGY:     -401.228480534 Eh
FINAL SINGLE POINT ENERGY      -401.228480534155

DIPOLE MOMENT
-------------
                                X             Y             Z
Electronic contribution:     -0.25145      -8.18230      -2.17602
Nuclear contribution   :      0.08251      10.38162       2.78501
                        -----------------------------------------
Total Dipole Moment    :     -0.16894       2.19933       0.60899
                        -----------------------------------------
Magnitude (a.u.)       :      2.28833
Magnitude (Debye)      :      5.81647

                             ****ORCA TERMINATED NORMALLY****
TOTAL RUN TIME: 0 days 0 hours 17 minutes 3 seconds 616 msec
