                         Program Version 3.0.3 - RELEASE   -
|  1> ! RI-MP2 RIJK def2-TZVP def2-TZVP/C def2-TZVP/JK TIGHTSCF
|  2> % maxcore 2000
|  3> % mp2 density relaxed end
|  4> *xyz 0 1
|  5>  C       -0.1516017124     1.6334616120     0.1018829967
|  6>  C       -0.0274659234     0.0987414243     0.0431538188
|  7>  C        0.7780571147    -0.4779629153     1.2242070415
|  8>  C        2.2666471505    -0.1432774222     1.1000226133
|  9>  N        2.9835988766    -0.3130496201     2.2451522243
| 10>  O        2.7712543813     0.2306138397     0.0582693309
| 11>  C       -1.3508170640    -0.5289986484    -0.0113724057
| 12>  N       -2.3965858104    -1.0205601961    -0.0421629846
| 13>  H        0.8465246690     2.0742524714     0.0756515784
| 14>  H       -0.7203650320     2.0087246265    -0.7520329821
| 15>  H       -0.6624354639     1.9493379098     1.0165327020
| 16>  H        0.5119867852    -0.1669550929    -0.8724865055
| 17>  H        0.3784262396    -0.1118489379     2.1765486027
| 18>  H        0.6823685093    -1.5700044944     1.2437533043
| 19>  H        2.5754029792    -0.6799594033     3.0869312558
| 20>  H        3.9822455904    -0.1897136931     2.2052054792
| 21> *
| 22>
| 23>                          ****END OF INPUT****

CARTESIAN COORDINATES (ANGSTROEM)
---------------------------------
  C     -0.151602    1.633462    0.101883
  C     -0.027466    0.098741    0.043154
  C      0.778057   -0.477963    1.224207
  C      2.266647   -0.143277    1.100023
  N      2.983599   -0.313050    2.245152
  O      2.771254    0.230614    0.058269
  C     -1.350817   -0.528999   -0.011372
  N     -2.396586   -1.020560   -0.042163
  H      0.846525    2.074252    0.075652
  H     -0.720365    2.008725   -0.752033
  H     -0.662435    1.949338    1.016533
  H      0.511987   -0.166955   -0.872487
  H      0.378426   -0.111849    2.176549
  H      0.682369   -1.570004    1.243753
  H      2.575403   -0.679959    3.086931
  H      3.982246   -0.189714    2.205205

 Total Charge           Charge          ....    0
 Multiplicity           Mult            ....    1
 Number of Electrons    NEL             ....   60
 Basis Dimension        Dim             ....  296

ORBITAL ENERGIES
----------------

  NO   OCC          E(Eh)            E(eV)
   0   2.0000     -20.537032      -558.8411
   1   2.0000     -15.601204      -424.5303
   2   2.0000     -15.568083      -423.6291
   3   2.0000     -11.372764      -309.4687
   4   2.0000     -11.288850      -307.1852
   5   2.0000     -11.271588      -306.7155
   6   2.0000     -11.270809      -306.6943
   7   2.0000     -11.239935      -305.8542
   8   2.0000      -1.402468       -38.1631
   9   2.0000      -1.230585       -33.4859
  10   2.0000      -1.219333       -33.1797
  11   2.0000      -1.116438       -30.3798
  12   2.0000      -0.991446       -26.9786
  13   2.0000      -0.898682       -24.4544
  14   2.0000      -0.809567       -22.0294
  15   2.0000      -0.742955       -20.2168
  16   2.0000      -0.722653       -19.6644
  17   2.0000      -0.667048       -18.1513
  18   2.0000      -0.662610       -18.0305
  19   2.0000      -0.609830       -16.5943
  20   2.0000      -0.595271       -16.1982
  21   2.0000      -0.588616       -16.0170
  22   2.0000      -0.560860       -15.2618
  23   2.0000      -0.536064       -14.5870
  24   2.0000      -0.532583       -14.4923
  25   2.0000      -0.523801       -14.2533
  26   2.0000      -0.462471       -12.5845
  27   2.0000      -0.455122       -12.3845
  28   2.0000      -0.440384       -11.9835
  29   2.0000      -0.434648       -11.8274
  30   0.0000       0.108304         2.9471
  31   0.0000       0.135095         3.6761
  32   0.0000       0.148318         4.0359
  33   0.0000       0.161849         4.4041
  34   0.0000       0.173578         4.7233

MULLIKEN ATOMIC CHARGES
-----------------------
   0 C :   -0.423715
   1 C :    0.043223
   2 C :   -0.272577
   3 C :    0.286779
   4 N :   -0.480766
   5 O :   -0.354692
   6 C :   -0.174341
   7 N :   -0.059560
   8 H :    0.166611
   9 H :    0.149963
  10 H :    0.131953
  11 H :    0.151048
  12 H :    0.142373
  13 H :    0.164061
  14 H :    0.263758
  15 H :    0.265882
Sum of atomic charges:    0.0000000

LOEWDIN ATOMIC CHARGES
----------------------
   0 C :   -0.263213
   1 C :   -0.260108
   2 C :   -0.200761
   3 C :   -0.475781
   4 N :   -0.013641
   5 O :    0.088674
   6 C :   -0.173169
   7 N :    0.056187
   8 H :    0.134480
   9 H :    0.132175
  10 H :    0.127596
  11 H :    0.185237
  12 H :    0.151337
  13 H :    0.161642
  14 H :    0.172885
  15 H :    0.176459

  Mayer bond orders larger than 0.1
B(  0-C ,  1-C ) :   0.9025 B(  0-C ,  8-H ) :   0.9328 B(  0-C ,  9-H ) :   0.9346
B(  0-C , 10-H ) :   0.9249 B(  1-C ,  2-C ) :   0.9223 B(  1-C ,  6-C ) :   0.9017
B(  1-C , 11-H ) :   0.9138 B(  2-C ,  3-C ) :   0.8931 B(  2-C , 12-H ) :   0.9089
B(  2-C , 13-H ) :   0.8990 B(  3-C ,  4-N ) :   1.1804 B(  3-C ,  5-O ) :   1.9357
B(  4-N , 14-H ) :   0.8700 B(  4-N , 15-H ) :   0.8566 B(  6-C ,  7-N ) :   2.8863

MP2 TOTAL ENERGY:     -379.347332621 Eh
FINAL SINGLE POINT ENERGY      -379.347332621004

DIPOLE MOMENT
-------------
                                X             Y             Z
Electronic contribution:     -0.64593      -3.21931      -1.59156
Nuclear contribution   :      1.90263       3.41801       3.01567
                        -----------------------------------------
Total Dipole Moment    :      1.25669       0.19870       1.42411
                        -----------------------------------------
Magnitude (a.u.)       :      1.90967
Magnitude (Debye)      :      4.85401

                             ****ORCA TERMINATED NORMALLY****
TOTAL RUN TIME: 0 days 0 hours 10 minutes 44 seconds 193 msec
