                         Program Version 3.0.3 - RELEASE   -
|  1> ! RI-MP2 RIJK def2-TZVP def2-TZVP/C def2-TZVP/JK TIGHTSCF
|  2> % maxcore 2000
|  3> % mp2 density relaxed end
|  4> *xyz 0 1
|  5>  C       -0.0020637546     1.5575919434     0.0160614372
|  6>  C        0.0469082208     0.0174815857     0.0049841594
|  7>  C        0.6834544859    -0.5000732352    -1.2994060474
|  8>  C        0.7497289127    -0.5253017391     1.2203118221
|  9>  C        0.2504631556    -1.3030565203     2.1781327812
| 10>  C        1.2968447419    -1.6127411551     3.2076182373
| 11>  O        2.4696514768    -0.9372554262     2.7600837119
| 12>  C        2.2018240801    -0.2489161646     1.5433246594
| 13>  H        1.0026650225     1.9894932136    -0.0461600291
| 14>  H       -0.5744968833     1.9287522471    -0.8402036403
| 15>  H       -0.4730554087     1.9320121886     0.9297925786
| 16>  H       -0.9866549345    -0.3494098410     0.0402558171
| 17>  H        1.7133482655    -0.1437119539    -1.4098990685
| 18>  H        0.7015442524    -1.5936827991    -1.3242054713
| 19>  H        0.1173914528    -0.1479001457    -2.1678376004
| 20>  H       -0.7648230809    -1.6770128969     2.2352433168
| 21>  H        1.0211315937    -1.2558884815     4.2134610663
| 22>  H        1.4986772965    -2.6928056296     3.2959010662
| 23>  H        2.8829271181    -0.6095594636     0.7559294114
| 24>  H        2.4056168566     0.8260815834     1.6730433223
| 25> *
| 26>
| 27>                          ****END OF INPUT****

CARTESIAN COORDINATES (ANGSTROEM)
---------------------------------
  C     -0.002064    1.557592    0.016061
  C      0.046908    0.017482    0.004984
  C      0.683454   -0.500073   -1.299406
  C      0.749729   -0.525302    1.220312
  C      0.250463   -1.303057    2.178133
  C      1.296845   -1.612741    3.207618
  O      2.469651   -0.937255    2.760084
  C      2.201824   -0.248916    1.543325
  H      1.002665    1.989493   -0.046160
  H     -0.574497    1.928752   -0.840204
  H     -0.473055    1.932012    0.929793
  H     -0.986655   -0.349410    0.040256
  H      1.713348   -0.143712   -1.409899
  H      0.701544   -1.593683   -1.324205
  H      0.117391   -0.147900   -2.167838
  H     -0.764823   -1.677013    2.235243
  H      1.021132   -1.255888    4.213461
  H      1.498677   -2.692806    3.295901
  H      2.882927   -0.609559    0.755929
  H      2.405617    0.826082    1.673043

 Total Charge           Charge          ....    0
 Multiplicity           Mult            ....    1
 Number of Electrons    NEL             ....   62
 Basis Dimension        Dim             ....  320

ORBITAL ENERGIES
----------------

  NO   OCC          E(Eh)            E(eV)
   0   2.0000     -20.545402      -559.0688
   1   2.0000     -11.273941      -306.7795
   2   2.0000     -11.272966      -306.7530
   3   2.0000     -11.240945      -305.8817
   4   2.0000     -11.231991      -305.6380
   5   2.0000     -11.221385      -305.3494
   6   2.0000     -11.219843      -305.3074
   7   2.0000     -11.219824      -305.3069
   8   2.0000      -1.370348       -37.2891
   9   2.0000      -1.110044       -30.2058
  10   2.0000      -1.033559       -28.1246
  11   2.0000      -0.980319       -26.6758
  12   2.0000      -0.934717       -25.4350
  13   2.0000      -0.846191       -23.0260
  14   2.0000      -0.804724       -21.8977
  15   2.0000      -0.734685       -19.9918
  16   2.0000      -0.669649       -18.2221
  17   2.0000      -0.661077       -17.9888
  18   2.0000      -0.620320       -16.8798
  19   2.0000      -0.591909       -16.1067
  20   2.0000      -0.572312       -15.5734
  21   2.0000      -0.571604       -15.5541
  22   2.0000      -0.562917       -15.3177
  23   2.0000      -0.537479       -14.6255
  24   2.0000      -0.531778       -14.4704
  25   2.0000      -0.500472       -13.6185
  26   2.0000      -0.489255       -13.3133
  27   2.0000      -0.474708       -12.9175
  28   2.0000      -0.457188       -12.4407
  29   2.0000      -0.426593       -11.6082
  30   2.0000      -0.339678        -9.2431
  31   0.0000       0.130170         3.5421
  32   0.0000       0.160543         4.3686
  33   0.0000       0.162919         4.4333
  34   0.0000       0.167083         4.5466
  35   0.0000       0.174648         4.7524

MULLIKEN ATOMIC CHARGES
-----------------------
   0 C :   -0.417429
   1 C :   -0.001652
   2 C :   -0.417487
   3 C :   -0.005629
   4 C :   -0.228283
   5 C :    0.031372
   6 O :   -0.342796
   7 C :   -0.051060
   8 H :    0.124863
   9 H :    0.133094
  10 H :    0.139329
  11 H :    0.089025
  12 H :    0.124879
  13 H :    0.139339
  14 H :    0.133102
  15 H :    0.130810
  16 H :    0.101806
  17 H :    0.101819
  18 H :    0.107468
  19 H :    0.107430
Sum of atomic charges:    0.0000000

LOEWDIN ATOMIC CHARGES
----------------------
   0 C :   -0.284860
   1 C :   -0.270402
   2 C :   -0.284864
   3 C :   -0.154641
   4 C :   -0.146475
   5 C :   -0.289259
   6 O :    0.145624
   7 C :   -0.259272
   8 H :    0.122626
   9 H :    0.123868
  10 H :    0.125772
  11 H :    0.157768
  12 H :    0.122627
  13 H :    0.125773
  14 H :    0.123868
  15 H :    0.140919
  16 H :    0.124058
  17 H :    0.124061
  18 H :    0.126407
  19 H :    0.126402

  Mayer bond orders larger than 0.1
B(  0-C ,  1-C ) :   0.9094 B(  0-C ,  8-H ) :   0.9312 B(  0-C ,  9-H ) :   0.9367
B(  0-C , 10-H ) :   0.9386 B(  1-C ,  2-C ) :   0.9094 B(  1-C ,  3-C ) :   0.8849
B(  1-C , 11-H ) :   0.9349 B(  2-C , 12-H ) :   0.9312 B(  2-C , 13-H ) :   0.9386
B(  2-C , 14-H ) :   0.9367 B(  3-C ,  4-C ) :   1.7505 B(  3-C ,  7-C ) :   0.9603
B(  4-C ,  5-C ) :   0.9824 B(  4-C , 15-H ) :   0.9125 B(  5-C ,  6-O ) :   0.9341
B(  5-C , 16-H ) :   0.9156 B(  5-C , 17-H ) :   0.9156 B(  6-O ,  7-C ) :   0.9432
B(  7-C , 18-H ) :   0.9132 B(  7-C , 19-H ) :   0.9132

MP2 TOTAL ENERGY:     -348.400189850 Eh
FINAL SINGLE POINT ENERGY      -348.400189849628

DIPOLE MOMENT
-------------
                                X             Y             Z
Electronic contribution:      2.45105      -3.08798       6.10646
Nuclear contribution   :     -3.09332       3.14855      -6.53525
                        -----------------------------------------
Total Dipole Moment    :     -0.64227       0.06056      -0.42880
                        -----------------------------------------
Magnitude (a.u.)       :      0.77463
Magnitude (Debye)      :      1.96894

                             ****ORCA TERMINATED NORMALLY****
TOTAL RUN TIME: 0 days 0 hours 14 minutes 25 seconds 992 msec
