                         Program Version 3.0.3 - RELEASE   -
|  1> ! RI-MP2 RIJK def2-TZVP def2-TZVP/C def2-TZVP/JK TIGHTSCF
|  2> % maxcore 2000
|  3> % mp2 density relaxed end
|  4> *xyz 0 1
|  5>  C       -0.0863490551     1.4829161113     0.0724399158
|  6>  C        1.3756613611     1.9625899696    -0.1400530635
|  7>  C        1.8994154924     1.6871151525    -1.6311381070
|  8>  C        1.7455294069     0.1792464243    -1.4868208343
|  9>  C        0.4386962145    -0.1996151233    -1.4502552532
| 10>  C        0.0273091925    -0.1003236893     0.0065086111
| 11>  C        1.3280241252    -0.3405929652     0.7982144274
| 12>  C        2.1569734284     0.9407445896     0.7211454532
| 13>  C        2.4433733881    -0.2175606978    -0.1977227811
| 14>  H       -0.4062148309     1.7622366095     1.0843019584
| 15>  H       -0.8022173312     1.9013924325    -0.6438345499
| 16>  H        1.5216615100     3.0043004216     0.1548258342
| 17>  H        1.2529691007     2.1368738887    -2.3887752538
| 18>  H        2.9222416322     2.0614752718    -1.7485160403
| 19>  H       -0.2677241762     0.1405968202    -2.2063124088
| 20>  H       -0.8632343627    -0.6205716674     0.3677856386
| 21>  H        1.3601668715    -0.9963450103     1.6591658995
| 22>  H        2.8208408268     1.2457913907     1.5208416866
| 23>  H        3.3577593759    -0.7990978190    -0.1765608727
| 24> *
| 25>
| 26>                          ****END OF INPUT****

CARTESIAN COORDINATES (ANGSTROEM)
---------------------------------
  C     -0.086349    1.482916    0.072440
  C      1.375661    1.962590   -0.140053
  C      1.899415    1.687115   -1.631138
  C      1.745529    0.179246   -1.486821
  C      0.438696   -0.199615   -1.450255
  C      0.027309   -0.100324    0.006509
  C      1.328024   -0.340593    0.798214
  C      2.156973    0.940745    0.721145
  C      2.443373   -0.217561   -0.197723
  H     -0.406215    1.762237    1.084302
  H     -0.802217    1.901392   -0.643835
  H      1.521662    3.004300    0.154826
  H      1.252969    2.136874   -2.388775
  H      2.922242    2.061475   -1.748516
  H     -0.267724    0.140597   -2.206312
  H     -0.863234   -0.620572    0.367786
  H      1.360167   -0.996345    1.659166
  H      2.820841    1.245791    1.520842
  H      3.357759   -0.799098   -0.176561

 Total Charge           Charge          ....    0
 Multiplicity           Mult            ....    1
 Number of Electrons    NEL             ....   64
 Basis Dimension        Dim             ....  339

ORBITAL ENERGIES
----------------

  NO   OCC          E(Eh)            E(eV)
   0   2.0000     -11.244785      -305.9862
   1   2.0000     -11.238398      -305.8124
   2   2.0000     -11.237875      -305.7981
   3   2.0000     -11.228259      -305.5365
   4   2.0000     -11.228102      -305.5322
   5   2.0000     -11.226001      -305.4750
   6   2.0000     -11.225839      -305.4706
   7   2.0000     -11.223440      -305.4053
   8   2.0000     -11.221453      -305.3513
   9   2.0000      -1.225788       -33.3554
  10   2.0000      -1.054849       -28.7039
  11   2.0000      -1.018759       -27.7218
  12   2.0000      -1.012224       -27.5440
  13   2.0000      -0.855025       -23.2664
  14   2.0000      -0.827235       -22.5102
  15   2.0000      -0.761772       -20.7289
  16   2.0000      -0.754024       -20.5180
  17   2.0000      -0.723843       -19.6968
  18   2.0000      -0.679459       -18.4890
  19   2.0000      -0.617085       -16.7917
  20   2.0000      -0.600408       -16.3379
  21   2.0000      -0.594886       -16.1877
  22   2.0000      -0.574525       -15.6336
  23   2.0000      -0.506765       -13.7898
  24   2.0000      -0.492038       -13.3890
  25   2.0000      -0.486660       -13.2427
  26   2.0000      -0.482468       -13.1286
  27   2.0000      -0.465803       -12.6751
  28   2.0000      -0.448600       -12.2070
  29   2.0000      -0.402205       -10.9446
  30   2.0000      -0.390826       -10.6349
  31   2.0000      -0.297604        -8.0982
  32   0.0000       0.103165         2.8073
  33   0.0000       0.138991         3.7821
  34   0.0000       0.166849         4.5402
  35   0.0000       0.169736         4.6188
  36   0.0000       0.175750         4.7824

MULLIKEN ATOMIC CHARGES
-----------------------
   0 C :   -0.286007
   1 C :    0.012995
   2 C :   -0.301024
   3 C :    0.129996
   4 C :   -0.244029
   5 C :    0.038180
   6 C :   -0.236857
   7 C :   -0.161457
   8 C :   -0.198099
   9 H :    0.120036
  10 H :    0.122151
  11 H :    0.128008
  12 H :    0.120029
  13 H :    0.115207
  14 H :    0.119123
  15 H :    0.126891
  16 H :    0.130555
  17 H :    0.131473
  18 H :    0.132830
Sum of atomic charges:   -0.0000000

LOEWDIN ATOMIC CHARGES
----------------------
   0 C :   -0.188476
   1 C :   -0.183205
   2 C :   -0.181655
   3 C :   -0.135123
   4 C :   -0.099302
   5 C :   -0.187941
   6 C :   -0.137327
   7 C :   -0.144273
   8 C :   -0.146379
   9 H :    0.146712
  10 H :    0.133650
  11 H :    0.149088
  12 H :    0.137340
  13 H :    0.134089
  14 H :    0.137609
  15 H :    0.141392
  16 H :    0.141619
  17 H :    0.140049
  18 H :    0.142134

  Mayer bond orders larger than 0.1
B(  0-C ,  1-C ) :   0.9355 B(  0-C ,  5-C ) :   0.8586 B(  0-C ,  9-H ) :   0.9021
B(  0-C , 10-H ) :   0.9200 B(  1-C ,  2-C ) :   0.8838 B(  1-C ,  7-C ) :   0.9032
B(  1-C , 11-H ) :   0.9066 B(  2-C ,  3-C ) :   0.9395 B(  2-C , 12-H ) :   0.9184
B(  2-C , 13-H ) :   0.9088 B(  3-C ,  4-C ) :   1.5955 B(  3-C ,  8-C ) :   0.9178
B(  4-C ,  5-C ) :   0.9544 B(  4-C , 14-H ) :   0.9369 B(  5-C ,  6-C ) :   0.8866
B(  5-C , 15-H ) :   0.9067 B(  6-C ,  7-C ) :   0.8800 B(  6-C ,  8-C ) :   0.9072
B(  6-C , 16-H ) :   0.9212 B(  7-C ,  8-C ) :   0.8651 B(  7-C , 17-H ) :   0.9189
B(  8-C , 18-H ) :   0.9224

MP2 TOTAL ENERGY:     -348.055225154 Eh
FINAL SINGLE POINT ENERGY      -348.055225154272

DIPOLE MOMENT
-------------
                                X             Y             Z
Electronic contribution:      1.31596      -2.83061      -0.71687
Nuclear contribution   :     -1.45125       3.29767       1.11399
                        -----------------------------------------
Total Dipole Moment    :     -0.13529       0.46706       0.39712
                        -----------------------------------------
Magnitude (a.u.)       :      0.62782
Magnitude (Debye)      :      1.59579

                             ****ORCA TERMINATED NORMALLY****
TOTAL RUN TIME: 0 days 0 hours 26 minutes 3 seconds 517 msec
