                         Program Version 3.0.3 - RELEASE   -
|  1> ! RI-MP2 RIJK def2-TZVP def2-TZVP/C def2-TZVP/JK TIGHTSCF
|  2> % maxcore 2000
|  3> % mp2 density relaxed end
|  4> *xyz 0 1
|  5>  C       -0.0101406448     1.5516433569     0.1962886278
|  6>  C       -0.1088216302     0.0234780216     0.1635068365
|  7>  C       -1.4979500876    -0.5203389432    -0.2270482095
|  8>  C       -1.9022685169    -0.1477030080    -1.6612753988
|  9>  C       -1.5296488558    -2.0278719899    -0.0419346935
| 10>  C       -1.7563518787    -2.6475775065     1.3021105206
| 11>  C       -2.8324576422    -2.7752977640     0.2305884975
| 12>  C       -4.0654083838    -2.0547560950     0.3771600969
| 13>  N       -5.0605084129    -1.4738725339     0.4885650757
| 14>  H        0.9752971869     1.8690610147     0.5509700416
| 15>  H       -0.1597721303     1.9953813444    -0.7924662183
| 16>  H       -0.7598304657     1.9813141969     0.8701565515
| 17>  H        0.6409470252    -0.3792563457    -0.5317609309
| 18>  H        0.1524207234    -0.3722225333     1.1528427243
| 19>  H       -2.2361562224    -0.0824233121     0.4590261575
| 20>  H       -1.1914613939    -0.5609641749    -2.3872401363
| 21>  H       -2.8961092783    -0.5365109573    -1.9007840055
| 22>  H       -1.9299695386     0.9359869716    -1.8014640934
| 23>  H       -0.8584858157    -2.5700152857    -0.7049433148
| 24>  H       -1.2256467436    -3.5530802717     1.5726085136
| 25>  H       -1.9762584829    -1.9855046389     2.1325011573
| 26>  H       -2.9499919611    -3.7474376258    -0.2361499998
| 27> *
| 28>
| 29>                          ****END OF INPUT****

CARTESIAN COORDINATES (ANGSTROEM)
---------------------------------
  C     -0.010141    1.551643    0.196289
  C     -0.108822    0.023478    0.163507
  C     -1.497950   -0.520339   -0.227048
  C     -1.902269   -0.147703   -1.661275
  C     -1.529649   -2.027872   -0.041935
  C     -1.756352   -2.647578    1.302111
  C     -2.832458   -2.775298    0.230588
  C     -4.065408   -2.054756    0.377160
  N     -5.060508   -1.473873    0.488565
  H      0.975297    1.869061    0.550970
  H     -0.159772    1.995381   -0.792466
  H     -0.759830    1.981314    0.870157
  H      0.640947   -0.379256   -0.531761
  H      0.152421   -0.372223    1.152843
  H     -2.236156   -0.082423    0.459026
  H     -1.191461   -0.560964   -2.387240
  H     -2.896109   -0.536511   -1.900784
  H     -1.929970    0.935987   -1.801464
  H     -0.858486   -2.570015   -0.704943
  H     -1.225647   -3.553080    1.572609
  H     -1.976258   -1.985505    2.132501
  H     -2.949992   -3.747438   -0.236150

 Total Charge           Charge          ....    0
 Multiplicity           Mult            ....    1
 Number of Electrons    NEL             ....   68
 Basis Dimension        Dim             ....  357

ORBITAL ENERGIES
----------------

  NO   OCC          E(Eh)            E(eV)
   0   2.0000     -15.562795      -423.4852
   1   2.0000     -11.281261      -306.9787
   2   2.0000     -11.270346      -306.6817
   3   2.0000     -11.262069      -306.4565
   4   2.0000     -11.257793      -306.3401
   5   2.0000     -11.241249      -305.8899
   6   2.0000     -11.228173      -305.5341
   7   2.0000     -11.218415      -305.2686
   8   2.0000     -11.217638      -305.2474
   9   2.0000      -1.219411       -33.1819
  10   2.0000      -1.177130       -32.0313
  11   2.0000      -1.081832       -29.4381
  12   2.0000      -0.989750       -26.9325
  13   2.0000      -0.921189       -25.0668
  14   2.0000      -0.885605       -24.0985
  15   2.0000      -0.837049       -22.7773
  16   2.0000      -0.786797       -21.4098
  17   2.0000      -0.703100       -19.1323
  18   2.0000      -0.687376       -18.7045
  19   2.0000      -0.630156       -17.1474
  20   2.0000      -0.605948       -16.4887
  21   2.0000      -0.588933       -16.0257
  22   2.0000      -0.567878       -15.4527
  23   2.0000      -0.553549       -15.0628
  24   2.0000      -0.545193       -14.8355
  25   2.0000      -0.540400       -14.7050
  26   2.0000      -0.521853       -14.2003
  27   2.0000      -0.510136       -13.8815
  28   2.0000      -0.490867       -13.3572
  29   2.0000      -0.478657       -13.0249
  30   2.0000      -0.473739       -12.8911
  31   2.0000      -0.463725       -12.6186
  32   2.0000      -0.427551       -11.6343
  33   2.0000      -0.406108       -11.0508
  34   0.0000       0.128705         3.5022
  35   0.0000       0.136909         3.7255
  36   0.0000       0.145710         3.9650
  37   0.0000       0.156029         4.2458
  38   0.0000       0.176916         4.8141

MULLIKEN ATOMIC CHARGES
-----------------------
   0 C :   -0.410061
   1 C :   -0.188996
   2 C :   -0.065896
   3 C :   -0.425847
   4 C :   -0.086521
   5 C :   -0.246579
   6 C :   -0.010496
   7 C :   -0.217033
   8 N :   -0.059719
   9 H :    0.137392
  10 H :    0.130534
  11 H :    0.128544
  12 H :    0.105485
  13 H :    0.116959
  14 H :    0.101097
  15 H :    0.119168
  16 H :    0.151923
  17 H :    0.140308
  18 H :    0.127383
  19 H :    0.147456
  20 H :    0.148540
  21 H :    0.156358
Sum of atomic charges:   -0.0000000

LOEWDIN ATOMIC CHARGES
----------------------
   0 C :   -0.317118
   1 C :   -0.266783
   2 C :   -0.264669
   3 C :   -0.281891
   4 C :   -0.168472
   5 C :   -0.172883
   6 C :   -0.191803
   7 C :   -0.184971
   8 N :    0.056343
   9 H :    0.122446
  10 H :    0.119932
  11 H :    0.122861
  12 H :    0.137545
  13 H :    0.139676
  14 H :    0.162378
  15 H :    0.123952
  16 H :    0.129879
  17 H :    0.124788
  18 H :    0.156865
  19 H :    0.137357
  20 H :    0.145608
  21 H :    0.168962

  Mayer bond orders larger than 0.1
B(  0-C ,  1-C ) :   0.9173 B(  0-C ,  9-H ) :   0.9419 B(  0-C , 10-H ) :   0.9418
B(  0-C , 11-H ) :   0.9381 B(  1-C ,  2-C ) :   0.9148 B(  1-C , 12-H ) :   0.9223
B(  1-C , 13-H ) :   0.9374 B(  2-C ,  3-C ) :   0.9154 B(  2-C ,  4-C ) :   0.9341
B(  2-C , 14-H ) :   0.9215 B(  3-C , 15-H ) :   0.9287 B(  3-C , 16-H ) :   0.9372
B(  3-C , 17-H ) :   0.9403 B(  4-C ,  5-C ) :   0.8919 B(  4-C ,  6-C ) :   0.8433
B(  4-C , 18-H ) :   0.9150 B(  5-C ,  6-C ) :   0.8507 B(  5-C , 19-H ) :   0.9271
B(  5-C , 20-H ) :   0.9217 B(  6-C ,  7-C ) :   0.9743 B(  6-C , 21-H ) :   0.9108
B(  7-C ,  8-N ) :   2.8475

MP2 TOTAL ENERGY:     -366.563864142 Eh
FINAL SINGLE POINT ENERGY      -366.563864141947

DIPOLE MOMENT
-------------
                                X             Y             Z
Electronic contribution:     -9.66878      -6.91263       2.32211
Nuclear contribution   :     11.20867       6.39196      -2.43418
                        -----------------------------------------
Total Dipole Moment    :      1.53989      -0.52067      -0.11207
                        -----------------------------------------
Magnitude (a.u.)       :      1.62939
Magnitude (Debye)      :      4.14158

                             ****ORCA TERMINATED NORMALLY****
TOTAL RUN TIME: 0 days 0 hours 20 minutes 51 seconds 735 msec
