                         Program Version 3.0.3 - RELEASE   -
|  1> ! RI-MP2 RIJK def2-TZVP def2-TZVP/C def2-TZVP/JK TIGHTSCF
|  2> % maxcore 2000
|  3> % mp2 density relaxed end
|  4> *xyz 0 1
|  5>  N        0.0965612287     1.3525069055     0.2454637424
|  6>  C        0.0078412555    -0.0029584278     0.0531047291
|  7>  C       -1.1798461295    -0.6626872989    -0.0172865095
|  8>  C       -1.2933233897    -2.1081140103    -0.0712450474
|  9>  O       -2.3591705361    -2.6809582891    -0.2386037480
| 10>  C       -0.0203032964    -2.9355778029     0.1621078703
| 11>  C        1.2939325147    -2.2196628674    -0.0660955389
| 12>  C        1.5852489429    -1.4877546853    -1.3414229731
| 13>  C        1.3064434574    -0.7053069264    -0.0620489166
| 14>  H        0.9274713455     1.8202227661    -0.0804795742
| 15>  H       -0.7509372941     1.8920021672     0.1582769425
| 16>  H       -2.1160825956    -0.1122981435    -0.0316037960
| 17>  H       -0.0717343964    -3.2742375067     1.2052078940
| 18>  H       -0.0956276375    -3.8374657367    -0.4533647124
| 19>  H        2.1530566034    -2.6842177613     0.4082851912
| 20>  H        2.6030713249    -1.4897744352    -1.7160863712
| 21>  H        0.8153820934    -1.4549677476    -2.1048042493
| 22>  H        2.1467023790    -0.2014636897     0.4054601173
| 23> *
| 24>
| 25>                          ****END OF INPUT****

CARTESIAN COORDINATES (ANGSTROEM)
---------------------------------
  N      0.096561    1.352507    0.245464
  C      0.007841   -0.002958    0.053105
  C     -1.179846   -0.662687   -0.017287
  C     -1.293323   -2.108114   -0.071245
  O     -2.359171   -2.680958   -0.238604
  C     -0.020303   -2.935578    0.162108
  C      1.293933   -2.219663   -0.066096
  C      1.585249   -1.487755   -1.341423
  C      1.306443   -0.705307   -0.062049
  H      0.927471    1.820223   -0.080480
  H     -0.750937    1.892002    0.158277
  H     -2.116083   -0.112298   -0.031604
  H     -0.071734   -3.274238    1.205208
  H     -0.095628   -3.837466   -0.453365
  H      2.153057   -2.684218    0.408285
  H      2.603071   -1.489774   -1.716086
  H      0.815382   -1.454968   -2.104804
  H      2.146702   -0.201464    0.405460

 Total Charge           Charge          ....    0
 Multiplicity           Mult            ....    1
 Number of Electrons    NEL             ....   66
 Basis Dimension        Dim             ....  333

ORBITAL ENERGIES
----------------

  NO   OCC          E(Eh)            E(eV)
   0   2.0000     -20.506406      -558.0077
   1   2.0000     -15.590442      -424.2375
   2   2.0000     -11.312060      -307.8168
   3   2.0000     -11.308900      -307.7308
   4   2.0000     -11.256704      -306.3105
   5   2.0000     -11.253262      -306.2168
   6   2.0000     -11.247238      -306.0529
   7   2.0000     -11.231114      -305.6142
   8   2.0000     -11.203708      -304.8684
   9   2.0000      -1.350429       -36.7471
  10   2.0000      -1.254329       -34.1320
  11   2.0000      -1.173267       -31.9262
  12   2.0000      -1.037191       -28.2234
  13   2.0000      -0.998518       -27.1711
  14   2.0000      -0.889451       -24.2032
  15   2.0000      -0.821240       -22.3471
  16   2.0000      -0.807982       -21.9863
  17   2.0000      -0.717538       -19.5252
  18   2.0000      -0.710961       -19.3462
  19   2.0000      -0.684837       -18.6354
  20   2.0000      -0.638317       -17.3695
  21   2.0000      -0.636744       -17.3267
  22   2.0000      -0.603496       -16.4220
  23   2.0000      -0.589604       -16.0439
  24   2.0000      -0.561024       -15.2662
  25   2.0000      -0.540454       -14.7065
  26   2.0000      -0.524192       -14.2640
  27   2.0000      -0.516576       -14.0568
  28   2.0000      -0.486934       -13.2501
  29   2.0000      -0.432100       -11.7580
  30   2.0000      -0.426789       -11.6135
  31   2.0000      -0.389052       -10.5866
  32   2.0000      -0.322221        -8.7681
  33   0.0000       0.114855         3.1254
  34   0.0000       0.123648         3.3646
  35   0.0000       0.139227         3.7885
  36   0.0000       0.160509         4.3677
  37   0.0000       0.172440         4.6923

MULLIKEN ATOMIC CHARGES
-----------------------
   0 N :   -0.498607
   1 C :    0.254577
   2 C :   -0.320543
   3 C :    0.155406
   4 O :   -0.328225
   5 C :   -0.197442
   6 C :   -0.095864
   7 C :   -0.277534
   8 C :   -0.130299
   9 H :    0.257906
  10 H :    0.254622
  11 H :    0.106531
  12 H :    0.134223
  13 H :    0.132559
  14 H :    0.128758
  15 H :    0.137624
  16 H :    0.150121
  17 H :    0.136187
Sum of atomic charges:   -0.0000000

LOEWDIN ATOMIC CHARGES
----------------------
   0 N :   -0.018711
   1 C :   -0.225536
   2 C :   -0.162418
   3 C :   -0.348518
   4 O :    0.107858
   5 C :   -0.203292
   6 C :   -0.192870
   7 C :   -0.183660
   8 C :   -0.162873
   9 H :    0.172353
  10 H :    0.173248
  11 H :    0.149297
  12 H :    0.158785
  13 H :    0.154259
  14 H :    0.152280
  15 H :    0.133833
  16 H :    0.143588
  17 H :    0.152377

  Mayer bond orders larger than 0.1
B(  0-N ,  1-C ) :   1.0958 B(  0-N ,  9-H ) :   0.8694 B(  0-N , 10-H ) :   0.8731
B(  1-C ,  2-C ) :   1.4565 B(  1-C ,  8-C ) :   0.9554 B(  2-C ,  3-C ) :   1.1156
B(  2-C , 11-H ) :   0.9337 B(  3-C ,  4-O ) :   1.9419 B(  3-C ,  5-C ) :   0.9185
B(  5-C ,  6-C ) :   0.9141 B(  5-C , 12-H ) :   0.9025 B(  5-C , 13-H ) :   0.9137
B(  6-C ,  7-C ) :   0.8892 B(  6-C ,  8-C ) :   0.8706 B(  6-C , 14-H ) :   0.9270
B(  7-C ,  8-C ) :   0.8231 B(  7-C , 15-H ) :   0.9278 B(  7-C , 16-H ) :   0.9232
B(  8-C , 17-H ) :   0.9223

MP2 TOTAL ENERGY:     -401.284509492 Eh
FINAL SINGLE POINT ENERGY      -401.284509492066

DIPOLE MOMENT
-------------
                                X             Y             Z
Electronic contribution:     -4.29531      -0.47043       0.70924
Nuclear contribution   :      5.93907       1.85157      -0.78711
                        -----------------------------------------
Total Dipole Moment    :      1.64377       1.38113      -0.07788
                        -----------------------------------------
Magnitude (a.u.)       :      2.14839
Magnitude (Debye)      :      5.46076

                             ****ORCA TERMINATED NORMALLY****
TOTAL RUN TIME: 0 days 0 hours 18 minutes 41 seconds 561 msec
