                         Program Version 3.0.3 - RELEASE   -
|  1> ! RI-MP2 RIJK def2-TZVP def2-TZVP/C def2-TZVP/JK TIGHTSCF
|  2> % maxcore 2000
|  3> % mp2 density relaxed end
|  4> *xyz 0 1
|  5>  C        0.0526916397     1.1968520179     0.2702095077
|  6>  O       -0.1130019182    -0.1484118225    -0.1212594114
|  7>  C        0.5994821504    -0.5071409907    -1.2878369506
|  8>  C        2.0888619720    -0.7974326243    -1.0025971100
|  9>  O        2.1619399320    -2.1780839502    -0.6281975963
| 10>  C        1.0483927615    -2.8560417963    -1.0305990350
| 11>  O        0.9131812524    -4.0291933513    -0.8504504382
| 12>  C        0.1024578814    -1.8815747033    -1.7238558252
| 13>  H        1.0917368016     1.4343443667     0.5420789170
| 14>  H       -0.2623506065     1.8889321958    -0.5260193005
| 15>  H       -0.5780942215     1.3540549928     1.1476273661
| 16>  H        0.4835081422     0.2670517754    -2.0589611935
| 17>  H        2.7090728008    -0.6320888012    -1.8919612026
| 18>  H        2.4864034798    -0.2020289159    -0.1780981733
| 19>  H       -0.9327830044    -2.0653334966    -1.4378032367
| 20>  H        0.1958880769    -2.0212192363    -2.8057376476
| 21> *
| 22>
| 23>                          ****END OF INPUT****

CARTESIAN COORDINATES (ANGSTROEM)
---------------------------------
  C      0.052692    1.196852    0.270210
  O     -0.113002   -0.148412   -0.121259
  C      0.599482   -0.507141   -1.287837
  C      2.088862   -0.797433   -1.002597
  O      2.161940   -2.178084   -0.628198
  C      1.048393   -2.856042   -1.030599
  O      0.913181   -4.029193   -0.850450
  C      0.102458   -1.881575   -1.723856
  H      1.091737    1.434344    0.542079
  H     -0.262351    1.888932   -0.526019
  H     -0.578094    1.354055    1.147627
  H      0.483508    0.267052   -2.058961
  H      2.709073   -0.632089   -1.891961
  H      2.486403   -0.202029   -0.178098
  H     -0.932783   -2.065333   -1.437803
  H      0.195888   -2.021219   -2.805738

 Total Charge           Charge          ....    0
 Multiplicity           Mult            ....    1
 Number of Electrons    NEL             ....   62
 Basis Dimension        Dim             ....  296

ORBITAL ENERGIES
----------------

  NO   OCC          E(Eh)            E(eV)
   0   2.0000     -20.601092      -560.5842
   1   2.0000     -20.578797      -559.9775
   2   2.0000     -20.538634      -558.8846
   3   2.0000     -11.377725      -309.6036
   4   2.0000     -11.312325      -307.8240
   5   2.0000     -11.304508      -307.6113
   6   2.0000     -11.289840      -307.2122
   7   2.0000     -11.255263      -306.2713
   8   2.0000      -1.458945       -39.6999
   9   2.0000      -1.400781       -38.1172
  10   2.0000      -1.365486       -37.1568
  11   2.0000      -1.087306       -29.5871
  12   2.0000      -0.993062       -27.0226
  13   2.0000      -0.945408       -25.7259
  14   2.0000      -0.840132       -22.8611
  15   2.0000      -0.784951       -21.3596
  16   2.0000      -0.723434       -19.6856
  17   2.0000      -0.701100       -19.0779
  18   2.0000      -0.671335       -18.2680
  19   2.0000      -0.659152       -17.9364
  20   2.0000      -0.646069       -17.5804
  21   2.0000      -0.632174       -17.2023
  22   2.0000      -0.592136       -16.1129
  23   2.0000      -0.572340       -15.5742
  24   2.0000      -0.543977       -14.8024
  25   2.0000      -0.540911       -14.7189
  26   2.0000      -0.528808       -14.3896
  27   2.0000      -0.502735       -13.6801
  28   2.0000      -0.458818       -12.4851
  29   2.0000      -0.443561       -12.0699
  30   2.0000      -0.433570       -11.7980
  31   0.0000       0.123682         3.3655
  32   0.0000       0.145589         3.9617
  33   0.0000       0.160053         4.3553
  34   0.0000       0.171854         4.6764
  35   0.0000       0.177298         4.8245

MULLIKEN ATOMIC CHARGES
-----------------------
   0 C :   -0.227473
   1 O :   -0.309194
   2 C :    0.034770
   3 C :   -0.053464
   4 O :   -0.221194
   5 C :    0.229036
   6 O :   -0.280937
   7 C :   -0.188689
   8 H :    0.109186
   9 H :    0.118256
  10 H :    0.150290
  11 H :    0.099721
  12 H :    0.115716
  13 H :    0.125601
  14 H :    0.152475
  15 H :    0.145900
Sum of atomic charges:    0.0000000

LOEWDIN ATOMIC CHARGES
----------------------
   0 C :   -0.352314
   1 O :    0.162674
   2 C :   -0.326749
   3 C :   -0.253510
   4 O :    0.253107
   5 C :   -0.461461
   6 O :    0.141768
   7 C :   -0.203405
   8 H :    0.100628
   9 H :    0.103723
  10 H :    0.117977
  11 H :    0.136567
  12 H :    0.128437
  13 H :    0.132209
  14 H :    0.160025
  15 H :    0.160324

  Mayer bond orders larger than 0.1
B(  0-C ,  1-O ) :   0.9105 B(  0-C ,  8-H ) :   0.9316 B(  0-C ,  9-H ) :   0.9377
B(  0-C , 10-H ) :   0.9396 B(  1-O ,  2-C ) :   0.9493 B(  2-C ,  3-C ) :   0.9323
B(  2-C ,  7-C ) :   0.9099 B(  2-C , 11-H ) :   0.9306 B(  3-C ,  4-O ) :   0.8832
B(  3-C , 12-H ) :   0.9169 B(  3-C , 13-H ) :   0.9273 B(  4-O ,  5-C ) :   1.0957
B(  5-C ,  6-O ) :   2.0435 B(  5-C ,  7-C ) :   0.9347 B(  7-C , 14-H ) :   0.9025
B(  7-C , 15-H ) :   0.9028

MP2 TOTAL ENERGY:     -420.244450147 Eh
FINAL SINGLE POINT ENERGY      -420.244450147141

DIPOLE MOMENT
-------------
                                X             Y             Z
Electronic contribution:      1.47584      -8.30595       0.25062
Nuclear contribution   :     -1.54494      10.32211      -0.92133
                        -----------------------------------------
Total Dipole Moment    :     -0.06910       2.01616      -0.67071
                        -----------------------------------------
Magnitude (a.u.)       :      2.12592
Magnitude (Debye)      :      5.40365

                             ****ORCA TERMINATED NORMALLY****
TOTAL RUN TIME: 0 days 0 hours 10 minutes 38 seconds 57 msec
