                         Program Version 3.0.3 - RELEASE   -
|  1> ! RI-MP2 RIJK def2-TZVP def2-TZVP/C def2-TZVP/JK TIGHTSCF
|  2> % maxcore 2000
|  3> % mp2 density relaxed end
|  4> *xyz 0 1
|  5>  N       -0.4027363247     1.4570969158    -0.3663127518
|  6>  C       -0.0132698014     0.0862869737    -0.2736848014
|  7>  C       -0.9135579936    -0.8691740990     0.1406373056
|  8>  O       -2.1993955454    -0.7271892294     0.5194450535
|  9>  N       -0.3095425866    -2.0868445305     0.1365975597
| 10>  C        1.0157540644    -1.9375537997    -0.2638145782
| 11>  C        1.9128438441    -3.1202302072    -0.3613802413
| 12>  O        1.9513466921    -3.8913114562     0.8433426364
| 13>  C        1.2173369101    -0.6025143932    -0.5238431022
| 14>  H       -0.3128872756     1.8137979562    -1.3131096990
| 15>  H        0.1683094044     2.0535475811     0.2250822521
| 16>  H       -2.3721733714     0.2234219990     0.4376160703
| 17>  H       -0.7142270854    -2.9414148125     0.4794269289
| 18>  H        1.5715990639    -3.8318645763    -1.1241920503
| 19>  H        2.9135343820    -2.7780275339    -0.6627873056
| 20>  H        2.1888383589    -3.2849486933     1.5538187762
| 21>  H        2.1423978243    -0.1669433247    -0.8735916531
| 22> *
| 23>
| 24>                          ****END OF INPUT****

CARTESIAN COORDINATES (ANGSTROEM)
---------------------------------
  N     -0.402736    1.457097   -0.366313
  C     -0.013270    0.086287   -0.273685
  C     -0.913558   -0.869174    0.140637
  O     -2.199396   -0.727189    0.519445
  N     -0.309543   -2.086845    0.136598
  C      1.015754   -1.937554   -0.263815
  C      1.912844   -3.120230   -0.361380
  O      1.951347   -3.891311    0.843343
  C      1.217337   -0.602514   -0.523843
  H     -0.312887    1.813798   -1.313110
  H      0.168309    2.053548    0.225082
  H     -2.372173    0.223422    0.437616
  H     -0.714227   -2.941415    0.479427
  H      1.571599   -3.831865   -1.124192
  H      2.913534   -2.778028   -0.662787
  H      2.188838   -3.284949    1.553819
  H      2.142398   -0.166943   -0.873592

 Total Charge           Charge          ....    0
 Multiplicity           Mult            ....    1
 Number of Electrons    NEL             ....   68
 Basis Dimension        Dim             ....  327

ORBITAL ENERGIES
----------------

  NO   OCC          E(Eh)            E(eV)
   0   2.0000     -20.591182      -560.3146
   1   2.0000     -20.558761      -559.4323
   2   2.0000     -15.598901      -424.4677
   3   2.0000     -15.557080      -423.3297
   4   2.0000     -11.314389      -307.8802
   5   2.0000     -11.286106      -307.1105
   6   2.0000     -11.251306      -306.1636
   7   2.0000     -11.230598      -305.6001
   8   2.0000     -11.217872      -305.2538
   9   2.0000      -1.417227       -38.5647
  10   2.0000      -1.361456       -37.0471
  11   2.0000      -1.283535       -34.9268
  12   2.0000      -1.186333       -32.2818
  13   2.0000      -1.035650       -28.1815
  14   2.0000      -0.999293       -27.1921
  15   2.0000      -0.897130       -24.4122
  16   2.0000      -0.804095       -21.8805
  17   2.0000      -0.781907       -21.2768
  18   2.0000      -0.736499       -20.0412
  19   2.0000      -0.690054       -18.7773
  20   2.0000      -0.663773       -18.0622
  21   2.0000      -0.654935       -17.8217
  22   2.0000      -0.620752       -16.8915
  23   2.0000      -0.609040       -16.5728
  24   2.0000      -0.606872       -16.5138
  25   2.0000      -0.596246       -16.2247
  26   2.0000      -0.588087       -16.0027
  27   2.0000      -0.537531       -14.6270
  28   2.0000      -0.518971       -14.1219
  29   2.0000      -0.508875       -13.8472
  30   2.0000      -0.460024       -12.5179
  31   2.0000      -0.417281       -11.3548
  32   2.0000      -0.353159        -9.6099
  33   2.0000      -0.277134        -7.5412
  34   0.0000       0.128362         3.4929
  35   0.0000       0.137940         3.7535
  36   0.0000       0.167670         4.5625
  37   0.0000       0.168804         4.5934
  38   0.0000       0.179409         4.8820

MULLIKEN ATOMIC CHARGES
-----------------------
   0 N :   -0.607294
   1 C :    0.124414
   2 C :    0.186832
   3 O :   -0.439242
   4 N :   -0.269036
   5 C :    0.040219
   6 C :   -0.014919
   7 O :   -0.475334
   8 C :   -0.319836
   9 H :    0.248298
  10 H :    0.247521
  11 H :    0.352581
  12 H :    0.255363
  13 H :    0.118266
  14 H :    0.115946
  15 H :    0.313074
  16 H :    0.123145
Sum of atomic charges:    0.0000000

LOEWDIN ATOMIC CHARGES
----------------------
   0 N :   -0.135497
   1 C :   -0.300958
   2 C :   -0.352784
   3 O :    0.067137
   4 N :    0.219529
   5 C :   -0.254524
   6 C :   -0.319728
   7 O :   -0.062393
   8 C :   -0.167343
   9 H :    0.162454
  10 H :    0.162196
  11 H :    0.207728
  12 H :    0.199234
  13 H :    0.133827
  14 H :    0.129558
  15 H :    0.172322
  16 H :    0.139243

  Mayer bond orders larger than 0.1
B(  0-N ,  1-C ) :   0.9479 B(  0-N ,  9-H ) :   0.8935 B(  0-N , 10-H ) :   0.8937
B(  1-C ,  2-C ) :   1.4373 B(  1-C ,  8-C ) :   1.1921 B(  2-C ,  3-O ) :   1.1477
B(  2-C ,  4-N ) :   1.1881 B(  3-O , 11-H ) :   0.8047 B(  4-N ,  5-C ) :   1.0570
B(  4-N , 12-H ) :   0.8617 B(  5-C ,  6-C ) :   0.9352 B(  5-C ,  8-C ) :   1.4812
B(  6-C ,  7-O ) :   0.8797 B(  6-C , 13-H ) :   0.9148 B(  6-C , 14-H ) :   0.9546
B(  7-O , 15-H ) :   0.8428 B(  8-C , 16-H ) :   0.9279

MP2 TOTAL ENERGY:     -454.438791480 Eh
FINAL SINGLE POINT ENERGY      -454.438791480050

DIPOLE MOMENT
-------------
                                X             Y             Z
Electronic contribution:     -3.14196      -0.75562       1.19506
Nuclear contribution   :      3.44513       1.52470      -1.29166
                        -----------------------------------------
Total Dipole Moment    :      0.30317       0.76909      -0.09661
                        -----------------------------------------
Magnitude (a.u.)       :      0.83231
Magnitude (Debye)      :      2.11556

                             ****ORCA TERMINATED NORMALLY****
TOTAL RUN TIME: 0 days 0 hours 14 minutes 7 seconds 940 msec
