                         Program Version 3.0.3 - RELEASE   -
|  1> ! RI-MP2 RIJK def2-TZVP def2-TZVP/C def2-TZVP/JK TIGHTSCF
|  2> % maxcore 2000
|  3> % mp2 density relaxed end
|  4> *xyz 0 1
|  5>  C       -0.0532825840     1.4746866358     0.0099805309
|  6>  O        1.2358514737     0.8778916713     0.0066201437
|  7>  C        0.0736332694     0.0013295828     0.0210407108
|  8>  C       -0.1471200266    -0.7131695352     1.3362802469
|  9>  C        0.6362057462    -2.0331481084     1.4684721436
| 10>  C        0.0132609299    -3.1770583310     0.7194030153
| 11>  C       -0.4317632063    -3.1316034020    -0.5451487139
| 12>  C       -0.3668785802    -2.0134036253    -1.4783021138
| 13>  C       -0.1256557454    -0.7088167272    -1.2618182540
| 14>  H       -0.3364264285     1.9894403564     0.9279620961
| 15>  H       -0.3398632349     1.9851434149    -0.9093044490
| 16>  H        0.1567890193    -0.0287925647     2.1343365213
| 17>  H       -1.2181294282    -0.9118787350     1.4638945854
| 18>  H        1.6657563873    -1.8648236267     1.1199329514
| 19>  H        0.7146646637    -2.2971169159     2.5277104988
| 20>  H       -0.0804970244    -4.1181461110     1.2556034873
| 21>  H       -0.8474761383    -4.0451720325    -0.9640568720
| 22>  H       -0.5269343303    -2.2958150489    -2.5172046053
| 23>  H       -0.0670709524    -0.0588084076    -2.1314448637
| 24> *
| 25>
| 26>                          ****END OF INPUT****

CARTESIAN COORDINATES (ANGSTROEM)
---------------------------------
  C     -0.053283    1.474687    0.009981
  O      1.235851    0.877892    0.006620
  C      0.073633    0.001330    0.021041
  C     -0.147120   -0.713170    1.336280
  C      0.636206   -2.033148    1.468472
  C      0.013261   -3.177058    0.719403
  C     -0.431763   -3.131603   -0.545149
  C     -0.366879   -2.013404   -1.478302
  C     -0.125656   -0.708817   -1.261818
  H     -0.336426    1.989440    0.927962
  H     -0.339863    1.985143   -0.909304
  H      0.156789   -0.028793    2.134337
  H     -1.218129   -0.911879    1.463895
  H      1.665756   -1.864824    1.119933
  H      0.714665   -2.297117    2.527710
  H     -0.080497   -4.118146    1.255603
  H     -0.847476   -4.045172   -0.964057
  H     -0.526934   -2.295815   -2.517205
  H     -0.067071   -0.058808   -2.131445

 Total Charge           Charge          ....    0
 Multiplicity           Mult            ....    1
 Number of Electrons    NEL             ....   66
 Basis Dimension        Dim             ....  339

ORBITAL ENERGIES
----------------

  NO   OCC          E(Eh)            E(eV)
   0   2.0000     -20.565218      -559.6080
   1   2.0000     -11.294593      -307.3415
   2   2.0000     -11.282151      -307.0029
   3   2.0000     -11.239327      -305.8376
   4   2.0000     -11.236584      -305.7630
   5   2.0000     -11.236372      -305.7572
   6   2.0000     -11.232132      -305.6418
   7   2.0000     -11.230581      -305.5996
   8   2.0000     -11.229946      -305.5824
   9   2.0000      -1.407218       -38.2923
  10   2.0000      -1.120117       -30.4799
  11   2.0000      -1.044612       -28.4253
  12   2.0000      -1.027010       -27.9464
  13   2.0000      -0.919872       -25.0310
  14   2.0000      -0.889417       -24.2023
  15   2.0000      -0.862498       -23.4698
  16   2.0000      -0.757633       -20.6162
  17   2.0000      -0.716402       -19.4943
  18   2.0000      -0.690011       -18.7762
  19   2.0000      -0.659829       -17.9549
  20   2.0000      -0.633754       -17.2453
  21   2.0000      -0.605696       -16.4818
  22   2.0000      -0.593878       -16.1603
  23   2.0000      -0.569517       -15.4973
  24   2.0000      -0.547681       -14.9032
  25   2.0000      -0.524908       -14.2835
  26   2.0000      -0.511526       -13.9193
  27   2.0000      -0.503413       -13.6986
  28   2.0000      -0.472237       -12.8502
  29   2.0000      -0.456518       -12.4225
  30   2.0000      -0.442690       -12.0462
  31   2.0000      -0.406519       -11.0619
  32   2.0000      -0.313683        -8.5357
  33   0.0000       0.096749         2.6327
  34   0.0000       0.142938         3.8895
  35   0.0000       0.163580         4.4512
  36   0.0000       0.167098         4.5470
  37   0.0000       0.181994         4.9523

MULLIKEN ATOMIC CHARGES
-----------------------
   0 C :   -0.080496
   1 O :   -0.333687
   2 C :    0.246105
   3 C :   -0.179078
   4 C :   -0.185750
   5 C :   -0.187554
   6 C :   -0.148955
   7 C :   -0.114731
   8 C :   -0.253397
   9 H :    0.113721
  10 H :    0.113835
  11 H :    0.125619
  12 H :    0.124988
  13 H :    0.141227
  14 H :    0.132069
  15 H :    0.120365
  16 H :    0.120700
  17 H :    0.122554
  18 H :    0.122467
Sum of atomic charges:    0.0000000

LOEWDIN ATOMIC CHARGES
----------------------
   0 C :   -0.247479
   1 O :    0.162982
   2 C :   -0.303986
   3 C :   -0.209304
   4 C :   -0.243539
   5 C :   -0.156803
   6 C :   -0.174462
   7 C :   -0.152844
   8 C :   -0.120498
   9 H :    0.120807
  10 H :    0.120410
  11 H :    0.150587
  12 H :    0.151440
  13 H :    0.157787
  14 H :    0.143585
  15 H :    0.143708
  16 H :    0.149648
  17 H :    0.152952
  18 H :    0.155008

  Mayer bond orders larger than 0.1
B(  0-C ,  1-O ) :   0.9148 B(  0-C ,  2-C ) :   0.9518 B(  0-C ,  9-H ) :   0.9023
B(  0-C , 10-H ) :   0.9092 B(  1-O ,  2-C ) :   0.7743 B(  2-C ,  3-C ) :   0.9072
B(  2-C ,  8-C ) :   0.9729 B(  3-C ,  4-C ) :   0.8818 B(  3-C , 11-H ) :   0.9239
B(  3-C , 12-H ) :   0.9264 B(  4-C ,  5-C ) :   0.9656 B(  4-C , 13-H ) :   0.9089
B(  4-C , 14-H ) :   0.9335 B(  5-C ,  6-C ) :   1.7257 B(  5-C , 15-H ) :   0.9307
B(  6-C ,  7-C ) :   1.0213 B(  6-C , 16-H ) :   0.9264 B(  7-C ,  8-C ) :   1.7391
B(  7-C , 17-H ) :   0.9221 B(  8-C , 18-H ) :   0.9155

MP2 TOTAL ENERGY:     -385.194035059 Eh
FINAL SINGLE POINT ENERGY      -385.194035058526

DIPOLE MOMENT
-------------
                                X             Y             Z
Electronic contribution:      1.24784       1.47046      -2.06344
Nuclear contribution   :     -1.88819      -1.57380       2.24487
                        -----------------------------------------
Total Dipole Moment    :     -0.64035      -0.10334       0.18143
                        -----------------------------------------
Magnitude (a.u.)       :      0.67353
Magnitude (Debye)      :      1.71198

                             ****ORCA TERMINATED NORMALLY****
TOTAL RUN TIME: 0 days 0 hours 18 minutes 21 seconds 907 msec
