                         Program Version 3.0.3 - RELEASE   -
|  1> ! RI-MP2 RIJK def2-TZVP def2-TZVP/C def2-TZVP/JK TIGHTSCF
|  2> % maxcore 2000
|  3> % mp2 density relaxed end
|  4> *xyz 0 1
|  5>  C       -0.0252290851     1.4891063464     0.0318204351
|  6>  C       -0.0524951088    -0.0190251544     0.0023891965
|  7>  O       -0.1056898025    -0.7025433131     1.0307369747
|  8>  C       -0.0160577706    -0.7172802514    -1.2492445316
|  9>  C       -0.0338649157    -2.0840815529    -1.4342722180
| 10>  O       -0.0878240203    -3.0103767951    -0.4962530120
| 11>  N        0.0134384364    -2.3787355788    -2.7730368400
| 12>  C        0.0571698465    -1.2074533361    -3.3375856738
| 13>  O        0.0439679855    -0.1509027988    -2.5114844577
| 14>  H        0.8864299787     1.8629497304    -0.4463473024
| 15>  H       -0.8712834966     1.8974319108    -0.5310149494
| 16>  H       -0.0677452665     1.8315386900     1.0660128939
| 17>  H       -0.1120390039    -2.5092576087     0.3502046398
| 18>  H        0.1026751827    -0.9954458282    -4.3950082852
| 19> *
| 20>
| 21>                          ****END OF INPUT****

CARTESIAN COORDINATES (ANGSTROEM)
---------------------------------
  C     -0.025229    1.489106    0.031820
  C     -0.052495   -0.019025    0.002389
  O     -0.105690   -0.702543    1.030737
  C     -0.016058   -0.717280   -1.249245
  C     -0.033865   -2.084082   -1.434272
  O     -0.087824   -3.010377   -0.496253
  N      0.013438   -2.378736   -2.773037
  C      0.057170   -1.207453   -3.337586
  O      0.043968   -0.150903   -2.511484
  H      0.886430    1.862950   -0.446347
  H     -0.871283    1.897432   -0.531015
  H     -0.067745    1.831539    1.066013
  H     -0.112039   -2.509258    0.350205
  H      0.102675   -0.995446   -4.395008

 Total Charge           Charge          ....    0
 Multiplicity           Mult            ....    1
 Number of Electrons    NEL             ....   66
 Basis Dimension        Dim             ....  309

ORBITAL ENERGIES
----------------

  NO   OCC          E(Eh)            E(eV)
   0   2.0000     -20.663302      -562.2770
   1   2.0000     -20.609024      -560.8000
   2   2.0000     -20.550956      -559.2199
   3   2.0000     -15.591251      -424.2595
   4   2.0000     -11.377333      -309.5930
   5   2.0000     -11.364662      -309.2482
   6   2.0000     -11.355723      -309.0049
   7   2.0000     -11.289962      -307.2155
   8   2.0000     -11.247336      -306.0556
   9   2.0000      -1.514619       -41.2149
  10   2.0000      -1.442074       -39.2408
  11   2.0000      -1.390003       -37.8239
  12   2.0000      -1.262965       -34.3670
  13   2.0000      -1.074662       -29.2430
  14   2.0000      -1.014850       -27.6155
  15   2.0000      -0.899969       -24.4894
  16   2.0000      -0.857083       -23.3224
  17   2.0000      -0.823500       -22.4086
  18   2.0000      -0.737342       -20.0641
  19   2.0000      -0.707776       -19.2596
  20   2.0000      -0.698326       -19.0024
  21   2.0000      -0.660139       -17.9633
  22   2.0000      -0.654884       -17.8203
  23   2.0000      -0.626052       -17.0357
  24   2.0000      -0.610405       -16.6100
  25   2.0000      -0.601306       -16.3624
  26   2.0000      -0.572952       -15.5908
  27   2.0000      -0.569680       -15.5018
  28   2.0000      -0.521079       -14.1793
  29   2.0000      -0.493125       -13.4186
  30   2.0000      -0.462490       -12.5850
  31   2.0000      -0.441603       -12.0166
  32   2.0000      -0.347072        -9.4443
  33   0.0000       0.072509         1.9731
  34   0.0000       0.133975         3.6456
  35   0.0000       0.156180         4.2499
  36   0.0000       0.159808         4.3486
  37   0.0000       0.183015         4.9801

MULLIKEN ATOMIC CHARGES
-----------------------
   0 C :   -0.402220
   1 C :    0.290788
   2 O :   -0.396867
   3 C :    0.025131
   4 C :    0.202677
   5 O :   -0.381682
   6 N :   -0.248720
   7 C :    0.122732
   8 O :   -0.208908
   9 H :    0.153921
  10 H :    0.153804
  11 H :    0.161984
  12 H :    0.360858
  13 H :    0.166502
Sum of atomic charges:    0.0000000

LOEWDIN ATOMIC CHARGES
----------------------
   0 C :   -0.261807
   1 C :   -0.340787
   2 O :    0.100625
   3 C :   -0.237219
   4 C :   -0.355489
   5 O :    0.132436
   6 N :    0.138889
   7 C :   -0.302366
   8 O :    0.355118
   9 H :    0.142329
  10 H :    0.142115
  11 H :    0.138269
  12 H :    0.210258
  13 H :    0.137629

  Mayer bond orders larger than 0.1
B(  0-C ,  1-C ) :   0.9572 B(  0-C ,  9-H ) :   0.9118 B(  0-C , 10-H ) :   0.9123
B(  0-C , 11-H ) :   0.9370 B(  1-C ,  2-O ) :   1.7335 B(  1-C ,  3-C ) :   1.0025
B(  3-C ,  4-C ) :   1.3878 B(  3-C ,  8-O ) :   0.9575 B(  4-C ,  5-O ) :   1.2131
B(  4-C ,  6-N ) :   1.2620 B(  5-O , 12-H ) :   0.7586 B(  6-N ,  7-C ) :   1.5768
B(  7-C ,  8-O ) :   1.1299 B(  7-C , 13-H ) :   0.9266

MP2 TOTAL ENERGY:     -473.124937349 Eh
FINAL SINGLE POINT ENERGY      -473.124937348913

DIPOLE MOMENT
-------------
                                X             Y             Z
Electronic contribution:     -0.01006      -5.15120      -2.22113
Nuclear contribution   :      0.05586       6.49539       1.70342
                        -----------------------------------------
Total Dipole Moment    :      0.04580       1.34419      -0.51771
                        -----------------------------------------
Magnitude (a.u.)       :      1.44117
Magnitude (Debye)      :      3.66316

                             ****ORCA TERMINATED NORMALLY****
TOTAL RUN TIME: 0 days 0 hours 14 minutes 29 seconds 940 msec
