                         Program Version 3.0.3 - RELEASE   -
|  1> ! RI-MP2 RIJK def2-TZVP def2-TZVP/C def2-TZVP/JK TIGHTSCF
|  2> % maxcore 2000
|  3> % mp2 density relaxed end
|  4> *xyz 0 1
|  5>  O        0.1300474563     1.2862340367     0.1503765641
|  6>  C        0.1091191455    -0.0496632530     0.0175727550
|  7>  N        0.0774920584    -0.7248583888    -1.0957809506
|  8>  C       -0.0030403905    -2.0422512135    -0.6556933179
|  9>  C       -0.0335854106    -2.1011712849     0.7154380747
| 10>  N        0.0556200743    -3.4226572690     1.0614491423
| 11>  C        0.0612619571    -4.0967123048    -0.1576822247
| 12>  N        0.0482385117    -3.2989281768    -1.2028561668
| 13>  N        0.1021709693    -0.8058663394     1.1823006768
| 14>  H        0.1085069665     1.6445773297    -0.7462793571
| 15>  H       -0.0350573292    -3.8473557351     1.9680211916
| 16>  H        0.0497033111    -5.1755772567    -0.1868939709
| 17>  H       -0.0832625500    -0.4309731144     2.0970095134
| 18> *
| 19>
| 20>                          ****END OF INPUT****

CARTESIAN COORDINATES (ANGSTROEM)
---------------------------------
  O      0.130047    1.286234    0.150377
  C      0.109119   -0.049663    0.017573
  N      0.077492   -0.724858   -1.095781
  C     -0.003040   -2.042251   -0.655693
  C     -0.033585   -2.101171    0.715438
  N      0.055620   -3.422657    1.061449
  C      0.061262   -4.096712   -0.157682
  N      0.048239   -3.298928   -1.202856
  N      0.102171   -0.805866    1.182301
  H      0.108507    1.644577   -0.746279
  H     -0.035057   -3.847356    1.968021
  H      0.049703   -5.175577   -0.186894
  H     -0.083263   -0.430973    2.097010

 Total Charge           Charge          ....    0
 Multiplicity           Mult            ....    1
 Number of Electrons    NEL             ....   64
 Basis Dimension        Dim             ....  303

ORBITAL ENERGIES
----------------

  NO   OCC          E(Eh)            E(eV)
   0   2.0000     -20.615386      -560.9732
   1   2.0000     -15.629634      -425.3040
   2   2.0000     -15.627905      -425.2569
   3   2.0000     -15.550154      -423.1412
   4   2.0000     -15.545565      -423.0163
   5   2.0000     -11.372227      -309.4540
   6   2.0000     -11.299662      -307.4794
   7   2.0000     -11.287498      -307.1484
   8   2.0000     -11.256531      -306.3058
   9   2.0000      -1.451155       -39.4879
  10   2.0000      -1.361755       -37.0552
  11   2.0000      -1.297587       -35.3091
  12   2.0000      -1.201608       -32.6974
  13   2.0000      -1.152032       -31.3484
  14   2.0000      -0.987491       -26.8710
  15   2.0000      -0.855014       -23.2661
  16   2.0000      -0.850643       -23.1472
  17   2.0000      -0.801466       -21.8090
  18   2.0000      -0.784860       -21.3571
  19   2.0000      -0.717880       -19.5345
  20   2.0000      -0.679077       -18.4786
  21   2.0000      -0.665621       -18.1125
  22   2.0000      -0.626087       -17.0367
  23   2.0000      -0.610363       -16.6088
  24   2.0000      -0.601144       -16.3580
  25   2.0000      -0.577751       -15.7214
  26   2.0000      -0.518332       -14.1045
  27   2.0000      -0.471657       -12.8344
  28   2.0000      -0.452853       -12.3228
  29   2.0000      -0.422790       -11.5047
  30   2.0000      -0.368641       -10.0312
  31   2.0000      -0.278415        -7.5761
  32   0.0000       0.111226         3.0266
  33   0.0000       0.135745         3.6938
  34   0.0000       0.154176         4.1953
  35   0.0000       0.164694         4.4816
  36   0.0000       0.185360         5.0439

MULLIKEN ATOMIC CHARGES
-----------------------
   0 O :   -0.429273
   1 C :    0.335210
   2 N :   -0.314271
   3 C :    0.117382
   4 C :    0.140726
   5 N :   -0.301139
   6 C :    0.037248
   7 N :   -0.282486
   8 N :   -0.324930
   9 H :    0.358688
  10 H :    0.252973
  11 H :    0.149116
  12 H :    0.260756
Sum of atomic charges:    0.0000000

LOEWDIN ATOMIC CHARGES
----------------------
   0 O :    0.077759
   1 C :   -0.456440
   2 N :    0.106154
   3 C :   -0.322726
   4 C :   -0.291391
   5 N :    0.172731
   6 C :   -0.304097
   7 N :    0.113966
   8 N :    0.178448
   9 H :    0.210953
  10 H :    0.191165
  11 H :    0.128957
  12 H :    0.194521

  Mayer bond orders larger than 0.1
B(  0-O ,  1-C ) :   1.1149 B(  0-O ,  9-H ) :   0.8096 B(  1-C ,  2-N ) :   1.6031
B(  1-C ,  8-N ) :   1.1174 B(  2-N ,  3-C ) :   1.2114 B(  3-C ,  4-C ) :   1.3725
B(  3-C ,  7-N ) :   1.2808 B(  4-C ,  5-N ) :   1.1084 B(  4-C ,  8-N ) :   1.0629
B(  5-N ,  6-C ) :   1.0939 B(  5-N , 10-H ) :   0.8636 B(  6-C ,  7-N ) :   1.5592
B(  6-C , 11-H ) :   0.9272 B(  8-N , 12-H ) :   0.8557

MP2 TOTAL ENERGY:     -448.234645336 Eh
FINAL SINGLE POINT ENERGY      -448.234645336140

DIPOLE MOMENT
-------------
                                X             Y             Z
Electronic contribution:      0.01914       1.16733      -0.59283
Nuclear contribution   :     -0.19417      -1.17101       2.82325
                        -----------------------------------------
Total Dipole Moment    :     -0.17504      -0.00368       2.23042
                        -----------------------------------------
Magnitude (a.u.)       :      2.23728
Magnitude (Debye)      :      5.68671

                             ****ORCA TERMINATED NORMALLY****
TOTAL RUN TIME: 0 days 0 hours 14 minutes 28 seconds 839 msec
