                         Program Version 3.0.3 - RELEASE   -
|  1> ! RI-MP2 RIJK def2-TZVP def2-TZVP/C def2-TZVP/JK TIGHTSCF
|  2> % maxcore 2000
|  3> % mp2 density relaxed end
|  4> *xyz 0 1
|  5>  C       -0.3228996918     1.4378427319     0.1436976316
|  6>  N        0.0269860061     0.0207573282     0.0077448260
|  7>  C        0.5074846275    -0.5259019158    -1.2628131752
|  8>  C        0.7512823457     0.2979986040    -2.4879919559
|  9>  O        1.0979359489     1.4531719961    -2.4971738100
| 10>  C        1.4146722083    -0.3849750854    -0.0494305165
| 11>  C        2.4966861042     0.5722671569    -0.0391344325
| 12>  N        3.3855527449     1.3065012774     0.0462030084
| 13>  H        0.3290864819     2.1207297002    -0.4064094184
| 14>  H       -1.3501311291     1.5622127603    -0.2082777843
| 15>  H       -0.2935385976     1.6787082708     1.2095622163
| 16>  H        0.1398762431    -1.5284306866    -1.4739682717
| 17>  H        0.5704489702    -0.2575222901    -3.4336577981
| 18>  H        1.6494617376    -1.2979425879     0.4937571604
| 19> *
| 20>
| 21>                          ****END OF INPUT****

CARTESIAN COORDINATES (ANGSTROEM)
---------------------------------
  C     -0.322900    1.437843    0.143698
  N      0.026986    0.020757    0.007745
  C      0.507485   -0.525902   -1.262813
  C      0.751282    0.297999   -2.487992
  O      1.097936    1.453172   -2.497174
  C      1.414672   -0.384975   -0.049431
  C      2.496686    0.572267   -0.039134
  N      3.385553    1.306501    0.046203
  H      0.329086    2.120730   -0.406409
  H     -1.350131    1.562213   -0.208278
  H     -0.293539    1.678708    1.209562
  H      0.139876   -1.528431   -1.473968
  H      0.570449   -0.257522   -3.433658
  H      1.649462   -1.297943    0.493757

 Total Charge           Charge          ....    0
 Multiplicity           Mult            ....    1
 Number of Electrons    NEL             ....   58
 Basis Dimension        Dim             ....  284

ORBITAL ENERGIES
----------------

  NO   OCC          E(Eh)            E(eV)
   0   2.0000     -20.580923      -560.0354
   1   2.0000     -15.612257      -424.8311
   2   2.0000     -15.581974      -424.0071
   3   2.0000     -11.359499      -309.1077
   4   2.0000     -11.334510      -308.4277
   5   2.0000     -11.311705      -307.8071
   6   2.0000     -11.283295      -307.0341
   7   2.0000     -11.264010      -306.5093
   8   2.0000      -1.421611       -38.6840
   9   2.0000      -1.323918       -36.0256
  10   2.0000      -1.223731       -33.2994
  11   2.0000      -1.041599       -28.3433
  12   2.0000      -0.976451       -26.5706
  13   2.0000      -0.913988       -24.8709
  14   2.0000      -0.794678       -21.6243
  15   2.0000      -0.758416       -20.6376
  16   2.0000      -0.699638       -19.0381
  17   2.0000      -0.672630       -18.3032
  18   2.0000      -0.645098       -17.5540
  19   2.0000      -0.620483       -16.8842
  20   2.0000      -0.599811       -16.3217
  21   2.0000      -0.570690       -15.5293
  22   2.0000      -0.558632       -15.2012
  23   2.0000      -0.533641       -14.5211
  24   2.0000      -0.503929       -13.7126
  25   2.0000      -0.494331       -13.4514
  26   2.0000      -0.465933       -12.6787
  27   2.0000      -0.437694       -11.9103
  28   2.0000      -0.402901       -10.9635
  29   0.0000       0.083463         2.2712
  30   0.0000       0.128959         3.5092
  31   0.0000       0.149599         4.0708
  32   0.0000       0.157548         4.2871
  33   0.0000       0.162879         4.4322

MULLIKEN ATOMIC CHARGES
-----------------------
   0 C :   -0.324438
   1 N :   -0.184668
   2 C :   -0.039599
   3 C :    0.107369
   4 O :   -0.260350
   5 C :    0.035922
   6 C :   -0.178539
   7 N :   -0.038133
   8 H :    0.174709
   9 H :    0.145702
  10 H :    0.151026
  11 H :    0.144542
  12 H :    0.100559
  13 H :    0.165899
Sum of atomic charges:    0.0000000

LOEWDIN ATOMIC CHARGES
----------------------
   0 C :   -0.305511
   1 N :    0.143488
   2 C :   -0.218889
   3 C :   -0.284573
   4 O :    0.156688
   5 C :   -0.215952
   6 C :   -0.175985
   7 N :    0.086034
   8 H :    0.122363
   9 H :    0.124358
  10 H :    0.126021
  11 H :    0.152777
  12 H :    0.120799
  13 H :    0.168383

  Mayer bond orders larger than 0.1
B(  0-C ,  1-N ) :   0.8621 B(  0-C ,  8-H ) :   0.9184 B(  0-C ,  9-H ) :   0.9333
B(  0-C , 10-H ) :   0.9292 B(  1-N ,  2-C ) :   0.9067 B(  1-N ,  5-C ) :   0.9323
B(  2-C ,  3-C ) :   0.9061 B(  2-C ,  5-C ) :   0.8588 B(  2-C , 11-H ) :   0.9048
B(  3-C ,  4-O ) :   1.9226 B(  3-C , 12-H ) :   0.9380 B(  5-C ,  6-C ) :   0.9618
B(  5-C , 13-H ) :   0.9031 B(  6-C ,  7-N ) :   2.8210

MP2 TOTAL ENERGY:     -378.059165525 Eh
FINAL SINGLE POINT ENERGY      -378.059165524694

DIPOLE MOMENT
-------------
                                X             Y             Z
Electronic contribution:      4.24292      -0.28866      -1.00450
Nuclear contribution   :     -5.38505      -0.96264       0.87058
                        -----------------------------------------
Total Dipole Moment    :     -1.14213      -1.25130      -0.13392
                        -----------------------------------------
Magnitude (a.u.)       :      1.69945
Magnitude (Debye)      :      4.31967

                             ****ORCA TERMINATED NORMALLY****
TOTAL RUN TIME: 0 days 0 hours 11 minutes 0 seconds 234 msec
