                         Program Version 3.0.3 - RELEASE   -
|  1> ! RI-MP2 RIJK def2-TZVP def2-TZVP/C def2-TZVP/JK TIGHTSCF
|  2> % maxcore 2000
|  3> % mp2 density relaxed end
|  4> *xyz 0 1
|  5>  C       -0.0701513123     1.6149174928    -0.0227669935
|  6>  C        0.0142934185     0.0758819847     0.0188060193
|  7>  O        0.6893328737    -0.3457012361     1.2277679883
|  8>  C        2.0428981108    -0.2317256446     1.3088001571
|  9>  O        2.6213753287    -0.4539189173     2.3255476741
| 10>  C       -1.3206272139    -0.5209012140     0.0645898994
| 11>  C       -2.4305193832    -0.9739886288     0.0888302387
| 12>  C        0.7186962804    -0.4259908367    -1.1878750039
| 13>  N        1.2667275906    -0.7875108964    -2.1381552923
| 14>  H        0.9319956088     2.0472659152    -0.0739890743
| 15>  H       -0.6417101722     1.9368997762    -0.8953601849
| 16>  H       -0.5694047168     1.9566612191     0.8855999846
| 17>  H        2.5227272076     0.0586362182     0.3590203554
| 18>  H       -3.4088354708    -1.3891843123     0.1140329621
| 19> *
| 20>
| 21>                          ****END OF INPUT****

CARTESIAN COORDINATES (ANGSTROEM)
---------------------------------
  C     -0.070151    1.614917   -0.022767
  C      0.014293    0.075882    0.018806
  O      0.689333   -0.345701    1.227768
  C      2.042898   -0.231726    1.308800
  O      2.621375   -0.453919    2.325548
  C     -1.320627   -0.520901    0.064590
  C     -2.430519   -0.973989    0.088830
  C      0.718696   -0.425991   -1.187875
  N      1.266728   -0.787511   -2.138155
  H      0.931996    2.047266   -0.073989
  H     -0.641710    1.936900   -0.895360
  H     -0.569405    1.956661    0.885600
  H      2.522727    0.058636    0.359020
  H     -3.408835   -1.389184    0.114033

 Total Charge           Charge          ....    0
 Multiplicity           Mult            ....    1
 Number of Electrons    NEL             ....   64
 Basis Dimension        Dim             ....  309

ORBITAL ENERGIES
----------------

  NO   OCC          E(Eh)            E(eV)
   0   2.0000     -20.641394      -561.6809
   1   2.0000     -20.573319      -559.8285
   2   2.0000     -15.610093      -424.7722
   3   2.0000     -11.411600      -310.5254
   4   2.0000     -11.405034      -310.3468
   5   2.0000     -11.307441      -307.6911
   6   2.0000     -11.276776      -306.8567
   7   2.0000     -11.274445      -306.7932
   8   2.0000     -11.270291      -306.6802
   9   2.0000      -1.490844       -40.5679
  10   2.0000      -1.400455       -38.1083
  11   2.0000      -1.254936       -34.1485
  12   2.0000      -1.141041       -31.0493
  13   2.0000      -1.046586       -28.4791
  14   2.0000      -0.959976       -26.1223
  15   2.0000      -0.891329       -24.2543
  16   2.0000      -0.794745       -21.6261
  17   2.0000      -0.789151       -21.4739
  18   2.0000      -0.728420       -19.8213
  19   2.0000      -0.699438       -19.0327
  20   2.0000      -0.673677       -18.3317
  21   2.0000      -0.619039       -16.8449
  22   2.0000      -0.616523       -16.7764
  23   2.0000      -0.604199       -16.4411
  24   2.0000      -0.587833       -15.9957
  25   2.0000      -0.570942       -15.5361
  26   2.0000      -0.519752       -14.1432
  27   2.0000      -0.501999       -13.6601
  28   2.0000      -0.491268       -13.3681
  29   2.0000      -0.474494       -12.9116
  30   2.0000      -0.437605       -11.9078
  31   2.0000      -0.433267       -11.7898
  32   0.0000       0.111620         3.0373
  33   0.0000       0.115094         3.1319
  34   0.0000       0.128901         3.5076
  35   0.0000       0.136001         3.7008
  36   0.0000       0.146059         3.9745

MULLIKEN ATOMIC CHARGES
-----------------------
   0 C :   -0.385988
   1 C :    0.132233
   2 O :   -0.196141
   3 C :    0.187981
   4 O :   -0.242178
   5 C :   -0.028034
   6 C :   -0.051589
   7 C :   -0.191661
   8 N :   -0.030691
   9 H :    0.152857
  10 H :    0.161196
  11 H :    0.169247
  12 H :    0.111948
  13 H :    0.210821
Sum of atomic charges:    0.0000000

LOEWDIN ATOMIC CHARGES
----------------------
   0 C :   -0.220153
   1 C :   -0.336562
   2 O :    0.288130
   3 C :   -0.426357
   4 O :    0.146202
   5 C :   -0.048311
   6 C :   -0.033890
   7 C :   -0.140943
   8 N :    0.096337
   9 H :    0.135151
  10 H :    0.143028
  11 H :    0.143151
  12 H :    0.118536
  13 H :    0.135682

  Mayer bond orders larger than 0.1
B(  0-C ,  1-C ) :   0.9484 B(  0-C ,  9-H ) :   0.9118 B(  0-C , 10-H ) :   0.9192
B(  0-C , 11-H ) :   0.9304 B(  1-C ,  2-O ) :   0.9492 B(  1-C ,  5-C ) :   1.1483
B(  1-C ,  6-C ) :  -0.1252 B(  1-C ,  7-C ) :   0.9060 B(  2-O ,  3-C ) :   1.0207
B(  3-C ,  4-O ) :   2.0393 B(  3-C , 12-H ) :   0.9073 B(  5-C ,  6-C ) :   2.5840
B(  6-C , 13-H ) :   0.8732 B(  7-C ,  8-N ) :   2.8301

MP2 TOTAL ENERGY:     -435.936976779 Eh
FINAL SINGLE POINT ENERGY      -435.936976779259

DIPOLE MOMENT
-------------
                                X             Y             Z
Electronic contribution:      1.98173      -4.31066       0.49334
Nuclear contribution   :     -3.22459       5.25817      -0.76637
                        -----------------------------------------
Total Dipole Moment    :     -1.24287       0.94751      -0.27303
                        -----------------------------------------
Magnitude (a.u.)       :      1.58651
Magnitude (Debye)      :      4.03260

                             ****ORCA TERMINATED NORMALLY****
TOTAL RUN TIME: 0 days 0 hours 14 minutes 56 seconds 438 msec
