                         Program Version 3.0.3 - RELEASE   -
|  1> ! RI-MP2 RIJK def2-TZVP def2-TZVP/C def2-TZVP/JK TIGHTSCF
|  2> % maxcore 2000
|  3> % mp2 density relaxed end
|  4> *xyz 0 1
|  5>  C        0.0511683466     1.5530935332    -0.0191788558
|  6>  C       -0.0228454924     0.0212470740     0.0002575104
|  7>  C       -1.4923177235    -0.4342861053     0.0473039867
|  8>  C        0.6853695799    -0.6324770860    -1.2159528181
|  9>  C        1.2628365344    -1.9598897652    -0.6983609973
| 10>  O        1.4557740616    -2.9505895168    -1.3590495409
| 11>  C        1.4686981741    -1.8260644203     0.7752315197
| 12>  C        2.2056972836    -0.5630110765     1.2122068620
| 13>  C        0.7145603845    -0.5791817494     1.2119830243
| 14>  H        1.0884803318     1.9027258411    -0.0258555130
| 15>  H       -0.4472971014     1.9591845728    -0.9061253685
| 16>  H       -0.4396336356     1.9803725981     0.8624832096
| 17>  H       -2.0457283893    -0.0580405987    -0.8194429485
| 18>  H       -1.5713808523    -1.5267322961     0.0478921671
| 19>  H       -1.9890082407    -0.0616379005     0.9498776288
| 20>  H        0.0200042451    -0.8163188273    -2.0621554312
| 21>  H        1.5092258375    -0.0112787721    -1.5883286478
| 22>  H        1.5587080480    -2.7251739397     1.3711476167
| 23>  H        2.7101179617    -0.6262865082     2.1697882334
| 24>  H        2.7453584680     0.0116959996     0.4669312827
| 25>  H        0.1993059785    -0.5652076366     2.1671062796
| 26> *
| 27>
| 28>                          ****END OF INPUT****

CARTESIAN COORDINATES (ANGSTROEM)
---------------------------------
  C      0.051168    1.553094   -0.019179
  C     -0.022845    0.021247    0.000258
  C     -1.492318   -0.434286    0.047304
  C      0.685370   -0.632477   -1.215953
  C      1.262837   -1.959890   -0.698361
  O      1.455774   -2.950590   -1.359050
  C      1.468698   -1.826064    0.775232
  C      2.205697   -0.563011    1.212207
  C      0.714560   -0.579182    1.211983
  H      1.088480    1.902726   -0.025856
  H     -0.447297    1.959185   -0.906125
  H     -0.439634    1.980373    0.862483
  H     -2.045728   -0.058041   -0.819443
  H     -1.571381   -1.526732    0.047892
  H     -1.989008   -0.061638    0.949878
  H      0.020004   -0.816319   -2.062155
  H      1.509226   -0.011279   -1.588329
  H      1.558708   -2.725174    1.371148
  H      2.710118   -0.626287    2.169788
  H      2.745358    0.011696    0.466931
  H      0.199306   -0.565208    2.167106

 Total Charge           Charge          ....    0
 Multiplicity           Mult            ....    1
 Number of Electrons    NEL             ....   68
 Basis Dimension        Dim             ....  351

ORBITAL ENERGIES
----------------

  NO   OCC          E(Eh)            E(eV)
   0   2.0000     -20.536775      -558.8341
   1   2.0000     -11.325005      -308.1691
   2   2.0000     -11.254203      -306.2424
   3   2.0000     -11.248948      -306.0994
   4   2.0000     -11.247632      -306.0636
   5   2.0000     -11.242266      -305.9176
   6   2.0000     -11.233298      -305.6736
   7   2.0000     -11.223296      -305.4014
   8   2.0000     -11.223194      -305.3986
   9   2.0000      -1.381039       -37.5800
  10   2.0000      -1.194423       -32.5019
  11   2.0000      -1.080705       -29.4075
  12   2.0000      -0.986036       -26.8314
  13   2.0000      -0.942877       -25.6570
  14   2.0000      -0.880094       -23.9486
  15   2.0000      -0.855018       -23.2662
  16   2.0000      -0.752679       -20.4814
  17   2.0000      -0.736108       -20.0305
  18   2.0000      -0.685568       -18.6552
  19   2.0000      -0.642508       -17.4835
  20   2.0000      -0.627420       -17.0730
  21   2.0000      -0.611714       -16.6456
  22   2.0000      -0.594028       -16.1643
  23   2.0000      -0.578568       -15.7436
  24   2.0000      -0.557427       -15.1684
  25   2.0000      -0.555939       -15.1279
  26   2.0000      -0.540652       -14.7119
  27   2.0000      -0.518448       -14.1077
  28   2.0000      -0.496760       -13.5175
  29   2.0000      -0.480847       -13.0845
  30   2.0000      -0.468765       -12.7558
  31   2.0000      -0.437552       -11.9064
  32   2.0000      -0.416228       -11.3261
  33   2.0000      -0.391236       -10.6461
  34   0.0000       0.126600         3.4450
  35   0.0000       0.139469         3.7951
  36   0.0000       0.151722         4.1286
  37   0.0000       0.165011         4.4902
  38   0.0000       0.169851         4.6219

MULLIKEN ATOMIC CHARGES
-----------------------
   0 C :   -0.403179
   1 C :    0.077915
   2 C :   -0.447119
   3 C :   -0.225476
   4 C :    0.100089
   5 O :   -0.271631
   6 C :   -0.111635
   7 C :   -0.281344
   8 C :   -0.078816
   9 H :    0.126994
  10 H :    0.136054
  11 H :    0.130329
  12 H :    0.137561
  13 H :    0.146633
  14 H :    0.130560
  15 H :    0.137244
  16 H :    0.142232
  17 H :    0.141925
  18 H :    0.142341
  19 H :    0.139875
  20 H :    0.129448
Sum of atomic charges:    0.0000000

LOEWDIN ATOMIC CHARGES
----------------------
   0 C :   -0.266516
   1 C :   -0.295886
   2 C :   -0.261995
   3 C :   -0.173847
   4 C :   -0.307512
   5 O :    0.146769
   6 C :   -0.153656
   7 C :   -0.182874
   8 C :   -0.152348
   9 H :    0.124795
  10 H :    0.127001
  11 H :    0.126985
  12 H :    0.126876
  13 H :    0.131307
  14 H :    0.125818
  15 H :    0.151305
  16 H :    0.153579
  17 H :    0.150954
  18 H :    0.140629
  19 H :    0.137817
  20 H :    0.150799

  Mayer bond orders larger than 0.1
B(  0-C ,  1-C ) :   0.9118 B(  0-C ,  9-H ) :   0.9310 B(  0-C , 10-H ) :   0.9366
B(  0-C , 11-H ) :   0.9367 B(  1-C ,  2-C ) :   0.9074 B(  1-C ,  3-C ) :   0.8694
B(  1-C ,  8-C ) :   0.9053 B(  2-C , 12-H ) :   0.9371 B(  2-C , 13-H ) :   0.9295
B(  2-C , 14-H ) :   0.9377 B(  3-C ,  4-C ) :   0.8984 B(  3-C ,  6-C ) :  -0.1462
B(  3-C , 15-H ) :   0.9028 B(  3-C , 16-H ) :   0.9100 B(  4-C ,  5-O ) :   2.0496
B(  4-C ,  6-C ) :   0.9441 B(  6-C ,  7-C ) :   0.8382 B(  6-C ,  8-C ) :   0.7985
B(  6-C , 17-H ) :   0.9215 B(  7-C ,  8-C ) :   0.8954 B(  7-C , 18-H ) :   0.9311
B(  7-C , 19-H ) :   0.9166 B(  8-C , 20-H ) :   0.9196

MP2 TOTAL ENERGY:     -386.445287204 Eh
FINAL SINGLE POINT ENERGY      -386.445287204355

DIPOLE MOMENT
-------------
                                X             Y             Z
Electronic contribution:      4.32886      -7.57230      -1.99868
Nuclear contribution   :     -4.57971       8.60702       2.75114
                        -----------------------------------------
Total Dipole Moment    :     -0.25085       1.03472       0.75245
                        -----------------------------------------
Magnitude (a.u.)       :      1.30375
Magnitude (Debye)      :      3.31387

                             ****ORCA TERMINATED NORMALLY****
TOTAL RUN TIME: 0 days 0 hours 23 minutes 22 seconds 445 msec
