                         Program Version 3.0.3 - RELEASE   -
|  1> ! RI-MP2 RIJK def2-TZVP def2-TZVP/C def2-TZVP/JK TIGHTSCF
|  2> % maxcore 2000
|  3> % mp2 density relaxed end
|  4> *xyz 0 1
|  5>  C       -0.0528447522     1.5048149370     0.0375291199
|  6>  C        0.0378662758     0.0169673876     0.0911343589
|  7>  C        1.2115996770    -0.8388559763    -0.3296492416
|  8>  C        0.6125215893    -0.9927458412     1.0546077398
|  9>  O        1.3127716699    -0.8006820189     2.2281336299
| 10>  C       -0.7368167363    -1.6954085934     0.9457298370
| 11>  O       -1.1738232396    -0.7419108999    -0.0613559653
| 12>  H        0.9119356439     1.9527213852     0.2911859957
| 13>  H       -0.3308209900     1.8404588643    -0.9677957606
| 14>  H       -0.8052961190     1.8730070498     0.7414619434
| 15>  H        1.0884163138    -1.6042406558    -1.0921854535
| 16>  H        2.1666153322    -0.3210365953    -0.3317175696
| 17>  H        2.0329433260    -1.4399375945     2.2618610108
| 18>  H       -0.7619490489    -2.7299590932     0.5824931657
| 19>  H       -1.3361828119    -1.6006625854     1.8585311795
| 20> *
| 21>
| 22>                          ****END OF INPUT****

CARTESIAN COORDINATES (ANGSTROEM)
---------------------------------
  C     -0.052845    1.504815    0.037529
  C      0.037866    0.016967    0.091134
  C      1.211600   -0.838856   -0.329649
  C      0.612522   -0.992746    1.054608
  O      1.312772   -0.800682    2.228134
  C     -0.736817   -1.695409    0.945730
  O     -1.173823   -0.741911   -0.061356
  H      0.911936    1.952721    0.291186
  H     -0.330821    1.840459   -0.967796
  H     -0.805296    1.873007    0.741462
  H      1.088416   -1.604241   -1.092185
  H      2.166615   -0.321037   -0.331718
  H      2.032943   -1.439938    2.261861
  H     -0.761949   -2.729959    0.582493
  H     -1.336183   -1.600663    1.858531

 Total Charge           Charge          ....    0
 Multiplicity           Mult            ....    1
 Number of Electrons    NEL             ....   54
 Basis Dimension        Dim             ....  265

ORBITAL ENERGIES
----------------

  NO   OCC          E(Eh)            E(eV)
   0   2.0000     -20.579136      -559.9868
   1   2.0000     -20.552073      -559.2503
   2   2.0000     -11.292757      -307.2915
   3   2.0000     -11.290446      -307.2287
   4   2.0000     -11.281186      -306.9767
   5   2.0000     -11.232864      -305.6618
   6   2.0000     -11.224174      -305.4253
   7   2.0000      -1.404175       -38.2095
   8   2.0000      -1.373671       -37.3795
   9   2.0000      -1.110625       -30.2216
  10   2.0000      -0.999194       -27.1895
  11   2.0000      -0.925867       -25.1941
  12   2.0000      -0.824204       -22.4277
  13   2.0000      -0.750777       -20.4297
  14   2.0000      -0.690611       -18.7925
  15   2.0000      -0.669641       -18.2219
  16   2.0000      -0.643929       -17.5222
  17   2.0000      -0.637468       -17.3464
  18   2.0000      -0.580017       -15.7831
  19   2.0000      -0.566595       -15.4178
  20   2.0000      -0.550942       -14.9919
  21   2.0000      -0.540804       -14.7160
  22   2.0000      -0.529026       -14.3955
  23   2.0000      -0.503841       -13.7102
  24   2.0000      -0.456459       -12.4209
  25   2.0000      -0.398218       -10.8361
  26   2.0000      -0.367419        -9.9980
  27   0.0000       0.131802         3.5865
  28   0.0000       0.153822         4.1857
  29   0.0000       0.173793         4.7292
  30   0.0000       0.186572         5.0769
  31   0.0000       0.197913         5.3855

MULLIKEN ATOMIC CHARGES
-----------------------
   0 C :   -0.400518
   1 C :    0.201753
   2 C :   -0.324454
   3 C :    0.094342
   4 O :   -0.454460
   5 C :   -0.017437
   6 O :   -0.329580
   7 H :    0.135514
   8 H :    0.143158
   9 H :    0.139198
  10 H :    0.132299
  11 H :    0.139690
  12 H :    0.333317
  13 H :    0.103206
  14 H :    0.103973
Sum of atomic charges:   -0.0000000

LOEWDIN ATOMIC CHARGES
----------------------
   0 C :   -0.266517
   1 C :   -0.291186
   2 C :   -0.183169
   3 C :   -0.343409
   4 O :    0.031266
   5 C :   -0.225443
   6 O :    0.161866
   7 H :    0.136966
   8 H :    0.134669
   9 H :    0.133744
  10 H :    0.134064
  11 H :    0.144696
  12 H :    0.186947
  13 H :    0.117748
  14 H :    0.127758

  Mayer bond orders larger than 0.1
B(  0-C ,  1-C ) :   0.8946 B(  0-C ,  7-H ) :   0.9290 B(  0-C ,  8-H ) :   0.9365
B(  0-C ,  9-H ) :   0.9342 B(  1-C ,  2-C ) :   0.8529 B(  1-C ,  3-C ) :   0.8692
B(  1-C ,  6-O ) :   0.9671 B(  2-C ,  3-C ) :   0.8888 B(  2-C , 10-H ) :   0.8942
B(  2-C , 11-H ) :   0.9269 B(  3-C ,  4-O ) :   1.0577 B(  3-C ,  5-C ) :   0.9866
B(  4-O , 12-H ) :   0.8323 B(  5-C ,  6-O ) :   0.9300 B(  5-C , 13-H ) :   0.9124
B(  5-C , 14-H ) :   0.9038

MP2 TOTAL ENERGY:     -345.043955247 Eh
FINAL SINGLE POINT ENERGY      -345.043955246959

DIPOLE MOMENT
-------------
                                X             Y             Z
Electronic contribution:     -0.64604      -2.22139       1.39920
Nuclear contribution   :      1.42272       1.89712      -1.32013
                        -----------------------------------------
Total Dipole Moment    :      0.77668      -0.32427       0.07907
                        -----------------------------------------
Magnitude (a.u.)       :      0.84536
Magnitude (Debye)      :      2.14874

                             ****ORCA TERMINATED NORMALLY****
TOTAL RUN TIME: 0 days 0 hours 7 minutes 27 seconds 242 msec
