                         Program Version 3.0.3 - RELEASE   -
|  1> ! RI-MP2 RIJK def2-TZVP def2-TZVP/C def2-TZVP/JK TIGHTSCF
|  2> % maxcore 2000
|  3> % mp2 density relaxed end
|  4> *xyz 0 1
|  5>  C       -0.0215375253     1.5255356711    -0.0653826389
|  6>  C        1.5210980576     1.3185970988    -0.0138220340
|  7>  C        1.1514575741     0.1678480451     0.9681959801
|  8>  N       -0.0943346358    -0.0151754882     0.0675123312
|  9>  C        0.6012326168    -0.3519048885    -1.1642113934
| 10>  C        0.7044795854    -1.1209679544    -2.2919372432
| 11>  N        1.8142126186    -0.6838311200    -2.9769596466
| 12>  N        2.3943972142     0.3052206397    -2.3371926030
| 13>  N        1.6498946441     0.4972814611    -1.2390109459
| 14>  H       -0.4477302351     1.9988081629     0.8206486169
| 15>  H       -0.4558854747     1.9230050759    -0.9836403853
| 16>  H        2.2827761882     2.0815513229     0.1239479478
| 17>  H        1.8104776437    -0.7001898588     1.0133473592
| 18>  H        0.8492891124     0.4975368179     1.9635248689
| 19>  H        0.0959442258    -1.9280429155    -2.6614277937
| 20> *
| 21>
| 22>                          ****END OF INPUT****

CARTESIAN COORDINATES (ANGSTROEM)
---------------------------------
  C     -0.021538    1.525536   -0.065383
  C      1.521098    1.318597   -0.013822
  C      1.151458    0.167848    0.968196
  N     -0.094335   -0.015175    0.067512
  C      0.601233   -0.351905   -1.164211
  C      0.704480   -1.120968   -2.291937
  N      1.814213   -0.683831   -2.976960
  N      2.394397    0.305221   -2.337193
  N      1.649895    0.497281   -1.239011
  H     -0.447730    1.998808    0.820649
  H     -0.455885    1.923005   -0.983640
  H      2.282776    2.081551    0.123948
  H      1.810478   -0.700190    1.013347
  H      0.849289    0.497537    1.963525
  H      0.095944   -1.928043   -2.661428

 Total Charge           Charge          ....    0
 Multiplicity           Mult            ....    1
 Number of Electrons    NEL             ....   64
 Basis Dimension        Dim             ....  315

ORBITAL ENERGIES
----------------

  NO   OCC          E(Eh)            E(eV)
   0   2.0000     -15.644245      -425.7015
   1   2.0000     -15.639563      -425.5741
   2   2.0000     -15.609259      -424.7495
   3   2.0000     -15.590914      -424.2503
   4   2.0000     -11.323641      -308.1319
   5   2.0000     -11.302586      -307.5590
   6   2.0000     -11.299565      -307.4768
   7   2.0000     -11.299556      -307.4765
   8   2.0000     -11.254521      -306.2511
   9   2.0000      -1.445054       -39.3219
  10   2.0000      -1.323889       -36.0249
  11   2.0000      -1.165622       -31.7182
  12   2.0000      -1.077330       -29.3156
  13   2.0000      -1.018504       -27.7149
  14   2.0000      -0.955900       -26.0114
  15   2.0000      -0.875309       -23.8184
  16   2.0000      -0.817541       -22.2464
  17   2.0000      -0.778941       -21.1961
  18   2.0000      -0.714851       -19.4521
  19   2.0000      -0.690514       -18.7898
  20   2.0000      -0.670842       -18.2545
  21   2.0000      -0.621770       -16.9192
  22   2.0000      -0.593376       -16.1466
  23   2.0000      -0.584338       -15.9007
  24   2.0000      -0.564690       -15.3660
  25   2.0000      -0.561085       -15.2679
  26   2.0000      -0.509833       -13.8733
  27   2.0000      -0.504356       -13.7242
  28   2.0000      -0.441885       -12.0243
  29   2.0000      -0.423276       -11.5179
  30   2.0000      -0.384696       -10.4681
  31   2.0000      -0.350480        -9.5370
  32   0.0000       0.133557         3.6343
  33   0.0000       0.139073         3.7844
  34   0.0000       0.153721         4.1830
  35   0.0000       0.161946         4.4068
  36   0.0000       0.165883         4.5139

MULLIKEN ATOMIC CHARGES
-----------------------
   0 C :   -0.145835
   1 C :   -0.092228
   2 C :   -0.145839
   3 N :   -0.169695
   4 C :    0.066875
   5 C :   -0.199433
   6 N :   -0.127717
   7 N :   -0.235080
   8 N :    0.152444
   9 H :    0.143562
  10 H :    0.150769
  11 H :    0.161800
  12 H :    0.150767
  13 H :    0.143579
  14 H :    0.146031
Sum of atomic charges:   -0.0000000

LOEWDIN ATOMIC CHARGES
----------------------
   0 C :   -0.190967
   1 C :   -0.192785
   2 C :   -0.190960
   3 N :    0.118039
   4 C :   -0.288552
   5 C :   -0.246020
   6 N :   -0.001951
   7 N :   -0.040280
   8 N :    0.211707
   9 H :    0.135914
  10 H :    0.134634
  11 H :    0.142114
  12 H :    0.134633
  13 H :    0.135922
  14 H :    0.138552

  Mayer bond orders larger than 0.1
B(  0-C ,  1-C ) :   0.9184 B(  0-C ,  3-N ) :   0.8802 B(  0-C ,  9-H ) :   0.9237
B(  0-C , 10-H ) :   0.9212 B(  1-C ,  2-C ) :   0.9184 B(  1-C ,  8-N ) :   0.8277
B(  1-C , 11-H ) :   0.9120 B(  2-C ,  3-N ) :   0.8802 B(  2-C , 12-H ) :   0.9212
B(  2-C , 13-H ) :   0.9237 B(  3-N ,  4-C ) :   1.0507 B(  4-C ,  5-C ) :   1.4396
B(  4-C ,  8-N ) :   1.0887 B(  5-C ,  6-N ) :   1.3767 B(  5-C , 14-H ) :   0.9381
B(  6-N ,  7-N ) :   1.2523 B(  7-N ,  8-N ) :   1.0005

MP2 TOTAL ENERGY:     -412.206852960 Eh
FINAL SINGLE POINT ENERGY      -412.206852959747

DIPOLE MOMENT
-------------
                                X             Y             Z
Electronic contribution:      1.64888      -1.67161      -4.06757
Nuclear contribution   :     -2.21669       2.53074       5.84086
                        -----------------------------------------
Total Dipole Moment    :     -0.56781       0.85913       1.77329
                        -----------------------------------------
Magnitude (a.u.)       :      2.05063
Magnitude (Debye)      :      5.21229

                             ****ORCA TERMINATED NORMALLY****
TOTAL RUN TIME: 0 days 0 hours 17 minutes 27 seconds 253 msec
