                         Program Version 3.0.3 - RELEASE   -
|  1> ! RI-MP2 RIJK def2-TZVP def2-TZVP/C def2-TZVP/JK TIGHTSCF
|  2> % maxcore 2000
|  3> % mp2 density relaxed end
|  4> *xyz 0 1
|  5>  C        0.2743320279     1.5325404017     0.0974520462
|  6>  C       -0.2400710740     0.1238970553    -0.1847119621
|  7>  N        0.5245981676    -0.4981076595    -1.2630547214
|  8>  C        1.7230769621    -1.2544633118    -0.8863173615
|  9>  C        0.4984141406    -1.9372490033    -1.3730800227
| 10>  C       -0.3288372340    -3.0059398737    -0.5942635036
| 11>  C       -0.4714426819    -3.7453951145    -1.9365269953
| 12>  O       -1.1332895331    -2.8533785754    -2.8358313537
| 13>  C        0.2863680336    -2.7093690119    -2.6611759169
| 14>  H        1.3155549322     1.5094485671     0.4358399834
| 15>  H        0.2271640020     2.1456680370    -0.8067628609
| 16>  H       -0.3242084113     2.0131131269     0.8774329889
| 17>  H       -0.2126280004    -0.4771674241     0.7413473023
| 18>  H       -1.2866123678     0.1636147134    -0.5085577255
| 19>  H        2.5906220612    -1.1246050725    -1.5289199481
| 20>  H        1.9537300841    -1.3592088367     0.1744331960
| 21>  H        0.2606048116    -3.5435380700     0.1524303537
| 22>  H       -1.2759047278    -2.6805508049    -0.1574221847
| 23>  H       -0.5604064143    -4.8086294006    -2.1221831608
| 24>  H        0.9060880816    -2.7581461423    -3.5486118534
| 25> *
| 26>
| 27>                          ****END OF INPUT****

CARTESIAN COORDINATES (ANGSTROEM)
---------------------------------
  C      0.274332    1.532540    0.097452
  C     -0.240071    0.123897   -0.184712
  N      0.524598   -0.498108   -1.263055
  C      1.723077   -1.254463   -0.886317
  C      0.498414   -1.937249   -1.373080
  C     -0.328837   -3.005940   -0.594264
  C     -0.471443   -3.745395   -1.936527
  O     -1.133290   -2.853379   -2.835831
  C      0.286368   -2.709369   -2.661176
  H      1.315555    1.509449    0.435840
  H      0.227164    2.145668   -0.806763
  H     -0.324208    2.013113    0.877433
  H     -0.212628   -0.477167    0.741347
  H     -1.286612    0.163615   -0.508558
  H      2.590622   -1.124605   -1.528920
  H      1.953730   -1.359209    0.174433
  H      0.260605   -3.543538    0.152430
  H     -1.275905   -2.680551   -0.157422
  H     -0.560406   -4.808629   -2.122183
  H      0.906088   -2.758146   -3.548612

 Total Charge           Charge          ....    0
 Multiplicity           Mult            ....    1
 Number of Electrons    NEL             ....   68
 Basis Dimension        Dim             ....  345

ORBITAL ENERGIES
----------------

  NO   OCC          E(Eh)            E(eV)
   0   2.0000     -20.567846      -559.6795
   1   2.0000     -15.558220      -423.3607
   2   2.0000     -11.289208      -307.1950
   3   2.0000     -11.285237      -307.0869
   4   2.0000     -11.273483      -306.7671
   5   2.0000     -11.257114      -306.3217
   6   2.0000     -11.251712      -306.1747
   7   2.0000     -11.240537      -305.8706
   8   2.0000     -11.212076      -305.0961
   9   2.0000      -1.418636       -38.6030
  10   2.0000      -1.278076       -34.7782
  11   2.0000      -1.072756       -29.1912
  12   2.0000      -1.024757       -27.8850
  13   2.0000      -0.909796       -24.7568
  14   2.0000      -0.891301       -24.2535
  15   2.0000      -0.844688       -22.9851
  16   2.0000      -0.804546       -21.8928
  17   2.0000      -0.739572       -20.1248
  18   2.0000      -0.711310       -19.3557
  19   2.0000      -0.666953       -18.1487
  20   2.0000      -0.634466       -17.2647
  21   2.0000      -0.615563       -16.7503
  22   2.0000      -0.600408       -16.3379
  23   2.0000      -0.565496       -15.3879
  24   2.0000      -0.558396       -15.1947
  25   2.0000      -0.538283       -14.6474
  26   2.0000      -0.518981       -14.1222
  27   2.0000      -0.512306       -13.9405
  28   2.0000      -0.494699       -13.4614
  29   2.0000      -0.464900       -12.6506
  30   2.0000      -0.452216       -12.3054
  31   2.0000      -0.436146       -11.8681
  32   2.0000      -0.398514       -10.8441
  33   2.0000      -0.370091       -10.0707
  34   0.0000       0.137701         3.7470
  35   0.0000       0.158338         4.3086
  36   0.0000       0.168327         4.5804
  37   0.0000       0.173719         4.7271
  38   0.0000       0.182163         4.9569

MULLIKEN ATOMIC CHARGES
-----------------------
   0 C :   -0.375549
   1 C :   -0.126627
   2 N :   -0.239770
   3 C :   -0.242817
   4 C :    0.134723
   5 C :   -0.175296
   6 C :   -0.021982
   7 O :   -0.316717
   8 C :   -0.011783
   9 H :    0.121622
  10 H :    0.133965
  11 H :    0.126794
  12 H :    0.092346
  13 H :    0.127151
  14 H :    0.128406
  15 H :    0.121576
  16 H :    0.123420
  17 H :    0.123143
  18 H :    0.137361
  19 H :    0.140033
Sum of atomic charges:   -0.0000000

LOEWDIN ATOMIC CHARGES
----------------------
   0 C :   -0.315677
   1 C :   -0.314152
   2 N :    0.136637
   3 C :   -0.220479
   4 C :   -0.255774
   5 C :   -0.182659
   6 C :   -0.239410
   7 O :    0.176803
   8 C :   -0.199854
   9 H :    0.120362
  10 H :    0.124915
  11 H :    0.122038
  12 H :    0.120595
  13 H :    0.134944
  14 H :    0.126809
  15 H :    0.126402
  16 H :    0.138438
  17 H :    0.136864
  18 H :    0.129548
  19 H :    0.133653

  Mayer bond orders larger than 0.1
B(  0-C ,  1-C ) :   0.9338 B(  0-C ,  9-H ) :   0.9354 B(  0-C , 10-H ) :   0.9368
B(  0-C , 11-H ) :   0.9380 B(  1-C ,  2-N ) :   0.8743 B(  1-C , 12-H ) :   0.9208
B(  1-C , 13-H ) :   0.9290 B(  2-N ,  3-C ) :   0.9434 B(  2-N ,  4-C ) :   0.8204
B(  3-C ,  4-C ) :   0.9028 B(  3-C , 14-H ) :   0.9098 B(  3-C , 15-H ) :   0.9192
B(  4-C ,  5-C ) :   0.9317 B(  4-C ,  8-C ) :   0.8751 B(  5-C ,  6-C ) :   0.9264
B(  5-C , 16-H ) :   0.9082 B(  5-C , 17-H ) :   0.9011 B(  6-C ,  7-O ) :   0.9414
B(  6-C ,  8-C ) :   0.9353 B(  6-C , 18-H ) :   0.9293 B(  7-O ,  8-C ) :   0.9126
B(  8-C , 19-H ) :   0.9246

MP2 TOTAL ENERGY:     -402.376417141 Eh
FINAL SINGLE POINT ENERGY      -402.376417141303

DIPOLE MOMENT
-------------
                                X             Y             Z
Electronic contribution:     -1.64546      -6.30078      -6.48970
Nuclear contribution   :      2.22119       5.87741       7.26233
                        -----------------------------------------
Total Dipole Moment    :      0.57573      -0.42337       0.77264
                        -----------------------------------------
Magnitude (a.u.)       :      1.05246
Magnitude (Debye)      :      2.67514

                             ****ORCA TERMINATED NORMALLY****
TOTAL RUN TIME: 0 days 0 hours 29 minutes 26 seconds 338 msec
