                         Program Version 3.0.3 - RELEASE   -
|  1> ! RI-MP2 RIJK def2-TZVP def2-TZVP/C def2-TZVP/JK TIGHTSCF
|  2> % maxcore 2000
|  3> % mp2 density relaxed end
|  4> *xyz 0 1
|  5>  C        0.0406662019     1.5113839542     0.1393742287
|  6>  C        0.0114999901     0.0230447622    -0.0299764839
|  7>  C       -1.0247246648    -0.8932328798     0.6731279419
|  8>  C       -1.0212569583    -2.1961538293    -0.1062927989
|  9>  N        0.4818184034    -2.0441385160    -0.2913254956
| 10>  C        0.4480279122    -1.0663142886     0.9105296104
| 11>  C        0.5355371103    -0.8268290877    -1.1595854679
| 12>  C        0.3332470442    -0.8311734424    -2.6372596274
| 13>  C        1.7081131319    -0.5561577089    -2.0388642369
| 14>  H        1.0388180359     1.9130523728    -0.0680507269
| 15>  H       -0.6682774233     2.0050437111    -0.5352598909
| 16>  H       -0.2249081380     1.7980448499     1.1622289556
| 17>  H       -1.7702048493    -0.4816679476     1.3433832886
| 18>  H       -1.2212189154    -3.0671849092     0.5236179722
| 19>  H       -1.5837821652    -2.2734404663    -1.0430123810
| 20>  H        1.0885652684    -1.1098393861     1.7802146757
| 21>  H        0.1826928670    -1.7920280766    -3.1192181124
| 22>  H       -0.2034913452    -0.0073295797    -3.0965052528
| 23>  H        2.0963879179     0.4559739726    -2.0940763527
| 24>  H        2.4560395663    -1.3368395346    -2.1227164557
| 25> *
| 26>
| 27>                          ****END OF INPUT****

CARTESIAN COORDINATES (ANGSTROEM)
---------------------------------
  C      0.040666    1.511384    0.139374
  C      0.011500    0.023045   -0.029976
  C     -1.024725   -0.893233    0.673128
  C     -1.021257   -2.196154   -0.106293
  N      0.481818   -2.044139   -0.291325
  C      0.448028   -1.066314    0.910530
  C      0.535537   -0.826829   -1.159585
  C      0.333247   -0.831173   -2.637260
  C      1.708113   -0.556158   -2.038864
  H      1.038818    1.913052   -0.068051
  H     -0.668277    2.005044   -0.535260
  H     -0.224908    1.798045    1.162229
  H     -1.770205   -0.481668    1.343383
  H     -1.221219   -3.067185    0.523618
  H     -1.583782   -2.273440   -1.043012
  H      1.088565   -1.109839    1.780215
  H      0.182693   -1.792028   -3.119218
  H     -0.203491   -0.007330   -3.096505
  H      2.096388    0.455974   -2.094076
  H      2.456040   -1.336840   -2.122716

 Total Charge           Charge          ....    0
 Multiplicity           Mult            ....    1
 Number of Electrons    NEL             ....   66
 Basis Dimension        Dim             ....  345

ORBITAL ENERGIES
----------------

  NO   OCC          E(Eh)            E(eV)
   0   2.0000     -15.554813      -423.2680
   1   2.0000     -11.259449      -306.3852
   2   2.0000     -11.256931      -306.3167
   3   2.0000     -11.250083      -306.1303
   4   2.0000     -11.245026      -305.9927
   5   2.0000     -11.236256      -305.7541
   6   2.0000     -11.227351      -305.5117
   7   2.0000     -11.219600      -305.3008
   8   2.0000     -11.218458      -305.2698
   9   2.0000      -1.302997       -35.4564
  10   2.0000      -1.125393       -30.6235
  11   2.0000      -1.053800       -28.6754
  12   2.0000      -0.961066       -26.1519
  13   2.0000      -0.935857       -25.4660
  14   2.0000      -0.835795       -22.7431
  15   2.0000      -0.819229       -22.2923
  16   2.0000      -0.748174       -20.3589
  17   2.0000      -0.706191       -19.2164
  18   2.0000      -0.668127       -18.1807
  19   2.0000      -0.644504       -17.5378
  20   2.0000      -0.626633       -17.0515
  21   2.0000      -0.597310       -16.2536
  22   2.0000      -0.585118       -15.9219
  23   2.0000      -0.563571       -15.3355
  24   2.0000      -0.538386       -14.6502
  25   2.0000      -0.515331       -14.0229
  26   2.0000      -0.510008       -13.8780
  27   2.0000      -0.471996       -12.8437
  28   2.0000      -0.435703       -11.8561
  29   2.0000      -0.431678       -11.7465
  30   2.0000      -0.411140       -11.1877
  31   2.0000      -0.364952        -9.9308
  32   2.0000      -0.347782        -9.4636
  33   0.0000       0.136354         3.7104
  34   0.0000       0.160292         4.3618
  35   0.0000       0.167806         4.5662
  36   0.0000       0.180551         4.9130
  37   0.0000       0.189080         5.1451

MULLIKEN ATOMIC CHARGES
-----------------------
   0 C :   -0.431780
   1 C :    0.060316
   2 C :   -0.203804
   3 C :   -0.090718
   4 N :   -0.201580
   5 C :   -0.086843
   6 C :    0.089187
   7 C :   -0.284477
   8 C :   -0.291338
   9 H :    0.139826
  10 H :    0.140826
  11 H :    0.138336
  12 H :    0.129436
  13 H :    0.119355
  14 H :    0.109442
  15 H :    0.149308
  16 H :    0.131044
  17 H :    0.128265
  18 H :    0.126203
  19 H :    0.128997
Sum of atomic charges:    0.0000000

LOEWDIN ATOMIC CHARGES
----------------------
   0 C :   -0.268632
   1 C :   -0.181568
   2 C :   -0.160617
   3 C :   -0.221548
   4 N :    0.149376
   5 C :   -0.124742
   6 C :   -0.248012
   7 C :   -0.207954
   8 C :   -0.196671
   9 H :    0.130342
  10 H :    0.130681
  11 H :    0.133298
  12 H :    0.137630
  13 H :    0.131726
  14 H :    0.121784
  15 H :    0.131900
  16 H :    0.138433
  17 H :    0.133742
  18 H :    0.132596
  19 H :    0.138236

  Mayer bond orders larger than 0.1
B(  0-C ,  1-C ) :   0.8524 B(  0-C ,  9-H ) :   0.9430 B(  0-C , 10-H ) :   0.9433
B(  0-C , 11-H ) :   0.9401 B(  1-C ,  2-C ) :   0.7962 B(  1-C ,  5-C ) :   0.8929
B(  1-C ,  6-C ) :   0.8875 B(  2-C ,  3-C ) :   0.9897 B(  2-C ,  5-C ) :   0.8828
B(  2-C , 12-H ) :   0.9273 B(  3-C ,  4-N ) :   0.9176 B(  3-C , 13-H ) :   0.9217
B(  3-C , 14-H ) :   0.9235 B(  4-N ,  5-C ) :   0.9325 B(  4-N ,  6-C ) :   0.9253
B(  5-C , 15-H ) :   0.8935 B(  6-C ,  7-C ) :   0.8882 B(  6-C ,  8-C ) :   0.8705
B(  7-C ,  8-C ) :   0.9563 B(  7-C , 16-H ) :   0.9140 B(  7-C , 17-H ) :   0.9164
B(  8-C , 18-H ) :   0.9249 B(  8-C , 19-H ) :   0.9100

MP2 TOTAL ENERGY:     -365.256751394 Eh
FINAL SINGLE POINT ENERGY      -365.256751394380

DIPOLE MOMENT
-------------
                                X             Y             Z
Electronic contribution:      0.23301      -3.42153       1.70592
Nuclear contribution   :     -0.61287       4.05626      -1.50116
                        -----------------------------------------
Total Dipole Moment    :     -0.37986       0.63472       0.20476
                        -----------------------------------------
Magnitude (a.u.)       :      0.76752
Magnitude (Debye)      :      1.95088

                             ****ORCA TERMINATED NORMALLY****
TOTAL RUN TIME: 0 days 0 hours 18 minutes 53 seconds 46 msec
