                         Program Version 3.0.3 - RELEASE   -
|  1> ! RI-MP2 RIJK def2-TZVP def2-TZVP/C def2-TZVP/JK TIGHTSCF
|  2> % maxcore 2000
|  3> % mp2 density relaxed end
|  4> *xyz 0 1
|  5>  C        0.0425661705     1.3397715736    -0.0534890784
|  6>  O        0.0845087433    -0.0821997759    -0.0182031443
|  7>  C        0.7291150321    -0.6068747444     1.0746218578
|  8>  C        0.5977958505    -2.1327274297     1.0933617586
|  9>  C        1.9425542402    -2.5838642178     1.6587056229
| 10>  O        2.3734215526    -3.8373270130     1.2050930374
| 11>  C        2.8742508314    -1.4645717771     1.1984726586
| 12>  O        4.0589472311    -1.5625243846     1.0375918968
| 13>  O        2.1654547889    -0.3378612642     0.9867361023
| 14>  H        1.0466075611     1.7629269625    -0.1630786057
| 15>  H       -0.5651904401     1.6130356761    -0.9173659712
| 16>  H       -0.4215175861     1.7428991138     0.8576097926
| 17>  H        0.3934623897    -0.1227222300     2.0039810649
| 18>  H       -0.2685392030    -2.4646462425     1.6660498614
| 19>  H        0.5015635179    -2.4834967547     0.0623605781
| 20>  H        1.9202054485    -2.5474396416     2.7626249681
| 21>  H        3.3346498514    -3.7715754103     1.1128598702
| 22> *
| 23>
| 24>                          ****END OF INPUT****

CARTESIAN COORDINATES (ANGSTROEM)
---------------------------------
  C      0.042566    1.339772   -0.053489
  O      0.084509   -0.082200   -0.018203
  C      0.729115   -0.606875    1.074622
  C      0.597796   -2.132727    1.093362
  C      1.942554   -2.583864    1.658706
  O      2.373422   -3.837327    1.205093
  C      2.874251   -1.464572    1.198473
  O      4.058947   -1.562524    1.037592
  O      2.165455   -0.337861    0.986736
  H      1.046608    1.762927   -0.163079
  H     -0.565190    1.613036   -0.917366
  H     -0.421518    1.742899    0.857610
  H      0.393462   -0.122722    2.003981
  H     -0.268539   -2.464646    1.666050
  H      0.501564   -2.483497    0.062361
  H      1.920205   -2.547440    2.762625
  H      3.334650   -3.771575    1.112860

 Total Charge           Charge          ....    0
 Multiplicity           Mult            ....    1
 Number of Electrons    NEL             ....   70
 Basis Dimension        Dim             ....  327

ORBITAL ENERGIES
----------------

  NO   OCC          E(Eh)            E(eV)
   0   2.0000     -20.614780      -560.9567
   1   2.0000     -20.589989      -560.2821
   2   2.0000     -20.576080      -559.9036
   3   2.0000     -20.556262      -559.3643
   4   2.0000     -11.388330      -309.8922
   5   2.0000     -11.370003      -309.3935
   6   2.0000     -11.315562      -307.9121
   7   2.0000     -11.289464      -307.2019
   8   2.0000     -11.253219      -306.2157
   9   2.0000      -1.483030       -40.3553
  10   2.0000      -1.420598       -38.6564
  11   2.0000      -1.386405       -37.7260
  12   2.0000      -1.368560       -37.2404
  13   2.0000      -1.088599       -29.6223
  14   2.0000      -0.996905       -27.1272
  15   2.0000      -0.921949       -25.0875
  16   2.0000      -0.862204       -23.4618
  17   2.0000      -0.802020       -21.8241
  18   2.0000      -0.754038       -20.5184
  19   2.0000      -0.724820       -19.7234
  20   2.0000      -0.691449       -18.8153
  21   2.0000      -0.685062       -18.6415
  22   2.0000      -0.655192       -17.8287
  23   2.0000      -0.645201       -17.5568
  24   2.0000      -0.619115       -16.8470
  25   2.0000      -0.605295       -16.4709
  26   2.0000      -0.582991       -15.8640
  27   2.0000      -0.562547       -15.3077
  28   2.0000      -0.540875       -14.7180
  29   2.0000      -0.535228       -14.5643
  30   2.0000      -0.515941       -14.0395
  31   2.0000      -0.481206       -13.0943
  32   2.0000      -0.468400       -12.7458
  33   2.0000      -0.464688       -12.6448
  34   2.0000      -0.445358       -12.1188
  35   0.0000       0.124953         3.4001
  36   0.0000       0.145100         3.9484
  37   0.0000       0.165619         4.5067
  38   0.0000       0.170039         4.6270
  39   0.0000       0.175497         4.7755

MULLIKEN ATOMIC CHARGES
-----------------------
   0 C :   -0.227466
   1 O :   -0.269704
   2 C :    0.126980
   3 C :   -0.160854
   4 C :    0.057761
   5 O :   -0.468094
   6 C :    0.232487
   7 O :   -0.304072
   8 O :   -0.210661
   9 H :    0.151485
  10 H :    0.147890
  11 H :    0.115357
  12 H :    0.085893
  13 H :    0.143193
  14 H :    0.139025
  15 H :    0.103014
  16 H :    0.337765
Sum of atomic charges:   -0.0000000

LOEWDIN ATOMIC CHARGES
----------------------
   0 C :   -0.331356
   1 O :    0.186044
   2 C :   -0.365538
   3 C :   -0.202814
   4 C :   -0.329400
   5 O :   -0.000907
   6 C :   -0.467084
   7 O :    0.133228
   8 O :    0.270619
   9 H :    0.111766
  10 H :    0.117074
  11 H :    0.105641
  12 H :    0.128965
  13 H :    0.143843
  14 H :    0.158936
  15 H :    0.151006
  16 H :    0.189978

  Mayer bond orders larger than 0.1
B(  0-C ,  1-O ) :   0.8726 B(  0-C ,  9-H ) :   0.9372 B(  0-C , 10-H ) :   0.9367
B(  0-C , 11-H ) :   0.9318 B(  1-O ,  2-C ) :   1.0995 B(  2-C ,  3-C ) :   0.9088
B(  2-C ,  8-O ) :   0.8632 B(  2-C , 12-H ) :   0.9403 B(  3-C ,  4-C ) :   0.8900
B(  3-C , 13-H ) :   0.9226 B(  3-C , 14-H ) :   0.9017 B(  4-C ,  5-O ) :   1.0508
B(  4-C ,  6-C ) :   0.9112 B(  4-C , 15-H ) :   0.9188 B(  5-O , 16-H ) :   0.8167
B(  6-C ,  7-O ) :   1.9846 B(  6-C ,  8-O ) :   1.1356

MP2 TOTAL ENERGY:     -495.375870442 Eh
FINAL SINGLE POINT ENERGY      -495.375870441772

DIPOLE MOMENT
-------------
                                X             Y             Z
Electronic contribution:      5.70257      -2.86589       0.33019
Nuclear contribution   :     -6.84854       3.47082       0.18894
                        -----------------------------------------
Total Dipole Moment    :     -1.14598       0.60493       0.51913
                        -----------------------------------------
Magnitude (a.u.)       :      1.39596
Magnitude (Debye)      :      3.54825

                             ****ORCA TERMINATED NORMALLY****
TOTAL RUN TIME: 0 days 0 hours 23 minutes 18 seconds 918 msec
