                         Program Version 3.0.3 - RELEASE   -
|  1> ! RI-MP2 RIJK def2-TZVP def2-TZVP/C def2-TZVP/JK TIGHTSCF
|  2> % maxcore 2000
|  3> % mp2 density relaxed end
|  4> *xyz 0 1
|  5>  C       -0.1657360325     1.5379310296    -0.0120668384
|  6>  C        0.0007767291     0.0119402357     0.0068056840
|  7>  C       -1.3230608651    -0.5846944685    -0.1953156964
|  8>  N       -2.3944379738    -0.9882389621    -0.3581660481
|  9>  C        1.1889002215    -0.6100156160    -0.8513556115
| 10>  C        2.1307541280    -0.1881318078     0.3272352806
| 11>  C        0.8836961620    -0.6182603708     1.1722196338
| 12>  C        0.8173060263    -2.1047924315     0.7970966205
| 13>  C        1.0166512916    -2.0994124349    -0.5243499119
| 14>  H        0.7785988028     2.0632772184     0.1319819448
| 15>  H       -0.5927013358     1.8581160141    -0.9672606896
| 16>  H       -0.8550179743     1.8510845293     0.7778992379
| 17>  H        1.3537744991    -0.3048021206    -1.8838016983
| 18>  H        3.0288496822    -0.7919688275     0.4602179967
| 19>  H        2.3778712551     0.8736388291     0.3688343529
| 20>  H        0.7363725192    -0.3214710522     2.2097639272
| 21>  H        0.6270579612    -2.9254338701     1.4726123407
| 22>  H        1.0351160034    -2.9144173341    -1.2324414550
| 23> *
| 24>
| 25>                          ****END OF INPUT****

CARTESIAN COORDINATES (ANGSTROEM)
---------------------------------
  C     -0.165736    1.537931   -0.012067
  C      0.000777    0.011940    0.006806
  C     -1.323061   -0.584694   -0.195316
  N     -2.394438   -0.988239   -0.358166
  C      1.188900   -0.610016   -0.851356
  C      2.130754   -0.188132    0.327235
  C      0.883696   -0.618260    1.172220
  C      0.817306   -2.104792    0.797097
  C      1.016651   -2.099412   -0.524350
  H      0.778599    2.063277    0.131982
  H     -0.592701    1.858116   -0.967261
  H     -0.855018    1.851085    0.777899
  H      1.353774   -0.304802   -1.883802
  H      3.028850   -0.791969    0.460218
  H      2.377871    0.873639    0.368834
  H      0.736373   -0.321471    2.209764
  H      0.627058   -2.925434    1.472612
  H      1.035116   -2.914417   -1.232441

 Total Charge           Charge          ....    0
 Multiplicity           Mult            ....    1
 Number of Electrons    NEL             ....   64
 Basis Dimension        Dim             ....  333

ORBITAL ENERGIES
----------------

  NO   OCC          E(Eh)            E(eV)
   0   2.0000     -15.557485      -423.3407
   1   2.0000     -11.292647      -307.2886
   2   2.0000     -11.266011      -306.5638
   3   2.0000     -11.266006      -306.5636
   4   2.0000     -11.260297      -306.4082
   5   2.0000     -11.246711      -306.0386
   6   2.0000     -11.240228      -305.8622
   7   2.0000     -11.239994      -305.8558
   8   2.0000     -11.238519      -305.8157
   9   2.0000      -1.231081       -33.4994
  10   2.0000      -1.197263       -32.5792
  11   2.0000      -1.050554       -28.5870
  12   2.0000      -0.979079       -26.6421
  13   2.0000      -0.937997       -25.5242
  14   2.0000      -0.903792       -24.5934
  15   2.0000      -0.786637       -21.4055
  16   2.0000      -0.737278       -20.0624
  17   2.0000      -0.715427       -19.4678
  18   2.0000      -0.691378       -18.8134
  19   2.0000      -0.607204       -16.5229
  20   2.0000      -0.597368       -16.2552
  21   2.0000      -0.577744       -15.7212
  22   2.0000      -0.559259       -15.2182
  23   2.0000      -0.555154       -15.1065
  24   2.0000      -0.517144       -14.0722
  25   2.0000      -0.506551       -13.7840
  26   2.0000      -0.506325       -13.7778
  27   2.0000      -0.501772       -13.6539
  28   2.0000      -0.462935       -12.5971
  29   2.0000      -0.444056       -12.0834
  30   2.0000      -0.423872       -11.5341
  31   2.0000      -0.350497        -9.5375
  32   0.0000       0.127669         3.4740
  33   0.0000       0.130973         3.5640
  34   0.0000       0.154344         4.1999
  35   0.0000       0.160615         4.3706
  36   0.0000       0.164534         4.4772

MULLIKEN ATOMIC CHARGES
-----------------------
   0 C :   -0.404220
   1 C :    0.138799
   2 C :   -0.240794
   3 N :   -0.036111
   4 C :   -0.022981
   5 C :   -0.238153
   6 C :   -0.022954
   7 C :   -0.214563
   8 C :   -0.214553
   9 H :    0.133336
  10 H :    0.151450
  11 H :    0.151438
  12 H :    0.142371
  13 H :    0.128886
  14 H :    0.120637
  15 H :    0.142376
  16 H :    0.142519
  17 H :    0.142518
Sum of atomic charges:    0.0000000

LOEWDIN ATOMIC CHARGES
----------------------
   0 C :   -0.245665
   1 C :   -0.204696
   2 C :   -0.153893
   3 N :    0.062660
   4 C :   -0.131771
   5 C :   -0.175304
   6 C :   -0.131762
   7 C :   -0.117219
   8 C :   -0.117224
   9 H :    0.127011
  10 H :    0.136532
  11 H :    0.136530
  12 H :    0.138746
  13 H :    0.133484
  14 H :    0.128379
  15 H :    0.138748
  16 H :    0.137723
  17 H :    0.137722

  Mayer bond orders larger than 0.1
B(  0-C ,  1-C ) :   0.9174 B(  0-C ,  9-H ) :   0.9266 B(  0-C , 10-H ) :   0.9309
B(  0-C , 11-H ) :   0.9309 B(  1-C ,  2-C ) :   0.9133 B(  1-C ,  4-C ) :   0.8716
B(  1-C ,  6-C ) :   0.8716 B(  2-C ,  3-N ) :   2.9067 B(  4-C ,  5-C ) :   0.9208
B(  4-C ,  8-C ) :   0.9201 B(  4-C , 12-H ) :   0.9009 B(  5-C ,  6-C ) :   0.9208
B(  5-C , 13-H ) :   0.9147 B(  5-C , 14-H ) :   0.9281 B(  6-C ,  7-C ) :   0.9200
B(  6-C , 15-H ) :   0.9009 B(  7-C ,  8-C ) :   1.7569 B(  7-C , 16-H ) :   0.9295
B(  8-C , 17-H ) :   0.9295

MP2 TOTAL ENERGY:     -364.132735508 Eh
FINAL SINGLE POINT ENERGY      -364.132735507834

DIPOLE MOMENT
-------------
                                X             Y             Z
Electronic contribution:     -4.37883      -3.82526      -0.67593
Nuclear contribution   :      5.84890       4.41014       0.89984
                        -----------------------------------------
Total Dipole Moment    :      1.47007       0.58488       0.22390
                        -----------------------------------------
Magnitude (a.u.)       :      1.59791
Magnitude (Debye)      :      4.06157

                             ****ORCA TERMINATED NORMALLY****
TOTAL RUN TIME: 0 days 0 hours 22 minutes 36 seconds 26 msec
