                         Program Version 3.0.3 - RELEASE   -
|  1> ! RI-MP2 RIJK def2-TZVP def2-TZVP/C def2-TZVP/JK TIGHTSCF
|  2> % maxcore 2000
|  3> % mp2 density relaxed end
|  4> *xyz 0 1
|  5>  O        0.2207181816     0.1138236160    -0.7330652249
|  6>  C        0.0699688095     1.1836693205    -0.2168925433
|  7>  C       -1.0867382309     1.8595161611     0.5265955157
|  8>  C       -0.1491346223     3.0817496717     0.7994719844
|  9>  C        0.1650242723     3.3563191995     2.2776335234
| 10>  C        1.0907848525     2.3291160798     2.8823234639
| 11>  C        2.0673509084     1.7507780789     2.1831264446
| 12>  C        2.3105413017     2.0644630069     0.7283961317
| 13>  C        1.0056445627     2.3905064983    -0.0137630810
| 14>  H       -1.9604821614     2.0631363400    -0.0998233196
| 15>  H       -1.4179170006     1.3074972617     1.4124487008
| 16>  H       -0.5123708307     3.9944061352     0.3226884238
| 17>  H        0.6267867939     4.3506805167     2.3686679839
| 18>  H       -0.7703200885     3.4138319383     2.8465205867
| 19>  H        0.9625429805     2.0922036534     3.9350285901
| 20>  H        2.7360456479     1.0412355555     2.6625128839
| 21>  H        3.0069453078     2.9109074296     0.6434681338
| 22>  H        2.7953799847     1.2204664029     0.2252617284
| 23>  H        1.2228302307     2.8827020240    -0.9679048963
| 24> *
| 25>
| 26>                          ****END OF INPUT****

CARTESIAN COORDINATES (ANGSTROEM)
---------------------------------
  O      0.220718    0.113824   -0.733065
  C      0.069969    1.183669   -0.216893
  C     -1.086738    1.859516    0.526596
  C     -0.149135    3.081750    0.799472
  C      0.165024    3.356319    2.277634
  C      1.090785    2.329116    2.882323
  C      2.067351    1.750778    2.183126
  C      2.310541    2.064463    0.728396
  C      1.005645    2.390506   -0.013763
  H     -1.960482    2.063136   -0.099823
  H     -1.417917    1.307497    1.412449
  H     -0.512371    3.994406    0.322688
  H      0.626787    4.350681    2.368668
  H     -0.770320    3.413832    2.846521
  H      0.962543    2.092204    3.935029
  H      2.736046    1.041236    2.662513
  H      3.006945    2.910907    0.643468
  H      2.795380    1.220466    0.225262
  H      1.222830    2.882702   -0.967905

 Total Charge           Charge          ....    0
 Multiplicity           Mult            ....    1
 Number of Electrons    NEL             ....   66
 Basis Dimension        Dim             ....  339

ORBITAL ENERGIES
----------------

  NO   OCC          E(Eh)            E(eV)
   0   2.0000     -20.547003      -559.1124
   1   2.0000     -11.324007      -308.1419
   2   2.0000     -11.244573      -305.9804
   3   2.0000     -11.241461      -305.8957
   4   2.0000     -11.237357      -305.7840
   5   2.0000     -11.236090      -305.7496
   6   2.0000     -11.234792      -305.7142
   7   2.0000     -11.231714      -305.6305
   8   2.0000     -11.229974      -305.5831
   9   2.0000      -1.389402       -37.8075
  10   2.0000      -1.159223       -31.5441
  11   2.0000      -1.071592       -29.1595
  12   2.0000      -1.021174       -27.7875
  13   2.0000      -0.941600       -25.6222
  14   2.0000      -0.869550       -23.6617
  15   2.0000      -0.822460       -22.3803
  16   2.0000      -0.738869       -20.1056
  17   2.0000      -0.689706       -18.7678
  18   2.0000      -0.672203       -18.2916
  19   2.0000      -0.662450       -18.0262
  20   2.0000      -0.642271       -17.4771
  21   2.0000      -0.611351       -16.6357
  22   2.0000      -0.579746       -15.7757
  23   2.0000      -0.566879       -15.4256
  24   2.0000      -0.558164       -15.1884
  25   2.0000      -0.549388       -14.9496
  26   2.0000      -0.531164       -14.4537
  27   2.0000      -0.502633       -13.6773
  28   2.0000      -0.474676       -12.9166
  29   2.0000      -0.448961       -12.2168
  30   2.0000      -0.445744       -12.1293
  31   2.0000      -0.391885       -10.6637
  32   2.0000      -0.353469        -9.6184
  33   0.0000       0.117249         3.1905
  34   0.0000       0.134226         3.6525
  35   0.0000       0.148664         4.0454
  36   0.0000       0.163291         4.4434
  37   0.0000       0.169748         4.6191

MULLIKEN ATOMIC CHARGES
-----------------------
   0 O :   -0.256055
   1 C :    0.075839
   2 C :   -0.231947
   3 C :   -0.038470
   4 C :   -0.212890
   5 C :   -0.188581
   6 C :   -0.197136
   7 C :   -0.187211
   8 C :   -0.040541
   9 H :    0.139953
  10 H :    0.132438
  11 H :    0.110878
  12 H :    0.122880
  13 H :    0.129576
  14 H :    0.123887
  15 H :    0.125139
  16 H :    0.126930
  17 H :    0.140458
  18 H :    0.124852
Sum of atomic charges:    0.0000000

LOEWDIN ATOMIC CHARGES
----------------------
   0 O :    0.162414
   1 C :   -0.292907
   2 C :   -0.186512
   3 C :   -0.188603
   4 C :   -0.234675
   5 C :   -0.171976
   6 C :   -0.166972
   7 C :   -0.225384
   8 C :   -0.168442
   9 H :    0.143626
  10 H :    0.147881
  11 H :    0.144363
  12 H :    0.149356
  13 H :    0.144518
  14 H :    0.141437
  15 H :    0.142679
  16 H :    0.149076
  17 H :    0.152155
  18 H :    0.157966

  Mayer bond orders larger than 0.1
B(  0-O ,  1-C ) :   2.0347 B(  1-C ,  2-C ) :   0.9040 B(  1-C ,  8-C ) :   0.8283
B(  2-C ,  3-C ) :   0.9426 B(  2-C ,  8-C ) :  -0.1233 B(  2-C ,  9-H ) :   0.8976
B(  2-C , 10-H ) :   0.8879 B(  3-C ,  4-C ) :   0.9246 B(  3-C ,  8-C ) :   0.9326
B(  3-C , 11-H ) :   0.9243 B(  4-C ,  5-C ) :   0.9386 B(  4-C , 12-H ) :   0.9069
B(  4-C , 13-H ) :   0.9386 B(  5-C ,  6-C ) :   1.7791 B(  5-C , 14-H ) :   0.9326
B(  6-C ,  7-C ) :   0.9531 B(  6-C , 15-H ) :   0.9322 B(  7-C ,  8-C ) :   0.9169
B(  7-C , 16-H ) :   0.9116 B(  7-C , 17-H ) :   0.9226 B(  8-C , 18-H ) :   0.8961

MP2 TOTAL ENERGY:     -385.226159233 Eh
FINAL SINGLE POINT ENERGY      -385.226159232757

DIPOLE MOMENT
-------------
                                X             Y             Z
Electronic contribution:     -0.47943      -3.92926      -3.45102
Nuclear contribution   :      0.43234       4.97231       3.91121
                        -----------------------------------------
Total Dipole Moment    :     -0.04709       1.04305       0.46019
                        -----------------------------------------
Magnitude (a.u.)       :      1.14102
Magnitude (Debye)      :      2.90025

                             ****ORCA TERMINATED NORMALLY****
TOTAL RUN TIME: 0 days 0 hours 19 minutes 44 seconds 402 msec
