                         Program Version 3.0.3 - RELEASE   -
|  1> ! RI-MP2 RIJK def2-TZVP def2-TZVP/C def2-TZVP/JK TIGHTSCF
|  2> % maxcore 2000
|  3> % mp2 density relaxed end
|  4> *xyz 0 1
|  5>  O       -0.0134660815     1.3869269091     0.2241898144
|  6>  C       -0.0462256529     0.0077938733     0.1307031279
|  7>  C       -0.4385527648    -0.7713521907     1.3439808624
|  8>  O       -1.1466119424    -0.0605651641     2.3334623231
|  9>  C       -2.2802840038     0.3800884561     1.7306151015
| 10>  N       -2.5258988640     0.0218455425     0.5351316998
| 11>  C       -1.3826401028    -0.7580664812     0.1083315538
| 12>  C       -1.5774056899    -1.8426815532    -0.8010472250
| 13>  C       -1.7026527140    -2.7589887062    -1.5695184517
| 14>  H       -0.4606895478     1.7561914442    -0.5459590474
| 15>  H        0.7264131549    -0.4588202991    -0.4789483348
| 16>  H        0.1234488080    -1.6122203003     1.7276479999
| 17>  H       -2.9084819196     1.0081705233     2.3489236322
| 18>  H       -1.8293674194    -3.5675691538    -2.2460652160
| 19> *
| 20>
| 21>                          ****END OF INPUT****

CARTESIAN COORDINATES (ANGSTROEM)
---------------------------------
  O     -0.013466    1.386927    0.224190
  C     -0.046226    0.007794    0.130703
  C     -0.438553   -0.771352    1.343981
  O     -1.146612   -0.060565    2.333462
  C     -2.280284    0.380088    1.730615
  N     -2.525899    0.021846    0.535132
  C     -1.382640   -0.758066    0.108332
  C     -1.577406   -1.842682   -0.801047
  C     -1.702653   -2.758989   -1.569518
  H     -0.460690    1.756191   -0.545959
  H      0.726413   -0.458820   -0.478948
  H      0.123449   -1.612220    1.727648
  H     -2.908482    1.008171    2.348924
  H     -1.829367   -3.567569   -2.246065

 Total Charge           Charge          ....    0
 Multiplicity           Mult            ....    1
 Number of Electrons    NEL             ....   64
 Basis Dimension        Dim             ....  309

ORBITAL ENERGIES
----------------

  NO   OCC          E(Eh)            E(eV)
   0   2.0000     -20.619661      -561.0895
   1   2.0000     -20.584469      -560.1319
   2   2.0000     -15.567215      -423.6055
   3   2.0000     -11.347480      -308.7806
   4   2.0000     -11.316030      -307.9248
   5   2.0000     -11.312301      -307.8234
   6   2.0000     -11.305780      -307.6459
   7   2.0000     -11.245024      -305.9927
   8   2.0000     -11.235054      -305.7214
   9   2.0000      -1.471146       -40.0319
  10   2.0000      -1.394492       -37.9460
  11   2.0000      -1.242735       -33.8165
  12   2.0000      -1.135694       -30.9038
  13   2.0000      -1.035585       -28.1797
  14   2.0000      -0.900517       -24.5043
  15   2.0000      -0.885330       -24.0910
  16   2.0000      -0.801459       -21.8088
  17   2.0000      -0.774299       -21.0697
  18   2.0000      -0.722116       -19.6498
  19   2.0000      -0.701967       -19.1015
  20   2.0000      -0.692409       -18.8414
  21   2.0000      -0.653288       -17.7769
  22   2.0000      -0.631035       -17.1713
  23   2.0000      -0.601722       -16.3737
  24   2.0000      -0.587471       -15.9859
  25   2.0000      -0.528689       -14.3863
  26   2.0000      -0.510243       -13.8844
  27   2.0000      -0.477209       -12.9855
  28   2.0000      -0.447876       -12.1873
  29   2.0000      -0.410376       -11.1669
  30   2.0000      -0.390035       -10.6134
  31   2.0000      -0.358918        -9.7666
  32   0.0000       0.136578         3.7165
  33   0.0000       0.146343         3.9822
  34   0.0000       0.156082         4.2472
  35   0.0000       0.162587         4.4242
  36   0.0000       0.168876         4.5953

MULLIKEN ATOMIC CHARGES
-----------------------
   0 O :   -0.449091
   1 C :    0.007029
   2 C :    0.081870
   3 O :   -0.252082
   4 C :    0.112555
   5 N :   -0.261741
   6 C :   -0.150192
   7 C :    0.010717
   8 C :   -0.077381
   9 H :    0.340094
  10 H :    0.127498
  11 H :    0.159118
  12 H :    0.154594
  13 H :    0.197011
Sum of atomic charges:    0.0000000

LOEWDIN ATOMIC CHARGES
----------------------
   0 O :    0.031892
   1 C :   -0.284932
   2 C :   -0.194686
   3 O :    0.278711
   4 C :   -0.316859
   5 N :    0.127072
   6 C :   -0.249420
   7 C :   -0.069899
   8 C :   -0.075267
   9 H :    0.193648
  10 H :    0.149128
  11 H :    0.144406
  12 H :    0.137193
  13 H :    0.129013

  Mayer bond orders larger than 0.1
B(  0-O ,  1-C ) :   1.0276 B(  0-O ,  9-H ) :   0.8315 B(  1-C ,  2-C ) :   0.8370
B(  1-C ,  6-C ) :   0.8495 B(  1-C , 10-H ) :   0.9489 B(  2-C ,  3-O ) :   0.9231
B(  2-C ,  6-C ) :   0.8265 B(  2-C , 11-H ) :   0.9102 B(  3-O ,  4-C ) :   1.0695
B(  4-C ,  5-N ) :   1.7734 B(  4-C , 12-H ) :   0.9200 B(  5-N ,  6-C ) :   1.0415
B(  6-C ,  7-C ) :   1.1847 B(  6-C ,  8-C ) :  -0.1767 B(  7-C ,  8-C ) :   2.5942
B(  8-C , 13-H ) :   0.8812

MP2 TOTAL ENERGY:     -435.901702973 Eh
FINAL SINGLE POINT ENERGY      -435.901702973442

DIPOLE MOMENT
-------------
                                X             Y             Z
Electronic contribution:     -1.18679       0.51079       1.29007
Nuclear contribution   :      1.55280      -0.74389      -1.52800
                        -----------------------------------------
Total Dipole Moment    :      0.36601      -0.23310      -0.23793
                        -----------------------------------------
Magnitude (a.u.)       :      0.49488
Magnitude (Debye)      :      1.25788

                             ****ORCA TERMINATED NORMALLY****
TOTAL RUN TIME: 0 days 0 hours 14 minutes 29 seconds 415 msec
