                         Program Version 3.0.3 - RELEASE   -
|  1> ! RI-MP2 RIJK def2-TZVP def2-TZVP/C def2-TZVP/JK TIGHTSCF
|  2> % maxcore 2000
|  3> % mp2 density relaxed end
|  4> *xyz 0 1
|  5>  C        0.0111852285     1.5290369004    -0.0097622038
|  6>  C       -0.0296614047    -0.0070883159     0.0401944715
|  7>  C       -1.4633385713    -0.5302442717    -0.0013701799
|  8>  O        0.6711013075    -0.5624580971    -1.0852505290
|  9>  C        2.0364861419    -0.7534770508    -0.7358760074
| 10>  C        2.0298872051    -1.1809838433     0.7397587068
| 11>  C        0.7619550645    -0.5348867184     1.2344734062
| 12>  N        0.3388870981    -0.4024868911     2.4239717982
| 13>  O        1.2362862268    -0.9607998064     3.3527663551
| 14>  H        1.0406784515     1.8994621795    -0.0130707663
| 15>  H       -0.4856037679     1.8840037931    -0.9174016116
| 16>  H       -0.4943027498     1.9491697188     0.8640705359
| 17>  H       -1.9678151706    -0.1745563749    -0.9044714312
| 18>  H       -1.4682791160    -1.6229717347    -0.0083032203
| 19>  H       -2.0144713067    -0.1831136277     0.8760149774
| 20>  H        2.4488072582    -1.5065120856    -1.4117826140
| 21>  H        2.6130706209     0.1752685000    -0.8676790427
| 22>  H        1.9547879095    -2.2693019543     0.8471786343
| 23>  H        2.9043800179    -0.8583707288     1.3099881564
| 24>  H        0.7950674365    -0.7881345510     4.1914161846
| 25> *
| 26>
| 27>                          ****END OF INPUT****

CARTESIAN COORDINATES (ANGSTROEM)
---------------------------------
  C      0.011185    1.529037   -0.009762
  C     -0.029661   -0.007088    0.040194
  C     -1.463339   -0.530244   -0.001370
  O      0.671101   -0.562458   -1.085251
  C      2.036486   -0.753477   -0.735876
  C      2.029887   -1.180984    0.739759
  C      0.761955   -0.534887    1.234473
  N      0.338887   -0.402487    2.423972
  O      1.236286   -0.960800    3.352766
  H      1.040678    1.899462   -0.013071
  H     -0.485604    1.884004   -0.917402
  H     -0.494303    1.949170    0.864071
  H     -1.967815   -0.174556   -0.904471
  H     -1.468279   -1.622972   -0.008303
  H     -2.014471   -0.183114    0.876015
  H      2.448807   -1.506512   -1.411783
  H      2.613071    0.175268   -0.867679
  H      1.954788   -2.269302    0.847179
  H      2.904380   -0.858371    1.309988
  H      0.795067   -0.788135    4.191416

 Total Charge           Charge          ....    0
 Multiplicity           Mult            ....    1
 Number of Electrons    NEL             ....   70
 Basis Dimension        Dim             ....  345

ORBITAL ENERGIES
----------------

  NO   OCC          E(Eh)            E(eV)
   0   2.0000     -20.592392      -560.3475
   1   2.0000     -20.556228      -559.3634
   2   2.0000     -15.614315      -424.8871
   3   2.0000     -11.296486      -307.3930
   4   2.0000     -11.282231      -307.0051
   5   2.0000     -11.277097      -306.8654
   6   2.0000     -11.239572      -305.8443
   7   2.0000     -11.219005      -305.2847
   8   2.0000     -11.214620      -305.1653
   9   2.0000      -1.418691       -38.6045
  10   2.0000      -1.384820       -37.6829
  11   2.0000      -1.168146       -31.7869
  12   2.0000      -1.059746       -28.8371
  13   2.0000      -1.020737       -27.7757
  14   2.0000      -0.941442       -25.6180
  15   2.0000      -0.890989       -24.2450
  16   2.0000      -0.815864       -22.2008
  17   2.0000      -0.725744       -19.7485
  18   2.0000      -0.693346       -18.8669
  19   2.0000      -0.680877       -18.5276
  20   2.0000      -0.666827       -18.1453
  21   2.0000      -0.623078       -16.9548
  22   2.0000      -0.602039       -16.3823
  23   2.0000      -0.592723       -16.1288
  24   2.0000      -0.579836       -15.7781
  25   2.0000      -0.573590       -15.6082
  26   2.0000      -0.547125       -14.8880
  27   2.0000      -0.533665       -14.5218
  28   2.0000      -0.527995       -14.3675
  29   2.0000      -0.503756       -13.7079
  30   2.0000      -0.492608       -13.4045
  31   2.0000      -0.486885       -13.2488
  32   2.0000      -0.429940       -11.6993
  33   2.0000      -0.418696       -11.3933
  34   2.0000      -0.383391       -10.4326
  35   0.0000       0.132880         3.6158
  36   0.0000       0.149050         4.0559
  37   0.0000       0.153573         4.1789
  38   0.0000       0.163670         4.4537
  39   0.0000       0.173769         4.7285

MULLIKEN ATOMIC CHARGES
-----------------------
   0 C :   -0.424564
   1 C :    0.251374
   2 C :   -0.379799
   3 O :   -0.316454
   4 C :   -0.049963
   5 C :   -0.204395
   6 C :   -0.035497
   7 N :   -0.109133
   8 O :   -0.368226
   9 H :    0.127182
  10 H :    0.138746
  11 H :    0.139592
  12 H :    0.136861
  13 H :    0.128641
  14 H :    0.137840
  15 H :    0.124260
  16 H :    0.090427
  17 H :    0.133022
  18 H :    0.144498
  19 H :    0.335588
Sum of atomic charges:   -0.0000000

LOEWDIN ATOMIC CHARGES
----------------------
   0 C :   -0.261624
   1 C :   -0.355999
   2 C :   -0.260036
   3 O :    0.191224
   4 C :   -0.298139
   5 C :   -0.228262
   6 C :   -0.243413
   7 N :    0.032811
   8 O :   -0.072253
   9 H :    0.126062
  10 H :    0.128577
  11 H :    0.131648
  12 H :    0.128711
  13 H :    0.129031
  14 H :    0.132069
  15 H :    0.127005
  16 H :    0.118677
  17 H :    0.154671
  18 H :    0.149967
  19 H :    0.169273

  Mayer bond orders larger than 0.1
B(  0-C ,  1-C ) :   0.9122 B(  0-C ,  9-H ) :   0.9238 B(  0-C , 10-H ) :   0.9376
B(  0-C , 11-H ) :   0.9312 B(  1-C ,  2-C ) :   0.8929 B(  1-C ,  3-O ) :   0.9337
B(  1-C ,  6-C ) :   0.9053 B(  2-C , 12-H ) :   0.9381 B(  2-C , 13-H ) :   0.9355
B(  2-C , 14-H ) :   0.9304 B(  3-O ,  4-C ) :   0.9225 B(  4-C ,  5-C ) :   0.9654
B(  4-C , 15-H ) :   0.9303 B(  4-C , 16-H ) :   0.9176 B(  5-C ,  6-C ) :   0.9442
B(  5-C , 17-H ) :   0.8991 B(  5-C , 18-H ) :   0.9110 B(  6-C ,  7-N ) :   1.8929
B(  7-N ,  8-O ) :   0.8036 B(  8-O , 19-H ) :   0.8447

MP2 TOTAL ENERGY:     -439.539448395 Eh
FINAL SINGLE POINT ENERGY      -439.539448394521

DIPOLE MOMENT
-------------
                                X             Y             Z
Electronic contribution:      1.73298      -2.44900       3.71974
Nuclear contribution   :     -1.45302       2.52219      -3.40389
                        -----------------------------------------
Total Dipole Moment    :      0.27996       0.07320       0.31585
                        -----------------------------------------
Magnitude (a.u.)       :      0.42836
Magnitude (Debye)      :      1.08881

                             ****ORCA TERMINATED NORMALLY****
TOTAL RUN TIME: 0 days 0 hours 19 minutes 5 seconds 364 msec
