                         Program Version 3.0.3 - RELEASE   -
|  1> ! RI-MP2 RIJK def2-TZVP def2-TZVP/C def2-TZVP/JK TIGHTSCF
|  2> % maxcore 2000
|  3> % mp2 density relaxed end
|  4> *xyz 0 1
|  5>  C        0.0102741258     1.4432621412    -0.3693255667
|  6>  C       -0.0673190781    -0.0486496459    -0.0813532040
|  7>  C       -0.3382319074    -0.5502969964     1.3158190512
|  8>  C       -1.3925245958    -0.6865228915     0.2443999960
|  9>  C        1.3824648145     2.0214756839    -0.1875640626
| 10>  C        2.1450051874     2.6437212774    -1.0833684235
| 11>  C        3.4390169421     3.0779717584    -0.4594876025
| 12>  O        3.3636299079     2.6437224472     0.8962964343
| 13>  C        2.1230512907     1.9853652778     1.1282799069
| 14>  H       -0.3305175874     1.6414037187    -1.3925597430
| 15>  H       -0.6959641657     1.9596352105     0.2980123398
| 16>  H        0.6167519769    -0.6480708399    -0.6763658489
| 17>  H        0.1728453867    -1.4444083201     1.6550176448
| 18>  H       -0.5047057100     0.1867740144     2.0949997080
| 19>  H       -2.2627685353    -0.0407859692     0.3062600846
| 20>  H       -1.6019691542    -1.6740959523    -0.1511943893
| 21>  H        1.8929772817     2.8342768373    -2.1196549878
| 22>  H        4.3185735509     2.6268237779    -0.9471880015
| 23>  H        3.5791394229     4.1707865414    -0.4955889670
| 24>  H        1.5654614720     2.5019816955     1.9277864578
| 25>  H        2.3048012642     0.9578645737     1.4786292235
| 26> *
| 27>
| 28>                          ****END OF INPUT****

CARTESIAN COORDINATES (ANGSTROEM)
---------------------------------
  C      0.010274    1.443262   -0.369326
  C     -0.067319   -0.048650   -0.081353
  C     -0.338232   -0.550297    1.315819
  C     -1.392525   -0.686523    0.244400
  C      1.382465    2.021476   -0.187564
  C      2.145005    2.643721   -1.083368
  C      3.439017    3.077972   -0.459488
  O      3.363630    2.643722    0.896296
  C      2.123051    1.985365    1.128280
  H     -0.330518    1.641404   -1.392560
  H     -0.695964    1.959635    0.298012
  H      0.616752   -0.648071   -0.676366
  H      0.172845   -1.444408    1.655018
  H     -0.504706    0.186774    2.095000
  H     -2.262769   -0.040786    0.306260
  H     -1.601969   -1.674096   -0.151194
  H      1.892977    2.834277   -2.119655
  H      4.318574    2.626824   -0.947188
  H      3.579139    4.170787   -0.495589
  H      1.565461    2.501982    1.927786
  H      2.304801    0.957865    1.478629

 Total Charge           Charge          ....    0
 Multiplicity           Mult            ....    1
 Number of Electrons    NEL             ....   68
 Basis Dimension        Dim             ....  351

ORBITAL ENERGIES
----------------

  NO   OCC          E(Eh)            E(eV)
   0   2.0000     -20.544877      -559.0545
   1   2.0000     -11.273103      -306.7567
   2   2.0000     -11.272522      -306.7409
   3   2.0000     -11.237182      -305.7793
   4   2.0000     -11.236139      -305.7509
   5   2.0000     -11.233597      -305.6817
   6   2.0000     -11.227930      -305.5275
   7   2.0000     -11.227140      -305.5060
   8   2.0000     -11.222270      -305.3735
   9   2.0000      -1.369849       -37.2755
  10   2.0000      -1.151302       -31.3285
  11   2.0000      -1.084925       -29.5223
  12   2.0000      -0.997268       -27.1370
  13   2.0000      -0.950681       -25.8694
  14   2.0000      -0.828510       -22.5449
  15   2.0000      -0.822054       -22.3692
  16   2.0000      -0.789268       -21.4771
  17   2.0000      -0.737574       -20.0704
  18   2.0000      -0.684206       -18.6182
  19   2.0000      -0.661192       -17.9920
  20   2.0000      -0.650553       -17.7025
  21   2.0000      -0.623752       -16.9732
  22   2.0000      -0.589119       -16.0307
  23   2.0000      -0.576276       -15.6813
  24   2.0000      -0.562433       -15.3046
  25   2.0000      -0.539544       -14.6817
  26   2.0000      -0.518251       -14.1023
  27   2.0000      -0.507349       -13.8057
  28   2.0000      -0.500193       -13.6109
  29   2.0000      -0.474764       -12.9190
  30   2.0000      -0.429261       -11.6808
  31   2.0000      -0.420662       -11.4468
  32   2.0000      -0.409295       -11.1375
  33   2.0000      -0.339700        -9.2437
  34   0.0000       0.136739         3.7209
  35   0.0000       0.151155         4.1131
  36   0.0000       0.159296         4.3347
  37   0.0000       0.162899         4.4327
  38   0.0000       0.172557         4.6955

MULLIKEN ATOMIC CHARGES
-----------------------
   0 C :   -0.261690
   1 C :   -0.079864
   2 C :   -0.288317
   3 C :   -0.252976
   4 C :   -0.002705
   5 C :   -0.223814
   6 C :    0.025625
   7 O :   -0.341657
   8 C :   -0.028344
   9 H :    0.128505
  10 H :    0.135446
  11 H :    0.122223
  12 H :    0.132760
  13 H :    0.129556
  14 H :    0.126471
  15 H :    0.132256
  16 H :    0.130675
  17 H :    0.102125
  18 H :    0.102319
  19 H :    0.096391
  20 H :    0.115017
Sum of atomic charges:   -0.0000000

LOEWDIN ATOMIC CHARGES
----------------------
   0 C :   -0.210020
   1 C :   -0.225841
   2 C :   -0.234083
   3 C :   -0.230235
   4 C :   -0.170361
   5 C :   -0.147847
   6 C :   -0.288928
   7 O :    0.145127
   8 C :   -0.260882
   9 H :    0.150472
  10 H :    0.152433
  11 H :    0.149295
  12 H :    0.130926
  13 H :    0.132059
  14 H :    0.132560
  15 H :    0.131369
  16 H :    0.140792
  17 H :    0.124158
  18 H :    0.124041
  19 H :    0.125989
  20 H :    0.128975

  Mayer bond orders larger than 0.1
B(  0-C ,  1-C ) :   0.8780 B(  0-C ,  4-C ) :   0.8908 B(  0-C ,  9-H ) :   0.9307
B(  0-C , 10-H ) :   0.9340 B(  1-C ,  2-C ) :   0.8984 B(  1-C ,  3-C ) :   0.8798
B(  1-C , 11-H ) :   0.9301 B(  2-C ,  3-C ) :   0.9018 B(  2-C , 12-H ) :   0.9302
B(  2-C , 13-H ) :   0.9273 B(  3-C , 14-H ) :   0.9273 B(  3-C , 15-H ) :   0.9319
B(  4-C ,  5-C ) :   1.7531 B(  4-C ,  8-C ) :   0.9651 B(  5-C ,  6-C ) :   0.9807
B(  5-C , 16-H ) :   0.9134 B(  6-C ,  7-O ) :   0.9345 B(  6-C , 17-H ) :   0.9146
B(  6-C , 18-H ) :   0.9176 B(  7-O ,  8-C ) :   0.9441 B(  8-C , 19-H ) :   0.9093
B(  8-C , 20-H ) :   0.9130

MP2 TOTAL ENERGY:     -386.391124422 Eh
FINAL SINGLE POINT ENERGY      -386.391124422442

DIPOLE MOMENT
-------------
                                X             Y             Z
Electronic contribution:      4.56114       3.31869      -0.29242
Nuclear contribution   :     -5.13027      -3.51183      -0.16684
                        -----------------------------------------
Total Dipole Moment    :     -0.56912      -0.19314      -0.45927
                        -----------------------------------------
Magnitude (a.u.)       :      0.75640
Magnitude (Debye)      :      1.92260

                             ****ORCA TERMINATED NORMALLY****
TOTAL RUN TIME: 0 days 0 hours 17 minutes 51 seconds 778 msec
