                         Program Version 3.0.3 - RELEASE   -
|  1> ! RI-MP2 RIJK def2-TZVP def2-TZVP/C def2-TZVP/JK TIGHTSCF
|  2> % maxcore 2000
|  3> % mp2 density relaxed end
|  4> *xyz 0 1
|  5>  C       -0.0032312787     1.5107733402     0.0102645673
|  6>  O        1.1960255952     0.6907608023    -0.0060112112
|  7>  C       -0.0545205056     0.0591659361     0.0029264743
|  8>  C       -0.5689898133    -1.0221501121     0.9699758796
|  9>  C       -1.8095439069    -1.1045128559     0.0139716631
| 10>  C       -0.5881035124    -1.0116923078    -0.9654003854
| 11>  C        0.0984976761    -2.0122603234    -0.0097767956
| 12>  C        1.3043229867    -2.8183148853    -0.0260402685
| 13>  O       -0.0263607193    -3.4074851815    -0.0160824506
| 14>  H       -0.1670658599     2.0626196266     0.9344287841
| 15>  H       -0.1852283050     2.0725603319    -0.9044636467
| 16>  H       -0.5531519086    -1.0257426291     2.0581096679
| 17>  H       -2.3399826878    -2.0562424150     0.0140674710
| 18>  H       -2.4879413602    -0.2491132410     0.0252934910
| 19>  H       -0.5937563115    -1.0035266053    -2.0536100447
| 20>  H        1.8592998638    -2.9566361233    -0.9520581979
| 21>  H        1.8774632673    -2.9665740074     0.8872893024
| 22> *
| 23>
| 24>                          ****END OF INPUT****

CARTESIAN COORDINATES (ANGSTROEM)
---------------------------------
  C     -0.003231    1.510773    0.010265
  O      1.196026    0.690761   -0.006011
  C     -0.054521    0.059166    0.002926
  C     -0.568990   -1.022150    0.969976
  C     -1.809544   -1.104513    0.013972
  C     -0.588104   -1.011692   -0.965400
  C      0.098498   -2.012260   -0.009777
  C      1.304323   -2.818315   -0.026040
  O     -0.026361   -3.407485   -0.016082
  H     -0.167066    2.062620    0.934429
  H     -0.185228    2.072560   -0.904464
  H     -0.553152   -1.025743    2.058110
  H     -2.339983   -2.056242    0.014067
  H     -2.487941   -0.249113    0.025293
  H     -0.593756   -1.003527   -2.053610
  H      1.859300   -2.956636   -0.952058
  H      1.877463   -2.966574    0.887289

 Total Charge           Charge          ....    0
 Multiplicity           Mult            ....    1
 Number of Electrons    NEL             ....   66
 Basis Dimension        Dim             ....  327

ORBITAL ENERGIES
----------------

  NO   OCC          E(Eh)            E(eV)
   0   2.0000     -20.571700      -559.7844
   1   2.0000     -20.567283      -559.6642
   2   2.0000     -11.308333      -307.7154
   3   2.0000     -11.305477      -307.6377
   4   2.0000     -11.288900      -307.1866
   5   2.0000     -11.282474      -307.0117
   6   2.0000     -11.257355      -306.3282
   7   2.0000     -11.257338      -306.3277
   8   2.0000     -11.247371      -306.0565
   9   2.0000      -1.421828       -38.6899
  10   2.0000      -1.413076       -38.4518
  11   2.0000      -1.214004       -33.0347
  12   2.0000      -0.938172       -25.5289
  13   2.0000      -0.924030       -25.1441
  14   2.0000      -0.889125       -24.1943
  15   2.0000      -0.878580       -23.9074
  16   2.0000      -0.827669       -22.5220
  17   2.0000      -0.733779       -19.9671
  18   2.0000      -0.698323       -19.0023
  19   2.0000      -0.681290       -18.5389
  20   2.0000      -0.670430       -18.2433
  21   2.0000      -0.660159       -17.9638
  22   2.0000      -0.612050       -16.6547
  23   2.0000      -0.560599       -15.2547
  24   2.0000      -0.547980       -14.9113
  25   2.0000      -0.506515       -13.7830
  26   2.0000      -0.499422       -13.5900
  27   2.0000      -0.497424       -13.5356
  28   2.0000      -0.470999       -12.8165
  29   2.0000      -0.443827       -12.0772
  30   2.0000      -0.434231       -11.8160
  31   2.0000      -0.423809       -11.5324
  32   2.0000      -0.417574       -11.3628
  33   0.0000       0.145707         3.9649
  34   0.0000       0.158047         4.3007
  35   0.0000       0.172534         4.6949
  36   0.0000       0.173883         4.7316
  37   0.0000       0.194414         5.2903

MULLIKEN ATOMIC CHARGES
-----------------------
   0 C :   -0.102395
   1 O :   -0.341289
   2 C :    0.061657
   3 C :   -0.039316
   4 C :   -0.249587
   5 C :   -0.039316
   6 C :    0.077148
   7 C :   -0.090307
   8 O :   -0.342519
   9 H :    0.124989
  10 H :    0.124989
  11 H :    0.150641
  12 H :    0.140603
  13 H :    0.125050
  14 H :    0.150641
  15 H :    0.124507
  16 H :    0.124506
Sum of atomic charges:   -0.0000000

LOEWDIN ATOMIC CHARGES
----------------------
   0 C :   -0.218671
   1 O :    0.171366
   2 C :   -0.291389
   3 C :   -0.098991
   4 C :   -0.168143
   5 C :   -0.098991
   6 C :   -0.287320
   7 C :   -0.211503
   8 O :    0.168171
   9 H :    0.123949
  10 H :    0.123949
  11 H :    0.133914
  12 H :    0.138654
  13 H :    0.131442
  14 H :    0.133914
  15 H :    0.124825
  16 H :    0.124825

  Mayer bond orders larger than 0.1
B(  0-C ,  1-O ) :   0.8927 B(  0-C ,  2-C ) :   1.0025 B(  0-C ,  9-H ) :   0.9129
B(  0-C , 10-H ) :   0.9129 B(  1-O ,  2-C ) :   0.8986 B(  2-C ,  3-C ) :   0.8599
B(  2-C ,  5-C ) :   0.8599 B(  3-C ,  4-C ) :   0.9140 B(  3-C ,  6-C ) :   0.8577
B(  3-C , 11-H ) :   0.8763 B(  4-C ,  5-C ) :   0.9140 B(  4-C , 12-H ) :   0.9207
B(  4-C , 13-H ) :   0.9284 B(  5-C ,  6-C ) :   0.8577 B(  5-C , 14-H ) :   0.8763
B(  6-C ,  7-C ) :   1.0124 B(  6-C ,  8-O ) :   0.9439 B(  7-C ,  8-O ) :   0.8768
B(  7-C , 15-H ) :   0.9143 B(  7-C , 16-H ) :   0.9143

MP2 TOTAL ENERGY:     -421.006945081 Eh
FINAL SINGLE POINT ENERGY      -421.006945081441

DIPOLE MOMENT
-------------
                                X             Y             Z
Electronic contribution:      1.85610      -1.28404      -0.02527
Nuclear contribution   :     -2.20811       1.89367       0.03205
                        -----------------------------------------
Total Dipole Moment    :     -0.35201       0.60963       0.00677
                        -----------------------------------------
Magnitude (a.u.)       :      0.70400
Magnitude (Debye)      :      1.78942

                             ****ORCA TERMINATED NORMALLY****
TOTAL RUN TIME: 0 days 0 hours 15 minutes 23 seconds 128 msec
