                         Program Version 3.0.3 - RELEASE   -
|  1> ! RI-MP2 RIJK def2-TZVP def2-TZVP/C def2-TZVP/JK TIGHTSCF
|  2> % maxcore 2000
|  3> % mp2 density relaxed end
|  4> *xyz 0 1
|  5>  O       -0.0536342136     1.4370819428     0.0771330068
|  6>  C        0.0085162005     0.0206365492    -0.0104886745
|  7>  C        0.8045634054    -0.5566845226     1.1889034528
|  8>  O        0.5885937988    -1.9408499607     1.4384727159
|  9>  C       -0.7941208542    -2.3372729811     1.3566975304
| 10>  C       -1.2910772054    -2.0743167372    -0.0733812531
| 11>  C       -1.4292150856    -0.5368463679     0.0000804766
| 12>  C       -2.0431761442    -0.3735361986     1.3866948430
| 13>  C       -1.6962752320    -1.4053676527     2.1584496859
| 14>  H        0.8434698552     1.7837318364     0.0320115358
| 15>  H        0.4825208588    -0.2837069699    -0.9563457710
| 16>  H        1.8824697947    -0.4504146486     1.0235205090
| 17>  H        0.5355559127     0.0487394001     2.0647750881
| 18>  H       -0.8049307912    -3.3834893617     1.6667395520
| 19>  H       -0.5801051882    -2.4275673954    -0.8254613582
| 20>  H       -2.2634723235    -2.5437003721    -0.2453796441
| 21>  H       -2.0094535847    -0.0832532238    -0.8068365126
| 22>  H       -2.6077339918     0.4994179533     1.6901103436
| 23>  H       -1.9104684017    -1.5300502994     3.2127041235
| 24> *
| 25>
| 26>                          ****END OF INPUT****

CARTESIAN COORDINATES (ANGSTROEM)
---------------------------------
  O     -0.053634    1.437082    0.077133
  C      0.008516    0.020637   -0.010489
  C      0.804563   -0.556685    1.188903
  O      0.588594   -1.940850    1.438473
  C     -0.794121   -2.337273    1.356698
  C     -1.291077   -2.074317   -0.073381
  C     -1.429215   -0.536846    0.000080
  C     -2.043176   -0.373536    1.386695
  C     -1.696275   -1.405368    2.158450
  H      0.843470    1.783732    0.032012
  H      0.482521   -0.283707   -0.956346
  H      1.882470   -0.450415    1.023521
  H      0.535556    0.048739    2.064775
  H     -0.804931   -3.383489    1.666740
  H     -0.580105   -2.427567   -0.825461
  H     -2.263472   -2.543700   -0.245380
  H     -2.009454   -0.083253   -0.806837
  H     -2.607734    0.499418    1.690110
  H     -1.910468   -1.530050    3.212704

 Total Charge           Charge          ....    0
 Multiplicity           Mult            ....    1
 Number of Electrons    NEL             ....   68
 Basis Dimension        Dim             ....  339

ORBITAL ENERGIES
----------------

  NO   OCC          E(Eh)            E(eV)
   0   2.0000     -20.562070      -559.5224
   1   2.0000     -20.551435      -559.2330
   2   2.0000     -11.284216      -307.0591
   3   2.0000     -11.281461      -306.9842
   4   2.0000     -11.269921      -306.6701
   5   2.0000     -11.235268      -305.7272
   6   2.0000     -11.231608      -305.6276
   7   2.0000     -11.222835      -305.3889
   8   2.0000     -11.222479      -305.3792
   9   2.0000      -1.375461       -37.4282
  10   2.0000      -1.361104       -37.0375
  11   2.0000      -1.140145       -31.0249
  12   2.0000      -1.025483       -27.9048
  13   2.0000      -0.977327       -26.5944
  14   2.0000      -0.900426       -24.5018
  15   2.0000      -0.860765       -23.4226
  16   2.0000      -0.756072       -20.5738
  17   2.0000      -0.736705       -20.0468
  18   2.0000      -0.707969       -19.2648
  19   2.0000      -0.696075       -18.9412
  20   2.0000      -0.658880       -17.9290
  21   2.0000      -0.622774       -16.9465
  22   2.0000      -0.604401       -16.4466
  23   2.0000      -0.585304       -15.9269
  24   2.0000      -0.566228       -15.4079
  25   2.0000      -0.536967       -14.6116
  26   2.0000      -0.531339       -14.4585
  27   2.0000      -0.515337       -14.0230
  28   2.0000      -0.498910       -13.5760
  29   2.0000      -0.473777       -12.8921
  30   2.0000      -0.459686       -12.5087
  31   2.0000      -0.438228       -11.9248
  32   2.0000      -0.403134       -10.9698
  33   2.0000      -0.356731        -9.7072
  34   0.0000       0.125718         3.4210
  35   0.0000       0.143306         3.8996
  36   0.0000       0.154151         4.1947
  37   0.0000       0.172050         4.6817
  38   0.0000       0.181411         4.9364

MULLIKEN ATOMIC CHARGES
-----------------------
   0 O :   -0.463471
   1 C :   -0.003195
   2 C :   -0.086974
   3 O :   -0.319824
   4 C :    0.145906
   5 C :   -0.308234
   6 C :    0.097315
   7 C :   -0.209735
   8 C :   -0.233509
   9 H :    0.314923
  10 H :    0.086147
  11 H :    0.119375
  12 H :    0.109571
  13 H :    0.118920
  14 H :    0.123368
  15 H :    0.121123
  16 H :    0.118107
  17 H :    0.137031
  18 H :    0.133156
Sum of atomic charges:   -0.0000000

LOEWDIN ATOMIC CHARGES
----------------------
   0 O :   -0.012646
   1 C :   -0.327033
   2 C :   -0.303537
   3 O :    0.164213
   4 C :   -0.280617
   5 C :   -0.199016
   6 C :   -0.204873
   7 C :   -0.112814
   8 C :   -0.135927
   9 H :    0.175835
  10 H :    0.134581
  11 H :    0.126509
  12 H :    0.127416
  13 H :    0.140395
  14 H :    0.137414
  15 H :    0.143619
  16 H :    0.150417
  17 H :    0.139731
  18 H :    0.136334

  Mayer bond orders larger than 0.1
B(  0-O ,  1-C ) :   1.0356 B(  0-O ,  9-H ) :   0.8448 B(  1-C ,  2-C ) :   0.9095
B(  1-C ,  6-C ) :   0.8619 B(  1-C , 10-H ) :   0.9496 B(  2-C ,  3-O ) :   0.9569
B(  2-C , 11-H ) :   0.9228 B(  2-C , 12-H ) :   0.9270 B(  3-O ,  4-C ) :   0.9137
B(  4-C ,  5-C ) :   0.9328 B(  4-C ,  8-C ) :   0.9060 B(  4-C , 13-H ) :   0.9341
B(  5-C ,  6-C ) :   0.9007 B(  5-C , 14-H ) :   0.9315 B(  5-C , 15-H ) :   0.9109
B(  6-C ,  7-C ) :   0.9018 B(  6-C , 16-H ) :   0.9221 B(  7-C ,  8-C ) :   1.7749
B(  7-C , 17-H ) :   0.9219 B(  8-C , 18-H ) :   0.9289

MP2 TOTAL ENERGY:     -422.328126941 Eh
FINAL SINGLE POINT ENERGY      -422.328126940523

DIPOLE MOMENT
-------------
                                X             Y             Z
Electronic contribution:      0.50094       0.22774       1.02422
Nuclear contribution   :     -0.41021      -0.12129      -1.25255
                        -----------------------------------------
Total Dipole Moment    :      0.09073       0.10645      -0.22834
                        -----------------------------------------
Magnitude (a.u.)       :      0.26777
Magnitude (Debye)      :      0.68063

                             ****ORCA TERMINATED NORMALLY****
TOTAL RUN TIME: 0 days 0 hours 20 minutes 0 seconds 510 msec
