                         Program Version 3.0.3 - RELEASE   -
|  1> ! RI-MP2 RIJK def2-TZVP def2-TZVP/C def2-TZVP/JK TIGHTSCF
|  2> % maxcore 2000
|  3> % mp2 density relaxed end
|  4> *xyz 0 1
|  5>  C        2.8573474783    -0.6433617296     0.1875641513
|  6>  N        1.5000326221    -1.1404490132     0.3708959408
|  7>  C        1.2706916848    -2.1603967563     1.3838563688
|  8>  C        0.7472418777    -0.7727875994     1.5640107086
|  9>  C        1.3051203397     0.1380797136     2.6451364725
| 10>  O        1.3532229414     1.4880389025     2.2134873603
| 11>  C        0.4610086809     0.0170005953     3.9075191162
| 12>  C        0.3668702293     1.1152874843     4.8723084677
| 13>  O       -0.6875193878     0.8765194395     3.9244292180
| 14>  H        3.5003367274    -0.7259312235     1.0779284785
| 15>  H        3.3299224022    -1.2153898002    -0.6170026866
| 16>  H        2.8169103488     0.4085994730    -0.1067853199
| 17>  H        0.6078055486    -2.9774043023     1.1108537192
| 18>  H        2.1156443204    -2.4533837352     2.0089071367
| 19>  H       -0.3095306306    -0.5900189984     1.3643160108
| 20>  H        2.3355420436    -0.1446836261     2.8852628877
| 21>  H        0.4413419326     1.8089481762     2.2566957509
| 22>  H        0.2668055338    -0.9997075041     4.2489934340
| 23>  H        0.1093050117     0.9014705738     5.9076418944
| 24>  H        0.9426465649     2.0202358202     4.6972052800
| 25> *
| 26>
| 27>                          ****END OF INPUT****

CARTESIAN COORDINATES (ANGSTROEM)
---------------------------------
  C      2.857347   -0.643362    0.187564
  N      1.500033   -1.140449    0.370896
  C      1.270692   -2.160397    1.383856
  C      0.747242   -0.772788    1.564011
  C      1.305120    0.138080    2.645136
  O      1.353223    1.488039    2.213487
  C      0.461009    0.017001    3.907519
  C      0.366870    1.115287    4.872308
  O     -0.687519    0.876519    3.924429
  H      3.500337   -0.725931    1.077928
  H      3.329922   -1.215390   -0.617003
  H      2.816910    0.408599   -0.106785
  H      0.607806   -2.977404    1.110854
  H      2.115644   -2.453384    2.008907
  H     -0.309531   -0.590019    1.364316
  H      2.335542   -0.144684    2.885263
  H      0.441342    1.808948    2.256696
  H      0.266806   -0.999708    4.248993
  H      0.109305    0.901471    5.907642
  H      0.942647    2.020236    4.697205

 Total Charge           Charge          ....    0
 Multiplicity           Mult            ....    1
 Number of Electrons    NEL             ....   70
 Basis Dimension        Dim             ....  345

ORBITAL ENERGIES
----------------

  NO   OCC          E(Eh)            E(eV)
   0   2.0000     -20.581283      -560.0452
   1   2.0000     -20.559551      -559.4538
   2   2.0000     -15.558952      -423.3806
   3   2.0000     -11.298191      -307.4394
   4   2.0000     -11.296263      -307.3869
   5   2.0000     -11.291520      -307.2579
   6   2.0000     -11.260010      -306.4005
   7   2.0000     -11.257108      -306.3215
   8   2.0000     -11.242995      -305.9374
   9   2.0000      -1.425761       -38.7969
  10   2.0000      -1.365508       -37.1574
  11   2.0000      -1.273368       -34.6501
  12   2.0000      -1.026339       -27.9281
  13   2.0000      -0.980492       -26.6805
  14   2.0000      -0.926403       -25.2087
  15   2.0000      -0.848724       -23.0950
  16   2.0000      -0.828477       -22.5440
  17   2.0000      -0.790555       -21.5121
  18   2.0000      -0.730910       -19.8891
  19   2.0000      -0.692312       -18.8388
  20   2.0000      -0.673511       -18.3272
  21   2.0000      -0.658495       -17.9186
  22   2.0000      -0.607989       -16.5442
  23   2.0000      -0.600655       -16.3447
  24   2.0000      -0.583215       -15.8701
  25   2.0000      -0.556718       -15.1491
  26   2.0000      -0.553628       -15.0650
  27   2.0000      -0.546482       -14.8705
  28   2.0000      -0.512940       -13.9578
  29   2.0000      -0.495224       -13.4757
  30   2.0000      -0.471668       -12.8347
  31   2.0000      -0.457050       -12.4370
  32   2.0000      -0.448002       -12.1907
  33   2.0000      -0.428892       -11.6707
  34   2.0000      -0.369164       -10.0455
  35   0.0000       0.143042         3.8924
  36   0.0000       0.159596         4.3428
  37   0.0000       0.161468         4.3938
  38   0.0000       0.168502         4.5852
  39   0.0000       0.188891         5.1400

MULLIKEN ATOMIC CHARGES
-----------------------
   0 C :   -0.282210
   1 N :   -0.204988
   2 C :   -0.197932
   3 C :   -0.091594
   4 C :    0.107242
   5 O :   -0.479205
   6 C :   -0.034884
   7 C :   -0.062407
   8 O :   -0.353007
   9 H :    0.097514
  10 H :    0.141375
  11 H :    0.148163
  12 H :    0.129620
  13 H :    0.115079
  14 H :    0.133410
  15 H :    0.106439
  16 H :    0.330410
  17 H :    0.133121
  18 H :    0.123774
  19 H :    0.140080
Sum of atomic charges:    0.0000000

LOEWDIN ATOMIC CHARGES
----------------------
   0 C :   -0.326678
   1 N :    0.094809
   2 C :   -0.246922
   3 C :   -0.249219
   4 C :   -0.333206
   5 O :   -0.003078
   6 C :   -0.273217
   7 C :   -0.258299
   8 O :    0.130379
   9 H :    0.102651
  10 H :    0.118066
  11 H :    0.123655
  12 H :    0.124577
  13 H :    0.123230
  14 H :    0.147966
  15 H :    0.152216
  16 H :    0.181886
  17 H :    0.143774
  18 H :    0.121345
  19 H :    0.126066

  Mayer bond orders larger than 0.1
B(  0-C ,  1-N ) :   0.8854 B(  0-C ,  9-H ) :   0.9287 B(  0-C , 10-H ) :   0.9332
B(  0-C , 11-H ) :   0.9360 B(  1-N ,  2-C ) :   0.9024 B(  1-N ,  3-C ) :   0.9451
B(  2-C ,  3-C ) :   0.9379 B(  2-C , 12-H ) :   0.9172 B(  2-C , 13-H ) :   0.9149
B(  3-C ,  4-C ) :   0.9347 B(  3-C , 14-H ) :   0.9035 B(  4-C ,  5-O ) :   0.9079
B(  4-C ,  6-C ) :   0.9351 B(  4-C , 15-H ) :   0.9203 B(  5-O , 16-H ) :   0.8194
B(  6-C ,  7-C ) :   0.9790 B(  6-C ,  8-O ) :   0.9021 B(  6-C , 17-H ) :   0.9122
B(  7-C ,  8-O ) :   0.8728 B(  7-C , 18-H ) :   0.9240 B(  7-C , 19-H ) :   0.9067

MP2 TOTAL ENERGY:     -439.500503137 Eh
FINAL SINGLE POINT ENERGY      -439.500503136583

DIPOLE MOMENT
-------------
                                X             Y             Z
Electronic contribution:     -4.18735       2.49193       1.77617
Nuclear contribution   :      4.58323      -2.90423      -0.92594
                        -----------------------------------------
Total Dipole Moment    :      0.39588      -0.41230       0.85023
                        -----------------------------------------
Magnitude (a.u.)       :      1.02451
Magnitude (Debye)      :      2.60409

                             ****ORCA TERMINATED NORMALLY****
TOTAL RUN TIME: 0 days 0 hours 18 minutes 48 seconds 686 msec
