                         Program Version 3.0.3 - RELEASE   -
|  1> ! RI-MP2 RIJK def2-TZVP def2-TZVP/C def2-TZVP/JK TIGHTSCF
|  2> % maxcore 2000
|  3> % mp2 density relaxed end
|  4> *xyz 0 1
|  5>  C        0.0544306829     1.3560086363     0.0790656725
|  6>  O       -0.0695397510    -0.0462896208    -0.0680140962
|  7>  C       -1.3615426146    -0.5236787637    -0.0315363871
|  8>  C       -2.5593312981    -0.0465984771    -0.8915881440
|  9>  N       -3.4455352627    -0.7253563880     0.1211290507
| 10>  C       -3.0018078141    -2.1587780042     0.1092739245
| 11>  C       -2.1939628742    -2.0696327108     1.3704106856
| 12>  C       -1.4844791612    -2.0645187633     0.0241548818
| 13>  C       -2.3584451084    -0.5438952055     1.2004598923
| 14>  H        1.1232580654     1.5775074305     0.1109090167
| 15>  H       -0.3952910545     1.8974671613    -0.7641024525
| 16>  H       -0.4101408089     1.7085361744     1.0105347084
| 17>  H       -2.7319424344     1.0329288797    -0.8495904929
| 18>  H       -2.6586535167    -0.4065371712    -1.9199640559
| 19>  H       -3.6072220348    -2.9597968815    -0.2946134468
| 20>  H       -2.1201011533    -2.7280751093     2.2240105962
| 21>  H       -0.8344678752    -2.8025530298    -0.4243585686
| 22>  H       -2.4986670861     0.2240339131     1.9584535154
| 23> *
| 24>
| 25>                          ****END OF INPUT****

CARTESIAN COORDINATES (ANGSTROEM)
---------------------------------
  C      0.054431    1.356009    0.079066
  O     -0.069540   -0.046290   -0.068014
  C     -1.361543   -0.523679   -0.031536
  C     -2.559331   -0.046598   -0.891588
  N     -3.445535   -0.725356    0.121129
  C     -3.001808   -2.158778    0.109274
  C     -2.193963   -2.069633    1.370411
  C     -1.484479   -2.064519    0.024155
  C     -2.358445   -0.543895    1.200460
  H      1.123258    1.577507    0.110909
  H     -0.395291    1.897467   -0.764102
  H     -0.410141    1.708536    1.010535
  H     -2.731942    1.032929   -0.849590
  H     -2.658654   -0.406537   -1.919964
  H     -3.607222   -2.959797   -0.294613
  H     -2.120101   -2.728075    2.224011
  H     -0.834468   -2.802553   -0.424359
  H     -2.498667    0.224034    1.958454

 Total Charge           Charge          ....    0
 Multiplicity           Mult            ....    1
 Number of Electrons    NEL             ....   66
 Basis Dimension        Dim             ....  333

ORBITAL ENERGIES
----------------

  NO   OCC          E(Eh)            E(eV)
   0   2.0000     -20.568537      -559.6984
   1   2.0000     -15.556209      -423.3060
   2   2.0000     -11.295436      -307.3644
   3   2.0000     -11.277938      -306.8883
   4   2.0000     -11.265250      -306.5430
   5   2.0000     -11.260970      -306.4266
   6   2.0000     -11.247599      -306.0627
   7   2.0000     -11.238975      -305.8281
   8   2.0000     -11.235194      -305.7252
   9   2.0000      -1.394773       -37.9537
  10   2.0000      -1.309584       -35.6356
  11   2.0000      -1.089568       -29.6487
  12   2.0000      -0.994312       -27.0566
  13   2.0000      -0.924447       -25.1555
  14   2.0000      -0.921407       -25.0728
  15   2.0000      -0.820957       -22.3394
  16   2.0000      -0.754561       -20.5327
  17   2.0000      -0.721709       -19.6387
  18   2.0000      -0.710611       -19.3367
  19   2.0000      -0.657499       -17.8915
  20   2.0000      -0.652237       -17.7483
  21   2.0000      -0.643497       -17.5104
  22   2.0000      -0.607274       -16.5248
  23   2.0000      -0.573253       -15.5990
  24   2.0000      -0.566221       -15.4077
  25   2.0000      -0.519184       -14.1277
  26   2.0000      -0.491832       -13.3834
  27   2.0000      -0.479374       -13.0444
  28   2.0000      -0.468946       -12.7607
  29   2.0000      -0.437010       -11.8917
  30   2.0000      -0.408082       -11.1045
  31   2.0000      -0.377029       -10.2595
  32   2.0000      -0.349347        -9.5062
  33   0.0000       0.139790         3.8039
  34   0.0000       0.167478         4.5573
  35   0.0000       0.168481         4.5846
  36   0.0000       0.177666         4.8345
  37   0.0000       0.186528         5.0757

MULLIKEN ATOMIC CHARGES
-----------------------
   0 C :   -0.221699
   1 O :   -0.286676
   2 C :    0.220097
   3 C :   -0.184629
   4 N :   -0.203880
   5 C :   -0.015560
   6 C :   -0.266854
   7 C :   -0.203262
   8 C :   -0.037477
   9 H :    0.145824
  10 H :    0.122889
  11 H :    0.117958
  12 H :    0.119896
  13 H :    0.117394
  14 H :    0.136951
  15 H :    0.147530
  16 H :    0.143628
  17 H :    0.147870
Sum of atomic charges:    0.0000000

LOEWDIN ATOMIC CHARGES
----------------------
   0 C :   -0.338606
   1 O :    0.199035
   2 C :   -0.312536
   3 C :   -0.225098
   4 N :    0.122785
   5 C :   -0.181638
   6 C :   -0.138486
   7 C :   -0.122469
   8 C :   -0.117485
   9 H :    0.115333
  10 H :    0.104512
  11 H :    0.104941
  12 H :    0.131137
  13 H :    0.123199
  14 H :    0.133493
  15 H :    0.132872
  16 H :    0.140510
  17 H :    0.128501

  Mayer bond orders larger than 0.1
B(  0-C ,  1-O ) :   0.8843 B(  0-C ,  9-H ) :   0.9404 B(  0-C , 10-H ) :   0.9360
B(  0-C , 11-H ) :   0.9332 B(  1-O ,  2-C ) :   1.0778 B(  2-C ,  3-C ) :   0.9635
B(  2-C ,  7-C ) :   0.8859 B(  2-C ,  8-C ) :   0.9443 B(  3-C ,  4-N ) :   0.9484
B(  3-C , 12-H ) :   0.9122 B(  3-C , 13-H ) :   0.9204 B(  4-N ,  5-C ) :   0.9137
B(  4-N ,  8-C ) :   0.9639 B(  5-C ,  6-C ) :   0.8666 B(  5-C ,  7-C ) :   0.8662
B(  5-C , 14-H ) :   0.9287 B(  6-C ,  7-C ) :   0.8478 B(  6-C ,  8-C ) :   0.9318
B(  6-C , 15-H ) :   0.9096 B(  7-C , 16-H ) :   0.9281 B(  8-C , 17-H ) :   0.8683

MP2 TOTAL ENERGY:     -401.142543726 Eh
FINAL SINGLE POINT ENERGY      -401.142543726307

DIPOLE MOMENT
-------------
                                X             Y             Z
Electronic contribution:     -1.36296      -3.41219       0.69670
Nuclear contribution   :      1.74558       3.60497      -0.66426
                        -----------------------------------------
Total Dipole Moment    :      0.38262       0.19278       0.03244
                        -----------------------------------------
Magnitude (a.u.)       :      0.42967
Magnitude (Debye)      :      1.09213

                             ****ORCA TERMINATED NORMALLY****
TOTAL RUN TIME: 0 days 0 hours 18 minutes 29 seconds 609 msec
