                         Program Version 3.0.3 - RELEASE   -
|  1> ! RI-MP2 RIJK def2-TZVP def2-TZVP/C def2-TZVP/JK TIGHTSCF
|  2> % maxcore 2000
|  3> % mp2 density relaxed end
|  4> *xyz 0 1
|  5>  C        0.0090498722     1.5574710042    -0.0102913735
|  6>  N        1.2469185383     0.7256723514     0.0529148049
|  7>  C       -0.0369188952     0.0888597504     0.0119116314
|  8>  C       -0.5881954069    -1.0306109542     0.9082332849
|  9>  C       -1.8650160936    -1.0564256994     0.0309993479
| 10>  C       -0.6261156390    -1.0008308106    -0.8980339890
| 11>  O        0.0251055923    -2.0117545925    -0.0275672974
| 12>  H       -0.1884750225     2.1395605407     0.8856828067
| 13>  H       -0.2321212827     2.0642739230    -0.9419726050
| 14>  H        1.7117500412     0.6911835662    -0.8509064084
| 15>  H       -0.4640268623    -1.2023458114     1.9763359811
| 16>  H       -2.3850328832    -2.0143209683     0.0247423926
| 17>  H       -2.5348651632    -0.1934618490     0.0589311804
| 18>  H       -0.5535632455    -1.1376317906    -1.9775543665
| 19> *
| 20>
| 21>                          ****END OF INPUT****

CARTESIAN COORDINATES (ANGSTROEM)
---------------------------------
  C      0.009050    1.557471   -0.010291
  N      1.246919    0.725672    0.052915
  C     -0.036919    0.088860    0.011912
  C     -0.588195   -1.030611    0.908233
  C     -1.865016   -1.056426    0.030999
  C     -0.626116   -1.000831   -0.898034
  O      0.025106   -2.011755   -0.027567
  H     -0.188475    2.139561    0.885683
  H     -0.232121    2.064274   -0.941973
  H      1.711750    0.691184   -0.850906
  H     -0.464027   -1.202346    1.976336
  H     -2.385033   -2.014321    0.024742
  H     -2.534865   -0.193462    0.058931
  H     -0.553563   -1.137632   -1.977554

 Total Charge           Charge          ....    0
 Multiplicity           Mult            ....    1
 Number of Electrons    NEL             ....   52
 Basis Dimension        Dim             ....  259

ORBITAL ENERGIES
----------------

  NO   OCC          E(Eh)            E(eV)
   0   2.0000     -20.551207      -559.2268
   1   2.0000     -15.563081      -423.4930
   2   2.0000     -11.306237      -307.6583
   3   2.0000     -11.302491      -307.5564
   4   2.0000     -11.281077      -306.9737
   5   2.0000     -11.264491      -306.5224
   6   2.0000     -11.243436      -305.9495
   7   2.0000      -1.399074       -38.0707
   8   2.0000      -1.265430       -34.4341
   9   2.0000      -1.065280       -28.9877
  10   2.0000      -0.897731       -24.4285
  11   2.0000      -0.892225       -24.2787
  12   2.0000      -0.879928       -23.9441
  13   2.0000      -0.740957       -20.1625
  14   2.0000      -0.712190       -19.3797
  15   2.0000      -0.670855       -18.2549
  16   2.0000      -0.644112       -17.5272
  17   2.0000      -0.590699       -16.0737
  18   2.0000      -0.547247       -14.8913
  19   2.0000      -0.534978       -14.5575
  20   2.0000      -0.496684       -13.5155
  21   2.0000      -0.482741       -13.1361
  22   2.0000      -0.469904       -12.7867
  23   2.0000      -0.451818       -12.2946
  24   2.0000      -0.417182       -11.3521
  25   2.0000      -0.390462       -10.6250
  26   0.0000       0.139801         3.8042
  27   0.0000       0.151109         4.1119
  28   0.0000       0.172870         4.7040
  29   0.0000       0.178070         4.8455
  30   0.0000       0.192666         5.2427

MULLIKEN ATOMIC CHARGES
-----------------------
   0 C :   -0.218508
   1 N :   -0.380496
   2 C :    0.111374
   3 C :   -0.024979
   4 C :   -0.156322
   5 C :   -0.049163
   6 O :   -0.299788
   7 H :    0.128005
   8 H :    0.130983
   9 H :    0.228806
  10 H :    0.146054
  11 H :    0.127219
  12 H :    0.114728
  13 H :    0.142086
Sum of atomic charges:   -0.0000000

LOEWDIN ATOMIC CHARGES
----------------------
   0 C :   -0.233451
   1 N :    0.018588
   2 C :   -0.281018
   3 C :   -0.182794
   4 C :   -0.194217
   5 C :   -0.200605
   6 O :    0.130745
   7 H :    0.127867
   8 H :    0.123998
   9 H :    0.171221
  10 H :    0.128312
  11 H :    0.135407
  12 H :    0.130339
  13 H :    0.125608

  Mayer bond orders larger than 0.1
B(  0-C ,  1-N ) :   0.9622 B(  0-C ,  2-C ) :   0.9238 B(  0-C ,  7-H ) :   0.9075
B(  0-C ,  8-H ) :   0.9180 B(  1-N ,  2-C ) :   0.9179 B(  1-N ,  9-H ) :   0.8634
B(  2-C ,  3-C ) :   0.9003 B(  2-C ,  5-C ) :   0.9332 B(  3-C ,  4-C ) :   0.9148
B(  3-C ,  6-O ) :   0.9141 B(  3-C , 10-H ) :   0.8840 B(  4-C ,  5-C ) :   0.9209
B(  4-C , 11-H ) :   0.9197 B(  4-C , 12-H ) :   0.9118 B(  5-C ,  6-O ) :   0.9286
B(  5-C , 13-H ) :   0.8780

MP2 TOTAL ENERGY:     -323.911829438 Eh
FINAL SINGLE POINT ENERGY      -323.911829438105

DIPOLE MOMENT
-------------
                                X             Y             Z
Electronic contribution:      1.92735      -2.24030       0.28338
Nuclear contribution   :     -2.71462       2.94448      -0.77272
                        -----------------------------------------
Total Dipole Moment    :     -0.78728       0.70418      -0.48934
                        -----------------------------------------
Magnitude (a.u.)       :      1.16410
Magnitude (Debye)      :      2.95890

                             ****ORCA TERMINATED NORMALLY****
TOTAL RUN TIME: 0 days 0 hours 7 minutes 3 seconds 26 msec
