                         Program Version 3.0.3 - RELEASE   -
|  1> ! RI-MP2 RIJK def2-TZVP def2-TZVP/C def2-TZVP/JK TIGHTSCF
|  2> % maxcore 2000
|  3> % mp2 density relaxed end
|  4> *xyz 0 1
|  5>  C       -0.1615019109     1.5415270869    -0.0120641363
|  6>  C        0.0538459663     0.0298050687    -0.0066049663
|  7>  C        0.9204104644    -0.5125647078    -1.1864724841
|  8>  C        2.0199513894    -1.3471611915    -0.4641039579
|  9>  O        2.6528299479    -2.2288230511    -1.3552823409
| 10>  C        1.2067863299    -1.9308484099     0.7211251633
| 11>  C        0.8162439932    -0.5338245136     1.2533069021
| 12>  C        2.1843732093     0.1315836284     1.3031220611
| 13>  C        2.8980970028    -0.3461180495     0.2796198852
| 14>  H        0.7938523185     2.0761712479    -0.0030225427
| 15>  H       -0.7098570121     1.8558300133    -0.9065466940
| 16>  H       -0.7388792813     1.8646394658     0.8618377311
| 17>  H       -0.9269871199    -0.4587506700    -0.0312178246
| 18>  H        0.3488207670    -1.1640995340    -1.8537651038
| 19>  H        1.3580763778     0.2860204046    -1.7912771400
| 20>  H        3.3388871873    -2.6987298649    -0.8694767350
| 21>  H        0.3554262520    -2.5377306255     0.3965633219
| 22>  H        1.8285409279    -2.4989225576     1.4191800138
| 23>  H        0.2306497555    -0.4908310342     2.1729059058
| 24>  H        2.4621657517     0.9268384518     1.9837976288
| 25>  H        3.8714411434    -0.0261174578    -0.0733872174
| 26> *
| 27>
| 28>                          ****END OF INPUT****

CARTESIAN COORDINATES (ANGSTROEM)
---------------------------------
  C     -0.161502    1.541527   -0.012064
  C      0.053846    0.029805   -0.006605
  C      0.920410   -0.512565   -1.186472
  C      2.019951   -1.347161   -0.464104
  O      2.652830   -2.228823   -1.355282
  C      1.206786   -1.930848    0.721125
  C      0.816244   -0.533825    1.253307
  C      2.184373    0.131584    1.303122
  C      2.898097   -0.346118    0.279620
  H      0.793852    2.076171   -0.003023
  H     -0.709857    1.855830   -0.906547
  H     -0.738879    1.864639    0.861838
  H     -0.926987   -0.458751   -0.031218
  H      0.348821   -1.164100   -1.853765
  H      1.358076    0.286020   -1.791277
  H      3.338887   -2.698730   -0.869477
  H      0.355426   -2.537731    0.396563
  H      1.828541   -2.498923    1.419180
  H      0.230650   -0.490831    2.172906
  H      2.462166    0.926838    1.983798
  H      3.871441   -0.026117   -0.073387

 Total Charge           Charge          ....    0
 Multiplicity           Mult            ....    1
 Number of Electrons    NEL             ....   68
 Basis Dimension        Dim             ....  351

ORBITAL ENERGIES
----------------

  NO   OCC          E(Eh)            E(eV)
   0   2.0000     -20.556528      -559.3716
   1   2.0000     -11.284793      -307.0748
   2   2.0000     -11.232271      -305.6456
   3   2.0000     -11.228353      -305.5390
   4   2.0000     -11.226037      -305.4760
   5   2.0000     -11.221235      -305.3453
   6   2.0000     -11.218687      -305.2760
   7   2.0000     -11.214162      -305.1529
   8   2.0000     -11.210263      -305.0468
   9   2.0000      -1.366622       -37.1877
  10   2.0000      -1.172983       -31.9185
  11   2.0000      -1.033592       -28.1255
  12   2.0000      -0.977810       -26.6076
  13   2.0000      -0.959646       -26.1133
  14   2.0000      -0.889838       -24.2137
  15   2.0000      -0.786957       -21.4142
  16   2.0000      -0.774853       -21.0848
  17   2.0000      -0.718882       -19.5618
  18   2.0000      -0.704786       -19.1782
  19   2.0000      -0.642387       -17.4802
  20   2.0000      -0.624160       -16.9843
  21   2.0000      -0.614899       -16.7323
  22   2.0000      -0.571996       -15.5648
  23   2.0000      -0.566936       -15.4271
  24   2.0000      -0.545584       -14.8461
  25   2.0000      -0.537755       -14.6331
  26   2.0000      -0.514558       -14.0018
  27   2.0000      -0.505391       -13.7524
  28   2.0000      -0.481107       -13.0916
  29   2.0000      -0.467367       -12.7177
  30   2.0000      -0.451918       -12.2973
  31   2.0000      -0.435673       -11.8553
  32   2.0000      -0.411453       -11.1962
  33   2.0000      -0.344639        -9.3781
  34   0.0000       0.133026         3.6198
  35   0.0000       0.140745         3.8299
  36   0.0000       0.150808         4.1037
  37   0.0000       0.164683         4.4813
  38   0.0000       0.178491         4.8570

MULLIKEN ATOMIC CHARGES
-----------------------
   0 C :   -0.432719
   1 C :   -0.059557
   2 C :   -0.256039
   3 C :    0.278511
   4 O :   -0.460092
   5 C :   -0.252892
   6 C :    0.015161
   7 C :   -0.251386
   8 C :   -0.252815
   9 H :    0.134891
  10 H :    0.135674
  11 H :    0.126679
  12 H :    0.095535
  13 H :    0.126970
  14 H :    0.113115
  15 H :    0.316741
  16 H :    0.118126
  17 H :    0.108979
  18 H :    0.125164
  19 H :    0.133327
  20 H :    0.136626
Sum of atomic charges:    0.0000000

LOEWDIN ATOMIC CHARGES
----------------------
   0 C :   -0.297895
   1 C :   -0.231670
   2 C :   -0.173854
   3 C :   -0.356383
   4 O :    0.016198
   5 C :   -0.181998
   6 C :   -0.191983
   7 C :   -0.127016
   8 C :   -0.124536
   9 H :    0.125278
  10 H :    0.124199
  11 H :    0.122689
  12 H :    0.150116
  13 H :    0.140528
  14 H :    0.139560
  15 H :    0.178533
  16 H :    0.138178
  17 H :    0.135991
  18 H :    0.141856
  19 H :    0.134816
  20 H :    0.137392

  Mayer bond orders larger than 0.1
B(  0-C ,  1-C ) :   0.8892 B(  0-C ,  9-H ) :   0.9346 B(  0-C , 10-H ) :   0.9416
B(  0-C , 11-H ) :   0.9412 B(  1-C ,  2-C ) :   0.9612 B(  1-C ,  6-C ) :   0.8799
B(  1-C , 12-H ) :   0.9212 B(  2-C ,  3-C ) :   0.8801 B(  2-C , 13-H ) :   0.9174
B(  2-C , 14-H ) :   0.9261 B(  3-C ,  4-O ) :   1.0034 B(  3-C ,  5-C ) :   0.9461
B(  3-C ,  8-C ) :   0.9186 B(  4-O , 15-H ) :   0.8408 B(  5-C ,  6-C ) :   0.9113
B(  5-C , 16-H ) :   0.9220 B(  5-C , 17-H ) :   0.9042 B(  6-C ,  7-C ) :   0.9106
B(  6-C , 18-H ) :   0.9111 B(  7-C ,  8-C ) :   1.7256 B(  7-C , 19-H ) :   0.9232
B(  8-C , 20-H ) :   0.9265

MP2 TOTAL ENERGY:     -386.435534834 Eh
FINAL SINGLE POINT ENERGY      -386.435534833821

DIPOLE MOMENT
-------------
                                X             Y             Z
Electronic contribution:      4.31880      -3.92776      -0.47675
Nuclear contribution   :     -4.30967       4.01336       0.99525
                        -----------------------------------------
Total Dipole Moment    :      0.00913       0.08560       0.51850
                        -----------------------------------------
Magnitude (a.u.)       :      0.52560
Magnitude (Debye)      :      1.33597

                             ****ORCA TERMINATED NORMALLY****
TOTAL RUN TIME: 0 days 0 hours 22 minutes 25 seconds 832 msec
