                         Program Version 3.0.3 - RELEASE   -
|  1> ! RI-MP2 RIJK def2-TZVP def2-TZVP/C def2-TZVP/JK TIGHTSCF
|  2> % maxcore 2000
|  3> % mp2 density relaxed end
|  4> *xyz 0 1
|  5>  C       -0.0956098509     1.4966287952     0.0021004713
|  6>  C        1.3485123018     1.9518058281    -0.0215736783
|  7>  C        2.1832591787     0.9625086550    -0.3595177670
|  8>  C        3.5135241403     0.7144684199     0.2742641142
|  9>  C        3.1641720417    -0.3107390776     1.4364935889
| 10>  O        1.7639419240    -0.3828261798     1.7241909144
| 11>  C        1.0332759938    -0.8557814491     0.6197252891
| 12>  C        0.0356582242    -0.0120626489    -0.1856568911
| 13>  C        1.4274652812    -0.2889339068    -0.7107686006
| 14>  H       -0.5487346459     1.7627735821     0.9654753709
| 15>  H       -0.7321527296     1.9411857849    -0.7762443252
| 16>  H        1.6644123866     2.8870907844     0.4294921285
| 17>  H        4.2554134639     0.2623467707    -0.3931167554
| 18>  H        3.9401799827     1.6330354957     0.6862490654
| 19>  H        3.5355858708    -1.3086514872     1.1670596626
| 20>  H        3.6402609344    -0.0088127066     2.3719297931
| 21>  H        0.7839228152    -1.9141592036     0.6919086887
| 22>  H       -0.8159664118    -0.5676024639    -0.5643523120
| 23>  H        1.6851769590    -0.8999328424    -1.5697917677
| 24> *
| 25>
| 26>                          ****END OF INPUT****

CARTESIAN COORDINATES (ANGSTROEM)
---------------------------------
  C     -0.095610    1.496629    0.002100
  C      1.348512    1.951806   -0.021574
  C      2.183259    0.962509   -0.359518
  C      3.513524    0.714468    0.274264
  C      3.164172   -0.310739    1.436494
  O      1.763942   -0.382826    1.724191
  C      1.033276   -0.855781    0.619725
  C      0.035658   -0.012063   -0.185657
  C      1.427465   -0.288934   -0.710769
  H     -0.548735    1.762774    0.965475
  H     -0.732153    1.941186   -0.776244
  H      1.664412    2.887091    0.429492
  H      4.255413    0.262347   -0.393117
  H      3.940180    1.633035    0.686249
  H      3.535586   -1.308651    1.167060
  H      3.640261   -0.008813    2.371930
  H      0.783923   -1.914159    0.691909
  H     -0.815966   -0.567602   -0.564352
  H      1.685177   -0.899933   -1.569792

 Total Charge           Charge          ....    0
 Multiplicity           Mult            ....    1
 Number of Electrons    NEL             ....   66
 Basis Dimension        Dim             ....  339

ORBITAL ENERGIES
----------------

  NO   OCC          E(Eh)            E(eV)
   0   2.0000     -20.554712      -559.3221
   1   2.0000     -11.280590      -306.9605
   2   2.0000     -11.279614      -306.9339
   3   2.0000     -11.234019      -305.6932
   4   2.0000     -11.232475      -305.6512
   5   2.0000     -11.227630      -305.5193
   6   2.0000     -11.226016      -305.4754
   7   2.0000     -11.225318      -305.4564
   8   2.0000     -11.218840      -305.2802
   9   2.0000      -1.376541       -37.4576
  10   2.0000      -1.176612       -32.0172
  11   2.0000      -1.064498       -28.9665
  12   2.0000      -1.005107       -27.3504
  13   2.0000      -0.936149       -25.4739
  14   2.0000      -0.858273       -23.3548
  15   2.0000      -0.801355       -21.8060
  16   2.0000      -0.774855       -21.0849
  17   2.0000      -0.709458       -19.3053
  18   2.0000      -0.688358       -18.7312
  19   2.0000      -0.655434       -17.8353
  20   2.0000      -0.635344       -17.2886
  21   2.0000      -0.601084       -16.3563
  22   2.0000      -0.588502       -16.0139
  23   2.0000      -0.561106       -15.2685
  24   2.0000      -0.559667       -15.2293
  25   2.0000      -0.523225       -14.2377
  26   2.0000      -0.502823       -13.6825
  27   2.0000      -0.490623       -13.3505
  28   2.0000      -0.467456       -12.7201
  29   2.0000      -0.441081       -12.0024
  30   2.0000      -0.418547       -11.3892
  31   2.0000      -0.387749       -10.5512
  32   2.0000      -0.323459        -8.8018
  33   0.0000       0.139192         3.7876
  34   0.0000       0.146288         3.9807
  35   0.0000       0.157698         4.2912
  36   0.0000       0.167251         4.5511
  37   0.0000       0.183557         4.9948

MULLIKEN ATOMIC CHARGES
-----------------------
   0 C :   -0.132271
   1 C :   -0.236929
   2 C :    0.048630
   3 C :   -0.251356
   4 C :   -0.050585
   5 O :   -0.310401
   6 C :    0.032258
   7 C :   -0.199336
   8 C :   -0.092321
   9 H :    0.120912
  10 H :    0.121529
  11 H :    0.119167
  12 H :    0.120482
  13 H :    0.119465
  14 H :    0.101455
  15 H :    0.121496
  16 H :    0.109268
  17 H :    0.124110
  18 H :    0.134426
Sum of atomic charges:   -0.0000000

LOEWDIN ATOMIC CHARGES
----------------------
   0 C :   -0.219302
   1 C :   -0.111762
   2 C :   -0.159469
   3 C :   -0.221635
   4 C :   -0.272678
   5 O :    0.178386
   6 C :   -0.255072
   7 C :   -0.160904
   8 C :   -0.150809
   9 H :    0.148190
  10 H :    0.141144
  11 H :    0.137225
  12 H :    0.137568
  13 H :    0.139679
  14 H :    0.119012
  15 H :    0.126591
  16 H :    0.136551
  17 H :    0.146004
  18 H :    0.141281

  Mayer bond orders larger than 0.1
B(  0-C ,  1-C ) :   0.9534 B(  0-C ,  7-C ) :   0.9537 B(  0-C ,  9-H ) :   0.9074
B(  0-C , 10-H ) :   0.9068 B(  1-C ,  2-C ) :   1.7756 B(  1-C , 11-H ) :   0.9229
B(  2-C ,  3-C ) :   0.9352 B(  2-C ,  8-C ) :   0.9011 B(  3-C ,  4-C ) :   0.8885
B(  3-C , 12-H ) :   0.9181 B(  3-C , 13-H ) :   0.9272 B(  4-C ,  5-O ) :   0.9531
B(  4-C , 14-H ) :   0.9393 B(  4-C , 15-H ) :   0.9299 B(  5-O ,  6-C ) :   0.9859
B(  6-C ,  7-C ) :   0.8709 B(  6-C ,  8-C ) :   0.8808 B(  6-C , 16-H ) :   0.9478
B(  7-C ,  8-C ) :   0.8731 B(  7-C , 17-H ) :   0.9255 B(  8-C , 18-H ) :   0.9123

MP2 TOTAL ENERGY:     -385.184861203 Eh
FINAL SINGLE POINT ENERGY      -385.184861203168

DIPOLE MOMENT
-------------
                                X             Y             Z
Electronic contribution:     -0.97835      -0.49077       0.23310
Nuclear contribution   :      1.18785       0.34565      -0.48160
                        -----------------------------------------
Total Dipole Moment    :      0.20950      -0.14512      -0.24851
                        -----------------------------------------
Magnitude (a.u.)       :      0.35596
Magnitude (Debye)      :      0.90478

                             ****ORCA TERMINATED NORMALLY****
TOTAL RUN TIME: 0 days 0 hours 20 minutes 46 seconds 552 msec
