                         Program Version 3.0.3 - RELEASE   -
|  1> ! RI-MP2 RIJK def2-TZVP def2-TZVP/C def2-TZVP/JK TIGHTSCF
|  2> % maxcore 2000
|  3> % mp2 density relaxed end
|  4> *xyz 0 1
|  5>  C        0.1031517874     1.3372209011    -0.2118397047
|  6>  O        0.0101968321    -0.0438796898     0.0642291829
|  7>  C       -1.3042947632    -0.5960613650     0.0374077956
|  8>  C       -1.8668805842    -0.7067881557    -1.3790097394
|  9>  C       -1.1483737814    -1.9795336534     0.6954738507
| 10>  O       -0.1850717352    -2.7499546705     0.0112561432
| 11>  C       -0.7895130344    -1.8310234727     2.1938267384
| 12>  C       -0.6388013582    -3.1176775790     2.8657246955
| 13>  N       -0.5345820860    -4.1322315056     3.4084426356
| 14>  H        1.1420372198     1.6278919908    -0.0390323618
| 15>  H       -0.1581758714     1.5763309445    -1.2511525995
| 16>  H       -0.5457761685     1.9240476639     0.4553023818
| 17>  H       -1.9721381545     0.0268965685     0.6556354322
| 18>  H       -1.9166456867     0.2686333010    -1.8694075751
| 19>  H       -1.2440308732    -1.3762188254    -1.9769180857
| 20>  H       -2.8825297932    -1.1135231024    -1.3484112130
| 21>  H       -2.0946327646    -2.5238097800     0.6108841474
| 22>  H        0.5818281234    -2.1753912683    -0.1128998535
| 23>  H        0.1424838607    -1.2630595017     2.2783605494
| 24>  H       -1.5670983087    -1.2560224001     2.7105950301
| 25> *
| 26>
| 27>                          ****END OF INPUT****

CARTESIAN COORDINATES (ANGSTROEM)
---------------------------------
  C      0.103152    1.337221   -0.211840
  O      0.010197   -0.043880    0.064229
  C     -1.304295   -0.596061    0.037408
  C     -1.866881   -0.706788   -1.379010
  C     -1.148374   -1.979534    0.695474
  O     -0.185072   -2.749955    0.011256
  C     -0.789513   -1.831023    2.193827
  C     -0.638801   -3.117678    2.865725
  N     -0.534582   -4.132232    3.408443
  H      1.142037    1.627892   -0.039032
  H     -0.158176    1.576331   -1.251153
  H     -0.545776    1.924048    0.455302
  H     -1.972138    0.026897    0.655635
  H     -1.916646    0.268633   -1.869408
  H     -1.244031   -1.376219   -1.976918
  H     -2.882530   -1.113523   -1.348411
  H     -2.094633   -2.523810    0.610884
  H      0.581828   -2.175391   -0.112900
  H      0.142484   -1.263060    2.278361
  H     -1.567098   -1.256022    2.710595

 Total Charge           Charge          ....    0
 Multiplicity           Mult            ....    1
 Number of Electrons    NEL             ....   70
 Basis Dimension        Dim             ....  345

ORBITAL ENERGIES
----------------

  NO   OCC          E(Eh)            E(eV)
   0   2.0000     -20.581336      -560.0466
   1   2.0000     -20.566225      -559.6354
   2   2.0000     -15.560014      -423.4095
   3   2.0000     -11.307909      -307.7038
   4   2.0000     -11.305868      -307.6483
   5   2.0000     -11.292432      -307.2827
   6   2.0000     -11.277642      -306.8802
   7   2.0000     -11.265411      -306.5474
   8   2.0000     -11.232307      -305.6466
   9   2.0000      -1.408278       -38.3212
  10   2.0000      -1.372107       -37.3369
  11   2.0000      -1.209605       -32.9150
  12   2.0000      -1.087303       -29.5870
  13   2.0000      -1.035642       -28.1813
  14   2.0000      -0.954237       -25.9661
  15   2.0000      -0.904140       -24.6029
  16   2.0000      -0.816788       -22.2259
  17   2.0000      -0.728360       -19.8197
  18   2.0000      -0.703249       -19.1364
  19   2.0000      -0.682894       -18.5825
  20   2.0000      -0.661312       -17.9952
  21   2.0000      -0.649895       -17.6845
  22   2.0000      -0.638239       -17.3674
  23   2.0000      -0.601591       -16.3701
  24   2.0000      -0.577328       -15.7099
  25   2.0000      -0.571529       -15.5521
  26   2.0000      -0.556254       -15.1365
  27   2.0000      -0.551511       -15.0074
  28   2.0000      -0.539812       -14.6890
  29   2.0000      -0.503609       -13.7039
  30   2.0000      -0.494138       -13.4462
  31   2.0000      -0.474258       -12.9052
  32   2.0000      -0.456366       -12.4183
  33   2.0000      -0.448124       -12.1941
  34   2.0000      -0.431262       -11.7352
  35   0.0000       0.116792         3.1781
  36   0.0000       0.144420         3.9299
  37   0.0000       0.150878         4.1056
  38   0.0000       0.156278         4.2525
  39   0.0000       0.178201         4.8491

MULLIKEN ATOMIC CHARGES
-----------------------
   0 C :   -0.230276
   1 O :   -0.339304
   2 C :    0.033655
   3 C :   -0.390021
   4 C :    0.110181
   5 O :   -0.461288
   6 C :   -0.159502
   7 C :   -0.161276
   8 N :   -0.054343
   9 H :    0.146815
  10 H :    0.123722
  11 H :    0.118258
  12 H :    0.083987
  13 H :    0.135644
  14 H :    0.148441
  15 H :    0.134883
  16 H :    0.114894
  17 H :    0.329564
  18 H :    0.168086
  19 H :    0.147880
Sum of atomic charges:    0.0000000

LOEWDIN ATOMIC CHARGES
----------------------
   0 C :   -0.351492
   1 O :    0.142298
   2 C :   -0.338307
   3 C :   -0.291423
   4 C :   -0.320272
   5 O :    0.008428
   6 C :   -0.234381
   7 C :   -0.192223
   8 N :    0.056446
   9 H :    0.116452
  10 H :    0.104496
  11 H :    0.105030
  12 H :    0.139675
  13 H :    0.123067
  14 H :    0.132753
  15 H :    0.130762
  16 H :    0.154456
  17 H :    0.182852
  18 H :    0.166753
  19 H :    0.164629

  Mayer bond orders larger than 0.1
B(  0-C ,  1-O ) :   0.9102 B(  0-C ,  9-H ) :   0.9391 B(  0-C , 10-H ) :   0.9344
B(  0-C , 11-H ) :   0.9361 B(  1-O ,  2-C ) :   0.8864 B(  2-C ,  3-C ) :   0.9294
B(  2-C ,  4-C ) :   0.9153 B(  2-C , 12-H ) :   0.9354 B(  3-C , 13-H ) :   0.9384
B(  3-C , 14-H ) :   0.9276 B(  3-C , 15-H ) :   0.9307 B(  4-C ,  5-O ) :   0.9462
B(  4-C ,  6-C ) :   0.8996 B(  4-C , 16-H ) :   0.9282 B(  5-O , 17-H ) :   0.8219
B(  6-C ,  7-C ) :   0.9459 B(  6-C , 18-H ) :   0.9018 B(  6-C , 19-H ) :   0.9008
B(  7-C ,  8-N ) :   2.8868

MP2 TOTAL ENERGY:     -439.576210752 Eh
FINAL SINGLE POINT ENERGY      -439.576210751986

DIPOLE MOMENT
-------------
                                X             Y             Z
Electronic contribution:      2.33070      -8.76763       6.93076
Nuclear contribution   :     -2.76019      11.12528      -7.85364
                        -----------------------------------------
Total Dipole Moment    :     -0.42948       2.35765      -0.92288
                        -----------------------------------------
Magnitude (a.u.)       :      2.56801
Magnitude (Debye)      :      6.52737

                             ****ORCA TERMINATED NORMALLY****
TOTAL RUN TIME: 0 days 0 hours 18 minutes 20 seconds 536 msec
