                         Program Version 3.0.3 - RELEASE   -
|  1> ! RI-MP2 RIJK def2-TZVP def2-TZVP/C def2-TZVP/JK TIGHTSCF
|  2> % maxcore 2000
|  3> % mp2 density relaxed end
|  4> *xyz 0 1
|  5>  C        0.4220339906     1.4185857966     0.0214277969
|  6>  O        1.2375251834     0.2612125616     0.2309752427
|  7>  C       -0.1702243741     0.0794328854     0.0101299053
|  8>  C       -0.9712796390    -0.5213468285     1.1592473574
|  9>  C       -1.0915536170    -2.0093268745     0.7670656975
| 10>  C       -1.2171480027    -1.9837642963    -0.7556226064
| 11>  O       -2.5203519581    -1.5268801631    -1.1996835594
| 12>  C       -1.9516330434    -0.3567051692    -1.8213729223
| 13>  C       -0.5512094398    -0.6695078840    -1.2551850208
| 14>  H        0.2887052203     2.0605235537     0.8918549480
| 15>  H        0.5924936059     1.9472907367    -0.9163081825
| 16>  H       -0.4773973762    -0.3543995153     2.1185288820
| 17>  H       -1.9654132448    -0.0631255637     1.2011162789
| 18>  H       -0.1770603394    -2.5493290886     1.0395669969
| 19>  H       -1.9392592114    -2.5184390591     1.2330732858
| 20>  H       -0.9387115923    -2.9238643168    -1.2430343815
| 21>  H       -2.0175582244    -0.4040446683    -2.9158500414
| 22>  H       -2.4265258041     0.5703252036    -1.4761052198
| 23>  H        0.2732695266    -0.7184178401    -1.9654236976
| 24> *
| 25>
| 26>                          ****END OF INPUT****

CARTESIAN COORDINATES (ANGSTROEM)
---------------------------------
  C      0.422034    1.418586    0.021428
  O      1.237525    0.261213    0.230975
  C     -0.170224    0.079433    0.010130
  C     -0.971280   -0.521347    1.159247
  C     -1.091554   -2.009327    0.767066
  C     -1.217148   -1.983764   -0.755623
  O     -2.520352   -1.526880   -1.199684
  C     -1.951633   -0.356705   -1.821373
  C     -0.551209   -0.669508   -1.255185
  H      0.288705    2.060524    0.891855
  H      0.592494    1.947291   -0.916308
  H     -0.477397   -0.354400    2.118529
  H     -1.965413   -0.063126    1.201116
  H     -0.177060   -2.549329    1.039567
  H     -1.939259   -2.518439    1.233073
  H     -0.938712   -2.923864   -1.243034
  H     -2.017558   -0.404045   -2.915850
  H     -2.426526    0.570325   -1.476105
  H      0.273270   -0.718418   -1.965424

 Total Charge           Charge          ....    0
 Multiplicity           Mult            ....    1
 Number of Electrons    NEL             ....   68
 Basis Dimension        Dim             ....  339

ORBITAL ENERGIES
----------------

  NO   OCC          E(Eh)            E(eV)
   0   2.0000     -20.566374      -559.6395
   1   2.0000     -20.549298      -559.1748
   2   2.0000     -11.293089      -307.3006
   3   2.0000     -11.284757      -307.0738
   4   2.0000     -11.284259      -307.0603
   5   2.0000     -11.284033      -307.0542
   6   2.0000     -11.238231      -305.8078
   7   2.0000     -11.229543      -305.5714
   8   2.0000     -11.226284      -305.4827
   9   2.0000      -1.411178       -38.4001
  10   2.0000      -1.380788       -37.5731
  11   2.0000      -1.105209       -30.0743
  12   2.0000      -1.008716       -27.4485
  13   2.0000      -0.953094       -25.9350
  14   2.0000      -0.910678       -24.7808
  15   2.0000      -0.875330       -23.8189
  16   2.0000      -0.787954       -21.4413
  17   2.0000      -0.742891       -20.2151
  18   2.0000      -0.705578       -19.1998
  19   2.0000      -0.672230       -18.2923
  20   2.0000      -0.662185       -18.0190
  21   2.0000      -0.634566       -17.2674
  22   2.0000      -0.601561       -16.3693
  23   2.0000      -0.590799       -16.0765
  24   2.0000      -0.574613       -15.6360
  25   2.0000      -0.554736       -15.0951
  26   2.0000      -0.514490       -14.0000
  27   2.0000      -0.499435       -13.5903
  28   2.0000      -0.497255       -13.5310
  29   2.0000      -0.466953       -12.7064
  30   2.0000      -0.457388       -12.4462
  31   2.0000      -0.436795       -11.8858
  32   2.0000      -0.424421       -11.5491
  33   2.0000      -0.414950       -11.2914
  34   0.0000       0.139885         3.8065
  35   0.0000       0.153052         4.1648
  36   0.0000       0.162191         4.4134
  37   0.0000       0.171774         4.6742
  38   0.0000       0.183041         4.9808

MULLIKEN ATOMIC CHARGES
-----------------------
   0 C :   -0.086420
   1 O :   -0.340741
   2 C :    0.084204
   3 C :   -0.230982
   4 C :   -0.226119
   5 C :    0.078364
   6 O :   -0.339618
   7 C :   -0.048987
   8 C :   -0.071693
   9 H :    0.117102
  10 H :    0.115225
  11 H :    0.132724
  12 H :    0.125795
  13 H :    0.119417
  14 H :    0.129780
  15 H :    0.101441
  16 H :    0.102752
  17 H :    0.101354
  18 H :    0.136403
Sum of atomic charges:   -0.0000000

LOEWDIN ATOMIC CHARGES
----------------------
   0 C :   -0.243940
   1 O :    0.158804
   2 C :   -0.300248
   3 C :   -0.207244
   4 C :   -0.230621
   5 C :   -0.240396
   6 O :    0.131409
   7 C :   -0.247546
   8 C :   -0.166976
   9 H :    0.122490
  10 H :    0.122007
  11 H :    0.144132
  12 H :    0.148357
  13 H :    0.146057
  14 H :    0.141327
  15 H :    0.132570
  16 H :    0.118960
  17 H :    0.119050
  18 H :    0.151811

  Mayer bond orders larger than 0.1
B(  0-C ,  1-O ) :   0.9021 B(  0-C ,  2-C ) :   0.9727 B(  0-C ,  9-H ) :   0.9080
B(  0-C , 10-H ) :   0.9122 B(  1-O ,  2-C ) :   0.8567 B(  2-C ,  3-C ) :   0.9308
B(  2-C ,  8-C ) :   0.9040 B(  3-C ,  4-C ) :   0.9549 B(  3-C , 11-H ) :   0.9201
B(  3-C , 12-H ) :   0.9186 B(  4-C ,  5-C ) :   0.9289 B(  4-C , 13-H ) :   0.9129
B(  4-C , 14-H ) :   0.9238 B(  5-C ,  6-O ) :   0.9570 B(  5-C ,  8-C ) :   0.9237
B(  5-C , 15-H ) :   0.9288 B(  6-O ,  7-C ) :   0.9395 B(  7-C ,  8-C ) :   0.9473
B(  7-C , 16-H ) :   0.9165 B(  7-C , 17-H ) :   0.9087 B(  8-C , 18-H ) :   0.9080

MP2 TOTAL ENERGY:     -422.295349352 Eh
FINAL SINGLE POINT ENERGY      -422.295349352238

DIPOLE MOMENT
-------------
                                X             Y             Z
Electronic contribution:      1.08500      -0.40933      -1.16605
Nuclear contribution   :     -1.11524       0.83952       1.06725
                        -----------------------------------------
Total Dipole Moment    :     -0.03025       0.43019      -0.09880
                        -----------------------------------------
Magnitude (a.u.)       :      0.44243
Magnitude (Debye)      :      1.12456

                             ****ORCA TERMINATED NORMALLY****
TOTAL RUN TIME: 0 days 0 hours 18 minutes 57 seconds 815 msec
