                         Program Version 3.0.3 - RELEASE   -
|  1> ! RI-MP2 RIJK def2-TZVP def2-TZVP/C def2-TZVP/JK TIGHTSCF
|  2> % maxcore 2000
|  3> % mp2 density relaxed end
|  4> *xyz 0 1
|  5>  C        0.0406398010     1.5186120201    -0.0726320640
|  6>  C        0.0600089867    -0.0083704549    -0.1816955995
|  7>  C       -1.3216945097    -0.6252274178    -0.0019837282
|  8>  O       -2.1970321348    -0.1438190227    -1.0212524227
|  9>  C       -3.1950283622    -1.1215751576    -1.3433550858
| 10>  C       -3.1486666700    -1.3974016659    -2.8432060540
| 11>  C       -2.8775309608    -2.3522798091    -0.4615965392
| 12>  C       -1.3996966427    -2.1545930453    -0.0957465630
| 13>  O       -0.5200002040    -2.5955992984    -1.1237784454
| 14>  H        1.0422642471     1.9350733374    -0.2168305270
| 15>  H       -0.6220231040     1.9487072108    -0.8279712233
| 16>  H       -0.3173714376     1.8436754284     0.9111562000
| 17>  H        0.4496306129    -0.3193714395    -1.1545183843
| 18>  H        0.7261611911    -0.4338259725     0.5794926864
| 19>  H       -1.7188369278    -0.3362825420     0.9884900963
| 20>  H       -4.1785677413    -0.7083308866    -1.0794691664
| 21>  H       -2.1911044673    -1.8534437188    -3.1078886712
| 22>  H       -3.9606079805    -2.0705923123    -3.1398515579
| 23>  H       -3.2563585843    -0.4631716630    -3.4016583582
| 24>  H       -3.4861732373    -2.3479452467     0.4484510258
| 25>  H       -3.0575343294    -3.3008352430    -0.9764192921
| 26>  H       -1.1384547456    -2.6241814466     0.8629979439
| 27>  H       -0.6487673696    -3.5421557840    -1.2368425402
| 28> *
| 29>
| 30>                          ****END OF INPUT****

CARTESIAN COORDINATES (ANGSTROEM)
---------------------------------
  C      0.040640    1.518612   -0.072632
  C      0.060009   -0.008370   -0.181696
  C     -1.321695   -0.625227   -0.001984
  O     -2.197032   -0.143819   -1.021252
  C     -3.195028   -1.121575   -1.343355
  C     -3.148667   -1.397402   -2.843206
  C     -2.877531   -2.352280   -0.461597
  C     -1.399697   -2.154593   -0.095747
  O     -0.520000   -2.595599   -1.123778
  H      1.042264    1.935073   -0.216831
  H     -0.622023    1.948707   -0.827971
  H     -0.317371    1.843675    0.911156
  H      0.449631   -0.319371   -1.154518
  H      0.726161   -0.433826    0.579493
  H     -1.718837   -0.336283    0.988490
  H     -4.178568   -0.708331   -1.079469
  H     -2.191104   -1.853444   -3.107889
  H     -3.960608   -2.070592   -3.139852
  H     -3.256359   -0.463172   -3.401658
  H     -3.486173   -2.347945    0.448451
  H     -3.057534   -3.300835   -0.976419
  H     -1.138455   -2.624181    0.862998
  H     -0.648767   -3.542156   -1.236843

 Total Charge           Charge          ....    0
 Multiplicity           Mult            ....    1
 Number of Electrons    NEL             ....   72
 Basis Dimension        Dim             ....  363

ORBITAL ENERGIES
----------------

  NO   OCC          E(Eh)            E(eV)
   0   2.0000     -20.558729      -559.4315
   1   2.0000     -20.539121      -558.8979
   2   2.0000     -11.282575      -307.0145
   3   2.0000     -11.275076      -306.8104
   4   2.0000     -11.270689      -306.6910
   5   2.0000     -11.227702      -305.5213
   6   2.0000     -11.208390      -304.9958
   7   2.0000     -11.205558      -304.9187
   8   2.0000     -11.200595      -304.7837
   9   2.0000      -1.379605       -37.5410
  10   2.0000      -1.352273       -36.7972
  11   2.0000      -1.058602       -28.8060
  12   2.0000      -1.050317       -28.5806
  13   2.0000      -0.990189       -26.9444
  14   2.0000      -0.913597       -24.8602
  15   2.0000      -0.833964       -22.6933
  16   2.0000      -0.796798       -21.6820
  17   2.0000      -0.766746       -20.8642
  18   2.0000      -0.715675       -19.4745
  19   2.0000      -0.669700       -18.2235
  20   2.0000      -0.631549       -17.1853
  21   2.0000      -0.619292       -16.8518
  22   2.0000      -0.605149       -16.4669
  23   2.0000      -0.581364       -15.8197
  24   2.0000      -0.559096       -15.2138
  25   2.0000      -0.557010       -15.1570
  26   2.0000      -0.536710       -14.6046
  27   2.0000      -0.525204       -14.2915
  28   2.0000      -0.517576       -14.0840
  29   2.0000      -0.502568       -13.6756
  30   2.0000      -0.484612       -13.1870
  31   2.0000      -0.471470       -12.8293
  32   2.0000      -0.463147       -12.6029
  33   2.0000      -0.446937       -12.1618
  34   2.0000      -0.435438       -11.8489
  35   2.0000      -0.400070       -10.8865
  36   0.0000       0.125998         3.4286
  37   0.0000       0.154532         4.2050
  38   0.0000       0.158431         4.3111
  39   0.0000       0.163524         4.4497
  40   0.0000       0.190759         5.1908

MULLIKEN ATOMIC CHARGES
-----------------------
   0 C :   -0.388178
   1 C :   -0.192801
   2 C :    0.061242
   3 O :   -0.322383
   4 C :    0.176581
   5 C :   -0.437905
   6 C :   -0.293746
   7 C :    0.044364
   8 O :   -0.468291
   9 H :    0.129209
  10 H :    0.143935
  11 H :    0.111571
  12 H :    0.129706
  13 H :    0.098094
  14 H :    0.070289
  15 H :    0.084233
  16 H :    0.143320
  17 H :    0.112830
  18 H :    0.134762
  19 H :    0.124106
  20 H :    0.126538
  21 H :    0.099377
  22 H :    0.313148
Sum of atomic charges:   -0.0000000

LOEWDIN ATOMIC CHARGES
----------------------
   0 C :   -0.318668
   1 C :   -0.270153
   2 C :   -0.299195
   3 O :    0.191638
   4 C :   -0.320479
   5 C :   -0.301122
   6 C :   -0.230028
   7 C :   -0.324771
   8 O :   -0.010398
   9 H :    0.119131
  10 H :    0.125696
  11 H :    0.118228
  12 H :    0.144401
  13 H :    0.140112
  14 H :    0.140967
  15 H :    0.134358
  16 H :    0.125955
  17 H :    0.120864
  18 H :    0.125662
  19 H :    0.141779
  20 H :    0.138663
  21 H :    0.134000
  22 H :    0.173361

  Mayer bond orders larger than 0.1
B(  0-C ,  1-C ) :   0.9137 B(  0-C ,  9-H ) :   0.9430 B(  0-C , 10-H ) :   0.9378
B(  0-C , 11-H ) :   0.9358 B(  1-C ,  2-C ) :   0.9287 B(  1-C , 12-H ) :   0.9295
B(  1-C , 13-H ) :   0.9297 B(  2-C ,  3-O ) :   0.9384 B(  2-C ,  7-C ) :   0.9033
B(  2-C , 14-H ) :   0.9222 B(  3-O ,  4-C ) :   0.9231 B(  4-C ,  5-C ) :   0.8994
B(  4-C ,  6-C ) :   0.8953 B(  4-C , 15-H ) :   0.9298 B(  5-C , 16-H ) :   0.9404
B(  5-C , 17-H ) :   0.9298 B(  5-C , 18-H ) :   0.9377 B(  6-C ,  7-C ) :   0.9429
B(  6-C , 19-H ) :   0.9176 B(  6-C , 20-H ) :   0.9269 B(  7-C ,  8-O ) :   0.9647
B(  7-C , 21-H ) :   0.9343 B(  8-O , 22-H ) :   0.8438

MP2 TOTAL ENERGY:     -424.742514547 Eh
FINAL SINGLE POINT ENERGY      -424.742514547000

DIPOLE MOMENT
-------------
                                X             Y             Z
Electronic contribution:     -0.40017      -2.51953       0.41587
Nuclear contribution   :      0.04083       1.58628       0.01907
                        -----------------------------------------
Total Dipole Moment    :     -0.35934      -0.93325       0.43494
                        -----------------------------------------
Magnitude (a.u.)       :      1.09053
Magnitude (Debye)      :      2.77190

                             ****ORCA TERMINATED NORMALLY****
TOTAL RUN TIME: 0 days 0 hours 31 minutes 24 seconds 909 msec
