                         Program Version 3.0.3 - RELEASE   -
|  1> ! RI-MP2 RIJK def2-TZVP def2-TZVP/C def2-TZVP/JK TIGHTSCF
|  2> % maxcore 2000
|  3> % mp2 density relaxed end
|  4> *xyz 0 1
|  5>  C       -0.2255143012     1.6143040708     0.1101137946
|  6>  C        0.2329984941     0.1610319637    -0.1110228377
|  7>  C        0.8836239569    -0.4197291662     1.0577439544
|  8>  C        1.4031573256    -0.8862296021     2.0394285521
|  9>  C        2.0628732568    -1.4350908858     3.1886224777
| 10>  N        1.2294826169    -1.9860193856     4.2761383219
| 11>  C        2.0689972676    -2.9152233578     3.4951476750
| 12>  C        1.4099888137    -3.8778422651     2.6598551769
| 13>  C        0.8975361784    -4.7052616608     1.9549823860
| 14>  H        0.6248391891     2.2575814954     0.3521891629
| 15>  H       -0.7066706660     2.0033705851    -0.7921840336
| 16>  H       -0.9394374072     1.6740697289     0.9358524580
| 17>  H       -0.6297974687    -0.4591291455    -0.3855914641
| 18>  H        0.9188532562     0.1180805411    -0.9670150977
| 19>  H        2.9742148651    -0.9167147922     3.4828877833
| 20>  H        1.6742643966    -1.8022097262     5.1725781610
| 21>  H        2.9811119399    -3.2781719805     3.9656494889
| 22>  H        0.4308319061    -5.4280053071     1.3327961604
| 23> *
| 24>
| 25>                          ****END OF INPUT****

CARTESIAN COORDINATES (ANGSTROEM)
---------------------------------
  C     -0.225514    1.614304    0.110114
  C      0.232998    0.161032   -0.111023
  C      0.883624   -0.419729    1.057744
  C      1.403157   -0.886230    2.039429
  C      2.062873   -1.435091    3.188622
  N      1.229483   -1.986019    4.276138
  C      2.068997   -2.915223    3.495148
  C      1.409989   -3.877842    2.659855
  C      0.897536   -4.705262    1.954982
  H      0.624839    2.257581    0.352189
  H     -0.706671    2.003371   -0.792184
  H     -0.939437    1.674070    0.935852
  H     -0.629797   -0.459129   -0.385591
  H      0.918853    0.118081   -0.967015
  H      2.974215   -0.916715    3.482888
  H      1.674264   -1.802210    5.172578
  H      2.981112   -3.278172    3.965649
  H      0.430832   -5.428005    1.332796

 Total Charge           Charge          ....    0
 Multiplicity           Mult            ....    1
 Number of Electrons    NEL             ....   64
 Basis Dimension        Dim             ....  333

ORBITAL ENERGIES
----------------

  NO   OCC          E(Eh)            E(eV)
   0   2.0000     -15.579629      -423.9433
   1   2.0000     -11.297269      -307.4143
   2   2.0000     -11.296605      -307.3962
   3   2.0000     -11.248820      -306.0960
   4   2.0000     -11.233805      -305.6874
   5   2.0000     -11.224720      -305.4402
   6   2.0000     -11.224616      -305.4373
   7   2.0000     -11.222532      -305.3806
   8   2.0000     -11.217161      -305.2345
   9   2.0000      -1.284296       -34.9475
  10   2.0000      -1.076570       -29.2950
  11   2.0000      -1.037863       -28.2417
  12   2.0000      -1.008585       -27.4450
  13   2.0000      -0.923650       -25.1338
  14   2.0000      -0.899932       -24.4884
  15   2.0000      -0.856032       -23.2938
  16   2.0000      -0.740435       -20.1483
  17   2.0000      -0.722989       -19.6735
  18   2.0000      -0.688942       -18.7471
  19   2.0000      -0.646460       -17.5911
  20   2.0000      -0.622021       -16.9261
  21   2.0000      -0.595509       -16.2046
  22   2.0000      -0.549936       -14.9645
  23   2.0000      -0.534888       -14.5550
  24   2.0000      -0.529760       -14.4155
  25   2.0000      -0.518630       -14.1126
  26   2.0000      -0.508951       -13.8492
  27   2.0000      -0.438440       -11.9306
  28   2.0000      -0.396479       -10.7888
  29   2.0000      -0.387420       -10.5422
  30   2.0000      -0.366616        -9.9761
  31   2.0000      -0.350120        -9.5272
  32   0.0000       0.120536         3.2799
  33   0.0000       0.136478         3.7138
  34   0.0000       0.159897         4.3510
  35   0.0000       0.167493         4.5577
  36   0.0000       0.172619         4.6972

MULLIKEN ATOMIC CHARGES
-----------------------
   0 C :   -0.363595
   1 C :   -0.300089
   2 C :    0.071282
   3 C :    0.062824
   4 C :   -0.232689
   5 N :   -0.330783
   6 C :   -0.205567
   7 C :    0.037836
   8 C :   -0.113123
   9 H :    0.128310
  10 H :    0.131299
  11 H :    0.134390
  12 H :    0.146001
  13 H :    0.140907
  14 H :    0.139495
  15 H :    0.222496
  16 H :    0.139386
  17 H :    0.191619
Sum of atomic charges:   -0.0000000

LOEWDIN ATOMIC CHARGES
----------------------
   0 C :   -0.299535
   1 C :   -0.275937
   2 C :   -0.056074
   3 C :   -0.057395
   4 C :   -0.233031
   5 N :    0.035105
   6 C :   -0.233060
   7 C :   -0.084390
   8 C :   -0.078720
   9 H :    0.123531
  10 H :    0.120726
  11 H :    0.125206
  12 H :    0.155310
  13 H :    0.153459
  14 H :    0.153245
  15 H :    0.170108
  16 H :    0.153975
  17 H :    0.127476

  Mayer bond orders larger than 0.1
B(  0-C ,  1-C ) :   0.9366 B(  0-C ,  9-H ) :   0.9360 B(  0-C , 10-H ) :   0.9389
B(  0-C , 11-H ) :   0.9350 B(  1-C ,  2-C ) :   0.9517 B(  1-C , 12-H ) :   0.9357
B(  1-C , 13-H ) :   0.9422 B(  2-C ,  3-C ) :   2.6320 B(  2-C ,  4-C ) :  -0.1554
B(  3-C ,  4-C ) :   1.1728 B(  4-C ,  5-N ) :   0.9595 B(  4-C ,  6-C ) :   0.8720
B(  4-C , 14-H ) :   0.9285 B(  5-N ,  6-C ) :   0.9317 B(  5-N , 15-H ) :   0.8647
B(  6-C ,  7-C ) :   1.2523 B(  6-C ,  8-C ) :  -0.1467 B(  6-C , 16-H ) :   0.9264
B(  7-C ,  8-C ) :   2.5770 B(  8-C , 17-H ) :   0.8897

MP2 TOTAL ENERGY:     -364.040054554 Eh
FINAL SINGLE POINT ENERGY      -364.040054553941

DIPOLE MOMENT
-------------
                                X             Y             Z
Electronic contribution:      2.84089      -7.28959       5.06311
Nuclear contribution   :     -2.30037       7.52184      -5.13034
                        -----------------------------------------
Total Dipole Moment    :      0.54051       0.23225      -0.06723
                        -----------------------------------------
Magnitude (a.u.)       :      0.59213
Magnitude (Debye)      :      1.50507

                             ****ORCA TERMINATED NORMALLY****
TOTAL RUN TIME: 0 days 0 hours 14 minutes 22 seconds 622 msec
