                         Program Version 3.0.3 - RELEASE   -
|  1> ! RI-MP2 RIJK def2-TZVP def2-TZVP/C def2-TZVP/JK TIGHTSCF
|  2> % maxcore 2000
|  3> % mp2 density relaxed end
|  4> *xyz 0 1
|  5>  C       -0.0896529856     1.5247007670    -0.0212756562
|  6>  C        0.1251593130     0.0286659452     0.0619696613
|  7>  O        1.2045944026    -0.4537774685    -0.7982296958
|  8>  C        1.7734499478    -1.1925813490     0.2937374876
|  9>  C        2.2376657990    -0.2417086323     1.3634175201
| 10>  C        0.7752180538    -0.6084024293     1.2902881477
| 11>  C        2.2598904273    -2.5090999836     0.0759862713
| 12>  C        2.6811333953    -3.6203707394    -0.1112929366
| 13>  H        0.7979082947     2.0770934224     0.2978373081
| 14>  H       -0.3223134855     1.8141620879    -1.0508701381
| 15>  H       -0.9320142903     1.8197380508     0.6135011389
| 16>  H       -0.7954263053    -0.5063405147    -0.2044092490
| 17>  H        2.7738620910    -0.6979550899     2.1886765172
| 18>  H        2.5932102032     0.7391144255     1.0620899282
| 19>  H        0.2532687853    -1.1012091752     2.0989020879
| 20>  H        3.0509361436    -4.6015613569    -0.2788978726
| 21> *
| 22>
| 23>                          ****END OF INPUT****

CARTESIAN COORDINATES (ANGSTROEM)
---------------------------------
  C     -0.089653    1.524701   -0.021276
  C      0.125159    0.028666    0.061970
  O      1.204594   -0.453777   -0.798230
  C      1.773450   -1.192581    0.293737
  C      2.237666   -0.241709    1.363418
  C      0.775218   -0.608402    1.290288
  C      2.259890   -2.509100    0.075986
  C      2.681133   -3.620371   -0.111293
  H      0.797908    2.077093    0.297837
  H     -0.322313    1.814162   -1.050870
  H     -0.932014    1.819738    0.613501
  H     -0.795426   -0.506341   -0.204409
  H      2.773862   -0.697955    2.188677
  H      2.593210    0.739114    1.062090
  H      0.253269   -1.101209    2.098902
  H      3.050936   -4.601561   -0.278898

 Total Charge           Charge          ....    0
 Multiplicity           Mult            ....    1
 Number of Electrons    NEL             ....   58
 Basis Dimension        Dim             ....  296

ORBITAL ENERGIES
----------------

  NO   OCC          E(Eh)            E(eV)
   0   2.0000     -20.559766      -559.4597
   1   2.0000     -11.315691      -307.9156
   2   2.0000     -11.295802      -307.3744
   3   2.0000     -11.251467      -306.1680
   4   2.0000     -11.246391      -306.0299
   5   2.0000     -11.239837      -305.8515
   6   2.0000     -11.231433      -305.6228
   7   2.0000     -11.222408      -305.3772
   8   2.0000      -1.398850       -38.0646
   9   2.0000      -1.131816       -30.7983
  10   2.0000      -1.048262       -28.5247
  11   2.0000      -1.015784       -27.6409
  12   2.0000      -0.898363       -24.4457
  13   2.0000      -0.859919       -23.3996
  14   2.0000      -0.768734       -20.9183
  15   2.0000      -0.729359       -19.8469
  16   2.0000      -0.704335       -19.1659
  17   2.0000      -0.664190       -18.0735
  18   2.0000      -0.630945       -17.1689
  19   2.0000      -0.607670       -16.5355
  20   2.0000      -0.567979       -15.4555
  21   2.0000      -0.547670       -14.9029
  22   2.0000      -0.523888       -14.2557
  23   2.0000      -0.517022       -14.0689
  24   2.0000      -0.479058       -13.0358
  25   2.0000      -0.450241       -12.2517
  26   2.0000      -0.422268       -11.4905
  27   2.0000      -0.395327       -10.7574
  28   2.0000      -0.349869        -9.5204
  29   0.0000       0.139166         3.7869
  30   0.0000       0.155285         4.2255
  31   0.0000       0.156993         4.2720
  32   0.0000       0.161514         4.3950
  33   0.0000       0.169277         4.6063

MULLIKEN ATOMIC CHARGES
-----------------------
   0 C :   -0.392325
   1 C :    0.112759
   2 O :   -0.318210
   3 C :   -0.020551
   4 C :   -0.249490
   5 C :   -0.155155
   6 C :   -0.027064
   7 C :   -0.068305
   8 H :    0.124770
   9 H :    0.143031
  10 H :    0.129321
  11 H :    0.098618
  12 H :    0.140175
  13 H :    0.138867
  14 H :    0.146752
  15 H :    0.196806
Sum of atomic charges:   -0.0000000

LOEWDIN ATOMIC CHARGES
----------------------
   0 C :   -0.291070
   1 C :   -0.271897
   2 O :    0.194638
   3 C :   -0.272466
   4 C :   -0.164926
   5 C :   -0.141483
   6 C :   -0.066731
   7 C :   -0.070647
   8 H :    0.124953
   9 H :    0.131154
  10 H :    0.129804
  11 H :    0.144444
  12 H :    0.147863
  13 H :    0.136802
  14 H :    0.141000
  15 H :    0.128561

  Mayer bond orders larger than 0.1
B(  0-C ,  1-C ) :   0.9252 B(  0-C ,  8-H ) :   0.9365 B(  0-C ,  9-H ) :   0.9320
B(  0-C , 10-H ) :   0.9287 B(  1-C ,  2-O ) :   0.8887 B(  1-C ,  5-C ) :   0.9276
B(  1-C , 11-H ) :   0.9112 B(  2-O ,  3-C ) :   1.0123 B(  3-C ,  4-C ) :   0.8262
B(  3-C ,  5-C ) :   0.8325 B(  3-C ,  6-C ) :   1.2712 B(  3-C ,  7-C ) :  -0.1784
B(  4-C ,  5-C ) :   0.8979 B(  4-C , 12-H ) :   0.9219 B(  4-C , 13-H ) :   0.9074
B(  5-C , 14-H ) :   0.9070 B(  6-C ,  7-C ) :   2.5980 B(  7-C , 15-H ) :   0.8711

MP2 TOTAL ENERGY:     -345.911112444 Eh
FINAL SINGLE POINT ENERGY      -345.911112443945

DIPOLE MOMENT
-------------
                                X             Y             Z
Electronic contribution:      2.73392      -5.55133      -1.78833
Nuclear contribution   :     -3.03630       5.62991       2.51317
                        -----------------------------------------
Total Dipole Moment    :     -0.30238       0.07857       0.72484
                        -----------------------------------------
Magnitude (a.u.)       :      0.78931
Magnitude (Debye)      :      2.00626

                             ****ORCA TERMINATED NORMALLY****
TOTAL RUN TIME: 0 days 0 hours 12 minutes 8 seconds 358 msec
