                         Program Version 3.0.3 - RELEASE   -
|  1> ! RI-MP2 RIJK def2-TZVP def2-TZVP/C def2-TZVP/JK TIGHTSCF
|  2> % maxcore 2000
|  3> % mp2 density relaxed end
|  4> *xyz 0 1
|  5>  O        0.2936548976     1.1816029859     0.3026351831
|  6>  C        0.0827405593    -0.2057460275     0.2073150148
|  7>  C       -1.4025093741    -0.5425832597    -0.0322001335
|  8>  C       -1.7737448878    -2.0219528275    -0.2779899748
|  9>  N       -2.7824419487    -2.4511215019     0.7359692474
| 10>  C       -2.2438823562    -2.4488547597     2.0851541336
| 11>  C       -3.0662799421    -1.2924315799     1.6060368033
| 12>  C       -2.2560609218    -0.1173395963     1.1660075874
| 13>  O       -2.2606231419     0.9893596487     1.6595113270
| 14>  H       -0.3784078934     1.5290257638     0.9069836956
| 15>  H        0.6811577196    -0.5666222918    -0.6367800802
| 16>  H        0.4401883642    -0.7389070408     1.1063627555
| 17>  H       -1.7298280131     0.0763113753    -0.8756123862
| 18>  H       -2.2247226587    -2.1537000464    -1.2639823301
| 19>  H       -0.9070366627    -2.6889550035    -0.2207121510
| 20>  H       -2.6996405717    -3.1507549823     2.7770805800
| 21>  H       -1.1742881137    -2.3014271329     2.2249201370
| 22>  H       -4.0740165150    -1.1378649935     1.9753377911
| 23> *
| 24>
| 25>                          ****END OF INPUT****

CARTESIAN COORDINATES (ANGSTROEM)
---------------------------------
  O      0.293655    1.181603    0.302635
  C      0.082741   -0.205746    0.207315
  C     -1.402509   -0.542583   -0.032200
  C     -1.773745   -2.021953   -0.277990
  N     -2.782442   -2.451122    0.735969
  C     -2.243882   -2.448855    2.085154
  C     -3.066280   -1.292432    1.606037
  C     -2.256061   -0.117340    1.166008
  O     -2.260623    0.989360    1.659511
  H     -0.378408    1.529026    0.906984
  H      0.681158   -0.566622   -0.636780
  H      0.440188   -0.738907    1.106363
  H     -1.729828    0.076311   -0.875612
  H     -2.224723   -2.153700   -1.263982
  H     -0.907037   -2.688955   -0.220712
  H     -2.699641   -3.150755    2.777081
  H     -1.174288   -2.301427    2.224920
  H     -4.074017   -1.137865    1.975338

 Total Charge           Charge          ....    0
 Multiplicity           Mult            ....    1
 Number of Electrons    NEL             ....   68
 Basis Dimension        Dim             ....  333

ORBITAL ENERGIES
----------------

  NO   OCC          E(Eh)            E(eV)
   0   2.0000     -20.566152      -559.6334
   1   2.0000     -20.552123      -559.2517
   2   2.0000     -15.590263      -424.2326
   3   2.0000     -11.351012      -308.8767
   4   2.0000     -11.292929      -307.2962
   5   2.0000     -11.286773      -307.1287
   6   2.0000     -11.283692      -307.0449
   7   2.0000     -11.278467      -306.9027
   8   2.0000     -11.255315      -306.2727
   9   2.0000      -1.411497       -38.4088
  10   2.0000      -1.361614       -37.0514
  11   2.0000      -1.311768       -35.6950
  12   2.0000      -1.085530       -29.5388
  13   2.0000      -0.995950       -27.1012
  14   2.0000      -0.934326       -25.4243
  15   2.0000      -0.867592       -23.6084
  16   2.0000      -0.830093       -22.5880
  17   2.0000      -0.773101       -21.0372
  18   2.0000      -0.711637       -19.3646
  19   2.0000      -0.694963       -18.9109
  20   2.0000      -0.657278       -17.8854
  21   2.0000      -0.639815       -17.4102
  22   2.0000      -0.622743       -16.9457
  23   2.0000      -0.609769       -16.5927
  24   2.0000      -0.591671       -16.1002
  25   2.0000      -0.581094       -15.8124
  26   2.0000      -0.568000       -15.4561
  27   2.0000      -0.539706       -14.6862
  28   2.0000      -0.511036       -13.9060
  29   2.0000      -0.487875       -13.2758
  30   2.0000      -0.475170       -12.9300
  31   2.0000      -0.446782       -12.1576
  32   2.0000      -0.419647       -11.4192
  33   2.0000      -0.398283       -10.8378
  34   0.0000       0.106270         2.8917
  35   0.0000       0.146503         3.9866
  36   0.0000       0.150723         4.1014
  37   0.0000       0.162943         4.4339
  38   0.0000       0.168909         4.5962

MULLIKEN ATOMIC CHARGES
-----------------------
   0 O :   -0.472786
   1 C :   -0.016676
   2 C :   -0.116595
   3 C :   -0.181067
   4 N :   -0.202199
   5 C :   -0.186495
   6 C :   -0.059178
   7 C :    0.171558
   8 O :   -0.318243
   9 H :    0.332980
  10 H :    0.119734
  11 H :    0.085446
  12 H :    0.131788
  13 H :    0.140634
  14 H :    0.139070
  15 H :    0.146200
  16 H :    0.132803
  17 H :    0.153027
Sum of atomic charges:   -0.0000000

LOEWDIN ATOMIC CHARGES
----------------------
   0 O :   -0.035313
   1 C :   -0.330176
   2 C :   -0.228559
   3 C :   -0.231534
   4 N :    0.117619
   5 C :   -0.226338
   6 C :   -0.203802
   7 C :   -0.290186
   8 O :    0.141979
   9 H :    0.177157
  10 H :    0.130568
  11 H :    0.116831
  12 H :    0.173887
  13 H :    0.136897
  14 H :    0.136430
  15 H :    0.133849
  16 H :    0.129346
  17 H :    0.151346

  Mayer bond orders larger than 0.1
B(  0-O ,  1-C ) :   0.9560 B(  0-O ,  9-H ) :   0.8151 B(  1-C ,  2-C ) :   0.9250
B(  1-C , 10-H ) :   0.9340 B(  1-C , 11-H ) :   0.9089 B(  2-C ,  3-C ) :   0.8956
B(  2-C ,  7-C ) :   0.8797 B(  2-C , 12-H ) :   0.8900 B(  3-C ,  4-N ) :   0.8940
B(  3-C , 13-H ) :   0.9256 B(  3-C , 14-H ) :   0.9454 B(  4-N ,  5-C ) :   0.8973
B(  4-N ,  6-C ) :   0.9208 B(  5-C ,  6-C ) :   0.8836 B(  5-C , 15-H ) :   0.9239
B(  5-C , 16-H ) :   0.9104 B(  6-C ,  7-C ) :   0.9601 B(  6-C , 17-H ) :   0.9047
B(  7-C ,  8-O ) :   1.8975

MP2 TOTAL ENERGY:     -438.357283373 Eh
FINAL SINGLE POINT ENERGY      -438.357283372571

DIPOLE MOMENT
-------------
                                X             Y             Z
Electronic contribution:     -2.80429       3.35394       1.35457
Nuclear contribution   :      2.68179      -4.39482      -1.33570
                        -----------------------------------------
Total Dipole Moment    :     -0.12251      -1.04088       0.01887
                        -----------------------------------------
Magnitude (a.u.)       :      1.04824
Magnitude (Debye)      :      2.66441

                             ****ORCA TERMINATED NORMALLY****
TOTAL RUN TIME: 0 days 0 hours 30 minutes 10 seconds 846 msec
