                         Program Version 3.0.3 - RELEASE   -
|  1> ! RI-MP2 RIJK def2-TZVP def2-TZVP/C def2-TZVP/JK TIGHTSCF
|  2> % maxcore 2000
|  3> % mp2 density relaxed end
|  4> *xyz 0 1
|  5>  C       -0.1962265527     1.5847295063     0.0862654922
|  6>  C       -0.0189614027     0.0705216728    -0.0164745703
|  7>  C       -1.3464417192    -0.6662205095     0.1510102084
|  8>  O       -1.9018104343    -0.3036832526     1.4047320849
|  9>  C        0.8083500039    -0.4285161816    -1.2459168037
| 10>  C        1.8796377889    -0.9697572728    -0.2565725385
| 11>  N        1.0565880622    -0.4726222584     0.8416664881
| 12>  C        1.2330937226    -0.6070965692     2.1760752818
| 13>  O        2.1939521169    -1.1590282844     2.6786767273
| 14>  H        0.7681185751     2.0910455469    -0.0087401512
| 15>  H       -0.8553579828     1.9417794690    -0.7127333689
| 16>  H       -0.6461447914     1.8597078189     1.0427963802
| 17>  H       -2.0132594820    -0.3873641255    -0.6818303514
| 18>  H       -1.1642658365    -1.7491422591     0.0918362077
| 19>  H       -2.6544253744    -0.8737358314     1.5858631691
| 20>  H        0.3107906356    -1.1934567781    -1.8454254899
| 21>  H        1.1509081184     0.3714892032    -1.9032303701
| 22>  H        2.0145193948    -2.0560872079    -0.2473694495
| 23>  H        2.8660419201    -0.4993032935    -0.3171221490
| 24>  H        0.4032479078    -0.1631716532     2.7555062628
| 25> *
| 26>
| 27>                          ****END OF INPUT****

CARTESIAN COORDINATES (ANGSTROEM)
---------------------------------
  C     -0.196227    1.584730    0.086265
  C     -0.018961    0.070522   -0.016475
  C     -1.346442   -0.666221    0.151010
  O     -1.901810   -0.303683    1.404732
  C      0.808350   -0.428516   -1.245917
  C      1.879638   -0.969757   -0.256573
  N      1.056588   -0.472622    0.841666
  C      1.233094   -0.607097    2.176075
  O      2.193952   -1.159028    2.678677
  H      0.768119    2.091046   -0.008740
  H     -0.855358    1.941779   -0.712733
  H     -0.646145    1.859708    1.042796
  H     -2.013259   -0.387364   -0.681830
  H     -1.164266   -1.749142    0.091836
  H     -2.654425   -0.873736    1.585863
  H      0.310791   -1.193457   -1.845425
  H      1.150908    0.371489   -1.903230
  H      2.014519   -2.056087   -0.247369
  H      2.866042   -0.499303   -0.317122
  H      0.403248   -0.163172    2.755506

 Total Charge           Charge          ....    0
 Multiplicity           Mult            ....    1
 Number of Electrons    NEL             ....   70
 Basis Dimension        Dim             ....  345

ORBITAL ENERGIES
----------------

  NO   OCC          E(Eh)            E(eV)
   0   2.0000     -20.574785      -559.8684
   1   2.0000     -20.505880      -557.9934
   2   2.0000     -15.573143      -423.7668
   3   2.0000     -11.330196      -308.3103
   4   2.0000     -11.293268      -307.3054
   5   2.0000     -11.290083      -307.2188
   6   2.0000     -11.268019      -306.6184
   7   2.0000     -11.243591      -305.9537
   8   2.0000     -11.224848      -305.4437
   9   2.0000      -1.381670       -37.5971
  10   2.0000      -1.365354       -37.1532
  11   2.0000      -1.266555       -34.4647
  12   2.0000      -1.062001       -28.8985
  13   2.0000      -1.013746       -27.5854
  14   2.0000      -0.944020       -25.6881
  15   2.0000      -0.868549       -23.6344
  16   2.0000      -0.838588       -22.8191
  17   2.0000      -0.738857       -20.1053
  18   2.0000      -0.713303       -19.4100
  19   2.0000      -0.683221       -18.5914
  20   2.0000      -0.677114       -18.4252
  21   2.0000      -0.647122       -17.6091
  22   2.0000      -0.625093       -17.0096
  23   2.0000      -0.588417       -16.0116
  24   2.0000      -0.586007       -15.9461
  25   2.0000      -0.560353       -15.2480
  26   2.0000      -0.552274       -15.0281
  27   2.0000      -0.530625       -14.4391
  28   2.0000      -0.519366       -14.1327
  29   2.0000      -0.510970       -13.9042
  30   2.0000      -0.492641       -13.4054
  31   2.0000      -0.477119       -12.9831
  32   2.0000      -0.456931       -12.4337
  33   2.0000      -0.410582       -11.1725
  34   2.0000      -0.367374        -9.9968
  35   0.0000       0.118107         3.2138
  36   0.0000       0.138286         3.7630
  37   0.0000       0.152989         4.1630
  38   0.0000       0.162748         4.4286
  39   0.0000       0.180341         4.9073

MULLIKEN ATOMIC CHARGES
-----------------------
   0 C :   -0.421827
   1 C :    0.129786
   2 C :   -0.098669
   3 O :   -0.473418
   4 C :   -0.233661
   5 C :   -0.155207
   6 N :   -0.065784
   7 C :    0.116389
   8 O :   -0.373002
   9 H :    0.138557
  10 H :    0.128697
  11 H :    0.158656
  12 H :    0.106956
  13 H :    0.112523
  14 H :    0.321889
  15 H :    0.127262
  16 H :    0.130211
  17 H :    0.123100
  18 H :    0.123530
  19 H :    0.104013
Sum of atomic charges:    0.0000000

LOEWDIN ATOMIC CHARGES
----------------------
   0 C :   -0.264777
   1 C :   -0.290175
   2 C :   -0.311114
   3 O :   -0.035572
   4 C :   -0.184842
   5 C :   -0.216175
   6 N :    0.213619
   7 C :   -0.421721
   8 O :    0.046589
   9 H :    0.129163
  10 H :    0.130087
  11 H :    0.133689
  12 H :    0.124262
  13 H :    0.125167
  14 H :    0.176586
  15 H :    0.134132
  16 H :    0.135080
  17 H :    0.129468
  18 H :    0.129635
  19 H :    0.116897

  Mayer bond orders larger than 0.1
B(  0-C ,  1-C ) :   0.9294 B(  0-C ,  9-H ) :   0.9322 B(  0-C , 10-H ) :   0.9306
B(  0-C , 11-H ) :   0.9282 B(  1-C ,  2-C ) :   0.9167 B(  1-C ,  4-C ) :   0.8853
B(  1-C ,  6-N ) :   0.8676 B(  2-C ,  3-O ) :   1.0191 B(  2-C , 12-H ) :   0.9295
B(  2-C , 13-H ) :   0.9163 B(  3-O , 14-H ) :   0.8435 B(  4-C ,  5-C ) :   0.9396
B(  4-C , 15-H ) :   0.9216 B(  4-C , 16-H ) :   0.9205 B(  5-C ,  6-N ) :   0.8895
B(  5-C , 17-H ) :   0.9221 B(  5-C , 18-H ) :   0.9207 B(  6-N ,  7-C ) :   1.1196
B(  7-C ,  8-O ) :   1.9000 B(  7-C , 19-H ) :   0.9312

MP2 TOTAL ENERGY:     -439.576356062 Eh
FINAL SINGLE POINT ENERGY      -439.576356062144

DIPOLE MOMENT
-------------
                                X             Y             Z
Electronic contribution:      2.30485      -2.67065       5.61872
Nuclear contribution   :     -3.66868       2.79704      -7.18527
                        -----------------------------------------
Total Dipole Moment    :     -1.36383       0.12640      -1.56655
                        -----------------------------------------
Magnitude (a.u.)       :      2.08089
Magnitude (Debye)      :      5.28920

                             ****ORCA TERMINATED NORMALLY****
TOTAL RUN TIME: 0 days 0 hours 18 minutes 22 seconds 436 msec
