                         Program Version 3.0.3 - RELEASE   -
|  1> ! RI-MP2 RIJK def2-TZVP def2-TZVP/C def2-TZVP/JK TIGHTSCF
|  2> % maxcore 2000
|  3> % mp2 density relaxed end
|  4> *xyz 0 1
|  5>  O       -0.2296588067     0.1067990865    -0.5169590416
|  6>  C       -0.0318834124     1.1800756055    -0.0152518000
|  7>  C        1.2721347495     1.9352871652    -0.0879590732
|  8>  O        2.4060087199     1.1757949308    -0.5255948676
|  9>  C        2.6814241477     2.0873927266    -1.6103656317
| 10>  C        1.4139904234     2.9274205486    -1.2945025852
| 11>  N        0.8640169725     2.4755893115    -2.5622731583
| 12>  C        1.9368318108     1.6574844577    -2.9096386882
| 13>  O        2.1318369997     0.9198210036    -3.8286766432
| 14>  H       -0.8331293580     1.7373465825     0.5255432699
| 15>  H        1.4715956474     2.4311030868     0.8730105783
| 16>  H        3.7120066081     2.4390347197    -1.6430459794
| 17>  H        1.3798770980     3.9978510781    -1.1023469477
| 18>  H       -0.0965822397     2.4274071470    -2.8747138721
| 19> *
| 20>
| 21>                          ****END OF INPUT****

CARTESIAN COORDINATES (ANGSTROEM)
---------------------------------
  O     -0.229659    0.106799   -0.516959
  C     -0.031883    1.180076   -0.015252
  C      1.272135    1.935287   -0.087959
  O      2.406009    1.175795   -0.525595
  C      2.681424    2.087393   -1.610366
  C      1.413990    2.927421   -1.294503
  N      0.864017    2.475589   -2.562273
  C      1.936832    1.657484   -2.909639
  O      2.131837    0.919821   -3.828677
  H     -0.833129    1.737347    0.525543
  H      1.471596    2.431103    0.873011
  H      3.712007    2.439035   -1.643046
  H      1.379877    3.997851   -1.102347
  H     -0.096582    2.427407   -2.874714

 Total Charge           Charge          ....    0
 Multiplicity           Mult            ....    1
 Number of Electrons    NEL             ....   66
 Basis Dimension        Dim             ....  309

ORBITAL ENERGIES
----------------

  NO   OCC          E(Eh)            E(eV)
   0   2.0000     -20.592429      -560.3485
   1   2.0000     -20.578637      -559.9732
   2   2.0000     -20.546385      -559.0956
   3   2.0000     -15.607702      -424.7072
   4   2.0000     -11.369084      -309.3685
   5   2.0000     -11.351158      -308.8807
   6   2.0000     -11.327611      -308.2400
   7   2.0000     -11.326370      -308.2062
   8   2.0000     -11.317676      -307.9696
   9   2.0000      -1.441400       -39.2225
  10   2.0000      -1.413075       -38.4517
  11   2.0000      -1.398622       -38.0585
  12   2.0000      -1.279348       -34.8128
  13   2.0000      -1.037297       -28.2263
  14   2.0000      -1.002798       -27.2875
  15   2.0000      -0.899181       -24.4680
  16   2.0000      -0.819788       -22.3076
  17   2.0000      -0.777567       -21.1587
  18   2.0000      -0.737233       -20.0611
  19   2.0000      -0.719852       -19.5882
  20   2.0000      -0.689037       -18.7496
  21   2.0000      -0.678029       -18.4501
  22   2.0000      -0.653355       -17.7787
  23   2.0000      -0.619100       -16.8466
  24   2.0000      -0.601951       -16.3799
  25   2.0000      -0.573305       -15.6004
  26   2.0000      -0.560733       -15.2583
  27   2.0000      -0.522273       -14.2118
  28   2.0000      -0.508045       -13.8246
  29   2.0000      -0.495325       -13.4785
  30   2.0000      -0.442005       -12.0276
  31   2.0000      -0.427755       -11.6398
  32   2.0000      -0.407716       -11.0945
  33   0.0000       0.096581         2.6281
  34   0.0000       0.126944         3.4543
  35   0.0000       0.142057         3.8656
  36   0.0000       0.150547         4.0966
  37   0.0000       0.160386         4.3643

MULLIKEN ATOMIC CHARGES
-----------------------
   0 O :   -0.231366
   1 C :    0.034230
   2 C :    0.156076
   3 O :   -0.306274
   4 C :    0.048784
   5 C :   -0.039475
   6 N :   -0.322462
   7 C :    0.206679
   8 O :   -0.277418
   9 H :    0.082775
  10 H :    0.117343
  11 H :    0.134578
  12 H :    0.148366
  13 H :    0.248163
Sum of atomic charges:    0.0000000

LOEWDIN ATOMIC CHARGES
----------------------
   0 O :    0.163736
   1 C :   -0.290944
   2 C :   -0.273347
   3 O :    0.193207
   4 C :   -0.182874
   5 C :   -0.199538
   6 N :    0.143919
   7 C :   -0.407185
   8 O :    0.140536
   9 H :    0.113924
  10 H :    0.149455
  11 H :    0.136302
  12 H :    0.136751
  13 H :    0.176057

  Mayer bond orders larger than 0.1
B(  0-O ,  1-C ) :   2.0194 B(  1-C ,  2-C ) :   0.8354 B(  1-C ,  9-H ) :   0.9306
B(  2-C ,  3-O ) :   0.9330 B(  2-C ,  5-C ) :   0.9003 B(  2-C , 10-H ) :   0.9011
B(  3-O ,  4-C ) :   0.9140 B(  4-C ,  5-C ) :   0.9054 B(  4-C ,  7-C ) :   0.8487
B(  4-C , 11-H ) :   0.9084 B(  5-C ,  6-N ) :   0.9783 B(  5-C , 12-H ) :   0.9169
B(  6-N ,  7-C ) :   1.1164 B(  6-N , 13-H ) :   0.8487 B(  7-C ,  8-O ) :   2.0316

MP2 TOTAL ENERGY:     -473.049623086 Eh
FINAL SINGLE POINT ENERGY      -473.049623086000

DIPOLE MOMENT
-------------
                                X             Y             Z
Electronic contribution:      0.65487      -2.72322      -1.96113
Nuclear contribution   :     -1.13836       4.79057       3.00881
                        -----------------------------------------
Total Dipole Moment    :     -0.48349       2.06735       1.04768
                        -----------------------------------------
Magnitude (a.u.)       :      2.36756
Magnitude (Debye)      :      6.01787

                             ****ORCA TERMINATED NORMALLY****
TOTAL RUN TIME: 0 days 0 hours 14 minutes 9 seconds 917 msec
