                         Program Version 3.0.3 - RELEASE   -
|  1> ! RI-MP2 RIJK def2-TZVP def2-TZVP/C def2-TZVP/JK TIGHTSCF
|  2> % maxcore 2000
|  3> % mp2 density relaxed end
|  4> *xyz 0 1
|  5>  N       -0.0280477370     1.1027626088    -0.9887121947
|  6>  C       -0.0098097215     0.1658852940    -0.1278648240
|  7>  O        1.1248147867    -0.0951074928     0.5838928653
|  8>  C        1.3413725155    -1.3689966783     1.1729763417
|  9>  C        0.5529324564    -1.5856810081     2.4556864095
| 10>  O       -0.1309591590    -0.4659105161     2.9813429743
| 11>  C       -0.9222832680    -1.5343577063     2.4220672054
| 12>  C       -1.6519465737    -1.2980762771     1.1581803786
| 13>  C       -1.2490753518    -0.6031733728     0.0862320374
| 14>  H        0.8874606727     1.5552008653    -1.0277164973
| 15>  H        1.1172291069    -2.1730716818     0.4590393165
| 16>  H        2.4128071880    -1.3977865155     1.3879210012
| 17>  H        1.0368775307    -2.2302707072     3.1915545689
| 18>  H       -1.4698364247    -2.1006288823     3.1731514546
| 19>  H       -2.6372136928    -1.7545195788     1.1135125717
| 20>  H       -1.9358662486    -0.4867166810    -0.7446956392
| 21> *
| 22>
| 23>                          ****END OF INPUT****

CARTESIAN COORDINATES (ANGSTROEM)
---------------------------------
  N     -0.028048    1.102763   -0.988712
  C     -0.009810    0.165885   -0.127865
  O      1.124815   -0.095107    0.583893
  C      1.341373   -1.368997    1.172976
  C      0.552932   -1.585681    2.455686
  O     -0.130959   -0.465911    2.981343
  C     -0.922283   -1.534358    2.422067
  C     -1.651947   -1.298076    1.158180
  C     -1.249075   -0.603173    0.086232
  H      0.887461    1.555201   -1.027716
  H      1.117229   -2.173072    0.459039
  H      2.412807   -1.397787    1.387921
  H      1.036878   -2.230271    3.191555
  H     -1.469836   -2.100629    3.173151
  H     -2.637214   -1.754520    1.113513
  H     -1.935866   -0.486717   -0.744696

 Total Charge           Charge          ....    0
 Multiplicity           Mult            ....    1
 Number of Electrons    NEL             ....   66
 Basis Dimension        Dim             ....  321

ORBITAL ENERGIES
----------------

  NO   OCC          E(Eh)            E(eV)
   0   2.0000     -20.595820      -560.4408
   1   2.0000     -20.587382      -560.2111
   2   2.0000     -15.535516      -422.7429
   3   2.0000     -11.342914      -308.6564
   4   2.0000     -11.309503      -307.7472
   5   2.0000     -11.308395      -307.7171
   6   2.0000     -11.307117      -307.6823
   7   2.0000     -11.263723      -306.5015
   8   2.0000     -11.255940      -306.2897
   9   2.0000      -1.442759       -39.2595
  10   2.0000      -1.419011       -38.6133
  11   2.0000      -1.200229       -32.6599
  12   2.0000      -1.090013       -29.6608
  13   2.0000      -1.020494       -27.7690
  14   2.0000      -0.948283       -25.8041
  15   2.0000      -0.884639       -24.0722
  16   2.0000      -0.812411       -22.1068
  17   2.0000      -0.762703       -20.7542
  18   2.0000      -0.736386       -20.0381
  19   2.0000      -0.706846       -19.2343
  20   2.0000      -0.662663       -18.0320
  21   2.0000      -0.651321       -17.7233
  22   2.0000      -0.631425       -17.1819
  23   2.0000      -0.592828       -16.1317
  24   2.0000      -0.587843       -15.9960
  25   2.0000      -0.557359       -15.1665
  26   2.0000      -0.541078       -14.7235
  27   2.0000      -0.494709       -13.4617
  28   2.0000      -0.477537       -12.9944
  29   2.0000      -0.464753       -12.6466
  30   2.0000      -0.445213       -12.1149
  31   2.0000      -0.423976       -11.5370
  32   2.0000      -0.356680        -9.7058
  33   0.0000       0.086534         2.3547
  34   0.0000       0.137507         3.7418
  35   0.0000       0.153724         4.1830
  36   0.0000       0.164164         4.4671
  37   0.0000       0.175269         4.7693

MULLIKEN ATOMIC CHARGES
-----------------------
   0 N :   -0.367075
   1 C :    0.163028
   2 O :   -0.259199
   3 C :   -0.035512
   4 C :   -0.038537
   5 O :   -0.309003
   6 C :    0.127808
   7 C :   -0.218879
   8 C :   -0.098383
   9 H :    0.221683
  10 H :    0.123758
  11 H :    0.146672
  12 H :    0.124142
  13 H :    0.136360
  14 H :    0.133162
  15 H :    0.149974
Sum of atomic charges:    0.0000000

LOEWDIN ATOMIC CHARGES
----------------------
   0 N :   -0.039751
   1 C :   -0.401170
   2 O :    0.251584
   3 C :   -0.275023
   4 C :   -0.273722
   5 O :    0.193982
   6 C :   -0.250506
   7 C :   -0.136539
   8 C :   -0.119891
   9 H :    0.166550
  10 H :    0.138683
  11 H :    0.139753
  12 H :    0.140416
  13 H :    0.144211
  14 H :    0.155484
  15 H :    0.165941

  Mayer bond orders larger than 0.1
B(  0-N ,  1-C ) :   1.9752 B(  0-N ,  9-H ) :   0.8583 B(  1-C ,  2-O ) :   1.0865
B(  1-C ,  8-C ) :   0.9596 B(  2-O ,  3-C ) :   0.8779 B(  3-C ,  4-C ) :   0.9129
B(  3-C , 10-H ) :   0.9145 B(  3-C , 11-H ) :   0.9296 B(  4-C ,  5-O ) :   0.9522
B(  4-C ,  6-C ) :   0.9540 B(  4-C , 12-H ) :   0.9215 B(  5-O ,  6-C ) :   0.8697
B(  6-C ,  7-C ) :   0.9470 B(  6-C , 13-H ) :   0.9225 B(  7-C ,  8-C ) :   1.7113
B(  7-C , 14-H ) :   0.9255 B(  8-C , 15-H ) :   0.9204

MP2 TOTAL ENERGY:     -437.137216440 Eh
FINAL SINGLE POINT ENERGY      -437.137216439994

DIPOLE MOMENT
-------------
                                X             Y             Z
Electronic contribution:      0.33184       2.47421       0.52449
Nuclear contribution   :     -0.09584      -3.99898      -0.08992
                        -----------------------------------------
Total Dipole Moment    :      0.23600      -1.52477       0.43457
                        -----------------------------------------
Magnitude (a.u.)       :      1.60295
Magnitude (Debye)      :      4.07439

                             ****ORCA TERMINATED NORMALLY****
TOTAL RUN TIME: 0 days 0 hours 15 minutes 35 seconds 17 msec
