                         Program Version 3.0.3 - RELEASE   -
|  1> ! RI-MP2 RIJK def2-TZVP def2-TZVP/C def2-TZVP/JK TIGHTSCF
|  2> % maxcore 2000
|  3> % mp2 density relaxed end
|  4> *xyz 0 1
|  5>  O        0.3498488263     0.3194834285     0.8912078240
|  6>  C        0.2639941414     1.3594794210     0.2821479300
|  7>  C        1.3885214041     1.9660429301    -0.4080059727
|  8>  C        2.3066342863     2.4827669037    -0.9904336431
|  9>  C       -1.0122703570     2.1590004607     0.1911180031
| 10>  O       -2.2042855250     1.5194857710     0.6003896867
| 11>  C       -1.7280239462     2.5744529011     1.4357614439
| 12>  C       -1.2632205497     2.2456396316     2.7531451244
| 13>  C       -0.8992128890     2.0227170658     3.8759129396
| 14>  H        3.1304457187     2.9255737573    -1.4962864662
| 15>  H       -1.0952176592     2.8144932255    -0.6760013932
| 16>  H       -2.3093061694     3.4938870971     1.3650447917
| 17>  H       -0.5696718513     1.8038479065     4.8618978016
| 18> *
| 19>
| 20>                          ****END OF INPUT****

CARTESIAN COORDINATES (ANGSTROEM)
---------------------------------
  O      0.349849    0.319483    0.891208
  C      0.263994    1.359479    0.282148
  C      1.388521    1.966043   -0.408006
  C      2.306634    2.482767   -0.990434
  C     -1.012270    2.159000    0.191118
  O     -2.204286    1.519486    0.600390
  C     -1.728024    2.574453    1.435761
  C     -1.263221    2.245640    2.753145
  C     -0.899213    2.022717    3.875913
  H      3.130446    2.925574   -1.496286
  H     -1.095218    2.814493   -0.676001
  H     -2.309306    3.493887    1.365045
  H     -0.569672    1.803848    4.861898

 Total Charge           Charge          ....    0
 Multiplicity           Mult            ....    1
 Number of Electrons    NEL             ....   62
 Basis Dimension        Dim             ....  303

ORBITAL ENERGIES
----------------

  NO   OCC          E(Eh)            E(eV)
   0   2.0000     -20.605512      -560.7045
   1   2.0000     -20.575447      -559.8864
   2   2.0000     -11.374126      -309.5057
   3   2.0000     -11.342219      -308.6375
   4   2.0000     -11.326378      -308.2064
   5   2.0000     -11.275573      -306.8239
   6   2.0000     -11.264862      -306.5325
   7   2.0000     -11.249352      -306.1104
   8   2.0000     -11.244926      -305.9900
   9   2.0000      -1.457163       -39.6514
  10   2.0000      -1.411565       -38.4106
  11   2.0000      -1.082136       -29.4464
  12   2.0000      -1.063893       -28.9500
  13   2.0000      -0.998364       -27.1669
  14   2.0000      -0.943521       -25.6745
  15   2.0000      -0.858401       -23.3583
  16   2.0000      -0.784243       -21.3403
  17   2.0000      -0.740319       -20.1451
  18   2.0000      -0.729236       -19.8435
  19   2.0000      -0.702437       -19.1143
  20   2.0000      -0.676448       -18.4071
  21   2.0000      -0.635630       -17.2964
  22   2.0000      -0.594256       -16.1705
  23   2.0000      -0.578706       -15.7474
  24   2.0000      -0.508453       -13.8357
  25   2.0000      -0.492242       -13.3946
  26   2.0000      -0.459528       -12.5044
  27   2.0000      -0.435370       -11.8470
  28   2.0000      -0.429673       -11.6920
  29   2.0000      -0.409777       -11.1506
  30   2.0000      -0.393534       -10.7086
  31   0.0000       0.061082         1.6621
  32   0.0000       0.137994         3.7550
  33   0.0000       0.141677         3.8552
  34   0.0000       0.148569         4.0428
  35   0.0000       0.155962         4.2439

MULLIKEN ATOMIC CHARGES
-----------------------
   0 O :   -0.233722
   1 C :    0.068361
   2 C :    0.013436
   3 C :   -0.111762
   4 C :    0.071476
   5 O :   -0.280161
   6 C :   -0.190857
   7 C :    0.040758
   8 C :   -0.078323
   9 H :    0.206260
  10 H :    0.152979
  11 H :    0.140815
  12 H :    0.200739
Sum of atomic charges:    0.0000000

LOEWDIN ATOMIC CHARGES
----------------------
   0 O :    0.212042
   1 C :   -0.317072
   2 C :   -0.057104
   3 C :   -0.033103
   4 C :   -0.223319
   5 O :    0.221420
   6 C :   -0.236889
   7 C :   -0.087021
   8 C :   -0.052778
   9 H :    0.134062
  10 H :    0.150741
  11 H :    0.157514
  12 H :    0.131506

  Mayer bond orders larger than 0.1
B(  0-O ,  1-C ) :   2.0201 B(  1-C ,  2-C ) :   0.9508 B(  1-C ,  4-C ) :   0.9923
B(  2-C ,  3-C ) :   2.6205 B(  2-C ,  4-C ) :  -0.1158 B(  3-C ,  9-H ) :   0.8946
B(  4-C ,  5-O ) :   0.8895 B(  4-C ,  6-C ) :   0.9370 B(  4-C , 10-H ) :   0.8998
B(  5-O ,  6-C ) :   0.9491 B(  6-C ,  7-C ) :   1.1272 B(  6-C ,  8-C ) :  -0.1182
B(  6-C , 11-H ) :   0.9417 B(  7-C ,  8-C ) :   2.5830 B(  8-C , 12-H ) :   0.8881

MP2 TOTAL ENERGY:     -418.602371057 Eh
FINAL SINGLE POINT ENERGY      -418.602371057423

DIPOLE MOMENT
-------------
                                X             Y             Z
Electronic contribution:     -0.04015      -2.14616      -0.55903
Nuclear contribution   :      0.49898       3.50397       0.24535
                        -----------------------------------------
Total Dipole Moment    :      0.45883       1.35781      -0.31368
                        -----------------------------------------
Magnitude (a.u.)       :      1.46716
Magnitude (Debye)      :      3.72923

                             ****ORCA TERMINATED NORMALLY****
TOTAL RUN TIME: 0 days 0 hours 12 minutes 32 seconds 152 msec
