                         Program Version 3.0.3 - RELEASE   -
|  1> ! RI-MP2 RIJK def2-TZVP def2-TZVP/C def2-TZVP/JK TIGHTSCF
|  2> % maxcore 2000
|  3> % mp2 density relaxed end
|  4> *xyz 0 1
|  5>  O        0.0651406232    -0.0157535795     0.1813544870
|  6>  C        0.0337114823     1.1970614663     0.0627843470
|  7>  N       -1.1444665483     1.8966074033    -0.0074316834
|  8>  C       -1.2271889218     3.2927468138    -0.1102512107
|  9>  C       -0.1623156969     4.0470887865    -0.3782524374
| 10>  C        1.1811575760     3.4149638955    -0.6295797287
| 11>  C        1.2821466480     2.0441610024     0.0221834908
| 12>  C        2.2107237332     1.7765567870     1.1682042407
| 13>  N        2.5300305163     1.3044698042    -0.1775858857
| 14>  H       -1.9833764647     1.3442288087     0.0840079461
| 15>  H       -2.2206089806     3.6962786143     0.0438192947
| 16>  H       -0.2735540148     5.1213498090    -0.4557889137
| 17>  H        1.3506511450     3.3093644994    -1.7121874370
| 18>  H        1.9932983338     4.0517695977    -0.2649229885
| 19>  H        2.8255950959     2.5947278554     1.5347370039
| 20>  H        1.9010847703     1.0498232435     1.9136213017
| 21>  H        2.2842176332     0.3153897226    -0.2395687568
| 22> *
| 23>
| 24>                          ****END OF INPUT****

CARTESIAN COORDINATES (ANGSTROEM)
---------------------------------
  O      0.065141   -0.015754    0.181354
  C      0.033711    1.197061    0.062784
  N     -1.144467    1.896607   -0.007432
  C     -1.227189    3.292747   -0.110251
  C     -0.162316    4.047089   -0.378252
  C      1.181158    3.414964   -0.629580
  C      1.282147    2.044161    0.022183
  C      2.210724    1.776557    1.168204
  N      2.530031    1.304470   -0.177586
  H     -1.983376    1.344229    0.084008
  H     -2.220609    3.696279    0.043819
  H     -0.273554    5.121350   -0.455789
  H      1.350651    3.309364   -1.712187
  H      1.993298    4.051770   -0.264923
  H      2.825595    2.594728    1.534737
  H      1.901085    1.049823    1.913621
  H      2.284218    0.315390   -0.239569

 Total Charge           Charge          ....    0
 Multiplicity           Mult            ....    1
 Number of Electrons    NEL             ....   66
 Basis Dimension        Dim             ....  327

ORBITAL ENERGIES
----------------

  NO   OCC          E(Eh)            E(eV)
   0   2.0000     -20.531723      -558.6966
   1   2.0000     -15.605793      -424.6552
   2   2.0000     -15.564348      -423.5275
   3   2.0000     -11.363505      -309.2167
   4   2.0000     -11.286711      -307.1270
   5   2.0000     -11.280480      -306.9575
   6   2.0000     -11.267646      -306.6082
   7   2.0000     -11.244185      -305.9698
   8   2.0000     -11.235567      -305.7353
   9   2.0000      -1.399311       -38.0772
  10   2.0000      -1.275987       -34.7214
  11   2.0000      -1.262918       -34.3657
  12   2.0000      -1.075980       -29.2789
  13   2.0000      -0.994641       -27.0656
  14   2.0000      -0.894437       -24.3389
  15   2.0000      -0.881785       -23.9946
  16   2.0000      -0.834152       -22.6984
  17   2.0000      -0.743484       -20.2312
  18   2.0000      -0.722994       -19.6737
  19   2.0000      -0.687527       -18.7086
  20   2.0000      -0.644186       -17.5292
  21   2.0000      -0.633815       -17.2470
  22   2.0000      -0.612968       -16.6797
  23   2.0000      -0.610217       -16.6048
  24   2.0000      -0.570215       -15.5163
  25   2.0000      -0.551710       -15.0128
  26   2.0000      -0.537973       -14.6390
  27   2.0000      -0.491948       -13.3866
  28   2.0000      -0.482823       -13.1383
  29   2.0000      -0.463508       -12.6127
  30   2.0000      -0.435721       -11.8566
  31   2.0000      -0.397679       -10.8214
  32   2.0000      -0.333175        -9.0661
  33   0.0000       0.127328         3.4648
  34   0.0000       0.132802         3.6137
  35   0.0000       0.152308         4.1445
  36   0.0000       0.168152         4.5756
  37   0.0000       0.177149         4.8205

MULLIKEN ATOMIC CHARGES
-----------------------
   0 O :   -0.363549
   1 C :    0.208798
   2 N :   -0.264483
   3 C :   -0.022932
   4 C :   -0.235875
   5 C :   -0.171097
   6 C :    0.111534
   7 C :   -0.189910
   8 N :   -0.373467
   9 H :    0.246620
  10 H :    0.144059
  11 H :    0.137274
  12 H :    0.131915
  13 H :    0.133047
  14 H :    0.123815
  15 H :    0.143114
  16 H :    0.241137
Sum of atomic charges:   -0.0000000

LOEWDIN ATOMIC CHARGES
----------------------
   0 O :    0.085906
   1 C :   -0.401535
   2 N :    0.155198
   3 C :   -0.216982
   4 C :   -0.188917
   5 C :   -0.201363
   6 C :   -0.266147
   7 C :   -0.225869
   8 N :    0.028852
   9 H :    0.198190
  10 H :    0.143152
  11 H :    0.146299
  12 H :    0.155368
  13 H :    0.152063
  14 H :    0.127241
  15 H :    0.129993
  16 H :    0.178551

  Mayer bond orders larger than 0.1
B(  0-O ,  1-C ) :   1.9211 B(  1-C ,  2-N ) :   1.1449 B(  1-C ,  6-C ) :   0.9407
B(  2-N ,  3-C ) :   0.9940 B(  2-N ,  9-H ) :   0.8577 B(  3-C ,  4-C ) :   1.7748
B(  3-C , 10-H ) :   0.9153 B(  4-C ,  5-C ) :   0.9275 B(  4-C , 11-H ) :   0.9240
B(  5-C ,  6-C ) :   0.8858 B(  5-C , 12-H ) :   0.9150 B(  5-C , 13-H ) :   0.9279
B(  6-C ,  7-C ) :   0.9078 B(  6-C ,  8-N ) :   0.9092 B(  7-C ,  8-N ) :   0.9503
B(  7-C , 14-H ) :   0.9128 B(  7-C , 15-H ) :   0.9095 B(  8-N , 16-H ) :   0.8564

MP2 TOTAL ENERGY:     -417.322214360 Eh
FINAL SINGLE POINT ENERGY      -417.322214360000

DIPOLE MOMENT
-------------
                                X             Y             Z
Electronic contribution:     -2.31295      -3.69039      -0.39645
Nuclear contribution   :      1.50469       4.66090       0.67701
                        -----------------------------------------
Total Dipole Moment    :     -0.80826       0.97051       0.28056
                        -----------------------------------------
Magnitude (a.u.)       :      1.29378
Magnitude (Debye)      :      3.28853

                             ****ORCA TERMINATED NORMALLY****
TOTAL RUN TIME: 0 days 0 hours 15 minutes 58 seconds 544 msec
