                         Program Version 3.0.3 - RELEASE   -
|  1> ! RI-MP2 RIJK def2-TZVP def2-TZVP/C def2-TZVP/JK TIGHTSCF
|  2> % maxcore 2000
|  3> % mp2 density relaxed end
|  4> *xyz 0 1
|  5>  C        0.2169446478     1.4233728708     0.2601551137
|  6>  N        0.0540538167    -0.0038535733    -0.0496058849
|  7>  C       -1.2784153775    -0.4699856384     0.0081876625
|  8>  C       -1.8435001322    -1.2546095361     0.9703687280
|  9>  C       -1.2826316418    -1.8633731604     2.2019334438
| 10>  O       -3.1392407218    -1.4776155482     0.6879533786
| 11>  N       -3.4738773115    -0.8328023621    -0.5170058829
| 12>  C       -2.3682195854    -0.2451059679    -0.8919539754
| 13>  O       -2.2823752513     0.4792619450    -2.0209544486
| 14>  H        1.2748260342     1.6867038702     0.1700864090
| 15>  H       -0.3678892964     2.0891820875    -0.3916823189
| 16>  H       -0.0901377914     1.6034917491     1.2944561210
| 17>  H        0.4511543545    -0.1971474650    -0.9627826408
| 18>  H       -1.7423945729    -1.4404673874     3.1016122608
| 19>  H       -1.4563957065    -2.9439567294     2.2185640479
| 20>  H       -0.2080301790    -1.6718182123     2.2295510596
| 21>  H       -3.1487770456     0.4603462877    -2.4493526534
| 22> *
| 23>
| 24>                          ****END OF INPUT****

CARTESIAN COORDINATES (ANGSTROEM)
---------------------------------
  C      0.216945    1.423373    0.260155
  N      0.054054   -0.003854   -0.049606
  C     -1.278415   -0.469986    0.008188
  C     -1.843500   -1.254610    0.970369
  C     -1.282632   -1.863373    2.201933
  O     -3.139241   -1.477616    0.687953
  N     -3.473877   -0.832802   -0.517006
  C     -2.368220   -0.245106   -0.891954
  O     -2.282375    0.479262   -2.020954
  H      1.274826    1.686704    0.170086
  H     -0.367889    2.089182   -0.391682
  H     -0.090138    1.603492    1.294456
  H      0.451154   -0.197147   -0.962783
  H     -1.742395   -1.440467    3.101612
  H     -1.456396   -2.943957    2.218564
  H     -0.208030   -1.671818    2.229551
  H     -3.148777    0.460346   -2.449353

 Total Charge           Charge          ....    0
 Multiplicity           Mult            ....    1
 Number of Electrons    NEL             ....   68
 Basis Dimension        Dim             ....  327

ORBITAL ENERGIES
----------------

  NO   OCC          E(Eh)            E(eV)
   0   2.0000     -20.631730      -561.4179
   1   2.0000     -20.614076      -560.9375
   2   2.0000     -15.600279      -424.5052
   3   2.0000     -15.565283      -423.5529
   4   2.0000     -11.337375      -308.5057
   5   2.0000     -11.314742      -307.8898
   6   2.0000     -11.257248      -306.3253
   7   2.0000     -11.252839      -306.2053
   8   2.0000     -11.241859      -305.9065
   9   2.0000      -1.484281       -40.3893
  10   2.0000      -1.432102       -38.9695
  11   2.0000      -1.226279       -33.3687
  12   2.0000      -1.148270       -31.2460
  13   2.0000      -1.068151       -29.0659
  14   2.0000      -0.977993       -26.6125
  15   2.0000      -0.910541       -24.7771
  16   2.0000      -0.842995       -22.9391
  17   2.0000      -0.794022       -21.6064
  18   2.0000      -0.719250       -19.5718
  19   2.0000      -0.689941       -18.7742
  20   2.0000      -0.670615       -18.2484
  21   2.0000      -0.634334       -17.2611
  22   2.0000      -0.627826       -17.0840
  23   2.0000      -0.602599       -16.3975
  24   2.0000      -0.593956       -16.1624
  25   2.0000      -0.580338       -15.7918
  26   2.0000      -0.567886       -15.4530
  27   2.0000      -0.566714       -15.4211
  28   2.0000      -0.542888       -14.7727
  29   2.0000      -0.527837       -14.3632
  30   2.0000      -0.482527       -13.1302
  31   2.0000      -0.401100       -10.9145
  32   2.0000      -0.389666       -10.6034
  33   2.0000      -0.349219        -9.5027
  34   0.0000       0.128421         3.4945
  35   0.0000       0.136796         3.7224
  36   0.0000       0.144847         3.9415
  37   0.0000       0.161529         4.3954
  38   0.0000       0.175405         4.7730

MULLIKEN ATOMIC CHARGES
-----------------------
   0 C :   -0.280735
   1 N :   -0.357061
   2 C :   -0.033174
   3 C :    0.143575
   4 C :   -0.420781
   5 O :   -0.119999
   6 N :   -0.151335
   7 C :    0.202601
   8 O :   -0.428688
   9 H :    0.134613
  10 H :    0.133667
  11 H :    0.131951
  12 H :    0.226334
  13 H :    0.151906
  14 H :    0.153723
  15 H :    0.168803
  16 H :    0.344600
Sum of atomic charges:   -0.0000000

LOEWDIN ATOMIC CHARGES
----------------------
   0 C :   -0.330193
   1 N :    0.004087
   2 C :   -0.240054
   3 C :   -0.272757
   4 C :   -0.264844
   5 O :    0.282272
   6 N :    0.012689
   7 C :   -0.422227
   8 O :    0.085757
   9 H :    0.115421
  10 H :    0.106160
  11 H :    0.116817
  12 H :    0.181266
  13 H :    0.137815
  14 H :    0.138949
  15 H :    0.144616
  16 H :    0.204227

  Mayer bond orders larger than 0.1
B(  0-C ,  1-N ) :   0.9011 B(  0-C ,  9-H ) :   0.9365 B(  0-C , 10-H ) :   0.9284
B(  0-C , 11-H ) :   0.9389 B(  1-N ,  2-C ) :   1.0130 B(  1-N , 12-H ) :   0.8782
B(  2-C ,  3-C ) :   1.5478 B(  2-C ,  7-C ) :   1.1719 B(  3-C ,  4-C ) :   0.8754
B(  3-C ,  5-O ) :   1.1453 B(  3-C ,  6-N ) :   0.1069 B(  4-C , 13-H ) :   0.9270
B(  4-C , 14-H ) :   0.9287 B(  4-C , 15-H ) :   0.9401 B(  5-O ,  6-N ) :   0.8535
B(  6-N ,  7-C ) :   1.6125 B(  7-C ,  8-O ) :   1.1363 B(  8-O , 16-H ) :   0.8172

MP2 TOTAL ENERGY:     -454.394410171 Eh
FINAL SINGLE POINT ENERGY      -454.394410170721

DIPOLE MOMENT
-------------
                                X             Y             Z
Electronic contribution:     -7.12897      -2.59511      -4.52872
Nuclear contribution   :      7.82093       2.95247       4.47672
                        -----------------------------------------
Total Dipole Moment    :      0.69196       0.35736      -0.05200
                        -----------------------------------------
Magnitude (a.u.)       :      0.78052
Magnitude (Debye)      :      1.98393

                             ****ORCA TERMINATED NORMALLY****
TOTAL RUN TIME: 0 days 0 hours 16 minutes 46 seconds 580 msec
