                         Program Version 3.0.3 - RELEASE   -
|  1> ! RI-MP2 RIJK def2-TZVP def2-TZVP/C def2-TZVP/JK TIGHTSCF
|  2> % maxcore 2000
|  3> % mp2 density relaxed end
|  4> *xyz 0 1
|  5>  C       -0.0289779554     1.5442416204     0.1555785156
|  6>  C       -0.0855459659     0.0240400830    -0.0120520132
|  7>  C        0.7104710940    -0.4740232592    -1.2408707713
|  8>  C        0.8201164843    -2.0093718029    -1.3252187153
|  9>  O        0.8801880946    -2.6098207850    -0.0492343946
| 10>  C       -0.4428051532    -2.3723114218    -2.1281286009
| 11>  O       -0.6532998684    -1.2638186929    -3.0100566532
| 12>  C        0.0003015620    -0.1510594741    -2.5412391940
| 13>  N       -0.0132285490     0.9686602471    -3.1247309122
| 14>  H        1.0000416610     1.8790542288     0.3278174041
| 15>  H       -0.3972822235     2.0571115389    -0.7363066416
| 16>  H       -0.6301191215     1.8591796283     1.0142223779
| 17>  H        0.3244923585    -0.4714662981     0.8722685662
| 18>  H       -1.1295384609    -0.3040189593    -0.0911712810
| 19>  H        1.6943890742     0.0008240789    -1.2364955405
| 20>  H        1.7090850361    -2.2683480520    -1.9184089190
| 21>  H        1.1392427231    -3.5298512499    -0.1559132251
| 22>  H       -0.3432171846    -3.2753692336    -2.7367146470
| 23>  H       -1.2975424050    -2.4888044677    -1.4504448228
| 24>  H       -0.5895978604     0.9242594610    -3.9675769922
| 25> *
| 26>
| 27>                          ****END OF INPUT****

CARTESIAN COORDINATES (ANGSTROEM)
---------------------------------
  C     -0.028978    1.544242    0.155579
  C     -0.085546    0.024040   -0.012052
  C      0.710471   -0.474023   -1.240871
  C      0.820116   -2.009372   -1.325219
  O      0.880188   -2.609821   -0.049234
  C     -0.442805   -2.372311   -2.128129
  O     -0.653300   -1.263819   -3.010057
  C      0.000302   -0.151059   -2.541239
  N     -0.013229    0.968660   -3.124731
  H      1.000042    1.879054    0.327817
  H     -0.397282    2.057112   -0.736307
  H     -0.630119    1.859180    1.014222
  H      0.324492   -0.471466    0.872269
  H     -1.129538   -0.304019   -0.091171
  H      1.694389    0.000824   -1.236496
  H      1.709085   -2.268348   -1.918409
  H      1.139243   -3.529851   -0.155913
  H     -0.343217   -3.275369   -2.736715
  H     -1.297542   -2.488804   -1.450445
  H     -0.589598    0.924259   -3.967577

 Total Charge           Charge          ....    0
 Multiplicity           Mult            ....    1
 Number of Electrons    NEL             ....   70
 Basis Dimension        Dim             ....  345

ORBITAL ENERGIES
----------------

  NO   OCC          E(Eh)            E(eV)
   0   2.0000     -20.594522      -560.4054
   1   2.0000     -20.579149      -559.9871
   2   2.0000     -15.528285      -422.5461
   3   2.0000     -11.333111      -308.3896
   4   2.0000     -11.302501      -307.5567
   5   2.0000     -11.295106      -307.3555
   6   2.0000     -11.245216      -305.9979
   7   2.0000     -11.225718      -305.4673
   8   2.0000     -11.204440      -304.8883
   9   2.0000      -1.431210       -38.9452
  10   2.0000      -1.385712       -37.7072
  11   2.0000      -1.193172       -32.4678
  12   2.0000      -1.092576       -29.7305
  13   2.0000      -1.011852       -27.5339
  14   2.0000      -0.956583       -26.0299
  15   2.0000      -0.852057       -23.1856
  16   2.0000      -0.821697       -22.3595
  17   2.0000      -0.765364       -20.8266
  18   2.0000      -0.728260       -19.8170
  19   2.0000      -0.698332       -19.0026
  20   2.0000      -0.666230       -18.1290
  21   2.0000      -0.649399       -17.6710
  22   2.0000      -0.614198       -16.7132
  23   2.0000      -0.601649       -16.3717
  24   2.0000      -0.585531       -15.9331
  25   2.0000      -0.566839       -15.4245
  26   2.0000      -0.541828       -14.7439
  27   2.0000      -0.531071       -14.4512
  28   2.0000      -0.513376       -13.9697
  29   2.0000      -0.495274       -13.4771
  30   2.0000      -0.479243       -13.0409
  31   2.0000      -0.461573       -12.5600
  32   2.0000      -0.449766       -12.2387
  33   2.0000      -0.424696       -11.5566
  34   2.0000      -0.394978       -10.7479
  35   0.0000       0.117226         3.1899
  36   0.0000       0.148521         4.0415
  37   0.0000       0.156581         4.2608
  38   0.0000       0.163245         4.4421
  39   0.0000       0.180646         4.9156

MULLIKEN ATOMIC CHARGES
-----------------------
   0 C :   -0.399876
   1 C :   -0.237916
   2 C :    0.048218
   3 C :    0.044998
   4 O :   -0.454859
   5 C :   -0.078597
   6 O :   -0.253555
   7 C :    0.069735
   8 N :   -0.384506
   9 H :    0.116757
  10 H :    0.158950
  11 H :    0.129098
  12 H :    0.142918
  13 H :    0.107436
  14 H :    0.114466
  15 H :    0.098727
  16 H :    0.321820
  17 H :    0.122211
  18 H :    0.112972
  19 H :    0.221003
Sum of atomic charges:    0.0000000

LOEWDIN ATOMIC CHARGES
----------------------
   0 C :   -0.314193
   1 C :   -0.254097
   2 C :   -0.192648
   3 C :   -0.325575
   4 O :   -0.003435
   5 C :   -0.264861
   6 O :    0.232028
   7 C :   -0.379139
   8 N :   -0.057598
   9 H :    0.121523
  10 H :    0.127883
  11 H :    0.120202
  12 H :    0.144605
  13 H :    0.139611
  14 H :    0.166164
  15 H :    0.139423
  16 H :    0.179193
  17 H :    0.125116
  18 H :    0.127956
  19 H :    0.167844

  Mayer bond orders larger than 0.1
B(  0-C ,  1-C ) :   0.9270 B(  0-C ,  9-H ) :   0.9363 B(  0-C , 10-H ) :   0.9328
B(  0-C , 11-H ) :   0.9404 B(  1-C ,  2-C ) :   0.9115 B(  1-C , 12-H ) :   0.9297
B(  1-C , 13-H ) :   0.9178 B(  2-C ,  3-C ) :   0.8846 B(  2-C ,  7-C ) :   0.8932
B(  2-C , 14-H ) :   0.9112 B(  3-C ,  4-O ) :   1.0339 B(  3-C ,  5-C ) :   0.9279
B(  3-C , 15-H ) :   0.9393 B(  4-O , 16-H ) :   0.8419 B(  5-C ,  6-O ) :   0.8974
B(  5-C , 17-H ) :   0.9273 B(  5-C , 18-H ) :   0.9134 B(  6-O ,  7-C ) :   1.0734
B(  7-C ,  8-N ) :   2.0386 B(  8-N , 19-H ) :   0.8540

MP2 TOTAL ENERGY:     -439.588546742 Eh
FINAL SINGLE POINT ENERGY      -439.588546742289

DIPOLE MOMENT
-------------
                                X             Y             Z
Electronic contribution:      0.09920      -3.67967      -5.39219
Nuclear contribution   :      0.05847       2.32384       5.55874
                        -----------------------------------------
Total Dipole Moment    :      0.15767      -1.35583       0.16655
                        -----------------------------------------
Magnitude (a.u.)       :      1.37509
Magnitude (Debye)      :      3.49520

                             ****ORCA TERMINATED NORMALLY****
TOTAL RUN TIME: 0 days 0 hours 18 minutes 1 seconds 365 msec
