                         Program Version 3.0.3 - RELEASE   -
|  1> ! RI-MP2 RIJK def2-TZVP def2-TZVP/C def2-TZVP/JK TIGHTSCF
|  2> % maxcore 2000
|  3> % mp2 density relaxed end
|  4> *xyz 0 1
|  5>  O       -0.1919081344     1.5561218709     0.3296615331
|  6>  C       -0.0116030096     0.1814352917     0.0723778522
|  7>  C       -1.3346772335    -0.5751586097    -0.0722952479
|  8>  N       -2.0311881452    -0.2288818329    -1.2975806197
|  9>  N       -2.2798961294     1.0861477874    -1.6363827295
| 10>  C       -2.8963717185     1.0244116969    -2.7750715601
| 11>  N       -3.0654319359    -0.2659873264    -3.1915598462
| 12>  C       -2.5016095072    -1.1264559136    -2.2368169903
| 13>  O       -2.4454446256    -2.3371408694    -2.2455267874
| 14>  H       -0.7884299778     1.8925874419    -0.3533490610
| 15>  H        0.6012280906     0.0048705496    -0.8270110000
| 16>  H        0.5325036660    -0.2322037206     0.9283913748
| 17>  H       -1.1708535746    -1.6548888127    -0.1246689785
| 18>  H       -1.9733728427    -0.3555290162     0.7912685409
| 19>  H       -3.2365721956     1.8862255954    -3.3268597930
| 20>  H       -3.5134699666    -0.5923651524    -4.0299602775
| 21> *
| 22>
| 23>                          ****END OF INPUT****

CARTESIAN COORDINATES (ANGSTROEM)
---------------------------------
  O     -0.191908    1.556122    0.329662
  C     -0.011603    0.181435    0.072378
  C     -1.334677   -0.575159   -0.072295
  N     -2.031188   -0.228882   -1.297581
  N     -2.279896    1.086148   -1.636383
  C     -2.896372    1.024412   -2.775072
  N     -3.065432   -0.265987   -3.191560
  C     -2.501610   -1.126456   -2.236817
  O     -2.445445   -2.337141   -2.245527
  H     -0.788430    1.892587   -0.353349
  H      0.601228    0.004871   -0.827011
  H      0.532504   -0.232204    0.928391
  H     -1.170854   -1.654889   -0.124669
  H     -1.973373   -0.355529    0.791269
  H     -3.236572    1.886226   -3.326860
  H     -3.513470   -0.592365   -4.029960

 Total Charge           Charge          ....    0
 Multiplicity           Mult            ....    1
 Number of Electrons    NEL             ....   68
 Basis Dimension        Dim             ....  321

ORBITAL ENERGIES
----------------

  NO   OCC          E(Eh)            E(eV)
   0   2.0000     -20.544815      -559.0528
   1   2.0000     -20.526848      -558.5639
   2   2.0000     -15.637333      -425.5135
   3   2.0000     -15.636719      -425.4968
   4   2.0000     -15.621272      -425.0764
   5   2.0000     -11.394734      -310.0665
   6   2.0000     -11.342674      -308.6499
   7   2.0000     -11.278885      -306.9141
   8   2.0000     -11.274612      -306.7978
   9   2.0000      -1.445445       -39.3325
  10   2.0000      -1.367975       -37.2245
  11   2.0000      -1.354000       -36.8442
  12   2.0000      -1.252776       -34.0898
  13   2.0000      -1.143420       -31.1140
  14   2.0000      -1.015553       -27.6346
  15   2.0000      -0.895415       -24.3655
  16   2.0000      -0.888369       -24.1737
  17   2.0000      -0.809913       -22.0389
  18   2.0000      -0.764212       -20.7953
  19   2.0000      -0.709833       -19.3156
  20   2.0000      -0.693589       -18.8735
  21   2.0000      -0.665413       -18.1068
  22   2.0000      -0.645485       -17.5645
  23   2.0000      -0.637255       -17.3406
  24   2.0000      -0.614615       -16.7245
  25   2.0000      -0.575838       -15.6693
  26   2.0000      -0.558233       -15.1903
  27   2.0000      -0.540321       -14.7029
  28   2.0000      -0.526612       -14.3298
  29   2.0000      -0.494725       -13.4621
  30   2.0000      -0.471265       -12.8238
  31   2.0000      -0.446090       -12.1387
  32   2.0000      -0.437862       -11.9148
  33   2.0000      -0.350466        -9.5367
  34   0.0000       0.120908         3.2901
  35   0.0000       0.134693         3.6652
  36   0.0000       0.153918         4.1883
  37   0.0000       0.162848         4.4313
  38   0.0000       0.182700         4.9715

MULLIKEN ATOMIC CHARGES
-----------------------
   0 O :   -0.479942
   1 C :   -0.017717
   2 C :   -0.191406
   3 N :    0.031527
   4 N :   -0.301774
   5 C :    0.084150
   6 N :   -0.316154
   7 C :    0.277188
   8 O :   -0.375764
   9 H :    0.334193
  10 H :    0.101250
  11 H :    0.115345
  12 H :    0.163420
  13 H :    0.136323
  14 H :    0.171068
  15 H :    0.268291
Sum of atomic charges:    0.0000000

LOEWDIN ATOMIC CHARGES
----------------------
   0 O :   -0.046825
   1 C :   -0.352626
   2 C :   -0.258958
   3 N :    0.173938
   4 N :    0.040815
   5 C :   -0.313911
   6 N :    0.161163
   7 C :   -0.510889
   8 O :    0.053650
   9 H :    0.166290
  10 H :    0.119726
  11 H :    0.132123
  12 H :    0.155910
  13 H :    0.141485
  14 H :    0.139011
  15 H :    0.199098

  Mayer bond orders larger than 0.1
B(  0-O ,  1-C ) :   0.9528 B(  0-O ,  9-H ) :   0.8181 B(  1-C ,  2-C ) :   0.9342
B(  1-C , 10-H ) :   0.9258 B(  1-C , 11-H ) :   0.9288 B(  2-C ,  3-N ) :   0.8650
B(  2-C , 12-H ) :   0.9088 B(  2-C , 13-H ) :   0.9249 B(  3-N ,  4-N ) :   0.8938
B(  3-N ,  7-C ) :   1.1189 B(  4-N ,  5-C ) :   1.6101 B(  5-C ,  6-N ) :   1.1115
B(  5-C , 14-H ) :   0.9209 B(  6-N ,  7-C ) :   1.0413 B(  6-N , 15-H ) :   0.8621
B(  7-C ,  8-O ) :   1.9606

MP2 TOTAL ENERGY:     -470.495211337 Eh
FINAL SINGLE POINT ENERGY      -470.495211336983

DIPOLE MOMENT
-------------
                                X             Y             Z
Electronic contribution:     -3.73269      -0.88205      -3.88971
Nuclear contribution   :      3.05703       1.35357       2.83112
                        -----------------------------------------
Total Dipole Moment    :     -0.67566       0.47152      -1.05859
                        -----------------------------------------
Magnitude (a.u.)       :      1.34144
Magnitude (Debye)      :      3.40967

                             ****ORCA TERMINATED NORMALLY****
TOTAL RUN TIME: 0 days 0 hours 16 minutes 2 seconds 578 msec
