                         Program Version 3.0.3 - RELEASE   -
|  1> ! RI-MP2 RIJK def2-TZVP def2-TZVP/C def2-TZVP/JK TIGHTSCF
|  2> % maxcore 2000
|  3> % mp2 density relaxed end
|  4> *xyz 0 1
|  5>  O        0.0177816042     1.4531757803     0.1995087762
|  6>  C        0.0049266065     0.0554822625     0.0155876920
|  7>  C        0.7660711739    -0.7093150640     1.1434308798
|  8>  O        0.0121299934    -1.8640170327     1.5146403875
|  9>  C       -1.3155351647    -1.7189497186     1.0880948584
| 10>  C       -2.3458086197    -0.9492182359     1.9457301873
| 11>  N       -1.8427579945     0.4341001586     2.1554469372
| 12>  C       -2.4940449216     0.0764297342     0.8709618693
| 13>  C       -1.4025741155    -0.5937650816     0.0163113628
| 14>  H       -0.4087559191     1.5963002614     1.0565395702
| 15>  H        0.4895200632    -0.1169158287    -0.9492932997
| 16>  H        1.7553587712    -1.0542186861     0.8245836748
| 17>  H        0.8904083817    -0.0341047001     1.9979324301
| 18>  H       -1.7047484687    -2.6961899710     0.7888960825
| 19>  H       -3.0808689200    -1.3601766503     2.6269274191
| 20>  H       -2.5342620005     0.9118747347     2.7313769982
| 21>  H       -3.3741569257     0.6041879300     0.5283087100
| 22>  H       -1.7408411642    -0.9110566128    -0.9694860359
| 23> *
| 24>
| 25>                          ****END OF INPUT****

CARTESIAN COORDINATES (ANGSTROEM)
---------------------------------
  O      0.017782    1.453176    0.199509
  C      0.004927    0.055482    0.015588
  C      0.766071   -0.709315    1.143431
  O      0.012130   -1.864017    1.514640
  C     -1.315535   -1.718950    1.088095
  C     -2.345809   -0.949218    1.945730
  N     -1.842758    0.434100    2.155447
  C     -2.494045    0.076430    0.870962
  C     -1.402574   -0.593765    0.016311
  H     -0.408756    1.596300    1.056540
  H      0.489520   -0.116916   -0.949293
  H      1.755359   -1.054219    0.824584
  H      0.890408   -0.034105    1.997932
  H     -1.704748   -2.696190    0.788896
  H     -3.080869   -1.360177    2.626927
  H     -2.534262    0.911875    2.731377
  H     -3.374157    0.604188    0.528309
  H     -1.740841   -0.911057   -0.969486

 Total Charge           Charge          ....    0
 Multiplicity           Mult            ....    1
 Number of Electrons    NEL             ....   68
 Basis Dimension        Dim             ....  333

ORBITAL ENERGIES
----------------

  NO   OCC          E(Eh)            E(eV)
   0   2.0000     -20.552668      -559.2665
   1   2.0000     -20.542687      -558.9949
   2   2.0000     -15.579299      -423.9343
   3   2.0000     -11.288788      -307.1835
   4   2.0000     -11.278577      -306.9057
   5   2.0000     -11.277247      -306.8695
   6   2.0000     -11.272786      -306.7481
   7   2.0000     -11.265186      -306.5413
   8   2.0000     -11.237662      -305.7923
   9   2.0000      -1.385050       -37.6891
  10   2.0000      -1.351285       -36.7703
  11   2.0000      -1.288629       -35.0654
  12   2.0000      -1.064154       -28.9571
  13   2.0000      -0.998624       -27.1739
  14   2.0000      -0.885513       -24.0960
  15   2.0000      -0.877030       -23.8652
  16   2.0000      -0.802143       -21.8274
  17   2.0000      -0.750621       -20.4254
  18   2.0000      -0.741527       -20.1780
  19   2.0000      -0.688189       -18.7266
  20   2.0000      -0.658279       -17.9127
  21   2.0000      -0.631282       -17.1781
  22   2.0000      -0.606739       -16.5102
  23   2.0000      -0.591066       -16.0837
  24   2.0000      -0.568143       -15.4600
  25   2.0000      -0.563834       -15.3427
  26   2.0000      -0.533556       -14.5188
  27   2.0000      -0.514707       -14.0059
  28   2.0000      -0.485504       -13.2112
  29   2.0000      -0.468622       -12.7518
  30   2.0000      -0.457554       -12.4507
  31   2.0000      -0.428653       -11.6642
  32   2.0000      -0.407042       -11.0762
  33   2.0000      -0.370404       -10.0792
  34   0.0000       0.128782         3.5043
  35   0.0000       0.153080         4.1655
  36   0.0000       0.165782         4.5112
  37   0.0000       0.173113         4.7106
  38   0.0000       0.189979         5.1696

MULLIKEN ATOMIC CHARGES
-----------------------
   0 O :   -0.472999
   1 C :   -0.008524
   2 C :   -0.003888
   3 O :   -0.330767
   4 C :    0.110156
   5 C :   -0.112188
   6 N :   -0.437168
   7 C :   -0.147553
   8 C :    0.015569
   9 H :    0.338909
  10 H :    0.103103
  11 H :    0.107794
  12 H :    0.093516
  13 H :    0.105933
  14 H :    0.147268
  15 H :    0.220396
  16 H :    0.141349
  17 H :    0.129095
Sum of atomic charges:    0.0000000

LOEWDIN ATOMIC CHARGES
----------------------
   0 O :   -0.014195
   1 C :   -0.318462
   2 C :   -0.275767
   3 O :    0.175703
   4 C :   -0.263817
   5 C :   -0.205949
   6 N :   -0.005131
   7 C :   -0.211326
   8 C :   -0.169561
   9 H :    0.173755
  10 H :    0.142563
  11 H :    0.121815
  12 H :    0.123139
  13 H :    0.142546
  14 H :    0.130099
  15 H :    0.174404
  16 H :    0.131110
  17 H :    0.149074

  Mayer bond orders larger than 0.1
B(  0-O ,  1-C ) :   0.9890 B(  0-O ,  9-H ) :   0.8135 B(  1-C ,  2-C ) :   0.9461
B(  1-C ,  8-C ) :   0.8718 B(  1-C , 10-H ) :   0.9332 B(  2-C ,  3-O ) :   0.9170
B(  2-C , 11-H ) :   0.9271 B(  2-C , 12-H ) :   0.9063 B(  3-O ,  4-C ) :   0.9831
B(  4-C ,  5-C ) :   0.8957 B(  4-C ,  8-C ) :   0.9751 B(  4-C , 13-H ) :   0.9317
B(  5-C ,  6-N ) :   0.9191 B(  5-C ,  7-C ) :   0.8543 B(  5-C , 14-H ) :   0.9188
B(  6-N ,  7-C ) :   0.8397 B(  6-N , 15-H ) :   0.8672 B(  7-C ,  8-C ) :   0.8907
B(  7-C , 16-H ) :   0.9204 B(  8-C , 17-H ) :   0.9173

MP2 TOTAL ENERGY:     -438.318867665 Eh
FINAL SINGLE POINT ENERGY      -438.318867664790

DIPOLE MOMENT
-------------
                                X             Y             Z
Electronic contribution:      0.13855      -0.59598       0.45915
Nuclear contribution   :     -1.33976       0.43896      -0.35258
                        -----------------------------------------
Total Dipole Moment    :     -1.20122      -0.15703       0.10657
                        -----------------------------------------
Magnitude (a.u.)       :      1.21612
Magnitude (Debye)      :      3.09112

                             ****ORCA TERMINATED NORMALLY****
TOTAL RUN TIME: 0 days 0 hours 18 minutes 19 seconds 634 msec
