                         Program Version 3.0.3 - RELEASE   -
|  1> ! RI-MP2 RIJK def2-TZVP def2-TZVP/C def2-TZVP/JK TIGHTSCF
|  2> % maxcore 2000
|  3> % mp2 density relaxed end
|  4> *xyz 0 1
|  5>  O        0.0199777298     0.0182352273     0.1223475452
|  6>  C        0.0239672703     1.2154872701     0.0476646514
|  7>  C       -1.2515925545     2.1265916628     0.0498091447
|  8>  N       -0.8043195719     3.5318652113    -0.1409582118
|  9>  C        0.4848707729     3.4257547646    -0.8011998298
| 10>  C        1.9005780167     3.8704799202    -0.2553553190
| 11>  C        1.5659260090     3.1706740785     1.0708607950
| 12>  C        1.1209566787     2.2288598151    -0.1058258303
| 13>  N        2.4763875360     2.5253136727    -0.7332039934
| 14>  H       -1.8944744494     1.7558280759    -0.7624416699
| 15>  H       -1.8030192606     1.9977718167     0.9874697609
| 16>  H       -1.4855714278     4.0823610181    -0.6478376514
| 17>  H        0.4479563460     3.3616131315    -1.9005275710
| 18>  H        2.4554698960     4.7943695501    -0.4260170693
| 19>  H        2.4199633690     2.7993834659     1.6357104422
| 20>  H        0.7752632503     3.6050662804     1.6761876423
| 21>  H        2.3831696997     2.4603353787    -1.7539693358
| 22> *
| 23>
| 24>                          ****END OF INPUT****

CARTESIAN COORDINATES (ANGSTROEM)
---------------------------------
  O      0.019978    0.018235    0.122348
  C      0.023967    1.215487    0.047665
  C     -1.251593    2.126592    0.049809
  N     -0.804320    3.531865   -0.140958
  C      0.484871    3.425755   -0.801200
  C      1.900578    3.870480   -0.255355
  C      1.565926    3.170674    1.070861
  C      1.120957    2.228860   -0.105826
  N      2.476388    2.525314   -0.733204
  H     -1.894474    1.755828   -0.762442
  H     -1.803019    1.997772    0.987470
  H     -1.485571    4.082361   -0.647838
  H      0.447956    3.361613   -1.900528
  H      2.455470    4.794370   -0.426017
  H      2.419963    2.799383    1.635710
  H      0.775263    3.605066    1.676188
  H      2.383170    2.460335   -1.753969

 Total Charge           Charge          ....    0
 Multiplicity           Mult            ....    1
 Number of Electrons    NEL             ....   66
 Basis Dimension        Dim             ....  327

ORBITAL ENERGIES
----------------

  NO   OCC          E(Eh)            E(eV)
   0   2.0000     -20.559079      -559.4410
   1   2.0000     -15.575915      -423.8422
   2   2.0000     -15.568782      -423.6481
   3   2.0000     -11.346482      -308.7535
   4   2.0000     -11.293603      -307.3146
   5   2.0000     -11.288287      -307.1699
   6   2.0000     -11.279106      -306.9201
   7   2.0000     -11.276807      -306.8575
   8   2.0000     -11.243681      -305.9561
   9   2.0000      -1.403187       -38.1827
  10   2.0000      -1.311616       -35.6909
  11   2.0000      -1.218511       -33.1574
  12   2.0000      -1.019168       -27.7330
  13   2.0000      -0.994139       -27.0519
  14   2.0000      -0.935198       -25.4480
  15   2.0000      -0.879580       -23.9346
  16   2.0000      -0.772258       -21.0142
  17   2.0000      -0.750607       -20.4251
  18   2.0000      -0.702699       -19.1214
  19   2.0000      -0.679085       -18.4788
  20   2.0000      -0.661660       -18.0047
  21   2.0000      -0.624026       -16.9806
  22   2.0000      -0.614336       -16.7169
  23   2.0000      -0.592488       -16.1224
  24   2.0000      -0.542853       -14.7718
  25   2.0000      -0.528088       -14.3700
  26   2.0000      -0.518298       -14.1036
  27   2.0000      -0.501461       -13.6455
  28   2.0000      -0.476391       -12.9633
  29   2.0000      -0.473743       -12.8912
  30   2.0000      -0.417137       -11.3509
  31   2.0000      -0.397570       -10.8184
  32   2.0000      -0.380245       -10.3470
  33   0.0000       0.119102         3.2409
  34   0.0000       0.124823         3.3966
  35   0.0000       0.149564         4.0699
  36   0.0000       0.153685         4.1820
  37   0.0000       0.173345         4.7169

MULLIKEN ATOMIC CHARGES
-----------------------
   0 O :   -0.240380
   1 C :    0.090454
   2 C :   -0.148056
   3 N :   -0.370788
   4 C :   -0.062598
   5 C :   -0.064831
   6 C :   -0.194142
   7 C :    0.094030
   8 N :   -0.316876
   9 H :    0.135975
  10 H :    0.144111
  11 H :    0.213519
  12 H :    0.102737
  13 H :    0.143557
  14 H :    0.131440
  15 H :    0.142706
  16 H :    0.199141
Sum of atomic charges:    0.0000000

LOEWDIN ATOMIC CHARGES
----------------------
   0 O :    0.170326
   1 C :   -0.283244
   2 C :   -0.237291
   3 N :   -0.005812
   4 C :   -0.232208
   5 C :   -0.193335
   6 C :   -0.154585
   7 C :   -0.229524
   8 N :    0.033003
   9 H :    0.138343
  10 H :    0.139693
  11 H :    0.164570
  12 H :    0.131658
  13 H :    0.122304
  14 H :    0.137707
  15 H :    0.139110
  16 H :    0.159285

  Mayer bond orders larger than 0.1
B(  0-O ,  1-C ) :   2.1223 B(  1-C ,  2-C ) :   0.9537 B(  1-C ,  7-C ) :   0.7152
B(  2-C ,  3-N ) :   0.9272 B(  2-C ,  7-C ) :  -0.1498 B(  2-C ,  9-H ) :   0.9127
B(  2-C , 10-H ) :   0.9086 B(  3-N ,  4-C ) :   1.0577 B(  3-N , 11-H ) :   0.8797
B(  4-C ,  5-C ) :   0.8707 B(  4-C ,  7-C ) :   0.9383 B(  4-C , 12-H ) :   0.9545
B(  5-C ,  6-C ) :   0.9289 B(  5-C ,  8-N ) :   0.9362 B(  5-C , 13-H ) :   0.8885
B(  6-C ,  7-C ) :   0.8958 B(  6-C , 14-H ) :   0.9213 B(  6-C , 15-H ) :   0.8871
B(  7-C ,  8-N ) :   0.9867 B(  8-N , 16-H ) :   0.8768

MP2 TOTAL ENERGY:     -417.213180699 Eh
FINAL SINGLE POINT ENERGY      -417.213180699126

DIPOLE MOMENT
-------------
                                X             Y             Z
Electronic contribution:      0.62873      -3.75774      -0.13126
Nuclear contribution   :     -1.33909       4.98280      -0.42819
                        -----------------------------------------
Total Dipole Moment    :     -0.71036       1.22506      -0.55945
                        -----------------------------------------
Magnitude (a.u.)       :      1.52262
Magnitude (Debye)      :      3.87019

                             ****ORCA TERMINATED NORMALLY****
TOTAL RUN TIME: 0 days 0 hours 17 minutes 20 seconds 763 msec
