                         Program Version 3.0.3 - RELEASE   -
|  1> ! RI-MP2 RIJK def2-TZVP def2-TZVP/C def2-TZVP/JK TIGHTSCF
|  2> % maxcore 2000
|  3> % mp2 density relaxed end
|  4> *xyz 0 1
|  5>  O       -0.0737203614    -0.0428111068    -0.2967648670
|  6>  C       -0.0165006847     1.1247335264    -0.0489305014
|  7>  O       -1.1318098721     1.9055914873     0.1326061440
|  8>  C       -0.6848882570     3.2069160254     0.5689662138
|  9>  C       -0.0414351355     3.0361303406     1.9687513375
| 10>  C        1.3841918194     2.8140043555     1.4359289060
| 11>  O        1.5720331564     4.0530799183     0.6807987351
| 12>  C        0.6386251929     3.4592291890    -0.2402713590
| 13>  C        1.1729773227     2.0480343784     0.0706480084
| 14>  H       -1.5086323980     3.9073123100     0.4621162247
| 15>  H       -0.0715707608     3.9406544435     2.5781276034
| 16>  H       -0.4858164865     2.2002664304     2.5122795860
| 17>  H        2.1976415120     2.5695651853     2.1155747740
| 18>  H        0.5936742697     3.9138240376    -1.2281220695
| 19>  H        2.0853600330     1.7172410990    -0.4158041461
| 20> *
| 21>
| 22>                          ****END OF INPUT****

CARTESIAN COORDINATES (ANGSTROEM)
---------------------------------
  O     -0.073720   -0.042811   -0.296765
  C     -0.016501    1.124734   -0.048931
  O     -1.131810    1.905591    0.132606
  C     -0.684888    3.206916    0.568966
  C     -0.041435    3.036130    1.968751
  C      1.384192    2.814004    1.435929
  O      1.572033    4.053080    0.680799
  C      0.638625    3.459229   -0.240271
  C      1.172977    2.048034    0.070648
  H     -1.508632    3.907312    0.462116
  H     -0.071571    3.940654    2.578128
  H     -0.485816    2.200266    2.512280
  H      2.197642    2.569565    2.115575
  H      0.593674    3.913824   -1.228122
  H      2.085360    1.717241   -0.415804

 Total Charge           Charge          ....    0
 Multiplicity           Mult            ....    1
 Number of Electrons    NEL             ....   66
 Basis Dimension        Dim             ....  315

ORBITAL ENERGIES
----------------

  NO   OCC          E(Eh)            E(eV)
   0   2.0000     -20.608510      -560.7861
   1   2.0000     -20.581808      -560.0595
   2   2.0000     -20.553389      -559.2862
   3   2.0000     -11.387787      -309.8774
   4   2.0000     -11.327740      -308.2435
   5   2.0000     -11.321413      -308.0713
   6   2.0000     -11.319353      -308.0153
   7   2.0000     -11.272795      -306.7484
   8   2.0000     -11.253961      -306.2358
   9   2.0000      -1.471679       -40.0464
  10   2.0000      -1.422960       -38.7207
  11   2.0000      -1.376518       -37.4570
  12   2.0000      -1.109862       -30.2009
  13   2.0000      -1.032083       -28.0844
  14   2.0000      -0.984663       -26.7941
  15   2.0000      -0.856275       -23.3004
  16   2.0000      -0.818980       -22.2856
  17   2.0000      -0.775968       -21.1152
  18   2.0000      -0.747015       -20.3273
  19   2.0000      -0.702652       -19.1201
  20   2.0000      -0.679817       -18.4988
  21   2.0000      -0.656322       -17.8594
  22   2.0000      -0.631106       -17.1733
  23   2.0000      -0.598965       -16.2987
  24   2.0000      -0.585847       -15.9417
  25   2.0000      -0.559573       -15.2268
  26   2.0000      -0.543425       -14.7873
  27   2.0000      -0.529926       -14.4200
  28   2.0000      -0.523476       -14.2445
  29   2.0000      -0.498275       -13.5587
  30   2.0000      -0.468672       -12.7532
  31   2.0000      -0.443449       -12.0668
  32   2.0000      -0.424006       -11.5378
  33   0.0000       0.133309         3.6275
  34   0.0000       0.143902         3.9158
  35   0.0000       0.161131         4.3846
  36   0.0000       0.164344         4.4720
  37   0.0000       0.175028         4.7628

MULLIKEN ATOMIC CHARGES
-----------------------
   0 O :   -0.266787
   1 C :    0.210361
   2 O :   -0.231400
   3 C :    0.098482
   4 C :   -0.279299
   5 C :    0.015125
   6 O :   -0.306394
   7 C :   -0.033099
   8 C :   -0.092433
   9 H :    0.146960
  10 H :    0.134520
  11 H :    0.151311
  12 H :    0.151507
  13 H :    0.146506
  14 H :    0.154640
Sum of atomic charges:    0.0000000

LOEWDIN ATOMIC CHARGES
----------------------
   0 O :    0.151032
   1 C :   -0.442767
   2 O :    0.265670
   3 C :   -0.229179
   4 C :   -0.209248
   5 C :   -0.208783
   6 O :    0.168584
   7 C :   -0.219856
   8 C :   -0.145742
   9 H :    0.140828
  10 H :    0.146489
  11 H :    0.147000
  12 H :    0.137308
  13 H :    0.138076
  14 H :    0.160588

  Mayer bond orders larger than 0.1
B(  0-O ,  1-C ) :   2.0358 B(  1-C ,  2-O ) :   1.0896 B(  1-C ,  8-C ) :   0.9411
B(  2-O ,  3-C ) :   0.8731 B(  3-C ,  4-C ) :   0.9013 B(  3-C ,  7-C ) :   0.8821
B(  3-C ,  9-H ) :   0.9281 B(  4-C ,  5-C ) :   0.9501 B(  4-C , 10-H ) :   0.9144
B(  4-C , 11-H ) :   0.9221 B(  5-C ,  6-O ) :   0.8751 B(  5-C ,  8-C ) :   0.8727
B(  5-C , 12-H ) :   0.9110 B(  6-O ,  7-C ) :   0.9739 B(  7-C ,  8-C ) :   0.9295
B(  7-C , 13-H ) :   0.9083 B(  8-C , 14-H ) :   0.9160

MP2 TOTAL ENERGY:     -457.044163565 Eh
FINAL SINGLE POINT ENERGY      -457.044163564762

DIPOLE MOMENT
-------------
                                X             Y             Z
Electronic contribution:     -0.64168      -2.66013      -2.53302
Nuclear contribution   :      0.92561       3.64512       2.98529
                        -----------------------------------------
Total Dipole Moment    :      0.28393       0.98500       0.45227
                        -----------------------------------------
Magnitude (a.u.)       :      1.12044
Magnitude (Debye)      :      2.84793

                             ****ORCA TERMINATED NORMALLY****
TOTAL RUN TIME: 0 days 0 hours 15 minutes 47 seconds 839 msec
