                         Program Version 3.0.3 - RELEASE   -
|  1> ! RI-MP2 RIJK def2-TZVP def2-TZVP/C def2-TZVP/JK TIGHTSCF
|  2> % maxcore 2000
|  3> % mp2 density relaxed end
|  4> *xyz 0 1
|  5>  C        0.0894843850     1.4163262363     0.2369177017
|  6>  C       -0.1927663193    -0.0203330105    -0.1978894694
|  7>  N        0.6699305092    -0.4413397169    -1.2957904711
|  8>  N        0.2249965379    -0.6158323496    -2.5307202403
|  9>  N        1.2699903396    -0.9495245312    -3.2478844754
| 10>  C        2.3278746386    -0.9563150152    -2.4030436293
| 11>  C        3.7066430339    -1.3193393073    -2.8673199186
| 12>  O        3.9425898733    -0.8853735116    -4.1889260172
| 13>  N        1.9790263436    -0.6357057000    -1.1624110178
| 14>  H        1.1249470929     1.5218354722     0.5687864067
| 15>  H       -0.0878341241     2.1134328606    -0.5864089994
| 16>  H       -0.5710077269     1.6840619610     1.0662767488
| 17>  H       -0.0349208979    -0.7196708691     0.6273185877
| 18>  H       -1.2129131133    -0.1384145037    -0.5669522848
| 19>  H        4.4480505461    -0.8440225298    -2.2189787595
| 20>  H        3.8410000874    -2.4097278766    -2.7696861126
| 21>  H        3.1398453441    -1.0638221887    -4.6934972998
| 22> *
| 23>
| 24>                          ****END OF INPUT****

CARTESIAN COORDINATES (ANGSTROEM)
---------------------------------
  C      0.089484    1.416326    0.236918
  C     -0.192766   -0.020333   -0.197889
  N      0.669931   -0.441340   -1.295790
  N      0.224997   -0.615832   -2.530720
  N      1.269990   -0.949525   -3.247884
  C      2.327875   -0.956315   -2.403044
  C      3.706643   -1.319339   -2.867320
  O      3.942590   -0.885374   -4.188926
  N      1.979026   -0.635706   -1.162411
  H      1.124947    1.521835    0.568786
  H     -0.087834    2.113433   -0.586409
  H     -0.571008    1.684062    1.066277
  H     -0.034921   -0.719671    0.627319
  H     -1.212913   -0.138415   -0.566952
  H      4.448051   -0.844023   -2.218979
  H      3.841000   -2.409728   -2.769686
  H      3.139845   -1.063822   -4.693497

 Total Charge           Charge          ....    0
 Multiplicity           Mult            ....    1
 Number of Electrons    NEL             ....   68
 Basis Dimension        Dim             ....  327

ORBITAL ENERGIES
----------------

  NO   OCC          E(Eh)            E(eV)
   0   2.0000     -20.561004      -559.4934
   1   2.0000     -15.704128      -427.3310
   2   2.0000     -15.669821      -426.3975
   3   2.0000     -15.621532      -425.0835
   4   2.0000     -15.606259      -424.6679
   5   2.0000     -11.304614      -307.6142
   6   2.0000     -11.300808      -307.5106
   7   2.0000     -11.296611      -307.3964
   8   2.0000     -11.242680      -305.9289
   9   2.0000      -1.502170       -40.8761
  10   2.0000      -1.370250       -37.2864
  11   2.0000      -1.265975       -34.4489
  12   2.0000      -1.200236       -32.6601
  13   2.0000      -1.064308       -28.9613
  14   2.0000      -0.973599       -26.4930
  15   2.0000      -0.928465       -25.2648
  16   2.0000      -0.842878       -22.9359
  17   2.0000      -0.838770       -22.8241
  18   2.0000      -0.731705       -19.9107
  19   2.0000      -0.707965       -19.2647
  20   2.0000      -0.670480       -18.2447
  21   2.0000      -0.652539       -17.7565
  22   2.0000      -0.633012       -17.2251
  23   2.0000      -0.613126       -16.6840
  24   2.0000      -0.582921       -15.8621
  25   2.0000      -0.561851       -15.2887
  26   2.0000      -0.551056       -14.9950
  27   2.0000      -0.533712       -14.5230
  28   2.0000      -0.522085       -14.2066
  29   2.0000      -0.497751       -13.5445
  30   2.0000      -0.470744       -12.8096
  31   2.0000      -0.464496       -12.6396
  32   2.0000      -0.436886       -11.8883
  33   2.0000      -0.392256       -10.6738
  34   0.0000       0.113633         3.0921
  35   0.0000       0.135355         3.6832
  36   0.0000       0.156016         4.2454
  37   0.0000       0.169148         4.6028
  38   0.0000       0.180165         4.9025

MULLIKEN ATOMIC CHARGES
-----------------------
   0 C :   -0.397575
   1 C :   -0.149779
   2 N :    0.249756
   3 N :   -0.178144
   4 N :   -0.195477
   5 C :    0.092195
   6 C :   -0.009094
   7 O :   -0.474363
   8 N :   -0.264027
   9 H :    0.154012
  10 H :    0.144998
  11 H :    0.139307
  12 H :    0.145577
  13 H :    0.162416
  14 H :    0.131363
  15 H :    0.112467
  16 H :    0.336369
Sum of atomic charges:    0.0000000

LOEWDIN ATOMIC CHARGES
----------------------
   0 C :   -0.305410
   1 C :   -0.266158
   2 N :    0.121897
   3 N :   -0.031370
   4 N :    0.008142
   5 C :   -0.380662
   6 C :   -0.312827
   7 O :   -0.034091
   8 N :    0.068879
   9 H :    0.129921
  10 H :    0.129089
  11 H :    0.130304
  12 H :    0.144227
  13 H :    0.148191
  14 H :    0.139973
  15 H :    0.129842
  16 H :    0.180054

  Mayer bond orders larger than 0.1
B(  0-C ,  1-C ) :   0.9282 B(  0-C ,  9-H ) :   0.9311 B(  0-C , 10-H ) :   0.9307
B(  0-C , 11-H ) :   0.9298 B(  1-C ,  2-N ) :   0.8429 B(  1-C , 12-H ) :   0.9249
B(  1-C , 13-H ) :   0.9202 B(  2-N ,  3-N ) :   1.0912 B(  2-N ,  8-N ) :   1.0611
B(  3-N ,  4-N ) :   1.2219 B(  4-N ,  5-C ) :   1.3574 B(  5-C ,  6-C ) :   0.9349
B(  5-C ,  8-N ) :   1.4494 B(  6-C ,  7-O ) :   0.9489 B(  6-C , 14-H ) :   0.9334
B(  6-C , 15-H ) :   0.9122 B(  7-O , 16-H ) :   0.8278

MP2 TOTAL ENERGY:     -450.588638534 Eh
FINAL SINGLE POINT ENERGY      -450.588638533915

DIPOLE MOMENT
-------------
                                X             Y             Z
Electronic contribution:      1.23561      -3.61030      -5.39298
Nuclear contribution   :     -1.88439       3.73290       6.79257
                        -----------------------------------------
Total Dipole Moment    :     -0.64878       0.12261       1.39959
                        -----------------------------------------
Magnitude (a.u.)       :      1.54752
Magnitude (Debye)      :      3.93348

                             ****ORCA TERMINATED NORMALLY****
TOTAL RUN TIME: 0 days 0 hours 16 minutes 41 seconds 559 msec
