                         Program Version 3.0.3 - RELEASE   -
|  1> ! RI-MP2 RIJK def2-TZVP def2-TZVP/C def2-TZVP/JK TIGHTSCF
|  2> % maxcore 2000
|  3> % mp2 density relaxed end
|  4> *xyz 0 1
|  5>  C        0.0577616525     1.6075523908    -0.0008202880
|  6>  C        0.0764052801     0.0873332579    -0.0006974141
|  7>  C        0.7699574139    -0.6812747417    -1.1327062417
|  8>  C        2.2262807660    -0.8085528687    -0.6823159808
|  9>  O        2.3788479902    -0.1092027298     0.5470966057
| 10>  C        1.0832978869    -0.6493693271     0.9290972271
| 11>  C        1.2143795811    -1.7939381554    -0.1619874141
| 12>  C        1.0825928084    -3.1960999594    -0.1689126845
| 13>  C        0.9622464160    -4.3945973801    -0.1615542629
| 14>  H        1.0737149234     2.0020452135    -0.0762671442
| 15>  H       -0.5271936315     1.9909814954    -0.8435023142
| 16>  H       -0.3938148482     1.9939039107     0.9196900642
| 17>  H       -0.9219881726    -0.3334750044     0.1567603907
| 18>  H        0.4620256043    -0.8069492822    -2.1628419299
| 19>  H        3.0822690866    -0.9391034678    -1.3302944007
| 20>  H        0.9547216932    -0.7544925079     2.0038111736
| 21>  H        0.8614426297    -5.4512584538    -0.1556953861
| 22> *
| 23>
| 24>                          ****END OF INPUT****

CARTESIAN COORDINATES (ANGSTROEM)
---------------------------------
  C      0.057762    1.607552   -0.000820
  C      0.076405    0.087333   -0.000697
  C      0.769957   -0.681275   -1.132706
  C      2.226281   -0.808553   -0.682316
  O      2.378848   -0.109203    0.547097
  C      1.083298   -0.649369    0.929097
  C      1.214380   -1.793938   -0.161987
  C      1.082593   -3.196100   -0.168913
  C      0.962246   -4.394597   -0.161554
  H      1.073715    2.002045   -0.076267
  H     -0.527194    1.990981   -0.843502
  H     -0.393815    1.993904    0.919690
  H     -0.921988   -0.333475    0.156760
  H      0.462026   -0.806949   -2.162842
  H      3.082269   -0.939103   -1.330294
  H      0.954722   -0.754493    2.003811
  H      0.861443   -5.451258   -0.155695

 Total Charge           Charge          ....    0
 Multiplicity           Mult            ....    1
 Number of Electrons    NEL             ....   64
 Basis Dimension        Dim             ....  327

ORBITAL ENERGIES
----------------

  NO   OCC          E(Eh)            E(eV)
   0   2.0000     -20.562680      -559.5390
   1   2.0000     -11.305245      -307.6314
   2   2.0000     -11.304522      -307.6117
   3   2.0000     -11.266610      -306.5800
   4   2.0000     -11.254719      -306.2565
   5   2.0000     -11.246268      -306.0265
   6   2.0000     -11.243459      -305.9501
   7   2.0000     -11.229486      -305.5699
   8   2.0000     -11.214407      -305.1595
   9   2.0000      -1.415197       -38.5095
  10   2.0000      -1.168515       -31.7969
  11   2.0000      -1.049538       -28.5594
  12   2.0000      -1.018800       -27.7230
  13   2.0000      -0.939513       -25.5654
  14   2.0000      -0.882537       -24.0151
  15   2.0000      -0.806562       -21.9477
  16   2.0000      -0.769691       -20.9444
  17   2.0000      -0.737029       -20.0556
  18   2.0000      -0.705407       -19.1951
  19   2.0000      -0.655969       -17.8498
  20   2.0000      -0.621098       -16.9009
  21   2.0000      -0.608159       -16.5489
  22   2.0000      -0.574690       -15.6381
  23   2.0000      -0.551264       -15.0007
  24   2.0000      -0.542944       -14.7743
  25   2.0000      -0.503381       -13.6977
  26   2.0000      -0.477417       -12.9912
  27   2.0000      -0.469505       -12.7759
  28   2.0000      -0.457868       -12.4592
  29   2.0000      -0.406841       -11.0707
  30   2.0000      -0.374923       -10.2022
  31   2.0000      -0.348543        -9.4843
  32   0.0000       0.136815         3.7229
  33   0.0000       0.150913         4.1065
  34   0.0000       0.152066         4.1379
  35   0.0000       0.162548         4.4232
  36   0.0000       0.168413         4.5828

MULLIKEN ATOMIC CHARGES
-----------------------
   0 C :   -0.437477
   1 C :   -0.024955
   2 C :   -0.157087
   3 C :    0.013466
   4 O :   -0.323354
   5 C :    0.067731
   6 C :   -0.161547
   7 C :   -0.014647
   8 C :   -0.122137
   9 H :    0.153967
  10 H :    0.129778
  11 H :    0.127698
  12 H :    0.117197
  13 H :    0.145430
  14 H :    0.147523
  15 H :    0.144998
  16 H :    0.193416
Sum of atomic charges:    0.0000000

LOEWDIN ATOMIC CHARGES
----------------------
   0 C :   -0.294298
   1 C :   -0.223829
   2 C :   -0.107151
   3 C :   -0.194492
   4 O :    0.178470
   5 C :   -0.141456
   6 C :   -0.134889
   7 C :   -0.085651
   8 C :   -0.082723
   9 H :    0.131110
  10 H :    0.125564
  11 H :    0.125602
  12 H :    0.160053
  13 H :    0.142719
  14 H :    0.139880
  15 H :    0.133626
  16 H :    0.127464

  Mayer bond orders larger than 0.1
B(  0-C ,  1-C ) :   0.8922 B(  0-C ,  9-H ) :   0.9412 B(  0-C , 10-H ) :   0.9343
B(  0-C , 11-H ) :   0.9332 B(  1-C ,  2-C ) :   0.9152 B(  1-C ,  5-C ) :   0.9505
B(  1-C , 12-H ) :   0.9130 B(  2-C ,  3-C ) :   0.8798 B(  2-C ,  6-C ) :   0.7465
B(  2-C , 13-H ) :   0.9075 B(  3-C ,  4-O ) :   0.9747 B(  3-C ,  6-C ) :   0.8423
B(  3-C , 14-H ) :   0.9179 B(  4-O ,  5-C ) :   0.8965 B(  5-C ,  6-C ) :   0.8900
B(  5-C , 15-H ) :   0.9035 B(  6-C ,  7-C ) :   1.2412 B(  6-C ,  8-C ) :  -0.1345
B(  7-C ,  8-C ) :   2.6089 B(  8-C , 16-H ) :   0.8608

MP2 TOTAL ENERGY:     -383.902640543 Eh
FINAL SINGLE POINT ENERGY      -383.902640543288

DIPOLE MOMENT
-------------
                                X             Y             Z
Electronic contribution:      3.45490      -5.58323       0.50801
Nuclear contribution   :     -3.94712       5.48553      -0.80482
                        -----------------------------------------
Total Dipole Moment    :     -0.49222      -0.09770      -0.29682
                        -----------------------------------------
Magnitude (a.u.)       :      0.58303
Magnitude (Debye)      :      1.48195

                             ****ORCA TERMINATED NORMALLY****
TOTAL RUN TIME: 0 days 0 hours 18 minutes 8 seconds 25 msec
