                         Program Version 3.0.3 - RELEASE   -
|  1> ! RI-MP2 RIJK def2-TZVP def2-TZVP/C def2-TZVP/JK TIGHTSCF
|  2> % maxcore 2000
|  3> % mp2 density relaxed end
|  4> *xyz 0 1
|  5>  C       -0.5493228810     1.7555829766    -0.1173342906
|  6>  O       -0.2453478618     0.4090780640    -0.4232236267
|  7>  C       -1.2865530608    -0.4898846903    -0.1783947887
|  8>  C       -1.0703907896    -1.9221555709    -0.7142441954
|  9>  C        0.3479791119    -2.5377682986    -0.6068400159
| 10>  C       -0.1332992020    -3.2446064141     0.6950429953
| 11>  N       -1.4297269410    -2.4820815460     0.6466321215
| 12>  C       -1.3427749686    -1.1787609395     1.2136971184
| 13>  N       -1.1968612263    -0.8852730506     2.4319400463
| 14>  H        0.3120498741     2.3542123786    -0.4216224974
| 15>  H       -1.4386389049     2.1001389415    -0.6662713236
| 16>  H       -0.7228786694     1.9106465674     0.9563259405
| 17>  H       -2.2554305340    -0.0715058287    -0.4921236285
| 18>  H       -1.6854442341    -2.2355331826    -1.5599858575
| 19>  H        0.6358578109    -3.1938290444    -1.4298409928
| 20>  H        1.1297551440    -1.7913427845    -0.4542571774
| 21>  H       -0.3069024897    -4.3179333094     0.5870428678
| 22>  H        0.4316959815    -3.0579632834     1.6107518792
| 23>  H       -1.1244335491     0.1232048548     2.5628312954
| 24> *
| 25>
| 26>                          ****END OF INPUT****

CARTESIAN COORDINATES (ANGSTROEM)
---------------------------------
  C     -0.549323    1.755583   -0.117334
  O     -0.245348    0.409078   -0.423224
  C     -1.286553   -0.489885   -0.178395
  C     -1.070391   -1.922156   -0.714244
  C      0.347979   -2.537768   -0.606840
  C     -0.133299   -3.244606    0.695043
  N     -1.429727   -2.482082    0.646632
  C     -1.342775   -1.178761    1.213697
  N     -1.196861   -0.885273    2.431940
  H      0.312050    2.354212   -0.421622
  H     -1.438639    2.100139   -0.666271
  H     -0.722879    1.910647    0.956326
  H     -2.255431   -0.071506   -0.492124
  H     -1.685444   -2.235533   -1.559986
  H      0.635858   -3.193829   -1.429841
  H      1.129755   -1.791343   -0.454257
  H     -0.306902   -4.317933    0.587043
  H      0.431696   -3.057963    1.610752
  H     -1.124434    0.123205    2.562831

 Total Charge           Charge          ....    0
 Multiplicity           Mult            ....    1
 Number of Electrons    NEL             ....   68
 Basis Dimension        Dim             ....  339

ORBITAL ENERGIES
----------------

  NO   OCC          E(Eh)            E(eV)
   0   2.0000     -20.578316      -559.9645
   1   2.0000     -15.558506      -423.3685
   2   2.0000     -15.537674      -422.8016
   3   2.0000     -11.307172      -307.6838
   4   2.0000     -11.305611      -307.6413
   5   2.0000     -11.288281      -307.1697
   6   2.0000     -11.269333      -306.6541
   7   2.0000     -11.261923      -306.4525
   8   2.0000     -11.233869      -305.6891
   9   2.0000      -1.401909       -38.1479
  10   2.0000      -1.297578       -35.3089
  11   2.0000      -1.182611       -32.1805
  12   2.0000      -1.029691       -28.0193
  13   2.0000      -0.993455       -27.0333
  14   2.0000      -0.931016       -25.3342
  15   2.0000      -0.854046       -23.2398
  16   2.0000      -0.812908       -22.1203
  17   2.0000      -0.715846       -19.4791
  18   2.0000      -0.711640       -19.3647
  19   2.0000      -0.686529       -18.6814
  20   2.0000      -0.670498       -18.2452
  21   2.0000      -0.643088       -17.4993
  22   2.0000      -0.621433       -16.9100
  23   2.0000      -0.600241       -16.3334
  24   2.0000      -0.551694       -15.0124
  25   2.0000      -0.546396       -14.8682
  26   2.0000      -0.528379       -14.3779
  27   2.0000      -0.507553       -13.8112
  28   2.0000      -0.490789       -13.3551
  29   2.0000      -0.477906       -13.0045
  30   2.0000      -0.462719       -12.5912
  31   2.0000      -0.432940       -11.7809
  32   2.0000      -0.396110       -10.7787
  33   2.0000      -0.363140        -9.8815
  34   0.0000       0.129159         3.5146
  35   0.0000       0.145882         3.9696
  36   0.0000       0.161047         4.3823
  37   0.0000       0.171815         4.6753
  38   0.0000       0.175162         4.7664

MULLIKEN ATOMIC CHARGES
-----------------------
   0 C :   -0.223406
   1 O :   -0.293354
   2 C :    0.012281
   3 C :    0.066316
   4 C :   -0.296178
   5 C :   -0.134119
   6 N :   -0.146291
   7 C :    0.031114
   8 N :   -0.346641
   9 H :    0.146969
  10 H :    0.120949
  11 H :    0.105911
  12 H :    0.098598
  13 H :    0.116330
  14 H :    0.125189
  15 H :    0.142970
  16 H :    0.126631
  17 H :    0.128610
  18 H :    0.218121
Sum of atomic charges:    0.0000000

LOEWDIN ATOMIC CHARGES
----------------------
   0 C :   -0.346679
   1 O :    0.169487
   2 C :   -0.274188
   3 C :   -0.178047
   4 C :   -0.221214
   5 C :   -0.225011
   6 N :    0.162244
   7 C :   -0.331036
   8 N :   -0.040694
   9 H :    0.116515
  10 H :    0.104839
  11 H :    0.099724
  12 H :    0.141931
  13 H :    0.132479
  14 H :    0.129454
  15 H :    0.139806
  16 H :    0.126527
  17 H :    0.128242
  18 H :    0.165622

  Mayer bond orders larger than 0.1
B(  0-C ,  1-O ) :   0.9035 B(  0-C ,  9-H ) :   0.9398 B(  0-C , 10-H ) :   0.9382
B(  0-C , 11-H ) :   0.9323 B(  1-O ,  2-C ) :   0.9802 B(  2-C ,  3-C ) :   0.9301
B(  2-C ,  7-C ) :   0.9087 B(  2-C , 12-H ) :   0.8989 B(  3-C ,  4-C ) :   0.9251
B(  3-C ,  6-N ) :   0.9051 B(  3-C , 13-H ) :   0.8994 B(  4-C ,  5-C ) :   0.9567
B(  4-C , 14-H ) :   0.9259 B(  4-C , 15-H ) :   0.9070 B(  5-C ,  6-N ) :   0.8739
B(  5-C , 16-H ) :   0.9235 B(  5-C , 17-H ) :   0.9275 B(  6-N ,  7-C ) :   1.0223
B(  7-C ,  8-N ) :   1.9918 B(  8-N , 18-H ) :   0.8554

MP2 TOTAL ENERGY:     -418.439596006 Eh
FINAL SINGLE POINT ENERGY      -418.439596006171

DIPOLE MOMENT
-------------
                                X             Y             Z
Electronic contribution:     -2.05076      -2.06333       1.44815
Nuclear contribution   :      2.29535       2.77998      -2.36345
                        -----------------------------------------
Total Dipole Moment    :      0.24459       0.71665      -0.91530
                        -----------------------------------------
Magnitude (a.u.)       :      1.18793
Magnitude (Debye)      :      3.01948

                             ****ORCA TERMINATED NORMALLY****
TOTAL RUN TIME: 0 days 0 hours 31 minutes 14 seconds 981 msec
