                         Program Version 3.0.3 - RELEASE   -
|  1> ! RI-MP2 RIJK def2-TZVP def2-TZVP/C def2-TZVP/JK TIGHTSCF
|  2> % maxcore 2000
|  3> % mp2 density relaxed end
|  4> *xyz 0 1
|  5>  O       -0.4516468501     0.4989809050    -1.1885660799
|  6>  C       -0.2291111605     1.3331657801    -0.3603058223
|  7>  C       -1.1116993861     2.2921506271     0.4495346547
|  8>  C        0.1941409054     3.0800608085     0.8510202727
|  9>  C        1.0542540222     1.9198257980     0.2430452799
| 10>  C        0.3728617002     4.4656536900     0.1760943545
| 11>  C        0.0954841736     5.5134085303     1.2837442588
| 12>  C        0.2838161552     4.7157831488     2.5525808252
| 13>  C        0.3419590424     3.4071580245     2.3120564297
| 14>  H       -1.8842873713     2.8351894512    -0.1018155252
| 15>  H       -1.5845131546     1.7806491497     1.2955930199
| 16>  H        1.4831281111     1.2544191844     1.0012161209
| 17>  H        1.8434472249     2.1909802157    -0.4641969954
| 18>  H        1.4110858155     4.5643721139    -0.1579113267
| 19>  H       -0.2622496367     4.5933571855    -0.7050634851
| 20>  H        0.7650803413     6.3778948822     1.2157421836
| 21>  H       -0.9265909067     5.9135222939     1.2279615936
| 22>  H        0.3232897219     5.1740965892     3.5346226348
| 23>  H        0.4345545425     2.6302643721     3.0648171563
| 24> *
| 25>
| 26>                          ****END OF INPUT****

CARTESIAN COORDINATES (ANGSTROEM)
---------------------------------
  O     -0.451647    0.498981   -1.188566
  C     -0.229111    1.333166   -0.360306
  C     -1.111699    2.292151    0.449535
  C      0.194141    3.080061    0.851020
  C      1.054254    1.919826    0.243045
  C      0.372862    4.465654    0.176094
  C      0.095484    5.513409    1.283744
  C      0.283816    4.715783    2.552581
  C      0.341959    3.407158    2.312056
  H     -1.884287    2.835189   -0.101816
  H     -1.584513    1.780649    1.295593
  H      1.483128    1.254419    1.001216
  H      1.843447    2.190980   -0.464197
  H      1.411086    4.564372   -0.157911
  H     -0.262250    4.593357   -0.705063
  H      0.765080    6.377895    1.215742
  H     -0.926591    5.913522    1.227962
  H      0.323290    5.174097    3.534623
  H      0.434555    2.630264    3.064817

 Total Charge           Charge          ....    0
 Multiplicity           Mult            ....    1
 Number of Electrons    NEL             ....   66
 Basis Dimension        Dim             ....  339

ORBITAL ENERGIES
----------------

  NO   OCC          E(Eh)            E(eV)
   0   2.0000     -20.549555      -559.1818
   1   2.0000     -11.329702      -308.2969
   2   2.0000     -11.255096      -306.2667
   3   2.0000     -11.238499      -305.8151
   4   2.0000     -11.238457      -305.8140
   5   2.0000     -11.235237      -305.7263
   6   2.0000     -11.234361      -305.7025
   7   2.0000     -11.232714      -305.6577
   8   2.0000     -11.231198      -305.6164
   9   2.0000      -1.392441       -37.8903
  10   2.0000      -1.169522       -31.8243
  11   2.0000      -1.092013       -29.7152
  12   2.0000      -0.976919       -26.5833
  13   2.0000      -0.932764       -25.3818
  14   2.0000      -0.919178       -25.0121
  15   2.0000      -0.784664       -21.3518
  16   2.0000      -0.734147       -19.9772
  17   2.0000      -0.725221       -19.7343
  18   2.0000      -0.684559       -18.6278
  19   2.0000      -0.645004       -17.5514
  20   2.0000      -0.639763       -17.4088
  21   2.0000      -0.625961       -17.0333
  22   2.0000      -0.608437       -16.5564
  23   2.0000      -0.565725       -15.3942
  24   2.0000      -0.535987       -14.5850
  25   2.0000      -0.521379       -14.1874
  26   2.0000      -0.512648       -13.9499
  27   2.0000      -0.498216       -13.5571
  28   2.0000      -0.483299       -13.1512
  29   2.0000      -0.476733       -12.9726
  30   2.0000      -0.459925       -12.5152
  31   2.0000      -0.400691       -10.9034
  32   2.0000      -0.350017        -9.5244
  33   0.0000       0.126027         3.4294
  34   0.0000       0.129302         3.5185
  35   0.0000       0.144536         3.9330
  36   0.0000       0.151855         4.1322
  37   0.0000       0.171184         4.6582

MULLIKEN ATOMIC CHARGES
-----------------------
   0 O :   -0.247772
   1 C :    0.101036
   2 C :   -0.254924
   3 C :    0.243817
   4 C :   -0.244669
   5 C :   -0.323257
   6 C :   -0.165196
   7 C :   -0.155836
   8 C :   -0.251900
   9 H :    0.136642
  10 H :    0.136963
  11 H :    0.137548
  12 H :    0.135527
  13 H :    0.120113
  14 H :    0.132444
  15 H :    0.125091
  16 H :    0.114479
  17 H :    0.130313
  18 H :    0.129583
Sum of atomic charges:    0.0000000

LOEWDIN ATOMIC CHARGES
----------------------
   0 O :    0.160500
   1 C :   -0.312865
   2 C :   -0.164589
   3 C :   -0.216213
   4 C :   -0.168383
   5 C :   -0.193592
   6 C :   -0.238221
   7 C :   -0.152266
   8 C :   -0.133030
   9 H :    0.141065
  10 H :    0.150720
  11 H :    0.150807
  12 H :    0.141733
  13 H :    0.142343
  14 H :    0.136518
  15 H :    0.137161
  16 H :    0.140789
  17 H :    0.136802
  18 H :    0.140722

  Mayer bond orders larger than 0.1
B(  0-O ,  1-C ) :   2.0464 B(  1-C ,  2-C ) :   0.8999 B(  1-C ,  4-C ) :   0.9040
B(  2-C ,  3-C ) :   0.8976 B(  2-C ,  4-C ) :  -0.1249 B(  2-C ,  9-H ) :   0.8957
B(  2-C , 10-H ) :   0.8994 B(  3-C ,  4-C ) :   0.9040 B(  3-C ,  5-C ) :   0.8860
B(  3-C ,  8-C ) :   0.8944 B(  4-C , 11-H ) :   0.9015 B(  4-C , 12-H ) :   0.8980
B(  5-C ,  6-C ) :   0.9624 B(  5-C , 13-H ) :   0.9301 B(  5-C , 14-H ) :   0.9297
B(  6-C ,  7-C ) :   0.9444 B(  6-C , 15-H ) :   0.9317 B(  6-C , 16-H ) :   0.9070
B(  7-C ,  8-C ) :   1.8027 B(  7-C , 17-H ) :   0.9275 B(  8-C , 18-H ) :   0.9146

MP2 TOTAL ENERGY:     -385.222344439 Eh
FINAL SINGLE POINT ENERGY      -385.222344439287

DIPOLE MOMENT
-------------
                                X             Y             Z
Electronic contribution:     -0.82753      -5.92042      -2.29560
Nuclear contribution   :      1.00326       6.81662       3.03894
                        -----------------------------------------
Total Dipole Moment    :      0.17573       0.89620       0.74334
                        -----------------------------------------
Magnitude (a.u.)       :      1.17754
Magnitude (Debye)      :      2.99308

                             ****ORCA TERMINATED NORMALLY****
TOTAL RUN TIME: 0 days 0 hours 17 minutes 53 seconds 980 msec
