                         Program Version 3.0.3 - RELEASE   -
|  1> ! RI-MP2 RIJK def2-TZVP def2-TZVP/C def2-TZVP/JK TIGHTSCF
|  2> % maxcore 2000
|  3> % mp2 density relaxed end
|  4> *xyz 0 1
|  5>  C       -0.0465386762     1.4639225321    -0.1320375885
|  6>  C       -0.1299491555    -0.0194452852    -0.0496536443
|  7>  C       -1.1783319101    -0.8954520482    -0.0299953008
|  8>  C       -2.6456813469    -0.5895819537    -0.1077805769
|  9>  O       -2.9734395444     0.3683791278    -1.1108466151
| 10>  C       -0.5429155853    -2.1738758077     0.0712732972
| 11>  C       -1.1770531084    -3.5271022734     0.1378574155
| 12>  N        0.7635867831    -2.0637237525     0.1072516951
| 13>  O        1.0286098844    -0.6957203366     0.0262476362
| 14>  H        0.7100672437     1.7689561053    -0.8613289773
| 15>  H       -1.0160533582     1.8650221693    -0.4297513571
| 16>  H        0.2367183311     1.8958821335     0.8345261451
| 17>  H       -3.2058729281    -1.5251595127    -0.2551327718
| 18>  H       -3.0104994657    -0.1508277205     0.8277959425
| 19>  H       -2.6119585985     0.0461249709    -1.9436230111
| 20>  H       -1.8186817999    -3.7076732661    -0.7313544683
| 21>  H       -0.4038750218    -4.2971193643     0.1648911104
| 22>  H       -1.8013861532    -3.6300221380     1.0316260691
| 23> *
| 24>
| 25>                          ****END OF INPUT****

CARTESIAN COORDINATES (ANGSTROEM)
---------------------------------
  C     -0.046539    1.463923   -0.132038
  C     -0.129949   -0.019445   -0.049654
  C     -1.178332   -0.895452   -0.029995
  C     -2.645681   -0.589582   -0.107781
  O     -2.973440    0.368379   -1.110847
  C     -0.542916   -2.173876    0.071273
  C     -1.177053   -3.527102    0.137857
  N      0.763587   -2.063724    0.107252
  O      1.028610   -0.695720    0.026248
  H      0.710067    1.768956   -0.861329
  H     -1.016053    1.865022   -0.429751
  H      0.236718    1.895882    0.834526
  H     -3.205873   -1.525160   -0.255133
  H     -3.010499   -0.150828    0.827796
  H     -2.611959    0.046125   -1.943623
  H     -1.818682   -3.707673   -0.731354
  H     -0.403875   -4.297119    0.164891
  H     -1.801386   -3.630022    1.031626

 Total Charge           Charge          ....    0
 Multiplicity           Mult            ....    1
 Number of Electrons    NEL             ....   68
 Basis Dimension        Dim             ....  333

ORBITAL ENERGIES
----------------

  NO   OCC          E(Eh)            E(eV)
   0   2.0000     -20.633450      -561.4647
   1   2.0000     -20.568577      -559.6994
   2   2.0000     -15.607616      -424.7048
   3   2.0000     -11.316497      -307.9375
   4   2.0000     -11.297555      -307.4221
   5   2.0000     -11.282116      -307.0020
   6   2.0000     -11.241717      -305.9027
   7   2.0000     -11.241434      -305.8950
   8   2.0000     -11.231612      -305.6277
   9   2.0000      -1.484182       -40.3867
  10   2.0000      -1.372079       -37.3362
  11   2.0000      -1.172030       -31.8925
  12   2.0000      -1.097833       -29.8736
  13   2.0000      -0.993789       -27.0424
  14   2.0000      -0.983752       -26.7692
  15   2.0000      -0.926396       -25.2085
  16   2.0000      -0.789201       -21.4752
  17   2.0000      -0.771384       -20.9904
  18   2.0000      -0.702689       -19.1211
  19   2.0000      -0.675789       -18.3891
  20   2.0000      -0.664844       -18.0913
  21   2.0000      -0.620622       -16.8880
  22   2.0000      -0.613000       -16.6806
  23   2.0000      -0.589846       -16.0505
  24   2.0000      -0.582338       -15.8462
  25   2.0000      -0.576380       -15.6841
  26   2.0000      -0.568541       -15.4708
  27   2.0000      -0.548197       -14.9172
  28   2.0000      -0.533285       -14.5114
  29   2.0000      -0.521734       -14.1971
  30   2.0000      -0.469064       -12.7639
  31   2.0000      -0.462286       -12.5794
  32   2.0000      -0.405991       -11.0476
  33   2.0000      -0.348242        -9.4761
  34   0.0000       0.115881         3.1533
  35   0.0000       0.128372         3.4932
  36   0.0000       0.145166         3.9502
  37   0.0000       0.159585         4.3425
  38   0.0000       0.183715         4.9991

MULLIKEN ATOMIC CHARGES
-----------------------
   0 C :   -0.447509
   1 C :    0.184745
   2 C :   -0.207659
   3 C :    0.013750
   4 O :   -0.471819
   5 C :    0.098861
   6 C :   -0.454996
   7 N :   -0.113905
   8 O :   -0.111565
   9 H :    0.154942
  10 H :    0.176602
  11 H :    0.152419
  12 H :    0.120349
  13 H :    0.130511
  14 H :    0.317608
  15 H :    0.144079
  16 H :    0.164550
  17 H :    0.149036
Sum of atomic charges:    0.0000000

LOEWDIN ATOMIC CHARGES
----------------------
   0 C :   -0.268201
   1 C :   -0.268811
   2 C :   -0.174832
   3 C :   -0.299098
   4 O :   -0.046319
   5 C :   -0.287858
   6 C :   -0.269577
   7 N :    0.053697
   8 O :    0.291582
   9 H :    0.138901
  10 H :    0.142695
  11 H :    0.138446
  12 H :    0.127913
  13 H :    0.138996
  14 H :    0.175413
  15 H :    0.132750
  16 H :    0.140134
  17 H :    0.134169

  Mayer bond orders larger than 0.1
B(  0-C ,  1-C ) :   0.8511 B(  0-C ,  9-H ) :   0.9343 B(  0-C , 10-H ) :   0.9405
B(  0-C , 11-H ) :   0.9227 B(  1-C ,  2-C ) :   1.4963 B(  1-C ,  7-N ) :   0.1024
B(  1-C ,  8-O ) :   1.1454 B(  2-C ,  3-C ) :   0.9200 B(  2-C ,  5-C ) :   1.1667
B(  3-C ,  4-O ) :   0.8854 B(  3-C , 12-H ) :   0.9323 B(  3-C , 13-H ) :   0.9240
B(  4-O , 14-H ) :   0.8417 B(  5-C ,  6-C ) :   0.8524 B(  5-C ,  7-N ) :   1.6473
B(  6-C , 15-H ) :   0.9357 B(  6-C , 16-H ) :   0.9460 B(  6-C , 17-H ) :   0.9333
B(  7-N ,  8-O ) :   0.8673

MP2 TOTAL ENERGY:     -438.365552725 Eh
FINAL SINGLE POINT ENERGY      -438.365552725173

DIPOLE MOMENT
-------------
                                X             Y             Z
Electronic contribution:      4.58066      -0.08805      -0.10322
Nuclear contribution   :     -5.33504       0.12279      -0.05663
                        -----------------------------------------
Total Dipole Moment    :     -0.75438       0.03474      -0.15985
                        -----------------------------------------
Magnitude (a.u.)       :      0.77192
Magnitude (Debye)      :      1.96205

                             ****ORCA TERMINATED NORMALLY****
TOTAL RUN TIME: 0 days 0 hours 17 minutes 53 seconds 634 msec
