                         Program Version 3.0.3 - RELEASE   -
|  1> ! RI-MP2 RIJK def2-TZVP def2-TZVP/C def2-TZVP/JK TIGHTSCF
|  2> % maxcore 2000
|  3> % mp2 density relaxed end
|  4> *xyz 0 1
|  5>  O       -0.1544916345     1.3813970557     0.0238439961
|  6>  N       -0.0090100863    -0.0096714537     0.1356611228
|  7>  C       -1.1190254498    -0.5986178474     0.0051184962
|  8>  C       -2.5650327731    -0.2441150989    -0.2607318698
|  9>  N       -2.8280144315    -1.7066314761    -0.4168924021
| 10>  C       -1.4665082490    -2.0662188769     0.0430155110
| 11>  C       -0.6512908864    -3.1656450856    -0.6683314650
| 12>  O       -0.4160193405    -3.8631454712     0.5731826920
| 13>  C       -1.2139931034    -2.9247344295     1.3108149438
| 14>  H        0.7514742734     1.6919480208     0.1292344176
| 15>  H       -3.0584773056     0.2426492040     0.5906845330
| 16>  H       -2.7642224457     0.3443884795    -1.1622053046
| 17>  H       -3.5732598955    -2.0664857750     0.1695520505
| 18>  H       -1.2435265917    -3.7556229610    -1.3783350691
| 19>  H        0.2803886104    -2.8324037185    -1.1388446044
| 20>  H       -0.6518455048    -2.4353824535     2.1147906440
| 21>  H       -2.1233482161    -3.3838886827     1.7262643380
| 22> *
| 23>
| 24>                          ****END OF INPUT****

CARTESIAN COORDINATES (ANGSTROEM)
---------------------------------
  O     -0.154492    1.381397    0.023844
  N     -0.009010   -0.009671    0.135661
  C     -1.119025   -0.598618    0.005118
  C     -2.565033   -0.244115   -0.260732
  N     -2.828014   -1.706631   -0.416892
  C     -1.466508   -2.066219    0.043016
  C     -0.651291   -3.165645   -0.668331
  O     -0.416019   -3.863145    0.573183
  C     -1.213993   -2.924734    1.310815
  H      0.751474    1.691948    0.129234
  H     -3.058477    0.242649    0.590685
  H     -2.764222    0.344388   -1.162205
  H     -3.573260   -2.066486    0.169552
  H     -1.243527   -3.755623   -1.378335
  H      0.280389   -2.832404   -1.138845
  H     -0.651846   -2.435382    2.114791
  H     -2.123348   -3.383889    1.726264

 Total Charge           Charge          ....    0
 Multiplicity           Mult            ....    1
 Number of Electrons    NEL             ....   68
 Basis Dimension        Dim             ....  327

ORBITAL ENERGIES
----------------

  NO   OCC          E(Eh)            E(eV)
   0   2.0000     -20.602285      -560.6167
   1   2.0000     -20.554341      -559.3121
   2   2.0000     -15.627500      -425.2459
   3   2.0000     -15.565641      -423.5626
   4   2.0000     -11.289934      -307.2147
   5   2.0000     -11.286460      -307.1202
   6   2.0000     -11.285080      -307.0826
   7   2.0000     -11.281442      -306.9836
   8   2.0000     -11.277586      -306.8787
   9   2.0000      -1.429166       -38.8896
  10   2.0000      -1.386996       -37.7421
  11   2.0000      -1.262271       -34.3481
  12   2.0000      -1.150846       -31.3161
  13   2.0000      -0.995853       -27.0985
  14   2.0000      -0.943968       -25.6867
  15   2.0000      -0.937221       -25.5031
  16   2.0000      -0.832693       -22.6587
  17   2.0000      -0.723869       -19.6975
  18   2.0000      -0.712778       -19.3957
  19   2.0000      -0.700444       -19.0601
  20   2.0000      -0.677285       -18.4299
  21   2.0000      -0.663558       -18.0563
  22   2.0000      -0.603108       -16.4114
  23   2.0000      -0.596879       -16.2419
  24   2.0000      -0.593020       -16.1369
  25   2.0000      -0.571565       -15.5531
  26   2.0000      -0.569136       -15.4870
  27   2.0000      -0.544967       -14.8293
  28   2.0000      -0.498877       -13.5751
  29   2.0000      -0.478038       -13.0081
  30   2.0000      -0.436081       -11.8664
  31   2.0000      -0.420815       -11.4510
  32   2.0000      -0.414973       -11.2920
  33   2.0000      -0.377899       -10.2832
  34   0.0000       0.124157         3.3785
  35   0.0000       0.137608         3.7445
  36   0.0000       0.146641         3.9903
  37   0.0000       0.161816         4.4032
  38   0.0000       0.180112         4.9011

MULLIKEN ATOMIC CHARGES
-----------------------
   0 O :   -0.362189
   1 N :   -0.075007
   2 C :   -0.029423
   3 C :   -0.127815
   4 N :   -0.315209
   5 C :    0.044316
   6 C :   -0.005524
   7 O :   -0.327695
   8 C :   -0.025105
   9 H :    0.341295
  10 H :    0.131534
  11 H :    0.130466
  12 H :    0.210852
  13 H :    0.099925
  14 H :    0.110115
  15 H :    0.112327
  16 H :    0.087138
Sum of atomic charges:   -0.0000000

LOEWDIN ATOMIC CHARGES
----------------------
   0 O :   -0.067845
   1 N :    0.033553
   2 C :   -0.253767
   3 C :   -0.229026
   4 N :    0.025607
   5 C :   -0.255850
   6 C :   -0.222098
   7 O :    0.115427
   8 C :   -0.234227
   9 H :    0.172497
  10 H :    0.133191
  11 H :    0.134590
  12 H :    0.159353
  13 H :    0.123246
  14 H :    0.123830
  15 H :    0.123582
  16 H :    0.117937

  Mayer bond orders larger than 0.1
B(  0-O ,  1-N ) :   0.8123 B(  0-O ,  9-H ) :   0.8416 B(  1-N ,  2-C ) :   1.8746
B(  2-C ,  3-C ) :   0.9395 B(  2-C ,  5-C ) :   0.9098 B(  3-C ,  4-N ) :   0.9598
B(  3-C , 10-H ) :   0.9104 B(  3-C , 11-H ) :   0.8990 B(  4-N ,  5-C ) :   1.0246
B(  4-N , 12-H ) :   0.8721 B(  5-C ,  6-C ) :   0.9394 B(  5-C ,  8-C ) :   0.9631
B(  6-C ,  7-O ) :   0.9586 B(  6-C , 13-H ) :   0.8986 B(  6-C , 14-H ) :   0.9086
B(  7-O ,  8-C ) :   0.9782 B(  8-C , 15-H ) :   0.9061 B(  8-C , 16-H ) :   0.8935

MP2 TOTAL ENERGY:     -454.301409058 Eh
FINAL SINGLE POINT ENERGY      -454.301409058067

DIPOLE MOMENT
-------------
                                X             Y             Z
Electronic contribution:      2.58307       1.30678      -0.01779
Nuclear contribution   :     -3.06564      -0.64314       0.29641
                        -----------------------------------------
Total Dipole Moment    :     -0.48256       0.66364       0.27861
                        -----------------------------------------
Magnitude (a.u.)       :      0.86656
Magnitude (Debye)      :      2.20261

                             ****ORCA TERMINATED NORMALLY****
TOTAL RUN TIME: 0 days 0 hours 14 minutes 39 seconds 894 msec
