                         Program Version 3.0.3 - RELEASE   -
|  1> ! RI-MP2 RIJK def2-TZVP def2-TZVP/C def2-TZVP/JK TIGHTSCF
|  2> % maxcore 2000
|  3> % mp2 density relaxed end
|  4> *xyz 0 1
|  5>  C       -0.1056760498     1.5683284145    -0.0742744219
|  6>  C        0.0033522225     0.0388862016    -0.0677297169
|  7>  C       -1.3976876614    -0.5171390232    -0.3680396292
|  8>  O       -2.2780877525    -0.2824743705     0.7255161102
|  9>  C        1.2770702535    -0.6532142845    -0.6927595714
| 10>  C        2.1154786249    -0.1094856363     0.5066118033
| 11>  C        0.7797545393    -0.6608498532     1.0972847522
| 12>  O        0.3020051906    -0.6235848117     2.4030173325
| 13>  C        1.0002598788    -1.9090342590     0.1878921981
| 14>  H       -0.2276019625     1.9300664535    -1.1019004637
| 15>  H       -0.9985890211     1.8577921318     0.4858878225
| 16>  H        0.7454442337     2.0904667449     0.3624699687
| 17>  H       -1.8292163167     0.0178887578    -1.2216301727
| 18>  H       -1.3885258780    -1.5796916662    -0.6378791167
| 19>  H       -1.8272374863    -0.5860744900     1.5231556197
| 20>  H        1.5764067765    -0.6500982478    -1.7387022502
| 21>  H        3.0160013825    -0.6820836677     0.7444569017
| 22>  H        2.3068110231     0.9595214068     0.5601170583
| 23>  H        0.8520216397    -1.1876736306     2.9578012095
| 24>  H        0.1470213218    -2.5403568344    -0.0496582439
| 25>  H        1.8790919012    -2.5157409858     0.4223740799
| 26> *
| 27>
| 28>                          ****END OF INPUT****

CARTESIAN COORDINATES (ANGSTROEM)
---------------------------------
  C     -0.105676    1.568328   -0.074274
  C      0.003352    0.038886   -0.067730
  C     -1.397688   -0.517139   -0.368040
  O     -2.278088   -0.282474    0.725516
  C      1.277070   -0.653214   -0.692760
  C      2.115479   -0.109486    0.506612
  C      0.779755   -0.660850    1.097285
  O      0.302005   -0.623585    2.403017
  C      1.000260   -1.909034    0.187892
  H     -0.227602    1.930066   -1.101900
  H     -0.998589    1.857792    0.485888
  H      0.745444    2.090467    0.362470
  H     -1.829216    0.017889   -1.221630
  H     -1.388526   -1.579692   -0.637879
  H     -1.827237   -0.586074    1.523156
  H      1.576407   -0.650098   -1.738702
  H      3.016001   -0.682084    0.744457
  H      2.306811    0.959521    0.560117
  H      0.852022   -1.187674    2.957801
  H      0.147021   -2.540357   -0.049658
  H      1.879092   -2.515741    0.422374

 Total Charge           Charge          ....    0
 Multiplicity           Mult            ....    1
 Number of Electrons    NEL             ....   70
 Basis Dimension        Dim             ....  351

ORBITAL ENERGIES
----------------

  NO   OCC          E(Eh)            E(eV)
   0   2.0000     -20.577379      -559.9390
   1   2.0000     -20.539879      -558.9185
   2   2.0000     -11.306451      -307.6642
   3   2.0000     -11.264854      -306.5322
   4   2.0000     -11.252594      -306.1986
   5   2.0000     -11.243972      -305.9640
   6   2.0000     -11.233868      -305.6891
   7   2.0000     -11.233333      -305.6745
   8   2.0000     -11.206801      -304.9526
   9   2.0000      -1.387559       -37.7574
  10   2.0000      -1.344835       -36.5948
  11   2.0000      -1.211490       -32.9663
  12   2.0000      -1.015420       -27.6310
  13   2.0000      -0.936626       -25.4869
  14   2.0000      -0.888494       -24.1772
  15   2.0000      -0.857481       -23.3332
  16   2.0000      -0.840974       -22.8841
  17   2.0000      -0.729428       -19.8488
  18   2.0000      -0.713388       -19.4123
  19   2.0000      -0.667651       -18.1677
  20   2.0000      -0.653061       -17.7707
  21   2.0000      -0.626815       -17.0565
  22   2.0000      -0.605606       -16.4794
  23   2.0000      -0.592617       -16.1259
  24   2.0000      -0.570145       -15.5144
  25   2.0000      -0.555085       -15.1046
  26   2.0000      -0.541072       -14.7233
  27   2.0000      -0.524072       -14.2607
  28   2.0000      -0.493223       -13.4213
  29   2.0000      -0.472815       -12.8660
  30   2.0000      -0.466334       -12.6896
  31   2.0000      -0.443120       -12.0579
  32   2.0000      -0.427238       -11.6257
  33   2.0000      -0.424833       -11.5603
  34   2.0000      -0.408457       -11.1147
  35   0.0000       0.129495         3.5237
  36   0.0000       0.151152         4.1131
  37   0.0000       0.162553         4.4233
  38   0.0000       0.173820         4.7299
  39   0.0000       0.182254         4.9594

MULLIKEN ATOMIC CHARGES
-----------------------
   0 C :   -0.449954
   1 C :    0.026057
   2 C :    0.004607
   3 O :   -0.480739
   4 C :   -0.143926
   5 C :   -0.222232
   6 C :    0.097575
   7 O :   -0.486311
   8 C :   -0.232765
   9 H :    0.132610
  10 H :    0.160798
  11 H :    0.121692
  12 H :    0.104057
  13 H :    0.096045
  14 H :    0.328637
  15 H :    0.148820
  16 H :    0.111187
  17 H :    0.120588
  18 H :    0.326569
  19 H :    0.123546
  20 H :    0.113137
Sum of atomic charges:   -0.0000000

LOEWDIN ATOMIC CHARGES
----------------------
   0 C :   -0.268861
   1 C :   -0.211037
   2 C :   -0.299369
   3 O :   -0.047014
   4 C :   -0.138668
   5 C :   -0.179922
   6 C :   -0.316416
   7 O :    0.013385
   8 C :   -0.185600
   9 H :    0.127927
  10 H :    0.137221
  11 H :    0.121299
  12 H :    0.131458
  13 H :    0.116520
  14 H :    0.175518
  15 H :    0.130416
  16 H :    0.127937
  17 H :    0.126355
  18 H :    0.184575
  19 H :    0.125549
  20 H :    0.128726

  Mayer bond orders larger than 0.1
B(  0-C ,  1-C ) :   0.9173 B(  0-C ,  9-H ) :   0.9353 B(  0-C , 10-H ) :   0.9325
B(  0-C , 11-H ) :   0.9302 B(  1-C ,  2-C ) :   0.9581 B(  1-C ,  4-C ) :   0.8656
B(  1-C ,  6-C ) :   0.8609 B(  2-C ,  3-O ) :   0.9146 B(  2-C , 12-H ) :   0.9260
B(  2-C , 13-H ) :   0.9155 B(  3-O , 14-H ) :   0.8325 B(  4-C ,  5-C ) :   0.9127
B(  4-C ,  8-C ) :   0.9106 B(  4-C , 15-H ) :   0.8840 B(  5-C ,  6-C ) :   0.8979
B(  5-C , 16-H ) :   0.9245 B(  5-C , 17-H ) :   0.9329 B(  6-C ,  7-O ) :   0.9303
B(  6-C ,  8-C ) :   0.8967 B(  7-O , 18-H ) :   0.8324 B(  8-C , 19-H ) :   0.9300
B(  8-C , 20-H ) :   0.9252

MP2 TOTAL ENERGY:     -423.477107332 Eh
FINAL SINGLE POINT ENERGY      -423.477107332160

DIPOLE MOMENT
-------------
                                X             Y             Z
Electronic contribution:     -1.36090      -1.71798       3.01810
Nuclear contribution   :      2.48166       1.18394      -3.02568
                        -----------------------------------------
Total Dipole Moment    :      1.12076      -0.53404      -0.00758
                        -----------------------------------------
Magnitude (a.u.)       :      1.24152
Magnitude (Debye)      :      3.15568

                             ****ORCA TERMINATED NORMALLY****
TOTAL RUN TIME: 0 days 0 hours 20 minutes 12 seconds 872 msec
