                         Program Version 3.0.3 - RELEASE   -
|  1> ! RI-MP2 RIJK def2-TZVP def2-TZVP/C def2-TZVP/JK TIGHTSCF
|  2> % maxcore 2000
|  3> % mp2 density relaxed end
|  4> *xyz 0 1
|  5>  C        0.3379917193     1.3678261977    -0.7181510205
|  6>  C        0.0425098504     0.2986110538     0.3161539126
|  7>  O        0.8595678474    -0.0494903513     1.1386422057
|  8>  C       -1.3470158935    -0.2771461815     0.2663011670
|  9>  N       -1.5455056428    -1.6324405590     0.8103556276
| 10>  C       -2.1601663358    -0.5145170369     1.5152031234
| 11>  C       -1.6484792522    -0.2232144128     2.9114043579
| 12>  C       -2.1645285458    -1.2463662547     3.9019203662
| 13>  O       -2.7210726895    -0.9811298982     4.9363843297
| 14>  H        1.3402835229     1.7673039938    -0.5626437041
| 15>  H        0.2612770556     0.9473829558    -1.7279560329
| 16>  H       -0.3992548515     2.1767668261    -0.6551157481
| 17>  H       -1.9235649071     0.0025836488    -0.6129649544
| 18>  H       -2.2268737500    -2.1314972185     0.2448814706
| 19>  H       -3.2317305224    -0.3659926790     1.3834628588
| 20>  H       -0.5545079227    -0.2917879084     2.8975173614
| 21>  H       -1.9446425818     0.7753867783     3.2449655502
| 22>  H       -1.9811784405    -2.3009064239     3.5971506989
| 23> *
| 24>
| 25>                          ****END OF INPUT****

CARTESIAN COORDINATES (ANGSTROEM)
---------------------------------
  C      0.337992    1.367826   -0.718151
  C      0.042510    0.298611    0.316154
  O      0.859568   -0.049490    1.138642
  C     -1.347016   -0.277146    0.266301
  N     -1.545506   -1.632441    0.810356
  C     -2.160166   -0.514517    1.515203
  C     -1.648479   -0.223214    2.911404
  C     -2.164529   -1.246366    3.901920
  O     -2.721073   -0.981130    4.936384
  H      1.340284    1.767304   -0.562644
  H      0.261277    0.947383   -1.727956
  H     -0.399255    2.176767   -0.655116
  H     -1.923565    0.002584   -0.612965
  H     -2.226874   -2.131497    0.244881
  H     -3.231731   -0.365993    1.383463
  H     -0.554508   -0.291788    2.897517
  H     -1.944643    0.775387    3.244966
  H     -1.981178   -2.300906    3.597151

 Total Charge           Charge          ....    0
 Multiplicity           Mult            ....    1
 Number of Electrons    NEL             ....   68
 Basis Dimension        Dim             ....  333

ORBITAL ENERGIES
----------------

  NO   OCC          E(Eh)            E(eV)
   0   2.0000     -20.554114      -559.3059
   1   2.0000     -20.553360      -559.2854
   2   2.0000     -15.589187      -424.2033
   3   2.0000     -11.344488      -308.6992
   4   2.0000     -11.327982      -308.2501
   5   2.0000     -11.298231      -307.4405
   6   2.0000     -11.289651      -307.2070
   7   2.0000     -11.247056      -306.0479
   8   2.0000     -11.240017      -305.8564
   9   2.0000      -1.400130       -38.0995
  10   2.0000      -1.392006       -37.8784
  11   2.0000      -1.293214       -35.1901
  12   2.0000      -1.044577       -28.4244
  13   2.0000      -1.035618       -28.1806
  14   2.0000      -0.932900       -25.3855
  15   2.0000      -0.861502       -23.4427
  16   2.0000      -0.788923       -21.4677
  17   2.0000      -0.747610       -20.3435
  18   2.0000      -0.743055       -20.2196
  19   2.0000      -0.678088       -18.4517
  20   2.0000      -0.654806       -17.8182
  21   2.0000      -0.632193       -17.2028
  22   2.0000      -0.627024       -17.0622
  23   2.0000      -0.613958       -16.7067
  24   2.0000      -0.586807       -15.9678
  25   2.0000      -0.568952       -15.4820
  26   2.0000      -0.563561       -15.3353
  27   2.0000      -0.528113       -14.3707
  28   2.0000      -0.504397       -13.7253
  29   2.0000      -0.498251       -13.5581
  30   2.0000      -0.478820       -13.0294
  31   2.0000      -0.443191       -12.0598
  32   2.0000      -0.426551       -11.6070
  33   2.0000      -0.398939       -10.8557
  34   0.0000       0.111482         3.0336
  35   0.0000       0.119130         3.2417
  36   0.0000       0.130905         3.5621
  37   0.0000       0.144612         3.9351
  38   0.0000       0.164948         4.4885

MULLIKEN ATOMIC CHARGES
-----------------------
   0 C :   -0.425763
   1 C :    0.208726
   2 O :   -0.293657
   3 C :   -0.057176
   4 N :   -0.382750
   5 C :   -0.039372
   6 C :   -0.176419
   7 C :    0.076529
   8 O :   -0.267412
   9 H :    0.158778
  10 H :    0.148916
  11 H :    0.148096
  12 H :    0.144268
  13 H :    0.229456
  14 H :    0.140973
  15 H :    0.175069
  16 H :    0.117592
  17 H :    0.094146
Sum of atomic charges:    0.0000000

LOEWDIN ATOMIC CHARGES
----------------------
   0 C :   -0.276964
   1 C :   -0.341922
   2 O :    0.158216
   3 C :   -0.228978
   4 N :    0.031478
   5 C :   -0.244961
   6 C :   -0.242376
   7 C :   -0.289119
   8 O :    0.128592
   9 H :    0.135056
  10 H :    0.138583
  11 H :    0.137612
  12 H :    0.145629
  13 H :    0.172574
  14 H :    0.143315
  15 H :    0.169696
  16 H :    0.148390
  17 H :    0.115179

  Mayer bond orders larger than 0.1
B(  0-C ,  1-C ) :   0.9227 B(  0-C ,  9-H ) :   0.9381 B(  0-C , 10-H ) :   0.9145
B(  0-C , 11-H ) :   0.9148 B(  1-C ,  2-O ) :   1.9710 B(  1-C ,  3-C ) :   0.8824
B(  3-C ,  4-N ) :   0.8915 B(  3-C ,  5-C ) :   0.8638 B(  3-C , 12-H ) :   0.9158
B(  4-N ,  5-C ) :   0.8861 B(  4-N , 13-H ) :   0.8607 B(  5-C ,  6-C ) :   0.8753
B(  5-C , 14-H ) :   0.9187 B(  6-C ,  7-C ) :   0.8825 B(  6-C , 15-H ) :   0.8998
B(  6-C , 16-H ) :   0.9094 B(  7-C ,  8-O ) :   1.9892 B(  7-C , 17-H ) :   0.9377

MP2 TOTAL ENERGY:     -438.354976622 Eh
FINAL SINGLE POINT ENERGY      -438.354976622081

DIPOLE MOMENT
-------------
                                X             Y             Z
Electronic contribution:     -0.32164      -3.08342       5.02315
Nuclear contribution   :     -0.33247       3.58108      -6.90476
                        -----------------------------------------
Total Dipole Moment    :     -0.65412       0.49766      -1.88161
                        -----------------------------------------
Magnitude (a.u.)       :      2.05329
Magnitude (Debye)      :      5.21905

                             ****ORCA TERMINATED NORMALLY****
TOTAL RUN TIME: 0 days 0 hours 16 minutes 57 seconds 154 msec
