                         Program Version 3.0.3 - RELEASE   -
|  1> ! RI-MP2 RIJK def2-TZVP def2-TZVP/C def2-TZVP/JK TIGHTSCF
|  2> % maxcore 2000
|  3> % mp2 density relaxed end
|  4> *xyz 0 1
|  5>  O       -0.2215627361     0.0204266213    -0.1418950542
|  6>  C       -0.0610087551     1.2019511129     0.0140760545
|  7>  C        1.2672294683     1.9209370294    -0.0205524787
|  8>  C        1.3374009784     2.9541347250    -1.1687588521
|  9>  C        2.3786208562     3.9697366856    -0.6790353582
| 10>  C        2.0323209022     4.1551745671     0.8164384087
| 11>  C        1.5120738206     2.7578754542     1.2717632485
| 12>  C        3.2280335271     4.6042210888     1.6233001781
| 13>  O        3.3192479102     5.6444642645     2.2196804313
| 14>  H       -0.9287282045     1.8823125992     0.1988237082
| 15>  H        2.0486950803     1.1670541652    -0.1469612346
| 16>  H        1.5919363522     2.4950876657    -2.1272744061
| 17>  H        0.3647701733     3.4496399562    -1.2883674065
| 18>  H        3.3862449561     3.5454510295    -0.7816219102
| 19>  H        2.3620181361     4.9130253539    -1.2305744194
| 20>  H        1.2530928400     4.9135401209     0.9290949741
| 21>  H        0.5962164105     2.8722383030     1.8603802815
| 22>  H        2.2332447125     2.2474537694     1.9180831782
| 23>  H        4.0669048120     3.8651302080     1.6215362769
| 24> *
| 25>
| 26>                          ****END OF INPUT****

CARTESIAN COORDINATES (ANGSTROEM)
---------------------------------
  O     -0.221563    0.020427   -0.141895
  C     -0.061009    1.201951    0.014076
  C      1.267229    1.920937   -0.020552
  C      1.337401    2.954135   -1.168759
  C      2.378621    3.969737   -0.679035
  C      2.032321    4.155175    0.816438
  C      1.512074    2.757875    1.271763
  C      3.228034    4.604221    1.623300
  O      3.319248    5.644464    2.219680
  H     -0.928728    1.882313    0.198824
  H      2.048695    1.167054   -0.146961
  H      1.591936    2.495088   -2.127274
  H      0.364770    3.449640   -1.288367
  H      3.386245    3.545451   -0.781622
  H      2.362018    4.913025   -1.230574
  H      1.253093    4.913540    0.929095
  H      0.596216    2.872238    1.860380
  H      2.233245    2.247454    1.918083
  H      4.066905    3.865130    1.621536

 Total Charge           Charge          ....    0
 Multiplicity           Mult            ....    1
 Number of Electrons    NEL             ....   68
 Basis Dimension        Dim             ....  339

ORBITAL ENERGIES
----------------

  NO   OCC          E(Eh)            E(eV)
   0   2.0000     -20.564914      -559.5998
   1   2.0000     -20.564913      -559.5997
   2   2.0000     -11.338698      -308.5417
   3   2.0000     -11.338698      -308.5416
   4   2.0000     -11.258658      -306.3637
   5   2.0000     -11.257223      -306.3246
   6   2.0000     -11.257110      -306.3215
   7   2.0000     -11.253197      -306.2150
   8   2.0000     -11.252599      -306.1988
   9   2.0000      -1.404265       -38.2120
  10   2.0000      -1.404110       -38.2078
  11   2.0000      -1.162311       -31.6281
  12   2.0000      -1.037420       -28.2296
  13   2.0000      -1.002674       -27.2842
  14   2.0000      -0.880178       -23.9509
  15   2.0000      -0.842176       -22.9168
  16   2.0000      -0.803030       -21.8515
  17   2.0000      -0.783504       -21.3202
  18   2.0000      -0.698625       -19.0106
  19   2.0000      -0.680767       -18.5246
  20   2.0000      -0.662544       -18.0287
  21   2.0000      -0.654351       -17.8058
  22   2.0000      -0.612410       -16.6645
  23   2.0000      -0.608879       -16.5684
  24   2.0000      -0.570984       -15.5373
  25   2.0000      -0.560330       -15.2473
  26   2.0000      -0.555494       -15.1158
  27   2.0000      -0.521715       -14.1966
  28   2.0000      -0.508310       -13.8318
  29   2.0000      -0.494503       -13.4561
  30   2.0000      -0.489271       -13.3137
  31   2.0000      -0.484395       -13.1811
  32   2.0000      -0.428973       -11.6729
  33   2.0000      -0.420876       -11.4526
  34   0.0000       0.115441         3.1413
  35   0.0000       0.122903         3.3444
  36   0.0000       0.128226         3.4892
  37   0.0000       0.133130         3.6226
  38   0.0000       0.163302         4.4437

MULLIKEN ATOMIC CHARGES
-----------------------
   0 O :   -0.253762
   1 C :    0.059419
   2 C :    0.036357
   3 C :   -0.252739
   4 C :   -0.252743
   5 C :    0.036382
   6 C :   -0.356900
   7 C :    0.059419
   8 O :   -0.253757
   9 H :    0.072693
  10 H :    0.108336
  11 H :    0.143062
  12 H :    0.120117
  13 H :    0.120115
  14 H :    0.143062
  15 H :    0.108333
  16 H :    0.144954
  17 H :    0.144960
  18 H :    0.072691
Sum of atomic charges:    0.0000000

LOEWDIN ATOMIC CHARGES
----------------------
   0 O :    0.138474
   1 C :   -0.282920
   2 C :   -0.236306
   3 C :   -0.223710
   4 C :   -0.223716
   5 C :   -0.236313
   6 C :   -0.189245
   7 C :   -0.282917
   8 O :    0.138477
   9 H :    0.112313
  10 H :    0.158140
  11 H :    0.140652
  12 H :    0.143605
  13 H :    0.143607
  14 H :    0.140651
  15 H :    0.158141
  16 H :    0.144378
  17 H :    0.144378
  18 H :    0.112313

  Mayer bond orders larger than 0.1
B(  0-O ,  1-C ) :   2.0016 B(  1-C ,  2-C ) :   0.8489 B(  1-C ,  9-H ) :   0.9339
B(  2-C ,  3-C ) :   0.9143 B(  2-C ,  6-C ) :   0.8723 B(  2-C , 10-H ) :   0.9049
B(  3-C ,  4-C ) :   0.9024 B(  3-C , 11-H ) :   0.9233 B(  3-C , 12-H ) :   0.9225
B(  4-C ,  5-C ) :   0.9143 B(  4-C , 13-H ) :   0.9225 B(  4-C , 14-H ) :   0.9233
B(  5-C ,  6-C ) :   0.8723 B(  5-C ,  7-C ) :   0.8489 B(  5-C , 15-H ) :   0.9049
B(  6-C , 16-H ) :   0.9283 B(  6-C , 17-H ) :   0.9283 B(  7-C ,  8-O ) :   2.0016
B(  7-C , 18-H ) :   0.9339

MP2 TOTAL ENERGY:     -422.350129622 Eh
FINAL SINGLE POINT ENERGY      -422.350129621511

DIPOLE MOMENT
-------------
                                X             Y             Z
Electronic contribution:     -0.43182      -0.87940       2.74204
Nuclear contribution   :      0.51824       1.05545      -3.29084
                        -----------------------------------------
Total Dipole Moment    :      0.08642       0.17605      -0.54880
                        -----------------------------------------
Magnitude (a.u.)       :      0.58279
Magnitude (Debye)      :      1.48134

                             ****ORCA TERMINATED NORMALLY****
TOTAL RUN TIME: 0 days 0 hours 16 minutes 11 seconds 570 msec
