                         Program Version 3.0.3 - RELEASE   -
|  1> ! RI-MP2 RIJK def2-TZVP def2-TZVP/C def2-TZVP/JK TIGHTSCF
|  2> % maxcore 2000
|  3> % mp2 density relaxed end
|  4> *xyz 0 1
|  5>  C        0.2526984890     1.1673111529     0.2868054591
|  6>  O       -0.3816698265     0.1348668389    -0.4445114149
|  7>  C        0.4522010231    -0.4796341539    -1.3778937215
|  8>  C        1.4002690162    -1.5638564119    -0.9070065160
|  9>  C        0.1298908667    -1.9132197336    -1.6607830616
| 10>  N       -0.9809973955    -2.4794430913    -0.9595710046
| 11>  C       -1.6088197266    -3.5997056975    -1.4547298366
| 12>  N       -2.7950536849    -3.9107006913    -0.7950860400
| 13>  O       -1.1897375149    -4.2486479801    -2.3954372685
| 14>  H        1.1167811631     0.7898446813     0.8505640745
| 15>  H        0.5946256679     1.9747955019    -0.3765991050
| 16>  H       -0.4864545982     1.5696378858     0.9832048140
| 17>  H        0.7600792327     0.1679116525    -2.1995470403
| 18>  H        2.3558601602    -1.6809482230    -1.4064709957
| 19>  H        1.4011114496    -1.7769070768     0.1566367989
| 20>  H        0.2167857081    -2.2863620096    -2.6737441391
| 21>  H       -1.5100684020    -1.8277881052    -0.3990899503
| 22>  H       -2.8543426082    -3.6761535240     0.1848859209
| 23>  H       -3.1124160297    -4.8443157352    -1.0083207735
| 24> *
| 25>
| 26>                          ****END OF INPUT****

CARTESIAN COORDINATES (ANGSTROEM)
---------------------------------
  C      0.252698    1.167311    0.286805
  O     -0.381670    0.134867   -0.444511
  C      0.452201   -0.479634   -1.377894
  C      1.400269   -1.563856   -0.907007
  C      0.129891   -1.913220   -1.660783
  N     -0.980997   -2.479443   -0.959571
  C     -1.608820   -3.599706   -1.454730
  N     -2.795054   -3.910701   -0.795086
  O     -1.189738   -4.248648   -2.395437
  H      1.116781    0.789845    0.850564
  H      0.594626    1.974796   -0.376599
  H     -0.486455    1.569638    0.983205
  H      0.760079    0.167912   -2.199547
  H      2.355860   -1.680948   -1.406471
  H      1.401111   -1.776907    0.156637
  H      0.216786   -2.286362   -2.673744
  H     -1.510068   -1.827788   -0.399090
  H     -2.854343   -3.676154    0.184886
  H     -3.112416   -4.844316   -1.008321

 Total Charge           Charge          ....    0
 Multiplicity           Mult            ....    1
 Number of Electrons    NEL             ....   70
 Basis Dimension        Dim             ....  339

ORBITAL ENERGIES
----------------

  NO   OCC          E(Eh)            E(eV)
   0   2.0000     -20.575672      -559.8925
   1   2.0000     -20.504187      -557.9473
   2   2.0000     -15.575561      -423.8326
   3   2.0000     -15.573412      -423.7741
   4   2.0000     -11.369431      -309.3779
   5   2.0000     -11.289947      -307.2151
   6   2.0000     -11.282699      -307.0178
   7   2.0000     -11.268393      -306.6286
   8   2.0000     -11.227697      -305.5212
   9   2.0000      -1.399312       -38.0772
  10   2.0000      -1.385373       -37.6979
  11   2.0000      -1.241439       -33.7813
  12   2.0000      -1.193005       -32.4633
  13   2.0000      -1.110211       -30.2104
  14   2.0000      -0.946427       -25.7536
  15   2.0000      -0.856922       -23.3180
  16   2.0000      -0.817506       -22.2455
  17   2.0000      -0.788083       -21.4448
  18   2.0000      -0.740888       -20.1606
  19   2.0000      -0.707622       -19.2554
  20   2.0000      -0.691445       -18.8152
  21   2.0000      -0.654255       -17.8032
  22   2.0000      -0.636624       -17.3234
  23   2.0000      -0.627447       -17.0737
  24   2.0000      -0.604827       -16.4582
  25   2.0000      -0.593373       -16.1465
  26   2.0000      -0.588220       -16.0063
  27   2.0000      -0.541444       -14.7335
  28   2.0000      -0.513614       -13.9761
  29   2.0000      -0.492737       -13.4081
  30   2.0000      -0.468305       -12.7432
  31   2.0000      -0.440644       -11.9905
  32   2.0000      -0.419084       -11.4039
  33   2.0000      -0.408306       -11.1106
  34   2.0000      -0.364216        -9.9108
  35   0.0000       0.130413         3.5487
  36   0.0000       0.142528         3.8784
  37   0.0000       0.166806         4.5390
  38   0.0000       0.176149         4.7933
  39   0.0000       0.182107         4.9554

MULLIKEN ATOMIC CHARGES
-----------------------
   0 C :   -0.206939
   1 O :   -0.334778
   2 C :    0.034105
   3 C :   -0.260463
   4 C :    0.010768
   5 N :   -0.379338
   6 C :    0.397835
   7 N :   -0.531632
   8 O :   -0.403303
   9 H :    0.120442
  10 H :    0.118604
  11 H :    0.140106
  12 H :    0.111355
  13 H :    0.133590
  14 H :    0.134723
  15 H :    0.154765
  16 H :    0.249149
  17 H :    0.247701
  18 H :    0.263311
Sum of atomic charges:   -0.0000000

LOEWDIN ATOMIC CHARGES
----------------------
   0 C :   -0.342010
   1 O :    0.157825
   2 C :   -0.303159
   3 C :   -0.213813
   4 C :   -0.233030
   5 N :    0.108632
   6 C :   -0.567185
   7 N :   -0.074165
   8 O :    0.051739
   9 H :    0.104732
  10 H :    0.105651
  11 H :    0.113405
  12 H :    0.134183
  13 H :    0.133191
  14 H :    0.138927
  15 H :    0.156305
  16 H :    0.189445
  17 H :    0.164710
  18 H :    0.174618

  Mayer bond orders larger than 0.1
B(  0-C ,  1-O ) :   0.8954 B(  0-C ,  9-H ) :   0.9355 B(  0-C , 10-H ) :   0.9379
B(  0-C , 11-H ) :   0.9381 B(  1-O ,  2-C ) :   0.9398 B(  2-C ,  3-C ) :   0.8935
B(  2-C ,  4-C ) :   0.8729 B(  2-C , 12-H ) :   0.9271 B(  3-C ,  4-C ) :   0.8479
B(  3-C , 13-H ) :   0.9198 B(  3-C , 14-H ) :   0.9256 B(  4-C ,  5-N ) :   0.8942
B(  4-C , 15-H ) :   0.9396 B(  5-N ,  6-C ) :   1.1057 B(  5-N , 16-H ) :   0.8540
B(  6-C ,  7-N ) :   1.0730 B(  6-C ,  8-O ) :   1.9136 B(  7-N , 17-H ) :   0.8730
B(  7-N , 18-H ) :   0.8705

MP2 TOTAL ENERGY:     -455.616247797 Eh
FINAL SINGLE POINT ENERGY      -455.616247797198

DIPOLE MOMENT
-------------
                                X             Y             Z
Electronic contribution:     -3.59500      -5.68396      -3.12557
Nuclear contribution   :      3.74735       6.67689       4.36911
                        -----------------------------------------
Total Dipole Moment    :      0.15235       0.99293       1.24354
                        -----------------------------------------
Magnitude (a.u.)       :      1.59860
Magnitude (Debye)      :      4.06332

                             ****ORCA TERMINATED NORMALLY****
TOTAL RUN TIME: 0 days 0 hours 24 minutes 4 seconds 984 msec
