                         Program Version 3.0.3 - RELEASE   -
|  1> ! RI-MP2 RIJK def2-TZVP def2-TZVP/C def2-TZVP/JK TIGHTSCF
|  2> % maxcore 2000
|  3> % mp2 density relaxed end
|  4> *xyz 0 1
|  5>  O        0.0206423066     0.0521329612    -0.0899499914
|  6>  C       -0.0106517517     1.2444851308     0.0085759588
|  7>  C       -1.1582461188     2.2617625534     0.0554197034
|  8>  C       -0.7443627766     3.0942991652     1.2747480944
|  9>  N        0.7537600782     3.0289125124     1.2348856822
| 10>  C        1.1048202246     2.3108283632    -0.0027457694
| 11>  C        0.6569258924     3.1017259488    -1.2490920373
| 12>  N       -0.8495658909     3.0696905996    -1.1535498426
| 13>  H       -2.1753494857     1.8764508340     0.0537037027
| 14>  H       -1.1237537824     4.1168394930     1.1817536823
| 15>  H       -1.1193212466     2.6615769678     2.2097044817
| 16>  H        1.1574041855     3.9584812127     1.2384385558
| 17>  H        2.1277143350     1.9392853996    -0.0078721151
| 18>  H        1.0172295372     4.1372219378    -1.2267535463
| 19>  H        1.0135382747     2.6389911631    -2.1770187617
| 20>  H       -1.2286629015     2.6012367773    -1.9696204178
| 21> *
| 22>
| 23>                          ****END OF INPUT****

CARTESIAN COORDINATES (ANGSTROEM)
---------------------------------
  O      0.020642    0.052133   -0.089950
  C     -0.010652    1.244485    0.008576
  C     -1.158246    2.261763    0.055420
  C     -0.744363    3.094299    1.274748
  N      0.753760    3.028913    1.234886
  C      1.104820    2.310828   -0.002746
  C      0.656926    3.101726   -1.249092
  N     -0.849566    3.069691   -1.153550
  H     -2.175349    1.876451    0.053704
  H     -1.123754    4.116839    1.181754
  H     -1.119321    2.661577    2.209704
  H      1.157404    3.958481    1.238439
  H      2.127714    1.939285   -0.007872
  H      1.017230    4.137222   -1.226754
  H      1.013538    2.638991   -2.177019
  H     -1.228663    2.601237   -1.969620

 Total Charge           Charge          ....    0
 Multiplicity           Mult            ....    1
 Number of Electrons    NEL             ....   60
 Basis Dimension        Dim             ....  296

ORBITAL ENERGIES
----------------

  NO   OCC          E(Eh)            E(eV)
   0   2.0000     -20.559363      -559.4487
   1   2.0000     -15.566338      -423.5816
   2   2.0000     -15.559943      -423.4076
   3   2.0000     -11.332369      -308.3694
   4   2.0000     -11.274151      -306.7853
   5   2.0000     -11.272890      -306.7509
   6   2.0000     -11.270371      -306.6824
   7   2.0000     -11.264424      -306.5206
   8   2.0000      -1.402773       -38.1714
   9   2.0000      -1.276573       -34.7373
  10   2.0000      -1.182068       -32.1657
  11   2.0000      -1.030862       -28.0512
  12   2.0000      -0.980140       -26.6710
  13   2.0000      -0.895014       -24.3546
  14   2.0000      -0.790380       -21.5073
  15   2.0000      -0.760078       -20.6828
  16   2.0000      -0.719914       -19.5899
  17   2.0000      -0.681814       -18.5531
  18   2.0000      -0.654509       -17.8101
  19   2.0000      -0.611327       -16.6351
  20   2.0000      -0.583915       -15.8891
  21   2.0000      -0.570187       -15.5156
  22   2.0000      -0.568173       -15.4608
  23   2.0000      -0.551428       -15.0051
  24   2.0000      -0.528144       -14.3715
  25   2.0000      -0.517631       -14.0855
  26   2.0000      -0.512699       -13.9512
  27   2.0000      -0.444539       -12.0965
  28   2.0000      -0.386673       -10.5219
  29   2.0000      -0.361036        -9.8243
  30   0.0000       0.126355         3.4383
  31   0.0000       0.133913         3.6440
  32   0.0000       0.157562         4.2875
  33   0.0000       0.172454         4.6927
  34   0.0000       0.179246         4.8775

MULLIKEN ATOMIC CHARGES
-----------------------
   0 O :   -0.245643
   1 C :    0.058468
   2 C :    0.047119
   3 C :   -0.197676
   4 N :   -0.336131
   5 C :    0.036426
   6 C :   -0.197414
   7 N :   -0.356250
   8 H :    0.147777
   9 H :    0.128726
  10 H :    0.117084
  11 H :    0.207740
  12 H :    0.138147
  13 H :    0.109440
  14 H :    0.125823
  15 H :    0.216363
Sum of atomic charges:    0.0000000

LOEWDIN ATOMIC CHARGES
----------------------
   0 O :    0.171267
   1 C :   -0.276398
   2 C :   -0.263303
   3 C :   -0.249184
   4 N :    0.001908
   5 C :   -0.267299
   6 C :   -0.254572
   7 N :   -0.001050
   8 H :    0.146612
   9 H :    0.129693
  10 H :    0.129437
  11 H :    0.164278
  12 H :    0.146095
  13 H :    0.125083
  14 H :    0.128373
  15 H :    0.169059

  Mayer bond orders larger than 0.1
B(  0-O ,  1-C ) :   2.0627 B(  1-C ,  2-C ) :   0.9046 B(  1-C ,  5-C ) :   0.8502
B(  2-C ,  3-C ) :   0.8795 B(  2-C ,  5-C ) :  -0.1233 B(  2-C ,  7-N ) :   0.9741
B(  2-C ,  8-H ) :   0.9015 B(  3-C ,  4-N ) :   0.9515 B(  3-C ,  9-H ) :   0.9275
B(  3-C , 10-H ) :   0.9233 B(  4-N ,  5-C ) :   0.9563 B(  4-N , 11-H ) :   0.8773
B(  5-C ,  6-C ) :   0.9425 B(  5-C , 12-H ) :   0.9037 B(  6-C ,  7-N ) :   0.9377
B(  6-C , 13-H ) :   0.9103 B(  6-C , 14-H ) :   0.9284 B(  7-N , 15-H ) :   0.8799

MP2 TOTAL ENERGY:     -379.283241418 Eh
FINAL SINGLE POINT ENERGY      -379.283241418002

DIPOLE MOMENT
-------------
                                X             Y             Z
Electronic contribution:      0.06786      -4.49569       0.24555
Nuclear contribution   :     -0.09835       5.38051      -0.65815
                        -----------------------------------------
Total Dipole Moment    :     -0.03049       0.88482      -0.41260
                        -----------------------------------------
Magnitude (a.u.)       :      0.97677
Magnitude (Debye)      :      2.48274

                             ****ORCA TERMINATED NORMALLY****
TOTAL RUN TIME: 0 days 0 hours 14 minutes 20 seconds 634 msec
