                         Program Version 3.0.3 - RELEASE   -
|  1> ! RI-MP2 RIJK def2-TZVP def2-TZVP/C def2-TZVP/JK TIGHTSCF
|  2> % maxcore 2000
|  3> % mp2 density relaxed end
|  4> *xyz 0 1
|  5>  C       -0.2282869831     1.6163518413    -0.0406718859
|  6>  C        0.0335543926     0.1155416672    -0.0126025507
|  7>  C        1.1056687062    -0.5724569231    -0.9118550893
|  8>  C        2.4121421016     0.1353690093    -0.5061051995
|  9>  C        2.3505006071    -0.3888934609     0.9399835069
| 10>  O        2.4996146709    -1.8254361899     0.7146770999
| 11>  C        1.1691788858    -1.7334007431     0.1959676479
| 12>  C        0.7808293163    -0.5772836769     1.1471170222
| 13>  C        0.2544558977    -0.7483623224     2.5479691686
| 14>  H        0.6662216695     2.2071971503     0.1752347112
| 15>  H       -0.6086752548     1.9329834043    -1.0182864650
| 16>  H       -0.9826176510     1.8861046787     0.7067094219
| 17>  H       -0.9200101238    -0.4147547019    -0.1400095114
| 18>  H        0.9213390095    -0.7747394898    -1.9657540531
| 19>  H        3.3018878005    -0.2509416730    -1.0075839009
| 20>  H        2.3759030782     1.2204216942    -0.6149988797
| 21>  H        3.0145356750     0.0057977822     1.7087377158
| 22>  H        0.6434199495    -2.6768517807     0.0527252982
| 23>  H        0.8774821512    -1.4521789855     3.1098529293
| 24>  H        0.2492959003     0.2032048342     3.0925747710
| 25>  H       -0.7715017691    -1.1328126844     2.5431710627
| 26> *
| 27>
| 28>                          ****END OF INPUT****

CARTESIAN COORDINATES (ANGSTROEM)
---------------------------------
  C     -0.228287    1.616352   -0.040672
  C      0.033554    0.115542   -0.012603
  C      1.105669   -0.572457   -0.911855
  C      2.412142    0.135369   -0.506105
  C      2.350501   -0.388893    0.939984
  O      2.499615   -1.825436    0.714677
  C      1.169179   -1.733401    0.195968
  C      0.780829   -0.577284    1.147117
  C      0.254456   -0.748362    2.547969
  H      0.666222    2.207197    0.175235
  H     -0.608675    1.932983   -1.018286
  H     -0.982618    1.886105    0.706709
  H     -0.920010   -0.414755   -0.140010
  H      0.921339   -0.774739   -1.965754
  H      3.301888   -0.250942   -1.007584
  H      2.375903    1.220422   -0.614999
  H      3.014536    0.005798    1.708738
  H      0.643420   -2.676852    0.052725
  H      0.877482   -1.452179    3.109853
  H      0.249296    0.203205    3.092575
  H     -0.771502   -1.132813    2.543171

 Total Charge           Charge          ....    0
 Multiplicity           Mult            ....    1
 Number of Electrons    NEL             ....   68
 Basis Dimension        Dim             ....  351

ORBITAL ENERGIES
----------------

  NO   OCC          E(Eh)            E(eV)
   0   2.0000     -20.543295      -559.0115
   1   2.0000     -11.283439      -307.0380
   2   2.0000     -11.279375      -306.9274
   3   2.0000     -11.236567      -305.7625
   4   2.0000     -11.233263      -305.6726
   5   2.0000     -11.231668      -305.6292
   6   2.0000     -11.220086      -305.3141
   7   2.0000     -11.217643      -305.2476
   8   2.0000     -11.217159      -305.2344
   9   2.0000      -1.389407       -37.8077
  10   2.0000      -1.151978       -31.3469
  11   2.0000      -1.010958       -27.5096
  12   2.0000      -0.993325       -27.0298
  13   2.0000      -0.957234       -26.0477
  14   2.0000      -0.882124       -24.0038
  15   2.0000      -0.826620       -22.4935
  16   2.0000      -0.758894       -20.6505
  17   2.0000      -0.718709       -19.5571
  18   2.0000      -0.677511       -18.4360
  19   2.0000      -0.642523       -17.4839
  20   2.0000      -0.628955       -17.1147
  21   2.0000      -0.606871       -16.5138
  22   2.0000      -0.559114       -15.2143
  23   2.0000      -0.556167       -15.1341
  24   2.0000      -0.551289       -15.0013
  25   2.0000      -0.548186       -14.9169
  26   2.0000      -0.527361       -14.3502
  27   2.0000      -0.512522       -13.9464
  28   2.0000      -0.476724       -12.9723
  29   2.0000      -0.474312       -12.9067
  30   2.0000      -0.437947       -11.9171
  31   2.0000      -0.422870       -11.5069
  32   2.0000      -0.408693       -11.1211
  33   2.0000      -0.387360       -10.5406
  34   0.0000       0.130297         3.5456
  35   0.0000       0.158679         4.3179
  36   0.0000       0.162281         4.4159
  37   0.0000       0.173521         4.7217
  38   0.0000       0.191217         5.2033

MULLIKEN ATOMIC CHARGES
-----------------------
   0 C :   -0.423561
   1 C :   -0.092157
   2 C :   -0.007500
   3 C :   -0.289202
   4 C :    0.030472
   5 O :   -0.320190
   6 C :   -0.054016
   7 C :    0.068506
   8 C :   -0.445087
   9 H :    0.124870
  10 H :    0.136866
  11 H :    0.135395
  12 H :    0.095993
  13 H :    0.133926
  14 H :    0.122550
  15 H :    0.121514
  16 H :    0.125403
  17 H :    0.119326
  18 H :    0.152547
  19 H :    0.134245
  20 H :    0.130103
Sum of atomic charges:   -0.0000000

LOEWDIN ATOMIC CHARGES
----------------------
   0 C :   -0.297430
   1 C :   -0.204825
   2 C :   -0.163100
   3 C :   -0.212491
   4 C :   -0.195892
   5 O :    0.161318
   6 C :   -0.200815
   7 C :   -0.201098
   8 C :   -0.276573
   9 H :    0.121403
  10 H :    0.126544
  11 H :    0.126381
  12 H :    0.158808
  13 H :    0.130845
  14 H :    0.140463
  15 H :    0.134232
  16 H :    0.130467
  17 H :    0.130275
  18 H :    0.135574
  19 H :    0.128259
  20 H :    0.127653

  Mayer bond orders larger than 0.1
B(  0-C ,  1-C ) :   0.8855 B(  0-C ,  9-H ) :   0.9401 B(  0-C , 10-H ) :   0.9373
B(  0-C , 11-H ) :   0.9378 B(  1-C ,  2-C ) :   0.9116 B(  1-C ,  7-C ) :   0.9348
B(  1-C , 12-H ) :   0.9231 B(  2-C ,  3-C ) :   0.8896 B(  2-C ,  6-C ) :   0.8469
B(  2-C , 13-H ) :   0.9107 B(  3-C ,  4-C ) :   0.9434 B(  3-C , 14-H ) :   0.9214
B(  3-C , 15-H ) :   0.9331 B(  4-C ,  5-O ) :   0.8809 B(  4-C ,  7-C ) :   0.8878
B(  4-C , 16-H ) :   0.9139 B(  5-O ,  6-C ) :   0.9719 B(  6-C ,  7-C ) :   0.9063
B(  6-C , 17-H ) :   0.9115 B(  7-C ,  8-C ) :   0.8566 B(  8-C , 18-H ) :   0.9423
B(  8-C , 19-H ) :   0.9402 B(  8-C , 20-H ) :   0.9387

MP2 TOTAL ENERGY:     -386.385559580 Eh
FINAL SINGLE POINT ENERGY      -386.385559580491

DIPOLE MOMENT
-------------
                                X             Y             Z
Electronic contribution:      4.21919      -5.08098      -0.98218
Nuclear contribution   :     -4.75985       5.60966       0.93329
                        -----------------------------------------
Total Dipole Moment    :     -0.54066       0.52867      -0.04889
                        -----------------------------------------
Magnitude (a.u.)       :      0.75776
Magnitude (Debye)      :      1.92607

                             ****ORCA TERMINATED NORMALLY****
TOTAL RUN TIME: 0 days 0 hours 20 minutes 37 seconds 399 msec
