                         Program Version 3.0.3 - RELEASE   -
|  1> ! RI-MP2 RIJK def2-TZVP def2-TZVP/C def2-TZVP/JK TIGHTSCF
|  2> % maxcore 2000
|  3> % mp2 density relaxed end
|  4> *xyz 0 1
|  5>  C        0.0362699276     1.4111033969     0.3212803120
|  6>  C        0.0223845969    -0.0294767572     0.1312914543
|  7>  C       -0.0101847484    -1.2242083548    -0.0244885022
|  8>  C       -0.0458902224    -2.6452446368    -0.2192401955
|  9>  N       -1.1669537196    -3.2229779353    -0.4240676430
| 10>  N        1.2188746757    -3.2858389988    -0.1492419751
| 11>  C        2.4410549921    -2.5634789502    -0.5022573483
| 12>  C        1.3319423298    -4.5604843972     0.3721632430
| 13>  O        2.3669572517    -5.1793537197     0.4575307542
| 14>  H        1.0452177639     1.8193175964     0.2015564290
| 15>  H       -0.6198235252     1.9081033161    -0.4010077316
| 16>  H       -0.3144934392     1.6728784600     1.3255386625
| 17>  H       -1.0485489478    -4.2175076225    -0.6178948936
| 18>  H        2.6530527474    -1.7709358993     0.2205141258
| 19>  H        3.2526158874    -3.2901285119    -0.4961009548
| 20>  H        2.3450773502    -2.1207141900    -1.4960539673
| 21>  H        0.3650296898    -4.9507330856     0.7311702905
| 22> *
| 23>
| 24>                          ****END OF INPUT****

CARTESIAN COORDINATES (ANGSTROEM)
---------------------------------
  C      0.036270    1.411103    0.321280
  C      0.022385   -0.029477    0.131291
  C     -0.010185   -1.224208   -0.024489
  C     -0.045890   -2.645245   -0.219240
  N     -1.166954   -3.222978   -0.424068
  N      1.218875   -3.285839   -0.149242
  C      2.441055   -2.563479   -0.502257
  C      1.331942   -4.560484    0.372163
  O      2.366957   -5.179354    0.457531
  H      1.045218    1.819318    0.201556
  H     -0.619824    1.908103   -0.401008
  H     -0.314493    1.672878    1.325539
  H     -1.048549   -4.217508   -0.617895
  H      2.653053   -1.770936    0.220514
  H      3.252616   -3.290129   -0.496101
  H      2.345077   -2.120714   -1.496054
  H      0.365030   -4.950733    0.731170

 Total Charge           Charge          ....    0
 Multiplicity           Mult            ....    1
 Number of Electrons    NEL             ....   66
 Basis Dimension        Dim             ....  327

ORBITAL ENERGIES
----------------

  NO   OCC          E(Eh)            E(eV)
   0   2.0000     -20.545822      -559.0803
   1   2.0000     -15.619592      -425.0307
   2   2.0000     -15.563220      -423.4967
   3   2.0000     -11.367422      -309.3233
   4   2.0000     -11.360683      -309.1399
   5   2.0000     -11.271008      -306.6997
   6   2.0000     -11.266843      -306.5864
   7   2.0000     -11.262800      -306.4764
   8   2.0000     -11.242521      -305.9246
   9   2.0000      -1.407333       -38.2955
  10   2.0000      -1.304515       -35.4977
  11   2.0000      -1.197241       -32.5786
  12   2.0000      -1.084105       -29.5000
  13   2.0000      -0.998880       -27.1809
  14   2.0000      -0.975102       -26.5339
  15   2.0000      -0.911102       -24.7923
  16   2.0000      -0.798624       -21.7317
  17   2.0000      -0.763065       -20.7641
  18   2.0000      -0.691399       -18.8139
  19   2.0000      -0.664847       -18.0914
  20   2.0000      -0.653592       -17.7852
  21   2.0000      -0.629828       -17.1385
  22   2.0000      -0.622245       -16.9321
  23   2.0000      -0.607929       -16.5426
  24   2.0000      -0.607274       -16.5248
  25   2.0000      -0.570226       -15.5166
  26   2.0000      -0.554852       -15.0983
  27   2.0000      -0.518203       -14.1010
  28   2.0000      -0.468843       -12.7579
  29   2.0000      -0.445591       -12.1251
  30   2.0000      -0.409664       -11.1475
  31   2.0000      -0.402135       -10.9427
  32   2.0000      -0.374525       -10.1913
  33   0.0000       0.090665         2.4671
  34   0.0000       0.120888         3.2895
  35   0.0000       0.144566         3.9338
  36   0.0000       0.150265         4.0889
  37   0.0000       0.161597         4.3973

MULLIKEN ATOMIC CHARGES
-----------------------
   0 C :   -0.471183
   1 C :    0.087150
   2 C :    0.101379
   3 C :   -0.095727
   4 N :   -0.330662
   5 N :   -0.073655
   6 C :   -0.343156
   7 C :    0.142084
   8 O :   -0.329958
   9 H :    0.165720
  10 H :    0.172827
  11 H :    0.172071
  12 H :    0.218348
  13 H :    0.150684
  14 H :    0.185210
  15 H :    0.150708
  16 H :    0.098160
Sum of atomic charges:    0.0000000

LOEWDIN ATOMIC CHARGES
----------------------
   0 C :   -0.284531
   1 C :   -0.059970
   2 C :   -0.034569
   3 C :   -0.329038
   4 N :   -0.008792
   5 N :    0.182996
   6 C :   -0.268721
   7 C :   -0.387066
   8 O :    0.086176
   9 H :    0.143945
  10 H :    0.146905
  11 H :    0.147534
  12 H :    0.160173
  13 H :    0.124300
  14 H :    0.136242
  15 H :    0.124885
  16 H :    0.119529

  Mayer bond orders larger than 0.1
B(  0-C ,  1-C ) :   0.8614 B(  0-C ,  9-H ) :   0.9427 B(  0-C , 10-H ) :   0.9403
B(  0-C , 11-H ) :   0.9411 B(  1-C ,  2-C ) :   2.6827 B(  2-C ,  3-C ) :   1.0162
B(  2-C ,  4-N ) :  -0.1201 B(  3-C ,  4-N ) :   2.0911 B(  3-C ,  5-N ) :   1.0889
B(  4-N , 12-H ) :   0.8556 B(  5-N ,  6-C ) :   0.8496 B(  5-N ,  7-C ) :   1.0641
B(  6-C , 13-H ) :   0.9306 B(  6-C , 14-H ) :   0.9149 B(  6-C , 15-H ) :   0.9317
B(  7-C ,  8-O ) :   1.9190 B(  7-C , 16-H ) :   0.9280

MP2 TOTAL ENERGY:     -417.283440399 Eh
FINAL SINGLE POINT ENERGY      -417.283440398652

DIPOLE MOMENT
-------------
                                X             Y             Z
Electronic contribution:     -1.47726      -6.50675       0.34271
Nuclear contribution   :      1.67665       7.84591      -0.47750
                        -----------------------------------------
Total Dipole Moment    :      0.19939       1.33916      -0.13479
                        -----------------------------------------
Magnitude (a.u.)       :      1.36061
Magnitude (Debye)      :      3.45840

                             ****ORCA TERMINATED NORMALLY****
TOTAL RUN TIME: 0 days 0 hours 15 minutes 47 seconds 674 msec
