                         Program Version 3.0.3 - RELEASE   -
|  1> ! RI-MP2 RIJK def2-TZVP def2-TZVP/C def2-TZVP/JK TIGHTSCF
|  2> % maxcore 2000
|  3> % mp2 density relaxed end
|  4> *xyz 0 1
|  5>  O       -0.0505250193     1.4812601477    -0.0933249709
|  6>  C        0.0385277233     0.0737022878    -0.0401626325
|  7>  C        0.0367171246    -0.6170597540     1.3387085861
|  8>  C       -1.4854919220    -0.3369569498     1.5715787543
|  9>  N       -1.8658905009    -1.7661526312     1.8232604897
| 10>  C       -0.7833379043    -1.8381375887     0.7867682269
| 11>  C       -1.3335626160    -0.6051515897     0.0195010221
| 12>  O       -2.3054097855    -0.6579907192    -0.9460401310
| 13>  H        0.8342041297     1.8497785958    -0.0118948868
| 14>  H        0.7438517883    -0.3231762223    -0.7836152039
| 15>  H        0.8113142740    -0.6557627274     2.1025874190
| 16>  H       -1.9500791297     0.5090596752     2.0752808641
| 17>  H       -1.4965613979    -2.0670781388     2.7298088292
| 18>  H       -0.4066085912    -2.7708534210     0.3665597935
| 19>  H       -2.5219293533     0.2471980354    -1.1978274798
| 20> *
| 21>
| 22>                          ****END OF INPUT****

CARTESIAN COORDINATES (ANGSTROEM)
---------------------------------
  O     -0.050525    1.481260   -0.093325
  C      0.038528    0.073702   -0.040163
  C      0.036717   -0.617060    1.338709
  C     -1.485492   -0.336957    1.571579
  N     -1.865891   -1.766153    1.823260
  C     -0.783338   -1.838138    0.786768
  C     -1.333563   -0.605152    0.019501
  O     -2.305410   -0.657991   -0.946040
  H      0.834204    1.849779   -0.011895
  H      0.743852   -0.323176   -0.783615
  H      0.811314   -0.655763    2.102587
  H     -1.950079    0.509060    2.075281
  H     -1.496561   -2.067078    2.729809
  H     -0.406609   -2.770853    0.366560
  H     -2.521929    0.247198   -1.197827

 Total Charge           Charge          ....    0
 Multiplicity           Mult            ....    1
 Number of Electrons    NEL             ....   60
 Basis Dimension        Dim             ....  290

ORBITAL ENERGIES
----------------

  NO   OCC          E(Eh)            E(eV)
   0   2.0000     -20.569737      -559.7310
   1   2.0000     -20.569200      -559.7164
   2   2.0000     -15.547434      -423.0672
   3   2.0000     -11.300050      -307.4900
   4   2.0000     -11.291940      -307.2693
   5   2.0000     -11.275810      -306.8304
   6   2.0000     -11.272864      -306.7502
   7   2.0000     -11.247186      -306.0515
   8   2.0000      -1.393169       -37.9100
   9   2.0000      -1.371503       -37.3205
  10   2.0000      -1.288575       -35.0639
  11   2.0000      -1.093226       -29.7482
  12   2.0000      -0.882894       -24.0248
  13   2.0000      -0.876663       -23.8552
  14   2.0000      -0.866786       -23.5865
  15   2.0000      -0.740095       -20.1390
  16   2.0000      -0.707474       -19.2514
  17   2.0000      -0.704714       -19.1763
  18   2.0000      -0.677171       -18.4268
  19   2.0000      -0.628470       -17.1015
  20   2.0000      -0.617878       -16.8133
  21   2.0000      -0.577194       -15.7062
  22   2.0000      -0.556258       -15.1365
  23   2.0000      -0.518770       -14.1165
  24   2.0000      -0.510053       -13.8793
  25   2.0000      -0.459969       -12.5164
  26   2.0000      -0.448355       -12.2004
  27   2.0000      -0.432193       -11.7606
  28   2.0000      -0.404887       -11.0175
  29   2.0000      -0.373842       -10.1728
  30   0.0000       0.129150         3.5143
  31   0.0000       0.148621         4.0442
  32   0.0000       0.157379         4.2825
  33   0.0000       0.166938         4.5426
  34   0.0000       0.195180         5.3111

MULLIKEN ATOMIC CHARGES
-----------------------
   0 O :   -0.472761
   1 C :   -0.036091
   2 C :   -0.093085
   3 C :   -0.073703
   4 N :   -0.349031
   5 C :   -0.086162
   6 C :    0.198933
   7 O :   -0.456431
   8 H :    0.323214
   9 H :    0.096578
  10 H :    0.150981
  11 H :    0.135819
  12 H :    0.196748
  13 H :    0.129008
  14 H :    0.335983
Sum of atomic charges:   -0.0000000

LOEWDIN ATOMIC CHARGES
----------------------
   0 O :   -0.017843
   1 C :   -0.286928
   2 C :   -0.146385
   3 C :   -0.170172
   4 N :   -0.004936
   5 C :   -0.164284
   6 C :   -0.298084
   7 O :    0.047512
   8 H :    0.177933
   9 H :    0.128469
  10 H :    0.128904
  11 H :    0.127005
  12 H :    0.156824
  13 H :    0.127999
  14 H :    0.193988

  Mayer bond orders larger than 0.1
B(  0-O ,  1-C ) :   1.1294 B(  0-O ,  2-C ) :  -0.1150 B(  0-O ,  8-H ) :   0.8429
B(  1-C ,  2-C ) :   0.8554 B(  1-C ,  6-C ) :   0.9059 B(  1-C ,  9-H ) :   0.9669
B(  2-C ,  3-C ) :   0.8650 B(  2-C ,  5-C ) :   0.8517 B(  2-C , 10-H ) :   0.8862
B(  3-C ,  4-N ) :   0.9242 B(  3-C ,  6-C ) :   0.8253 B(  3-C , 11-H ) :   0.8866
B(  4-N ,  5-C ) :   0.9320 B(  4-N , 12-H ) :   0.8745 B(  5-C ,  6-C ) :   0.8572
B(  5-C , 13-H ) :   0.9041 B(  6-C ,  7-O ) :   1.0296 B(  7-O , 14-H ) :   0.8284

MP2 TOTAL ENERGY:     -399.053120362 Eh
FINAL SINGLE POINT ENERGY      -399.053120361753

DIPOLE MOMENT
-------------
                                X             Y             Z
Electronic contribution:     -1.36768       0.36452      -1.26519
Nuclear contribution   :      2.64822       0.18420       1.54100
                        -----------------------------------------
Total Dipole Moment    :      1.28054       0.54871       0.27580
                        -----------------------------------------
Magnitude (a.u.)       :      1.42019
Magnitude (Debye)      :      3.60983

                             ****ORCA TERMINATED NORMALLY****
TOTAL RUN TIME: 0 days 0 hours 11 minutes 1 seconds 979 msec
