                         Program Version 3.0.3 - RELEASE   -
|  1> ! RI-MP2 RIJK def2-TZVP def2-TZVP/C def2-TZVP/JK TIGHTSCF
|  2> % maxcore 2000
|  3> % mp2 density relaxed end
|  4> *xyz 0 1
|  5>  C       -0.0254969132     1.5073462099     0.0450162896
|  6>  C       -0.0096048362     0.0164121297    -0.0219575891
|  7>  C       -0.0260487076    -0.7700450661    -1.1009441439
|  8>  C        0.0003260631    -2.2192087383    -0.7077220688
|  9>  C        0.0358951991    -2.1708878336     0.8128126715
| 10>  N        0.0658539085    -3.1698027109     1.5815705811
| 11>  N        0.0279014883    -0.7738849694     1.1652149857
| 12>  C        0.0528541652    -0.2911157552     2.4501947518
| 13>  O        0.0848990394    -0.9768341831     3.4511417610
| 14>  H        0.8652008469     1.9042112197     0.5457864015
| 15>  H       -0.0544088883     1.9135356778    -0.9678503641
| 16>  H       -0.9003802213     1.8834998087     0.5878803741
| 17>  H       -0.0545023410    -0.4103213001    -2.1190864015
| 18>  H       -0.8791666542    -2.7784776387    -1.0474611988
| 19>  H        0.8756115685    -2.7578286721    -1.0891449871
| 20>  H        0.0855596023    -2.8730725402     2.5580147530
| 21>  H        0.0411108705     0.8110547217     2.4905161441
| 22> *
| 23>
| 24>                          ****END OF INPUT****

CARTESIAN COORDINATES (ANGSTROEM)
---------------------------------
  C     -0.025497    1.507346    0.045016
  C     -0.009605    0.016412   -0.021958
  C     -0.026049   -0.770045   -1.100944
  C      0.000326   -2.219209   -0.707722
  C      0.035895   -2.170888    0.812813
  N      0.065854   -3.169803    1.581571
  N      0.027901   -0.773885    1.165215
  C      0.052854   -0.291116    2.450195
  O      0.084899   -0.976834    3.451142
  H      0.865201    1.904211    0.545786
  H     -0.054409    1.913536   -0.967850
  H     -0.900380    1.883500    0.587880
  H     -0.054502   -0.410321   -2.119086
  H     -0.879167   -2.778478   -1.047461
  H      0.875612   -2.757829   -1.089145
  H      0.085560   -2.873073    2.558015
  H      0.041111    0.811055    2.490516

 Total Charge           Charge          ....    0
 Multiplicity           Mult            ....    1
 Number of Electrons    NEL             ....   66
 Basis Dimension        Dim             ....  327

ORBITAL ENERGIES
----------------

  NO   OCC          E(Eh)            E(eV)
   0   2.0000     -20.550036      -559.1949
   1   2.0000     -15.627094      -425.2349
   2   2.0000     -15.535166      -422.7334
   3   2.0000     -11.373615      -309.4918
   4   2.0000     -11.326485      -308.2093
   5   2.0000     -11.302420      -307.5545
   6   2.0000     -11.259970      -306.3993
   7   2.0000     -11.249794      -306.1225
   8   2.0000     -11.241422      -305.8946
   9   2.0000      -1.411063       -38.3970
  10   2.0000      -1.312698       -35.7203
  11   2.0000      -1.194286       -32.4982
  12   2.0000      -1.100297       -29.9406
  13   2.0000      -1.038450       -28.2577
  14   2.0000      -0.925551       -25.1855
  15   2.0000      -0.895473       -24.3671
  16   2.0000      -0.804744       -21.8982
  17   2.0000      -0.758675       -20.6446
  18   2.0000      -0.705264       -19.1912
  19   2.0000      -0.664730       -18.0882
  20   2.0000      -0.655786       -17.8449
  21   2.0000      -0.627111       -17.0646
  22   2.0000      -0.620321       -16.8798
  23   2.0000      -0.598751       -16.2929
  24   2.0000      -0.584849       -15.9146
  25   2.0000      -0.582603       -15.8534
  26   2.0000      -0.559545       -15.2260
  27   2.0000      -0.536260       -14.5924
  28   2.0000      -0.489920       -13.3314
  29   2.0000      -0.473556       -12.8861
  30   2.0000      -0.430491       -11.7143
  31   2.0000      -0.413549       -11.2533
  32   2.0000      -0.331235        -9.0134
  33   0.0000       0.117471         3.1965
  34   0.0000       0.121904         3.3172
  35   0.0000       0.138165         3.7597
  36   0.0000       0.146574         3.9885
  37   0.0000       0.163154         4.4397

MULLIKEN ATOMIC CHARGES
-----------------------
   0 C :   -0.474136
   1 C :    0.113354
   2 C :   -0.263938
   3 C :   -0.068734
   4 C :   -0.015298
   5 N :   -0.335342
   6 N :   -0.043036
   7 C :    0.163793
   8 O :   -0.354336
   9 H :    0.161307
  10 H :    0.155692
  11 H :    0.161309
  12 H :    0.143165
  13 H :    0.144342
  14 H :    0.144339
  15 H :    0.252878
  16 H :    0.114641
Sum of atomic charges:   -0.0000000

LOEWDIN ATOMIC CHARGES
----------------------
   0 C :   -0.269631
   1 C :   -0.208744
   2 C :   -0.148941
   3 C :   -0.195275
   4 C :   -0.282079
   5 N :   -0.018389
   6 N :    0.248904
   7 C :   -0.372591
   8 O :    0.079249
   9 H :    0.135426
  10 H :    0.141255
  11 H :    0.135427
  12 H :    0.143744
  13 H :    0.158342
  14 H :    0.158344
  15 H :    0.170633
  16 H :    0.124326

  Mayer bond orders larger than 0.1
B(  0-C ,  1-C ) :   0.8602 B(  0-C ,  9-H ) :   0.9334 B(  0-C , 10-H ) :   0.9380
B(  0-C , 11-H ) :   0.9334 B(  1-C ,  2-C ) :   1.7086 B(  1-C ,  6-N ) :   1.0027
B(  2-C ,  3-C ) :   0.9650 B(  2-C , 12-H ) :   0.9232 B(  3-C ,  4-C ) :   0.9502
B(  3-C , 13-H ) :   0.9006 B(  3-C , 14-H ) :   0.9006 B(  4-C ,  5-N ) :   2.0721
B(  4-C ,  6-N ) :   0.9206 B(  5-N , 15-H ) :   0.8443 B(  6-N ,  7-C ) :   1.0753
B(  7-C ,  8-O ) :   1.8465 B(  7-C , 16-H ) :   0.9313

MP2 TOTAL ENERGY:     -417.341922397 Eh
FINAL SINGLE POINT ENERGY      -417.341922397299

DIPOLE MOMENT
-------------
                                X             Y             Z
Electronic contribution:      0.15084      -3.64299       4.54942
Nuclear contribution   :     -0.19904       5.10121      -5.85329
                        -----------------------------------------
Total Dipole Moment    :     -0.04820       1.45822      -1.30387
                        -----------------------------------------
Magnitude (a.u.)       :      1.95674
Magnitude (Debye)      :      4.97363

                             ****ORCA TERMINATED NORMALLY****
TOTAL RUN TIME: 0 days 0 hours 16 minutes 41 seconds 671 msec
