                         Program Version 3.0.3 - RELEASE   -
|  1> ! RI-MP2 RIJK def2-TZVP def2-TZVP/C def2-TZVP/JK TIGHTSCF
|  2> % maxcore 2000
|  3> % mp2 density relaxed end
|  4> *xyz 0 1
|  5>  N       -0.1154004158     1.3871862111    -0.1035718074
|  6>  C       -0.0366182992     0.0161382873    -0.0450511452
|  7>  N       -1.0666622522    -0.7996216535     0.0158302380
|  8>  N       -0.5036585421    -2.0399935310    -0.0217426769
|  9>  C       -1.3027966012    -3.1824819141     0.0214032346
| 10>  O       -0.8875860294    -4.3075367595     0.0004201842
| 11>  N        0.8470656402    -2.0510742190    -0.0951071761
| 12>  C        1.1541603750    -0.7799757830    -0.1121817408
| 13>  O        2.3977562931    -0.2832353261    -0.1711715428
| 14>  H        0.6955498968     1.8718968363     0.2510551387
| 15>  H       -0.9879310698     1.7724379970     0.2276184818
| 16>  H       -2.3608917262    -2.8790755354     0.0777361530
| 17>  H        3.0179070307    -1.0238007199    -0.1965103110
| 18> *
| 19>
| 20>                          ****END OF INPUT****

CARTESIAN COORDINATES (ANGSTROEM)
---------------------------------
  N     -0.115400    1.387186   -0.103572
  C     -0.036618    0.016138   -0.045051
  N     -1.066662   -0.799622    0.015830
  N     -0.503659   -2.039994   -0.021743
  C     -1.302797   -3.182482    0.021403
  O     -0.887586   -4.307537    0.000420
  N      0.847066   -2.051074   -0.095107
  C      1.154160   -0.779976   -0.112182
  O      2.397756   -0.283235   -0.171172
  H      0.695550    1.871897    0.251055
  H     -0.987931    1.772438    0.227618
  H     -2.360892   -2.879076    0.077736
  H      3.017907   -1.023801   -0.196510

 Total Charge           Charge          ....    0
 Multiplicity           Mult            ....    1
 Number of Electrons    NEL             ....   66
 Basis Dimension        Dim             ....  303

ORBITAL ENERGIES
----------------

  NO   OCC          E(Eh)            E(eV)
   0   2.0000     -20.629766      -561.3645
   1   2.0000     -20.552272      -559.2558
   2   2.0000     -15.681089      -426.7041
   3   2.0000     -15.627323      -425.2411
   4   2.0000     -15.622983      -425.1230
   5   2.0000     -15.597346      -424.4254
   6   2.0000     -11.371380      -309.4310
   7   2.0000     -11.357522      -309.0539
   8   2.0000     -11.336483      -308.4814
   9   2.0000      -1.478020       -40.2190
  10   2.0000      -1.440561       -39.1997
  11   2.0000      -1.395191       -37.9651
  12   2.0000      -1.264632       -34.4124
  13   2.0000      -1.196137       -32.5485
  14   2.0000      -1.123111       -30.5614
  15   2.0000      -0.929729       -25.2992
  16   2.0000      -0.851588       -23.1729
  17   2.0000      -0.832905       -22.6645
  18   2.0000      -0.768547       -20.9132
  19   2.0000      -0.722110       -19.6496
  20   2.0000      -0.699800       -19.0425
  21   2.0000      -0.694429       -18.8964
  22   2.0000      -0.684360       -18.6224
  23   2.0000      -0.643249       -17.5037
  24   2.0000      -0.623426       -16.9643
  25   2.0000      -0.614801       -16.7296
  26   2.0000      -0.552835       -15.0434
  27   2.0000      -0.527637       -14.3577
  28   2.0000      -0.509219       -13.8566
  29   2.0000      -0.489875       -13.3302
  30   2.0000      -0.457057       -12.4371
  31   2.0000      -0.409799       -11.1512
  32   2.0000      -0.343984        -9.3603
  33   0.0000       0.086346         2.3496
  34   0.0000       0.118447         3.2231
  35   0.0000       0.138238         3.7616
  36   0.0000       0.180016         4.8985
  37   0.0000       0.186620         5.0782

MULLIKEN ATOMIC CHARGES
-----------------------
   0 N :   -0.512258
   1 C :    0.166288
   2 N :   -0.263094
   3 N :    0.202033
   4 C :    0.128397
   5 O :   -0.268846
   6 N :   -0.233977
   7 C :    0.197799
   8 O :   -0.431471
   9 H :    0.269232
  10 H :    0.265934
  11 H :    0.124476
  12 H :    0.355486
Sum of atomic charges:    0.0000000

LOEWDIN ATOMIC CHARGES
----------------------
   0 N :   -0.049551
   1 C :   -0.363930
   2 N :    0.069269
   3 N :    0.120932
   4 C :   -0.367516
   5 O :    0.133228
   6 N :    0.077073
   7 C :   -0.402742
   8 O :    0.091652
   9 H :    0.179641
  10 H :    0.178241
  11 H :    0.124179
  12 H :    0.209525

  Mayer bond orders larger than 0.1
B(  0-N ,  1-C ) :   1.0803 B(  0-N ,  9-H ) :   0.8658 B(  0-N , 10-H ) :   0.8638
B(  1-C ,  2-N ) :   1.5209 B(  1-C ,  7-C ) :   1.2134 B(  2-N ,  3-N ) :   0.9796
B(  3-N ,  4-C ) :   0.9615 B(  3-N ,  6-N ) :   1.0011 B(  4-C ,  5-O ) :   1.9883
B(  4-C , 11-H ) :   0.9205 B(  6-N ,  7-C ) :   1.5208 B(  7-C ,  8-O ) :   1.1289
B(  8-O , 12-H ) :   0.8102

MP2 TOTAL ENERGY:     -485.320256474 Eh
FINAL SINGLE POINT ENERGY      -485.320256474480

DIPOLE MOMENT
-------------
                                X             Y             Z
Electronic contribution:      0.29951      -3.17124      -0.15552
Nuclear contribution   :      0.04627       4.72465       0.53792
                        -----------------------------------------
Total Dipole Moment    :      0.34579       1.55341       0.38241
                        -----------------------------------------
Magnitude (a.u.)       :      1.63673
Magnitude (Debye)      :      4.16023

                             ****ORCA TERMINATED NORMALLY****
TOTAL RUN TIME: 0 days 0 hours 12 minutes 50 seconds 911 msec
