                         Program Version 3.0.3 - RELEASE   -
|  1> ! RI-MP2 RIJK def2-TZVP def2-TZVP/C def2-TZVP/JK TIGHTSCF
|  2> % maxcore 2000
|  3> % mp2 density relaxed end
|  4> *xyz 0 1
|  5>  N       -0.0358686137     1.3175916006    -0.0818945843
|  6>  C       -0.0091232152     0.0577988988    -0.0799719015
|  7>  O       -1.1704455836    -0.6375335153    -0.0368948952
|  8>  C       -1.0419535328    -2.0394498678     0.0483544678
|  9>  O       -0.5769231407    -2.3434885346     1.3419599580
| 10>  C       -0.7055908389    -3.7228824069     1.6631522526
| 11>  C       -2.1772596077    -4.1378478079     1.7158122612
| 12>  C       -2.9064212837    -3.5976488293     0.5145509357
| 13>  C       -2.3843340349    -2.6458167348    -0.2529520084
| 14>  H        0.9124732973     1.6836982917    -0.1361708884
| 15>  H        0.8808872031    -0.5827321929    -0.1183664114
| 16>  H       -0.2905679479    -2.3739291809    -0.6949783969
| 17>  H       -0.1703909584    -4.3370041675     0.9207712207
| 18>  H       -0.2111423507    -3.8541857566     2.6285560024
| 19>  H       -2.2536662151    -5.2315880644     1.7536727239
| 20>  H       -2.6460038227    -3.7627680739     2.6354764044
| 21>  H       -3.8873702986    -4.0062857017     0.2875928309
| 22>  H       -2.8931470658    -2.2564920265    -1.1283035014
| 23> *
| 24>
| 25>                          ****END OF INPUT****

CARTESIAN COORDINATES (ANGSTROEM)
---------------------------------
  N     -0.035869    1.317592   -0.081895
  C     -0.009123    0.057799   -0.079972
  O     -1.170446   -0.637534   -0.036895
  C     -1.041954   -2.039450    0.048354
  O     -0.576923   -2.343489    1.341960
  C     -0.705591   -3.722882    1.663152
  C     -2.177260   -4.137848    1.715812
  C     -2.906421   -3.597649    0.514551
  C     -2.384334   -2.645817   -0.252952
  H      0.912473    1.683698   -0.136171
  H      0.880887   -0.582732   -0.118366
  H     -0.290568   -2.373929   -0.694978
  H     -0.170391   -4.337004    0.920771
  H     -0.211142   -3.854186    2.628556
  H     -2.253666   -5.231588    1.753673
  H     -2.646004   -3.762768    2.635476
  H     -3.887370   -4.006286    0.287593
  H     -2.893147   -2.256492   -1.128304

 Total Charge           Charge          ....    0
 Multiplicity           Mult            ....    1
 Number of Electrons    NEL             ....   68
 Basis Dimension        Dim             ....  333

ORBITAL ENERGIES
----------------

  NO   OCC          E(Eh)            E(eV)
   0   2.0000     -20.592771      -560.3578
   1   2.0000     -20.572729      -559.8124
   2   2.0000     -15.537053      -422.7847
   3   2.0000     -11.356556      -309.0276
   4   2.0000     -11.334875      -308.4376
   5   2.0000     -11.292207      -307.2766
   6   2.0000     -11.247807      -306.0684
   7   2.0000     -11.242327      -305.9193
   8   2.0000     -11.237859      -305.7977
   9   2.0000      -1.452688       -39.5297
  10   2.0000      -1.379625       -37.5415
  11   2.0000      -1.196579       -32.5606
  12   2.0000      -1.100390       -29.9431
  13   2.0000      -1.036212       -28.1968
  14   2.0000      -0.910265       -24.7696
  15   2.0000      -0.883731       -24.0476
  16   2.0000      -0.825853       -22.4726
  17   2.0000      -0.754099       -20.5201
  18   2.0000      -0.729530       -19.8515
  19   2.0000      -0.700479       -19.0610
  20   2.0000      -0.681482       -18.5441
  21   2.0000      -0.660328       -17.9684
  22   2.0000      -0.630128       -17.1466
  23   2.0000      -0.590139       -16.0585
  24   2.0000      -0.579285       -15.7632
  25   2.0000      -0.571210       -15.5434
  26   2.0000      -0.564547       -15.3621
  27   2.0000      -0.538488       -14.6530
  28   2.0000      -0.526140       -14.3170
  29   2.0000      -0.478550       -13.0220
  30   2.0000      -0.438236       -11.9250
  31   2.0000      -0.428656       -11.6643
  32   2.0000      -0.405929       -11.0459
  33   2.0000      -0.373290       -10.1577
  34   0.0000       0.128126         3.4865
  35   0.0000       0.141950         3.8627
  36   0.0000       0.151316         4.1175
  37   0.0000       0.162746         4.4285
  38   0.0000       0.167521         4.5585

MULLIKEN ATOMIC CHARGES
-----------------------
   0 N :   -0.332684
   1 C :    0.072394
   2 O :   -0.202219
   3 C :    0.183648
   4 O :   -0.284084
   5 C :   -0.099651
   6 C :   -0.143910
   7 C :   -0.177266
   8 C :   -0.171378
   9 H :    0.225547
  10 H :    0.088294
  11 H :    0.079586
  12 H :    0.104112
  13 H :    0.135481
  14 H :    0.121389
  15 H :    0.126121
  16 H :    0.134040
  17 H :    0.140580
Sum of atomic charges:    0.0000000

LOEWDIN ATOMIC CHARGES
----------------------
   0 N :   -0.076633
   1 C :   -0.388595
   2 O :    0.271586
   3 C :   -0.390976
   4 O :    0.185379
   5 C :   -0.298040
   6 C :   -0.255528
   7 C :   -0.152202
   8 C :   -0.150776
   9 H :    0.168493
  10 H :    0.110481
  11 H :    0.128314
  12 H :    0.124275
  13 H :    0.132035
  14 H :    0.145984
  15 H :    0.149373
  16 H :    0.145474
  17 H :    0.151356

  Mayer bond orders larger than 0.1
B(  0-N ,  1-C ) :   1.9598 B(  0-N ,  9-H ) :   0.8503 B(  1-C ,  2-O ) :   1.0269
B(  1-C , 10-H ) :   0.9277 B(  2-O ,  3-C ) :   0.9397 B(  3-C ,  4-O ) :   0.9761
B(  3-C ,  8-C ) :   0.9349 B(  3-C , 11-H ) :   0.9393 B(  4-O ,  5-C ) :   0.9036
B(  5-C ,  6-C ) :   0.9450 B(  5-C , 12-H ) :   0.9406 B(  5-C , 13-H ) :   0.9301
B(  6-C ,  7-C ) :   0.9278 B(  6-C , 14-H ) :   0.9217 B(  6-C , 15-H ) :   0.9010
B(  7-C ,  8-C ) :   1.8060 B(  7-C , 16-H ) :   0.9241 B(  8-C , 17-H ) :   0.9197

MP2 TOTAL ENERGY:     -438.356854055 Eh
FINAL SINGLE POINT ENERGY      -438.356854054611

DIPOLE MOMENT
-------------
                                X             Y             Z
Electronic contribution:      0.45617       5.08696      -1.26649
Nuclear contribution   :      0.06405      -6.73401       1.16717
                        -----------------------------------------
Total Dipole Moment    :      0.52022      -1.64706      -0.09932
                        -----------------------------------------
Magnitude (a.u.)       :      1.73011
Magnitude (Debye)      :      4.39759

                             ****ORCA TERMINATED NORMALLY****
TOTAL RUN TIME: 0 days 0 hours 15 minutes 25 seconds 714 msec
