                         Program Version 3.0.3 - RELEASE   -
|  1> ! RI-MP2 RIJK def2-TZVP def2-TZVP/C def2-TZVP/JK TIGHTSCF
|  2> % maxcore 2000
|  3> % mp2 density relaxed end
|  4> *xyz 0 1
|  5>  C       -0.1554475765     1.5054351589    -0.1853729849
|  6>  C        0.0489599247    -0.0027833066    -0.2127777173
|  7>  C        1.3604835868    -0.5603467027    -0.8832212443
|  8>  C        1.7152079565    -1.2078209602     0.4579066103
|  9>  O        1.7847672061    -0.1546166516     1.4310064873
| 10>  C        0.4915919644    -0.6982700202     1.1017211920
| 11>  C       -0.3466634016    -1.2261252642     2.2249386610
| 12>  C       -0.9282219513    -0.1184301320     3.1155294322
| 13>  O       -1.7329096394    -0.6353797836     4.1624212631
| 14>  H        0.6952005514     1.9927844339     0.2991791530
| 15>  H       -0.2456276321     1.9058083888    -1.2008518054
| 16>  H       -1.0655409279     1.7797267670     0.3592158559
| 17>  H       -0.8283285048    -0.5087985311    -0.6296545409
| 18>  H        1.1573888651    -1.2808719818    -1.6790669162
| 19>  H        2.0784034401     0.1840052961    -1.2376179269
| 20>  H        2.2980892566    -2.1002919119     0.6592183101
| 21>  H       -1.1713018956    -1.8273055869     1.8242813343
| 22>  H        0.2741186698    -1.8906213866     2.8398630010
| 23>  H       -0.1116323654     0.5094680086     3.5007543577
| 24>  H       -1.5880543155     0.5296043447     2.5294667101
| 25>  H       -1.1589606114    -1.1265453884     4.7589586380
| 26> *
| 27>
| 28>                          ****END OF INPUT****

CARTESIAN COORDINATES (ANGSTROEM)
---------------------------------
  C     -0.155448    1.505435   -0.185373
  C      0.048960   -0.002783   -0.212778
  C      1.360484   -0.560347   -0.883221
  C      1.715208   -1.207821    0.457907
  O      1.784767   -0.154617    1.431006
  C      0.491592   -0.698270    1.101721
  C     -0.346663   -1.226125    2.224939
  C     -0.928222   -0.118430    3.115529
  O     -1.732910   -0.635380    4.162421
  H      0.695201    1.992784    0.299179
  H     -0.245628    1.905808   -1.200852
  H     -1.065541    1.779727    0.359216
  H     -0.828329   -0.508799   -0.629655
  H      1.157389   -1.280872   -1.679067
  H      2.078403    0.184005   -1.237618
  H      2.298089   -2.100292    0.659218
  H     -1.171302   -1.827306    1.824281
  H      0.274119   -1.890621    2.839863
  H     -0.111632    0.509468    3.500754
  H     -1.588054    0.529604    2.529467
  H     -1.158961   -1.126545    4.758959

 Total Charge           Charge          ....    0
 Multiplicity           Mult            ....    1
 Number of Electrons    NEL             ....   70
 Basis Dimension        Dim             ....  351

ORBITAL ENERGIES
----------------

  NO   OCC          E(Eh)            E(eV)
   0   2.0000     -20.563342      -559.5570
   1   2.0000     -20.556442      -559.3692
   2   2.0000     -11.287808      -307.1569
   3   2.0000     -11.283475      -307.0390
   4   2.0000     -11.276582      -306.8514
   5   2.0000     -11.240515      -305.8700
   6   2.0000     -11.233746      -305.6858
   7   2.0000     -11.231717      -305.6305
   8   2.0000     -11.214257      -305.1554
   9   2.0000      -1.414435       -38.4887
  10   2.0000      -1.360603       -37.0239
  11   2.0000      -1.095957       -29.8225
  12   2.0000      -1.040144       -28.3038
  13   2.0000      -0.974660       -26.5218
  14   2.0000      -0.895278       -24.3617
  15   2.0000      -0.843802       -22.9610
  16   2.0000      -0.827909       -22.5286
  17   2.0000      -0.735507       -20.0142
  18   2.0000      -0.695705       -18.9311
  19   2.0000      -0.688608       -18.7380
  20   2.0000      -0.648865       -17.6565
  21   2.0000      -0.609107       -16.5746
  22   2.0000      -0.604573       -16.4513
  23   2.0000      -0.591838       -16.1047
  24   2.0000      -0.571976       -15.5642
  25   2.0000      -0.559549       -15.2261
  26   2.0000      -0.548696       -14.9308
  27   2.0000      -0.524137       -14.2625
  28   2.0000      -0.502998       -13.6873
  29   2.0000      -0.482988       -13.1428
  30   2.0000      -0.480683       -13.0800
  31   2.0000      -0.460016       -12.5177
  32   2.0000      -0.452996       -12.3267
  33   2.0000      -0.427811       -11.6413
  34   2.0000      -0.388031       -10.5589
  35   0.0000       0.133377         3.6294
  36   0.0000       0.144611         3.9351
  37   0.0000       0.155751         4.2382
  38   0.0000       0.167503         4.5580
  39   0.0000       0.181895         4.9496

MULLIKEN ATOMIC CHARGES
-----------------------
   0 C :   -0.447583
   1 C :   -0.048714
   2 C :   -0.168304
   3 C :   -0.084411
   4 O :   -0.343231
   5 C :    0.187438
   6 C :   -0.236733
   7 C :   -0.052243
   8 O :   -0.466369
   9 H :    0.149781
  10 H :    0.133212
  11 H :    0.126189
  12 H :    0.103916
  13 H :    0.116388
  14 H :    0.115678
  15 H :    0.130349
  16 H :    0.119488
  17 H :    0.114428
  18 H :    0.125025
  19 H :    0.111427
  20 H :    0.314269
Sum of atomic charges:   -0.0000000

LOEWDIN ATOMIC CHARGES
----------------------
   0 C :   -0.299435
   1 C :   -0.207382
   2 C :   -0.196697
   3 C :   -0.226425
   4 O :    0.182388
   5 C :   -0.262268
   6 C :   -0.244786
   7 C :   -0.338482
   8 O :   -0.050120
   9 H :    0.130518
  10 H :    0.124864
  11 H :    0.121481
  12 H :    0.150953
  13 H :    0.134833
  14 H :    0.133536
  15 H :    0.128899
  16 H :    0.148397
  17 H :    0.146382
  18 H :    0.121702
  19 H :    0.128236
  20 H :    0.173405

  Mayer bond orders larger than 0.1
B(  0-C ,  1-C ) :   0.8799 B(  0-C ,  9-H ) :   0.9407 B(  0-C , 10-H ) :   0.9369
B(  0-C , 11-H ) :   0.9359 B(  1-C ,  2-C ) :   0.9709 B(  1-C ,  5-C ) :   0.9104
B(  1-C , 12-H ) :   0.9203 B(  2-C ,  3-C ) :   0.9122 B(  2-C , 13-H ) :   0.9075
B(  2-C , 14-H ) :   0.9052 B(  3-C ,  4-O ) :   0.9360 B(  3-C ,  5-C ) :   0.8522
B(  3-C , 15-H ) :   0.9283 B(  4-O ,  5-C ) :   0.8160 B(  5-C ,  6-C ) :   0.8652
B(  6-C ,  7-C ) :   0.9162 B(  6-C , 16-H ) :   0.9275 B(  6-C , 17-H ) :   0.9239
B(  7-C ,  8-O ) :   0.9421 B(  7-C , 18-H ) :   0.9391 B(  7-C , 19-H ) :   0.9260
B(  8-O , 20-H ) :   0.8476

MP2 TOTAL ENERGY:     -423.485725094 Eh
FINAL SINGLE POINT ENERGY      -423.485725094436

DIPOLE MOMENT
-------------
                                X             Y             Z
Electronic contribution:      2.27932      -2.53624       3.07442
Nuclear contribution   :     -2.10102       1.98614      -3.52871
                        -----------------------------------------
Total Dipole Moment    :      0.17831      -0.55010      -0.45429
                        -----------------------------------------
Magnitude (a.u.)       :      0.73538
Magnitude (Debye)      :      1.86919

                             ****ORCA TERMINATED NORMALLY****
TOTAL RUN TIME: 0 days 0 hours 18 minutes 38 seconds 480 msec
