                         Program Version 3.0.3 - RELEASE   -
|  1> ! RI-MP2 RIJK def2-TZVP def2-TZVP/C def2-TZVP/JK TIGHTSCF
|  2> % maxcore 2000
|  3> % mp2 density relaxed end
|  4> *xyz 0 1
|  5>  C       -0.0199950171     1.5099579247     0.0180081858
|  6>  C        0.0033240396    -0.0271698262    -0.0003989791
|  7>  C        1.0007170817    -0.6071283140    -1.0813820503
|  8>  C        1.9870331254    -1.2834026478    -0.1105313412
|  9>  C        1.0784675037    -2.0588260350     0.8682567887
| 10>  C        0.7694372163    -0.5981274600     1.2445411096
| 11>  O        2.1488736385    -0.2571462961     0.9243633937
| 12>  C       -1.3463907398    -0.5658220025    -0.1100296711
| 13>  C       -2.4653542112    -1.0021735523    -0.1817309054
| 14>  H        0.9935155963     1.8847252406     0.1793309058
| 15>  H       -0.3967841050     1.9031135110    -0.9305244023
| 16>  H       -0.6685750046     1.8802522734     0.8178319024
| 17>  H        0.5226983795    -1.3075080751    -1.7689649095
| 18>  H        1.4776174269     0.1895734241    -1.6563255415
| 19>  H        2.9265366133    -1.6738634247    -0.5009833443
| 20>  H        0.2775354069    -2.6881142939     0.4763232131
| 21>  H        1.6528474544    -2.5635342295     1.6451477873
| 22>  H        0.4361863086    -0.2723285008     2.2297521934
| 23>  H       -3.4527571633    -1.3868315058    -0.2495028951
| 24> *
| 25>
| 26>                          ****END OF INPUT****

CARTESIAN COORDINATES (ANGSTROEM)
---------------------------------
  C     -0.019995    1.509958    0.018008
  C      0.003324   -0.027170   -0.000399
  C      1.000717   -0.607128   -1.081382
  C      1.987033   -1.283403   -0.110531
  C      1.078468   -2.058826    0.868257
  C      0.769437   -0.598127    1.244541
  O      2.148874   -0.257146    0.924363
  C     -1.346391   -0.565822   -0.110030
  C     -2.465354   -1.002174   -0.181731
  H      0.993516    1.884725    0.179331
  H     -0.396784    1.903114   -0.930524
  H     -0.668575    1.880252    0.817832
  H      0.522698   -1.307508   -1.768965
  H      1.477617    0.189573   -1.656326
  H      2.926537   -1.673863   -0.500983
  H      0.277535   -2.688114    0.476323
  H      1.652847   -2.563534    1.645148
  H      0.436186   -0.272329    2.229752
  H     -3.452757   -1.386832   -0.249503

 Total Charge           Charge          ....    0
 Multiplicity           Mult            ....    1
 Number of Electrons    NEL             ....   66
 Basis Dimension        Dim             ....  339

ORBITAL ENERGIES
----------------

  NO   OCC          E(Eh)            E(eV)
   0   2.0000     -20.551819      -559.2434
   1   2.0000     -11.293376      -307.3084
   2   2.0000     -11.291557      -307.2589
   3   2.0000     -11.266043      -306.5646
   4   2.0000     -11.234054      -305.6942
   5   2.0000     -11.233967      -305.6918
   6   2.0000     -11.231295      -305.6191
   7   2.0000     -11.223153      -305.3975
   8   2.0000     -11.218990      -305.2842
   9   2.0000      -1.394208       -37.9383
  10   2.0000      -1.118475       -30.4352
  11   2.0000      -1.029801       -28.0223
  12   2.0000      -0.998663       -27.1750
  13   2.0000      -0.968817       -26.3629
  14   2.0000      -0.901046       -24.5187
  15   2.0000      -0.808137       -21.9905
  16   2.0000      -0.769207       -20.9312
  17   2.0000      -0.721092       -19.6219
  18   2.0000      -0.700029       -19.0488
  19   2.0000      -0.664067       -18.0702
  20   2.0000      -0.633546       -17.2397
  21   2.0000      -0.588561       -16.0156
  22   2.0000      -0.571749       -15.5581
  23   2.0000      -0.559363       -15.2211
  24   2.0000      -0.526903       -14.3378
  25   2.0000      -0.522803       -14.2262
  26   2.0000      -0.500011       -13.6060
  27   2.0000      -0.492929       -13.4133
  28   2.0000      -0.477907       -13.0045
  29   2.0000      -0.454785       -12.3753
  30   2.0000      -0.430817       -11.7231
  31   2.0000      -0.385837       -10.4992
  32   2.0000      -0.376012       -10.2318
  33   0.0000       0.139137         3.7861
  34   0.0000       0.158186         4.3045
  35   0.0000       0.162030         4.4091
  36   0.0000       0.170327         4.6348
  37   0.0000       0.177419         4.8278

MULLIKEN ATOMIC CHARGES
-----------------------
   0 C :   -0.441010
   1 C :    0.072038
   2 C :   -0.243639
   3 C :   -0.001823
   4 C :   -0.225274
   5 C :    0.030607
   6 O :   -0.317929
   7 C :   -0.102335
   8 C :   -0.170337
   9 H :    0.157450
  10 H :    0.139845
  11 H :    0.132090
  12 H :    0.133197
  13 H :    0.126108
  14 H :    0.128354
  15 H :    0.132778
  16 H :    0.125209
  17 H :    0.134879
  18 H :    0.189792
Sum of atomic charges:    0.0000000

LOEWDIN ATOMIC CHARGES
----------------------
   0 C :   -0.252455
   1 C :   -0.253475
   2 C :   -0.169170
   3 C :   -0.250569
   4 C :   -0.196876
   5 C :   -0.211526
   6 O :    0.160222
   7 C :   -0.071925
   8 C :   -0.098807
   9 H :    0.133076
  10 H :    0.129362
  11 H :    0.128875
  12 H :    0.142802
  13 H :    0.141609
  14 H :    0.130492
  15 H :    0.135094
  16 H :    0.140072
  17 H :    0.136609
  18 H :    0.126590

  Mayer bond orders larger than 0.1
B(  0-C ,  1-C ) :   0.8943 B(  0-C ,  9-H ) :   0.9348 B(  0-C , 10-H ) :   0.9348
B(  0-C , 11-H ) :   0.9336 B(  1-C ,  2-C ) :   0.8535 B(  1-C ,  5-C ) :   0.8854
B(  1-C ,  7-C ) :   1.1945 B(  2-C ,  3-C ) :   0.9497 B(  2-C , 12-H ) :   0.9123
B(  2-C , 13-H ) :   0.9173 B(  3-C ,  4-C ) :   0.9559 B(  3-C ,  6-O ) :   0.9189
B(  3-C , 14-H ) :   0.9158 B(  4-C ,  5-C ) :   0.9388 B(  4-C , 15-H ) :   0.9141
B(  4-C , 16-H ) :   0.9216 B(  5-C ,  6-O ) :   0.9280 B(  5-C , 17-H ) :   0.8980
B(  7-C ,  8-C ) :   2.5809 B(  8-C , 18-H ) :   0.8856

MP2 TOTAL ENERGY:     -385.161475113 Eh
FINAL SINGLE POINT ENERGY      -385.161475112674

DIPOLE MOMENT
-------------
                                X             Y             Z
Electronic contribution:      0.05494      -1.51611       1.27529
Nuclear contribution   :     -0.29947       1.12018      -1.51295
                        -----------------------------------------
Total Dipole Moment    :     -0.24453      -0.39593      -0.23766
                        -----------------------------------------
Magnitude (a.u.)       :      0.52253
Magnitude (Debye)      :      1.32817

                             ****ORCA TERMINATED NORMALLY****
TOTAL RUN TIME: 0 days 0 hours 20 minutes 39 seconds 673 msec
