                         Program Version 3.0.3 - RELEASE   -
|  1> ! RI-MP2 RIJK def2-TZVP def2-TZVP/C def2-TZVP/JK TIGHTSCF
|  2> % maxcore 2000
|  3> % mp2 density relaxed end
|  4> *xyz 0 1
|  5>  C       -0.0341293783     1.5153237358     0.0873688482
|  6>  O        1.2510707656     1.9283801141    -0.3842864065
|  7>  C        2.1058389761     0.8100212334    -0.6184855720
|  8>  C        1.2457947874    -0.4016949504    -0.3790021960
|  9>  N        1.6264434881    -1.6643158339    -0.5317820516
| 10>  C        0.6929832441    -2.5858895275    -0.2578971266
| 11>  C       -0.6009201974    -2.2820117299     0.1634538400
| 12>  C       -0.9737992820    -0.9466431467     0.3186552798
| 13>  C       -0.0169642117     0.0153741566     0.0361599980
| 14>  H       -0.1981257171     1.8945948526     1.1079792758
| 15>  H       -0.8114094129     1.9547296592    -0.5538454941
| 16>  H        2.4928489510     0.8477994905    -1.6455243813
| 17>  H        2.9688974354     0.8366732066     0.0631584502
| 18>  H        0.9957283215    -3.6225074561    -0.3820703538
| 19>  H       -1.3037309265    -3.0821742446     0.3662268947
| 20>  H       -1.9743691032    -0.6819972097     0.6467198250
| 21> *
| 22>
| 23>                          ****END OF INPUT****

CARTESIAN COORDINATES (ANGSTROEM)
---------------------------------
  C     -0.034129    1.515324    0.087369
  O      1.251071    1.928380   -0.384286
  C      2.105839    0.810021   -0.618486
  C      1.245795   -0.401695   -0.379002
  N      1.626443   -1.664316   -0.531782
  C      0.692983   -2.585890   -0.257897
  C     -0.600920   -2.282012    0.163454
  C     -0.973799   -0.946643    0.318655
  C     -0.016964    0.015374    0.036160
  H     -0.198126    1.894595    1.107979
  H     -0.811409    1.954730   -0.553845
  H      2.492849    0.847799   -1.645524
  H      2.968897    0.836673    0.063158
  H      0.995728   -3.622507   -0.382070
  H     -1.303731   -3.082174    0.366227
  H     -1.974369   -0.681997    0.646720

 Total Charge           Charge          ....    0
 Multiplicity           Mult            ....    1
 Number of Electrons    NEL             ....   64
 Basis Dimension        Dim             ....  321

ORBITAL ENERGIES
----------------

  NO   OCC          E(Eh)            E(eV)
   0   2.0000     -20.559421      -559.4503
   1   2.0000     -15.570604      -423.6977
   2   2.0000     -11.290951      -307.2424
   3   2.0000     -11.283386      -307.0365
   4   2.0000     -11.278041      -306.8911
   5   2.0000     -11.277330      -306.8717
   6   2.0000     -11.265612      -306.5529
   7   2.0000     -11.245187      -305.9971
   8   2.0000     -11.245027      -305.9927
   9   2.0000      -1.383474       -37.6462
  10   2.0000      -1.265536       -34.4370
  11   2.0000      -1.104071       -30.0433
  12   2.0000      -1.056182       -28.7402
  13   2.0000      -0.993585       -27.0368
  14   2.0000      -0.900916       -24.5152
  15   2.0000      -0.835264       -22.7287
  16   2.0000      -0.826715       -22.4961
  17   2.0000      -0.712106       -19.3774
  18   2.0000      -0.679002       -18.4766
  19   2.0000      -0.675117       -18.3709
  20   2.0000      -0.653883       -17.7931
  21   2.0000      -0.608777       -16.5657
  22   2.0000      -0.586493       -15.9593
  23   2.0000      -0.581294       -15.8178
  24   2.0000      -0.572279       -15.5725
  25   2.0000      -0.543089       -14.7782
  26   2.0000      -0.523599       -14.2478
  27   2.0000      -0.502216       -13.6660
  28   2.0000      -0.432587       -11.7713
  29   2.0000      -0.418141       -11.3782
  30   2.0000      -0.387561       -10.5461
  31   2.0000      -0.335986        -9.1426
  32   0.0000       0.093139         2.5344
  33   0.0000       0.123062         3.3487
  34   0.0000       0.143915         3.9161
  35   0.0000       0.156699         4.2640
  36   0.0000       0.170163         4.6304

MULLIKEN ATOMIC CHARGES
-----------------------
   0 C :   -0.006053
   1 O :   -0.330693
   2 C :   -0.015449
   3 C :    0.061358
   4 N :   -0.238881
   5 C :   -0.055220
   6 C :   -0.071463
   7 C :   -0.202801
   8 C :   -0.011626
   9 H :    0.114164
  10 H :    0.117982
  11 H :    0.119553
  12 H :    0.114845
  13 H :    0.128751
  14 H :    0.138228
  15 H :    0.137304
Sum of atomic charges:   -0.0000000

LOEWDIN ATOMIC CHARGES
----------------------
   0 C :   -0.248156
   1 O :    0.145009
   2 C :   -0.248929
   3 C :   -0.200507
   4 N :    0.159730
   5 C :   -0.206556
   6 C :   -0.142296
   7 C :   -0.102336
   8 C :   -0.122588
   9 H :    0.130803
  10 H :    0.131825
  11 H :    0.132957
  12 H :    0.131599
  13 H :    0.139318
  14 H :    0.149951
  15 H :    0.150177

  Mayer bond orders larger than 0.1
B(  0-C ,  1-O ) :   0.9514 B(  0-C ,  8-C ) :   0.9523 B(  0-C ,  9-H ) :   0.9116
B(  0-C , 10-H ) :   0.9120 B(  1-O ,  2-C ) :   0.9410 B(  2-C ,  3-C ) :   0.9676
B(  2-C , 11-H ) :   0.9163 B(  2-C , 12-H ) :   0.9180 B(  3-C ,  4-N ) :   1.4034
B(  3-C ,  8-C ) :   1.2976 B(  4-N ,  5-C ) :   1.3877 B(  5-C ,  6-C ) :   1.3090
B(  5-C , 13-H ) :   0.9468 B(  6-C ,  7-C ) :   1.3477 B(  6-C , 14-H ) :   0.9202
B(  7-C ,  8-C ) :   1.3168 B(  7-C , 15-H ) :   0.9323

MP2 TOTAL ENERGY:     -400.104322956 Eh
FINAL SINGLE POINT ENERGY      -400.104322956342

DIPOLE MOMENT
-------------
                                X             Y             Z
Electronic contribution:      1.01577      -0.80939      -0.46336
Nuclear contribution   :     -1.96297       0.50389       0.80416
                        -----------------------------------------
Total Dipole Moment    :     -0.94721      -0.30551       0.34080
                        -----------------------------------------
Magnitude (a.u.)       :      1.05199
Magnitude (Debye)      :      2.67394

                             ****ORCA TERMINATED NORMALLY****
TOTAL RUN TIME: 0 days 0 hours 16 minutes 46 seconds 235 msec
