                         Program Version 3.0.3 - RELEASE   -
|  1> ! RI-MP2 RIJK def2-TZVP def2-TZVP/C def2-TZVP/JK TIGHTSCF
|  2> % maxcore 2000
|  3> % mp2 density relaxed end
|  4> *xyz 0 1
|  5>  C        0.0544320033     1.5463588906    -0.0655978217
|  6>  C        0.0555697972     0.0271708878    -0.0177809361
|  7>  O        0.6565252277    -0.4508067970    -1.2207002404
|  8>  C        0.7925195694    -1.8400137574    -1.2039419878
|  9>  O        1.7613109409    -2.2725529553    -0.2805361333
| 10>  C        1.4816216168    -1.8961789950     1.0550782696
| 11>  C        2.6830440991    -1.1653955777     1.6729204440
| 12>  O        2.0327664902     0.1155004714     1.5198558468
| 13>  C        0.7757287025    -0.5219398446     1.2094329237
| 14>  H        1.0810335468     1.9172550258    -0.0418732336
| 15>  H       -0.4299319392     1.8883356217    -0.9835207254
| 16>  H       -0.4863166834     1.9571099832     0.7921924211
| 17>  H       -0.9812227891    -0.3534061086     0.0240535182
| 18>  H       -0.1843454685    -2.3146475434    -0.9887282484
| 19>  H        1.1493875839    -2.1483415728    -2.1883465939
| 20>  H        1.0549937382    -2.7398700654     1.6094836813
| 21>  H        2.8721234612    -1.4030404399     2.7277748060
| 22>  H        3.6080829594    -1.2381573153     1.0943192893
| 23>  H        0.1002812235    -0.4880720982     2.0769034805
| 24> *
| 25>
| 26>                          ****END OF INPUT****

CARTESIAN COORDINATES (ANGSTROEM)
---------------------------------
  C      0.054432    1.546359   -0.065598
  C      0.055570    0.027171   -0.017781
  O      0.656525   -0.450807   -1.220700
  C      0.792520   -1.840014   -1.203942
  O      1.761311   -2.272553   -0.280536
  C      1.481622   -1.896179    1.055078
  C      2.683044   -1.165396    1.672920
  O      2.032766    0.115500    1.519856
  C      0.775729   -0.521940    1.209433
  H      1.081034    1.917255   -0.041873
  H     -0.429932    1.888336   -0.983521
  H     -0.486317    1.957110    0.792192
  H     -0.981223   -0.353406    0.024054
  H     -0.184345   -2.314648   -0.988728
  H      1.149388   -2.148342   -2.188347
  H      1.054994   -2.739870    1.609484
  H      2.872123   -1.403040    2.727775
  H      3.608083   -1.238157    1.094319
  H      0.100281   -0.488072    2.076903

 Total Charge           Charge          ....    0
 Multiplicity           Mult            ....    1
 Number of Electrons    NEL             ....   70
 Basis Dimension        Dim             ....  339

ORBITAL ENERGIES
----------------

  NO   OCC          E(Eh)            E(eV)
   0   2.0000     -20.567345      -559.6659
   1   2.0000     -20.564209      -559.5806
   2   2.0000     -20.554355      -559.3124
   3   2.0000     -11.332022      -308.3600
   4   2.0000     -11.294389      -307.3360
   5   2.0000     -11.291734      -307.2637
   6   2.0000     -11.290351      -307.2261
   7   2.0000     -11.281113      -306.9747
   8   2.0000     -11.215009      -305.1759
   9   2.0000      -1.433857       -39.0172
  10   2.0000      -1.381746       -37.5992
  11   2.0000      -1.351969       -36.7889
  12   2.0000      -1.060421       -28.8555
  13   2.0000      -1.005755       -27.3680
  14   2.0000      -0.943884       -25.6844
  15   2.0000      -0.897932       -24.4340
  16   2.0000      -0.835781       -22.7428
  17   2.0000      -0.762339       -20.7443
  18   2.0000      -0.717537       -19.5252
  19   2.0000      -0.704378       -19.1671
  20   2.0000      -0.676153       -18.3991
  21   2.0000      -0.664322       -18.0771
  22   2.0000      -0.641684       -17.4611
  23   2.0000      -0.606333       -16.4992
  24   2.0000      -0.573055       -15.5936
  25   2.0000      -0.565233       -15.3808
  26   2.0000      -0.558069       -15.1858
  27   2.0000      -0.534625       -14.5479
  28   2.0000      -0.523980       -14.2582
  29   2.0000      -0.518692       -14.1143
  30   2.0000      -0.481667       -13.1068
  31   2.0000      -0.470394       -12.8001
  32   2.0000      -0.433283       -11.7902
  33   2.0000      -0.427699       -11.6383
  34   2.0000      -0.416478       -11.3329
  35   0.0000       0.135653         3.6913
  36   0.0000       0.155821         4.2401
  37   0.0000       0.160554         4.3689
  38   0.0000       0.185297         5.0422
  39   0.0000       0.197719         5.3802

MULLIKEN ATOMIC CHARGES
-----------------------
   0 C :   -0.378876
   1 C :    0.071646
   2 O :   -0.295604
   3 C :    0.055590
   4 O :   -0.310955
   5 C :    0.072685
   6 C :   -0.033960
   7 O :   -0.330633
   8 C :    0.027331
   9 H :    0.155137
  10 H :    0.140750
  11 H :    0.122412
  12 H :    0.076211
  13 H :    0.081626
  14 H :    0.135932
  15 H :    0.102828
  16 H :    0.093977
  17 H :    0.117200
  18 H :    0.096701
Sum of atomic charges:    0.0000000

LOEWDIN ATOMIC CHARGES
----------------------
   0 C :   -0.282052
   1 C :   -0.333057
   2 O :    0.187101
   3 C :   -0.394866
   4 O :    0.177986
   5 C :   -0.275082
   6 C :   -0.246911
   7 O :    0.141226
   8 C :   -0.255544
   9 H :    0.134548
  10 H :    0.128531
  11 H :    0.129035
  12 H :    0.141003
  13 H :    0.105768
  14 H :    0.125236
  15 H :    0.129232
  16 H :    0.119208
  17 H :    0.126033
  18 H :    0.142605

  Mayer bond orders larger than 0.1
B(  0-C ,  1-C ) :   0.9186 B(  0-C ,  9-H ) :   0.9331 B(  0-C , 10-H ) :   0.9349
B(  0-C , 11-H ) :   0.9275 B(  1-C ,  2-O ) :   0.9195 B(  1-C ,  8-C ) :   0.9289
B(  1-C , 12-H ) :   0.9287 B(  2-O ,  3-C ) :   0.9906 B(  3-C ,  4-O ) :   0.9652
B(  3-C , 13-H ) :   0.9294 B(  3-C , 14-H ) :   0.9319 B(  4-O ,  5-C ) :   0.9324
B(  5-C ,  6-C ) :   0.9500 B(  5-C ,  8-C ) :   0.9676 B(  5-C , 15-H ) :   0.9350
B(  6-C ,  7-O ) :   0.9360 B(  6-C , 16-H ) :   0.9156 B(  6-C , 17-H ) :   0.9084
B(  7-O ,  8-C ) :   0.9432 B(  8-C , 18-H ) :   0.9091

MP2 TOTAL ENERGY:     -459.408976879 Eh
FINAL SINGLE POINT ENERGY      -459.408976879256

DIPOLE MOMENT
-------------
                                X             Y             Z
Electronic contribution:      2.74015      -2.57902      -0.79365
Nuclear contribution   :     -3.43998       2.07361       1.23969
                        -----------------------------------------
Total Dipole Moment    :     -0.69983      -0.50541       0.44604
                        -----------------------------------------
Magnitude (a.u.)       :      0.97168
Magnitude (Debye)      :      2.46980

                             ****ORCA TERMINATED NORMALLY****
TOTAL RUN TIME: 0 days 0 hours 16 minutes 27 seconds 74 msec
