                         Program Version 3.0.3 - RELEASE   -
|  1> ! RI-MP2 RIJK def2-TZVP def2-TZVP/C def2-TZVP/JK TIGHTSCF
|  2> % maxcore 2000
|  3> % mp2 density relaxed end
|  4> *xyz 0 1
|  5>  C       -0.0716537759     1.4502884477     0.0015913023
|  6>  N       -0.0112323116    -0.0063762064     0.0099200442
|  7>  N       -0.0429974750    -0.6215774117    -1.1864338754
|  8>  C        0.0104052836    -1.9250547302    -1.1937706996
|  9>  C       -0.0236127149    -2.6300978554    -2.5159889343
| 10>  N        0.0967768560    -2.7149339525    -0.0666162338
| 11>  C        0.1263709447    -2.1091869969     1.0752386165
| 12>  C        0.0743235033    -0.6557225791     1.2378703478
| 13>  O        0.0999282667    -0.0476343709     2.2955727710
| 14>  H        0.8198353624     1.8615180712     0.4821186201
| 15>  H       -0.1348834924     1.7699578584    -1.0365329274
| 16>  H       -0.9436101535     1.7888159833     0.5671447362
| 17>  H        0.8770204941    -3.2390616104    -2.6452058371
| 18>  H       -0.8790463300    -3.3119006409    -2.5611752978
| 19>  H       -0.0924928729    -1.9089096528    -3.3307603163
| 20>  H        0.1942185553    -2.6957982032     1.9896793236
| 21> *
| 22>
| 23>                          ****END OF INPUT****

CARTESIAN COORDINATES (ANGSTROEM)
---------------------------------
  C     -0.071654    1.450288    0.001591
  N     -0.011232   -0.006376    0.009920
  N     -0.042997   -0.621577   -1.186434
  C      0.010405   -1.925055   -1.193771
  C     -0.023613   -2.630098   -2.515989
  N      0.096777   -2.714934   -0.066616
  C      0.126371   -2.109187    1.075239
  C      0.074324   -0.655723    1.237870
  O      0.099928   -0.047634    2.295573
  H      0.819835    1.861518    0.482119
  H     -0.134883    1.769958   -1.036533
  H     -0.943610    1.788816    0.567145
  H      0.877020   -3.239062   -2.645206
  H     -0.879046   -3.311901   -2.561175
  H     -0.092493   -1.908910   -3.330760
  H      0.194219   -2.695798    1.989679

 Total Charge           Charge          ....    0
 Multiplicity           Mult            ....    1
 Number of Electrons    NEL             ....   66
 Basis Dimension        Dim             ....  321

ORBITAL ENERGIES
----------------

  NO   OCC          E(Eh)            E(eV)
   0   2.0000     -20.532838      -558.7269
   1   2.0000     -15.657315      -426.0572
   2   2.0000     -15.629042      -425.2879
   3   2.0000     -15.610321      -424.7784
   4   2.0000     -11.368758      -309.3596
   5   2.0000     -11.323034      -308.1154
   6   2.0000     -11.318886      -308.0025
   7   2.0000     -11.271303      -306.7078
   8   2.0000     -11.238153      -305.8057
   9   2.0000      -1.420478       -38.6532
  10   2.0000      -1.362912       -37.0867
  11   2.0000      -1.272266       -34.6201
  12   2.0000      -1.152224       -31.3536
  13   2.0000      -1.025039       -27.8927
  14   2.0000      -0.980872       -26.6909
  15   2.0000      -0.915649       -24.9161
  16   2.0000      -0.869036       -23.6477
  17   2.0000      -0.774989       -21.0885
  18   2.0000      -0.711641       -19.3647
  19   2.0000      -0.676973       -18.4214
  20   2.0000      -0.653543       -17.7838
  21   2.0000      -0.631115       -17.1735
  22   2.0000      -0.602341       -16.3905
  23   2.0000      -0.593737       -16.1564
  24   2.0000      -0.567168       -15.4334
  25   2.0000      -0.561747       -15.2859
  26   2.0000      -0.561201       -15.2711
  27   2.0000      -0.520607       -14.1664
  28   2.0000      -0.516335       -14.0502
  29   2.0000      -0.500131       -13.6093
  30   2.0000      -0.475672       -12.9437
  31   2.0000      -0.413351       -11.2479
  32   2.0000      -0.342951        -9.3322
  33   0.0000       0.051584         1.4037
  34   0.0000       0.137137         3.7317
  35   0.0000       0.140269         3.8169
  36   0.0000       0.157209         4.2779
  37   0.0000       0.173079         4.7097

MULLIKEN ATOMIC CHARGES
-----------------------
   0 C :   -0.310883
   1 N :    0.081837
   2 N :   -0.211655
   3 C :    0.178921
   4 C :   -0.383886
   5 N :   -0.221127
   6 C :   -0.062665
   7 C :    0.226856
   8 O :   -0.378509
   9 H :    0.159420
  10 H :    0.168809
  11 H :    0.159440
  12 H :    0.144458
  13 H :    0.144465
  14 H :    0.148513
  15 H :    0.156007
Sum of atomic charges:    0.0000000

LOEWDIN ATOMIC CHARGES
----------------------
   0 C :   -0.264719
   1 N :    0.186508
   2 N :    0.109135
   3 C :   -0.346973
   4 C :   -0.267793
   5 N :    0.159534
   6 C :   -0.152174
   7 C :   -0.449132
   8 O :    0.079453
   9 H :    0.130499
  10 H :    0.128733
  11 H :    0.130505
  12 H :    0.136590
  13 H :    0.136590
  14 H :    0.133707
  15 H :    0.149537

  Mayer bond orders larger than 0.1
B(  0-C ,  1-N ) :   0.8551 B(  0-C ,  9-H ) :   0.9260 B(  0-C , 10-H ) :   0.9232
B(  0-C , 11-H ) :   0.9260 B(  1-N ,  2-N ) :   0.9488 B(  1-N ,  7-C ) :   1.0726
B(  2-N ,  3-C ) :   1.6407 B(  3-C ,  4-C ) :   0.9151 B(  3-C ,  5-N ) :   1.1621
B(  4-C , 12-H ) :   0.9214 B(  4-C , 13-H ) :   0.9214 B(  4-C , 14-H ) :   0.9470
B(  5-N ,  6-C ) :   1.6132 B(  6-C ,  7-C ) :   1.0420 B(  6-C , 15-H ) :   0.9284
B(  7-C ,  8-O ) :   1.8481

MP2 TOTAL ENERGY:     -433.372685165 Eh
FINAL SINGLE POINT ENERGY      -433.372685165186

DIPOLE MOMENT
-------------
                                X             Y             Z
Electronic contribution:      0.27721      -0.99582       4.94608
Nuclear contribution   :     -0.32807       1.13209      -5.89118
                        -----------------------------------------
Total Dipole Moment    :     -0.05086       0.13627      -0.94510
                        -----------------------------------------
Magnitude (a.u.)       :      0.95622
Magnitude (Debye)      :      2.43052

                             ****ORCA TERMINATED NORMALLY****
TOTAL RUN TIME: 0 days 0 hours 17 minutes 48 seconds 281 msec
