                         Program Version 3.0.3 - RELEASE   -
|  1> ! RI-MP2 RIJK def2-TZVP def2-TZVP/C def2-TZVP/JK TIGHTSCF
|  2> % maxcore 2000
|  3> % mp2 density relaxed end
|  4> *xyz 0 1
|  5>  O        0.0034885552     1.4345281257    -0.1088350761
|  6>  C        0.0446223483     0.0377538569    -0.0479007293
|  7>  C       -0.5246207837    -0.7448287360    -1.2219597212
|  8>  C       -1.2856496589    -0.6219186185     0.0788484816
|  9>  O       -1.4880415106    -1.7220907924     0.9398014094
| 10>  C       -0.4544593719    -2.4165518951     1.4877850267
| 11>  O       -0.6961137631    -3.3045298057     2.2569730160
| 12>  C        0.9540824607    -2.0424523432     1.0499402594
| 13>  C        1.1624819139    -0.5451682976     0.7898328018
| 14>  H        0.7140333888     1.7286335703    -0.6904027295
| 15>  H       -0.9080036289    -0.1708634384    -2.0580602613
| 16>  H       -0.0915769665    -1.7033277335    -1.4852141285
| 17>  H       -2.1674768124     0.0064444968     0.0887318111
| 18>  H        1.6312982960    -2.4142131096     1.8203038109
| 19>  H        1.1691101097    -2.6216256510     0.1436903711
| 20>  H        2.1370385867    -0.3801022939     0.3140893428
| 21>  H        1.1746334668     0.0020823752     1.7394919753
| 22> *
| 23>
| 24>                          ****END OF INPUT****

CARTESIAN COORDINATES (ANGSTROEM)
---------------------------------
  O      0.003489    1.434528   -0.108835
  C      0.044622    0.037754   -0.047901
  C     -0.524621   -0.744829   -1.221960
  C     -1.285650   -0.621919    0.078848
  O     -1.488042   -1.722091    0.939801
  C     -0.454459   -2.416552    1.487785
  O     -0.696114   -3.304530    2.256973
  C      0.954082   -2.042452    1.049940
  C      1.162482   -0.545168    0.789833
  H      0.714033    1.728634   -0.690403
  H     -0.908004   -0.170863   -2.058060
  H     -0.091577   -1.703328   -1.485214
  H     -2.167477    0.006444    0.088732
  H      1.631298   -2.414213    1.820304
  H      1.169110   -2.621626    0.143690
  H      2.137039   -0.380102    0.314089
  H      1.174633    0.002082    1.739492

 Total Charge           Charge          ....    0
 Multiplicity           Mult            ....    1
 Number of Electrons    NEL             ....   68
 Basis Dimension        Dim             ....  327

ORBITAL ENERGIES
----------------

  NO   OCC          E(Eh)            E(eV)
   0   2.0000     -20.605761      -560.7113
   1   2.0000     -20.584413      -560.1304
   2   2.0000     -20.538439      -558.8793
   3   2.0000     -11.382987      -309.7468
   4   2.0000     -11.311946      -307.8137
   5   2.0000     -11.307608      -307.6957
   6   2.0000     -11.260993      -306.4272
   7   2.0000     -11.256703      -306.3105
   8   2.0000     -11.247700      -306.0655
   9   2.0000      -1.460355       -39.7383
  10   2.0000      -1.397021       -38.0149
  11   2.0000      -1.364457       -37.1288
  12   2.0000      -1.156434       -31.4682
  13   2.0000      -1.077557       -29.3218
  14   2.0000      -0.936450       -25.4821
  15   2.0000      -0.891756       -24.2659
  16   2.0000      -0.835433       -22.7333
  17   2.0000      -0.740901       -20.1609
  18   2.0000      -0.726845       -19.7784
  19   2.0000      -0.705119       -19.1873
  20   2.0000      -0.672344       -18.2954
  21   2.0000      -0.658783       -17.9264
  22   2.0000      -0.633358       -17.2346
  23   2.0000      -0.631369       -17.1804
  24   2.0000      -0.600482       -16.3399
  25   2.0000      -0.579648       -15.7730
  26   2.0000      -0.557382       -15.1671
  27   2.0000      -0.554843       -15.0981
  28   2.0000      -0.537800       -14.6343
  29   2.0000      -0.512413       -13.9435
  30   2.0000      -0.481141       -13.0925
  31   2.0000      -0.447363       -12.1734
  32   2.0000      -0.417086       -11.3495
  33   2.0000      -0.406369       -11.0579
  34   0.0000       0.113981         3.1016
  35   0.0000       0.140603         3.8260
  36   0.0000       0.154243         4.1972
  37   0.0000       0.162629         4.4254
  38   0.0000       0.175700         4.7810

MULLIKEN ATOMIC CHARGES
-----------------------
   0 O :   -0.447710
   1 C :    0.143833
   2 C :   -0.331082
   3 C :    0.052219
   4 O :   -0.200004
   5 C :    0.232427
   6 O :   -0.281147
   7 C :   -0.267164
   8 C :   -0.220799
   9 H :    0.324488
  10 H :    0.145405
  11 H :    0.141393
  12 H :    0.146370
  13 H :    0.159322
  14 H :    0.142911
  15 H :    0.119020
  16 H :    0.140518
Sum of atomic charges:   -0.0000000

LOEWDIN ATOMIC CHARGES
----------------------
   0 O :    0.031861
   1 C :   -0.361552
   2 C :   -0.190243
   3 C :   -0.235396
   4 O :    0.292940
   5 C :   -0.462602
   6 O :    0.140064
   7 C :   -0.223693
   8 C :   -0.220224
   9 H :    0.184280
  10 H :    0.142092
  11 H :    0.139045
  12 H :    0.153253
  13 H :    0.157710
  14 H :    0.156093
  15 H :    0.142739
  16 H :    0.153632

  Mayer bond orders larger than 0.1
B(  0-O ,  1-C ) :   1.0083 B(  0-O ,  9-H ) :   0.8369 B(  1-C ,  2-C ) :   0.8760
B(  1-C ,  3-C ) :   0.8669 B(  1-C ,  8-C ) :   0.9353 B(  2-C ,  3-C ) :   0.8718
B(  2-C , 10-H ) :   0.9144 B(  2-C , 11-H ) :   0.9018 B(  3-C ,  4-O ) :   0.8993
B(  3-C , 12-H ) :   0.9391 B(  4-O ,  5-C ) :   1.1092 B(  5-C ,  6-O ) :   2.0366
B(  5-C ,  7-C ) :   0.9490 B(  7-C ,  8-C ) :   0.8712 B(  7-C , 13-H ) :   0.9141
B(  7-C , 14-H ) :   0.9133 B(  8-C , 15-H ) :   0.9123 B(  8-C , 16-H ) :   0.9274

MP2 TOTAL ENERGY:     -458.248828187 Eh
FINAL SINGLE POINT ENERGY      -458.248828187185

DIPOLE MOMENT
-------------
                                X             Y             Z
Electronic contribution:     -4.09787      -2.03862       3.19860
Nuclear contribution   :      5.31232       2.93562      -4.48946
                        -----------------------------------------
Total Dipole Moment    :      1.21444       0.89700      -1.29087
                        -----------------------------------------
Magnitude (a.u.)       :      1.98641
Magnitude (Debye)      :      5.04905

                             ****ORCA TERMINATED NORMALLY****
TOTAL RUN TIME: 0 days 0 hours 16 minutes 12 seconds 336 msec
