                         Program Version 3.0.3 - RELEASE   -
|  1> ! RI-MP2 RIJK def2-TZVP def2-TZVP/C def2-TZVP/JK TIGHTSCF
|  2> % maxcore 2000
|  3> % mp2 density relaxed end
|  4> *xyz 0 1
|  5>  C        0.0866035634     1.5727666896    -0.0456700981
|  6>  O        1.5181224469     1.4947834333     0.0742846449
|  7>  C        1.4645589267     0.0833196725     0.3474381959
|  8>  C       -0.0504758665     0.0257873709     0.0067378085
|  9>  C       -0.9860266999    -0.5808964501     0.9875157994
| 10>  C       -1.1874684880    -0.4094152895     2.3418534797
| 11>  N       -2.1922066198    -1.2297654774     2.7551914900
| 12>  N       -2.6346577614    -1.9088603154     1.7363382107
| 13>  N       -1.9114890770    -1.5222247629     0.6682769048
| 14>  H       -0.3754776944     2.0861315633     0.8073299492
| 15>  H       -0.2272183093     2.0601880201    -0.9750546679
| 16>  H        2.1337950897    -0.4918612460    -0.3014913907
| 17>  H        1.6901928500    -0.1467102317     1.3966489351
| 18>  H       -0.2218342426    -0.3950547357    -0.9871404588
| 19>  H       -0.6762295019     0.2454789650     3.0290351410
| 20>  H       -2.1020033958    -1.9364759062    -0.2308933937
| 21> *
| 22>
| 23>                          ****END OF INPUT****

CARTESIAN COORDINATES (ANGSTROEM)
---------------------------------
  C      0.086604    1.572767   -0.045670
  O      1.518122    1.494783    0.074285
  C      1.464559    0.083320    0.347438
  C     -0.050476    0.025787    0.006738
  C     -0.986027   -0.580896    0.987516
  C     -1.187468   -0.409415    2.341853
  N     -2.192207   -1.229765    2.755191
  N     -2.634658   -1.908860    1.736338
  N     -1.911489   -1.522225    0.668277
  H     -0.375478    2.086132    0.807330
  H     -0.227218    2.060188   -0.975055
  H      2.133795   -0.491861   -0.301491
  H      1.690193   -0.146710    1.396649
  H     -0.221834   -0.395055   -0.987140
  H     -0.676230    0.245479    3.029035
  H     -2.102003   -1.936476   -0.230893

 Total Charge           Charge          ....    0
 Multiplicity           Mult            ....    1
 Number of Electrons    NEL             ....   66
 Basis Dimension        Dim             ....  321

ORBITAL ENERGIES
----------------

  NO   OCC          E(Eh)            E(eV)
   0   2.0000     -20.566604      -559.6458
   1   2.0000     -15.661991      -426.1844
   2   2.0000     -15.641368      -425.6232
   3   2.0000     -15.600170      -424.5022
   4   2.0000     -11.301555      -307.5309
   5   2.0000     -11.301549      -307.5308
   6   2.0000     -11.297652      -307.4247
   7   2.0000     -11.275177      -306.8132
   8   2.0000     -11.256400      -306.3022
   9   2.0000      -1.439985       -39.1840
  10   2.0000      -1.399191       -38.0739
  11   2.0000      -1.208473       -32.8842
  12   2.0000      -1.111817       -30.2541
  13   2.0000      -1.026162       -27.9233
  14   2.0000      -0.954690       -25.9784
  15   2.0000      -0.871841       -23.7240
  16   2.0000      -0.853539       -23.2260
  17   2.0000      -0.796733       -21.6802
  18   2.0000      -0.749463       -20.3939
  19   2.0000      -0.701505       -19.0889
  20   2.0000      -0.671153       -18.2630
  21   2.0000      -0.652509       -17.7557
  22   2.0000      -0.622171       -16.9301
  23   2.0000      -0.615996       -16.7621
  24   2.0000      -0.583080       -15.8664
  25   2.0000      -0.579381       -15.7658
  26   2.0000      -0.519627       -14.1398
  27   2.0000      -0.502529       -13.6745
  28   2.0000      -0.490023       -13.3342
  29   2.0000      -0.442570       -12.0429
  30   2.0000      -0.432926       -11.7805
  31   2.0000      -0.421577       -11.4717
  32   2.0000      -0.354082        -9.6351
  33   0.0000       0.112782         3.0690
  34   0.0000       0.131431         3.5764
  35   0.0000       0.141331         3.8458
  36   0.0000       0.161303         4.3893
  37   0.0000       0.165120         4.4931

MULLIKEN ATOMIC CHARGES
-----------------------
   0 C :   -0.025142
   1 O :   -0.320355
   2 C :   -0.025140
   3 C :   -0.088838
   4 C :    0.011142
   5 C :   -0.149378
   6 N :   -0.156962
   7 N :   -0.135382
   8 N :   -0.073815
   9 H :    0.108495
  10 H :    0.108559
  11 H :    0.108554
  12 H :    0.108495
  13 H :    0.111535
  14 H :    0.153263
  15 H :    0.264971
Sum of atomic charges:   -0.0000000

LOEWDIN ATOMIC CHARGES
----------------------
   0 C :   -0.240185
   1 O :    0.117007
   2 C :   -0.240189
   3 C :   -0.207937
   4 C :   -0.245099
   5 C :   -0.250324
   6 N :    0.002874
   7 N :   -0.050279
   8 N :    0.142147
   9 H :    0.122499
  10 H :    0.119201
  11 H :    0.119198
  12 H :    0.122498
  13 H :    0.155700
  14 H :    0.140109
  15 H :    0.192781

  Mayer bond orders larger than 0.1
B(  0-C ,  1-O ) :   0.9519 B(  0-C ,  3-C ) :   0.9545 B(  0-C ,  9-H ) :   0.9067
B(  0-C , 10-H ) :   0.9142 B(  1-O ,  2-C ) :   0.9519 B(  2-C ,  3-C ) :   0.9545
B(  2-C , 11-H ) :   0.9142 B(  2-C , 12-H ) :   0.9067 B(  3-C ,  4-C ) :   0.9292
B(  3-C , 13-H ) :   0.9119 B(  4-C ,  5-C ) :   1.4099 B(  4-C ,  7-N ) :   0.1432
B(  4-C ,  8-N ) :   1.1611 B(  5-C ,  6-N ) :   1.3793 B(  5-C , 14-H ) :   0.9425
B(  6-N ,  7-N ) :   1.3003 B(  7-N ,  8-N ) :   1.0301 B(  8-N , 15-H ) :   0.8587

MP2 TOTAL ENERGY:     -433.315548959 Eh
FINAL SINGLE POINT ENERGY      -433.315548958936

DIPOLE MOMENT
-------------
                                X             Y             Z
Electronic contribution:     -3.79155      -2.91775       2.23685
Nuclear contribution   :      4.30364       2.99819      -3.72493
                        -----------------------------------------
Total Dipole Moment    :      0.51209       0.08044      -1.48808
                        -----------------------------------------
Magnitude (a.u.)       :      1.57579
Magnitude (Debye)      :      4.00533

                             ****ORCA TERMINATED NORMALLY****
TOTAL RUN TIME: 0 days 0 hours 14 minutes 41 seconds 743 msec
