                         Program Version 3.0.3 - RELEASE   -
|  1> ! RI-MP2 RIJK def2-TZVP def2-TZVP/C def2-TZVP/JK TIGHTSCF
|  2> % maxcore 2000
|  3> % mp2 density relaxed end
|  4> *xyz 0 1
|  5>  C        0.0008387495     1.5266241308     0.1018443975
|  6>  C        0.0305254064     0.0413558336    -0.0083057786
|  7>  C        0.0247155746    -0.7765253394    -1.1133329281
|  8>  O       -0.0162553311    -0.3035653999    -2.3993850142
|  9>  C        0.0425933651    -2.1372837294    -0.6851386760
| 10>  C        0.0686166190    -2.1152753984     0.6944983254
| 11>  N        0.1514248539    -3.1328320022     1.6703449457
| 12>  N        0.0558345169    -0.8073497107     1.0919503966
| 13>  H        0.8627814660     1.9267696913     0.6526271754
| 14>  H        0.0220659321     1.9584472688    -0.9013895305
| 15>  H       -0.9045921152     1.8958847741     0.6021734037
| 16>  H        0.0287760765    -1.0537226618    -2.9976965079
| 17>  H        0.0086862511    -3.0187945402    -1.3086919615
| 18>  H        0.5315332707    -3.9809204475     1.2678056452
| 19>  H       -0.7576119055    -3.3644565789     2.0623454038
| 20>  H        0.1875178698    -0.5195398001     2.0460930933
| 21> *
| 22>
| 23>                          ****END OF INPUT****

CARTESIAN COORDINATES (ANGSTROEM)
---------------------------------
  C      0.000839    1.526624    0.101844
  C      0.030525    0.041356   -0.008306
  C      0.024716   -0.776525   -1.113333
  O     -0.016255   -0.303565   -2.399385
  C      0.042593   -2.137284   -0.685139
  C      0.068617   -2.115275    0.694498
  N      0.151425   -3.132832    1.670345
  N      0.055835   -0.807350    1.091950
  H      0.862781    1.926770    0.652627
  H      0.022066    1.958447   -0.901390
  H     -0.904592    1.895885    0.602173
  H      0.028776   -1.053723   -2.997697
  H      0.008686   -3.018795   -1.308692
  H      0.531533   -3.980920    1.267806
  H     -0.757612   -3.364457    2.062345
  H      0.187518   -0.519540    2.046093

 Total Charge           Charge          ....    0
 Multiplicity           Mult            ....    1
 Number of Electrons    NEL             ....   60
 Basis Dimension        Dim             ....  296

ORBITAL ENERGIES
----------------

  NO   OCC          E(Eh)            E(eV)
   0   2.0000     -20.567709      -559.6758
   1   2.0000     -15.587152      -424.1480
   2   2.0000     -15.565810      -423.5672
   3   2.0000     -11.287997      -307.1620
   4   2.0000     -11.262186      -306.4597
   5   2.0000     -11.232235      -305.6447
   6   2.0000     -11.217745      -305.2504
   7   2.0000     -11.200749      -304.7879
   8   2.0000      -1.380240       -37.5582
   9   2.0000      -1.291864       -35.1534
  10   2.0000      -1.184942       -32.2439
  11   2.0000      -1.029768       -28.0214
  12   2.0000      -1.007883       -27.4259
  13   2.0000      -0.893160       -24.3041
  14   2.0000      -0.791925       -21.5494
  15   2.0000      -0.774982       -21.0883
  16   2.0000      -0.707316       -19.2470
  17   2.0000      -0.665366       -18.1055
  18   2.0000      -0.656843       -17.8736
  19   2.0000      -0.618174       -16.8214
  20   2.0000      -0.597194       -16.2505
  21   2.0000      -0.581508       -15.8236
  22   2.0000      -0.562064       -15.2945
  23   2.0000      -0.548795       -14.9335
  24   2.0000      -0.532318       -14.4851
  25   2.0000      -0.519216       -14.1286
  26   2.0000      -0.500430       -13.6174
  27   2.0000      -0.437278       -11.8989
  28   2.0000      -0.329882        -8.9766
  29   2.0000      -0.263987        -7.1835
  30   0.0000       0.129893         3.5346
  31   0.0000       0.145736         3.9657
  32   0.0000       0.152037         4.1371
  33   0.0000       0.170492         4.6393
  34   0.0000       0.183132         4.9833

MULLIKEN ATOMIC CHARGES
-----------------------
   0 C :   -0.450448
   1 C :    0.075169
   2 C :    0.157809
   3 O :   -0.453607
   4 C :   -0.296819
   5 C :    0.162272
   6 N :   -0.545016
   7 N :   -0.279188
   8 H :    0.134619
   9 H :    0.165779
  10 H :    0.136708
  11 H :    0.329550
  12 H :    0.120679
  13 H :    0.250396
  14 H :    0.251413
  15 H :    0.240685
Sum of atomic charges:   -0.0000000

LOEWDIN ATOMIC CHARGES
----------------------
   0 C :   -0.285769
   1 C :   -0.245635
   2 C :   -0.299334
   3 O :    0.043355
   4 C :   -0.200107
   5 C :   -0.343333
   6 N :   -0.120117
   7 N :    0.206512
   8 H :    0.126309
   9 H :    0.142753
  10 H :    0.126719
  11 H :    0.188955
  12 H :    0.134329
  13 H :    0.168464
  14 H :    0.164942
  15 H :    0.191956

  Mayer bond orders larger than 0.1
B(  0-C ,  1-C ) :   0.8477 B(  0-C ,  8-H ) :   0.9385 B(  0-C ,  9-H ) :   0.9452
B(  0-C , 10-H ) :   0.9386 B(  1-C ,  2-C ) :   1.5137 B(  1-C ,  7-N ) :   1.0576
B(  2-C ,  3-O ) :   1.0767 B(  2-C ,  4-C ) :   1.2317 B(  3-O , 11-H ) :   0.8396
B(  4-C ,  5-C ) :   1.4568 B(  4-C , 12-H ) :   0.9099 B(  5-C ,  6-N ) :   1.0314
B(  5-C ,  7-N ) :   1.1673 B(  6-N , 13-H ) :   0.8904 B(  6-N , 14-H ) :   0.8756
B(  7-N , 15-H ) :   0.8672

MP2 TOTAL ENERGY:     -379.316699397 Eh
FINAL SINGLE POINT ENERGY      -379.316699396950

DIPOLE MOMENT
-------------
                                X             Y             Z
Electronic contribution:      0.10543      -2.08792      -1.64544
Nuclear contribution   :     -0.32971       1.43994       2.01337
                        -----------------------------------------
Total Dipole Moment    :     -0.22428      -0.64798       0.36793
                        -----------------------------------------
Magnitude (a.u.)       :      0.77817
Magnitude (Debye)      :      1.97794

                             ****ORCA TERMINATED NORMALLY****
TOTAL RUN TIME: 0 days 0 hours 11 minutes 28 seconds 134 msec
