                         Program Version 3.0.3 - RELEASE   -
|  1> ! RI-MP2 RIJK def2-TZVP def2-TZVP/C def2-TZVP/JK TIGHTSCF
|  2> % maxcore 2000
|  3> % mp2 density relaxed end
|  4> *xyz 0 1
|  5>  C        0.2820512771     1.4966658341     0.4271968137
|  6>  C        0.4825987890    -0.0198821956     0.3454506902
|  7>  C        0.4135565041    -0.5463502864    -1.0951496905
|  8>  C        1.5995613508    -0.0387934503    -1.9165066809
|  9>  O        1.5406792676     0.3370932197    -3.0577330839
| 10>  C        0.4441034112    -2.0620162520    -1.2226247288
| 11>  C       -0.0445420785    -2.6661512532    -2.5101964094
| 12>  N        0.9122203125    -2.7125899573    -0.2266075216
| 13>  O        0.9021991062    -4.0964646103    -0.4408630818
| 14>  H        1.0468388292     2.0404972906    -0.1388045149
| 15>  H       -0.6931386654     1.7907322006     0.0238547368
| 16>  H        0.3324848038     1.8413036736     1.4641313744
| 17>  H        1.4456030278    -0.3021491718     0.7842160926
| 18>  H       -0.2753924919    -0.5375426310     0.9410914209
| 19>  H       -0.4920593972    -0.1855364412    -1.5974835352
| 20>  H        2.5685446082    -0.0846200474    -1.3674227851
| 21>  H        0.1132176262    -1.9716120530    -3.3392321901
| 22>  H        0.4604000470    -3.6107392132    -2.7157259931
| 23>  H       -1.1204386286    -2.8700065887    -2.4462232269
| 24>  H        1.2963262711    -4.4295228874     0.3723270036
| 25> *
| 26>
| 27>                          ****END OF INPUT****

CARTESIAN COORDINATES (ANGSTROEM)
---------------------------------
  C      0.282051    1.496666    0.427197
  C      0.482599   -0.019882    0.345451
  C      0.413557   -0.546350   -1.095150
  C      1.599561   -0.038793   -1.916507
  O      1.540679    0.337093   -3.057733
  C      0.444103   -2.062016   -1.222625
  C     -0.044542   -2.666151   -2.510196
  N      0.912220   -2.712590   -0.226608
  O      0.902199   -4.096465   -0.440863
  H      1.046839    2.040497   -0.138805
  H     -0.693139    1.790732    0.023855
  H      0.332485    1.841304    1.464131
  H      1.445603   -0.302149    0.784216
  H     -0.275392   -0.537543    0.941091
  H     -0.492059   -0.185536   -1.597484
  H      2.568545   -0.084620   -1.367423
  H      0.113218   -1.971612   -3.339232
  H      0.460400   -3.610739   -2.715726
  H     -1.120439   -2.870007   -2.446223
  H      1.296326   -4.429523    0.372327

 Total Charge           Charge          ....    0
 Multiplicity           Mult            ....    1
 Number of Electrons    NEL             ....   70
 Basis Dimension        Dim             ....  345

ORBITAL ENERGIES
----------------

  NO   OCC          E(Eh)            E(eV)
   0   2.0000     -20.598212      -560.5059
   1   2.0000     -20.564684      -559.5935
   2   2.0000     -15.622458      -425.1087
   3   2.0000     -11.338797      -308.5444
   4   2.0000     -11.291852      -307.2669
   5   2.0000     -11.257199      -306.3240
   6   2.0000     -11.236310      -305.7555
   7   2.0000     -11.232431      -305.6500
   8   2.0000     -11.225602      -305.4642
   9   2.0000      -1.427238       -38.8371
  10   2.0000      -1.404267       -38.2121
  11   2.0000      -1.185218       -32.2514
  12   2.0000      -1.079983       -29.3878
  13   2.0000      -1.000959       -27.2375
  14   2.0000      -0.966815       -26.3084
  15   2.0000      -0.849646       -23.1201
  16   2.0000      -0.813339       -22.1321
  17   2.0000      -0.749571       -20.3969
  18   2.0000      -0.703809       -19.1516
  19   2.0000      -0.666707       -18.1420
  20   2.0000      -0.657749       -17.8983
  21   2.0000      -0.653003       -17.7691
  22   2.0000      -0.612648       -16.6710
  23   2.0000      -0.602860       -16.4047
  24   2.0000      -0.589831       -16.0501
  25   2.0000      -0.567028       -15.4296
  26   2.0000      -0.555984       -15.1291
  27   2.0000      -0.554787       -15.0965
  28   2.0000      -0.530650       -14.4397
  29   2.0000      -0.508176       -13.8282
  30   2.0000      -0.494528       -13.4568
  31   2.0000      -0.491851       -13.3839
  32   2.0000      -0.439970       -11.9722
  33   2.0000      -0.428727       -11.6662
  34   2.0000      -0.385323       -10.4852
  35   0.0000       0.112158         3.0520
  36   0.0000       0.133485         3.6323
  37   0.0000       0.145752         3.9661
  38   0.0000       0.154967         4.2169
  39   0.0000       0.174563         4.7501

MULLIKEN ATOMIC CHARGES
-----------------------
   0 C :   -0.390023
   1 C :   -0.228193
   2 C :    0.000661
   3 C :    0.053287
   4 O :   -0.255750
   5 C :    0.079879
   6 C :   -0.440188
   7 N :   -0.117790
   8 O :   -0.372734
   9 H :    0.133278
  10 H :    0.127499
  11 H :    0.139987
  12 H :    0.127695
  13 H :    0.126488
  14 H :    0.106024
  15 H :    0.088679
  16 H :    0.166018
  17 H :    0.164503
  18 H :    0.152056
  19 H :    0.338623
Sum of atomic charges:    0.0000000

LOEWDIN ATOMIC CHARGES
----------------------
   0 C :   -0.313279
   1 C :   -0.268379
   2 C :   -0.227539
   3 C :   -0.266337
   4 O :    0.139115
   5 C :   -0.279504
   6 C :   -0.277032
   7 N :    0.028570
   8 O :   -0.068919
   9 H :    0.123083
  10 H :    0.123017
  11 H :    0.123708
  12 H :    0.142761
  13 H :    0.144012
  14 H :    0.168852
  15 H :    0.118749
  16 H :    0.139757
  17 H :    0.137078
  18 H :    0.141191
  19 H :    0.171095

  Mayer bond orders larger than 0.1
B(  0-C ,  1-C ) :   0.9102 B(  0-C ,  9-H ) :   0.9367 B(  0-C , 10-H ) :   0.9345
B(  0-C , 11-H ) :   0.9425 B(  1-C ,  2-C ) :   0.9118 B(  1-C , 12-H ) :   0.9230
B(  1-C , 13-H ) :   0.9330 B(  2-C ,  3-C ) :   0.8070 B(  2-C ,  5-C ) :   0.9064
B(  2-C , 14-H ) :   0.9124 B(  3-C ,  4-O ) :   1.9853 B(  3-C , 15-H ) :   0.9309
B(  5-C ,  6-C ) :   0.9296 B(  5-C ,  7-N ) :   1.7893 B(  6-C , 16-H ) :   0.9238
B(  6-C , 17-H ) :   0.9263 B(  6-C , 18-H ) :   0.9189 B(  7-N ,  8-O ) :   0.8150
B(  8-O , 19-H ) :   0.8439

MP2 TOTAL ENERGY:     -439.534427074 Eh
FINAL SINGLE POINT ENERGY      -439.534427074453

DIPOLE MOMENT
-------------
                                X             Y             Z
Electronic contribution:      2.95372      -4.64190      -2.76453
Nuclear contribution   :     -3.16181       4.35956       3.56425
                        -----------------------------------------
Total Dipole Moment    :     -0.20810      -0.28234       0.79972
                        -----------------------------------------
Magnitude (a.u.)       :      0.87326
Magnitude (Debye)      :      2.21965

                             ****ORCA TERMINATED NORMALLY****
TOTAL RUN TIME: 0 days 0 hours 17 minutes 37 seconds 60 msec
