                         Program Version 3.0.3 - RELEASE   -
|  1> ! RI-MP2 RIJK def2-TZVP def2-TZVP/C def2-TZVP/JK TIGHTSCF
|  2> % maxcore 2000
|  3> % mp2 density relaxed end
|  4> *xyz 0 1
|  5>  C       -0.6012082790     1.4334721076     0.1405311246
|  6>  C        0.0309444765     0.0463425914     0.0150614225
|  7>  O       -0.9805088494    -0.9178359692    -0.2805674935
|  8>  C        1.1670617655    -0.0353942361    -1.0481140080
|  9>  C        2.1288086834    -1.0376666248    -0.4662465282
| 10>  C        1.8552363756    -1.3138901612     0.8075418992
| 11>  C        0.6836726087    -0.5080604427     1.3276330575
| 12>  C        1.1961808117     0.5729143430     2.2664024467
| 13>  O        0.8611116812     0.7002192168     3.4152358081
| 14>  H        0.1349167748     2.2042957416     0.3885637999
| 15>  H       -1.0654859403     1.7219202812    -0.8103014944
| 16>  H       -1.3771418196     1.4314495218     0.9110196407
| 17>  H       -1.4196386527    -0.6423218272    -1.0930536410
| 18>  H        0.7611761337    -0.3434557217    -2.0198157171
| 19>  H        1.6493932078     0.9388039573    -1.2058459096
| 20>  H        2.9399691602    -1.4740673311    -1.0383810093
| 21>  H        2.4105657455    -1.9941575852     1.4426000569
| 22>  H       -0.0549342776    -1.0990216658     1.8752750302
| 23>  H        1.9600579640     1.2471333041     1.8128156448
| 24> *
| 25>
| 26>                          ****END OF INPUT****

CARTESIAN COORDINATES (ANGSTROEM)
---------------------------------
  C     -0.601208    1.433472    0.140531
  C      0.030944    0.046343    0.015061
  O     -0.980509   -0.917836   -0.280567
  C      1.167062   -0.035394   -1.048114
  C      2.128809   -1.037667   -0.466247
  C      1.855236   -1.313890    0.807542
  C      0.683673   -0.508060    1.327633
  C      1.196181    0.572914    2.266402
  O      0.861112    0.700219    3.415236
  H      0.134917    2.204296    0.388564
  H     -1.065486    1.721920   -0.810301
  H     -1.377142    1.431450    0.911020
  H     -1.419639   -0.642322   -1.093054
  H      0.761176   -0.343456   -2.019816
  H      1.649393    0.938804   -1.205846
  H      2.939969   -1.474067   -1.038381
  H      2.410566   -1.994158    1.442600
  H     -0.054934   -1.099022    1.875275
  H      1.960058    1.247133    1.812816

 Total Charge           Charge          ....    0
 Multiplicity           Mult            ....    1
 Number of Electrons    NEL             ....   68
 Basis Dimension        Dim             ....  339

ORBITAL ENERGIES
----------------

  NO   OCC          E(Eh)            E(eV)
   0   2.0000     -20.563916      -559.5726
   1   2.0000     -20.556903      -559.3818
   2   2.0000     -11.330411      -308.3162
   3   2.0000     -11.307952      -307.7050
   4   2.0000     -11.244433      -305.9766
   5   2.0000     -11.242201      -305.9159
   6   2.0000     -11.241108      -305.8861
   7   2.0000     -11.238768      -305.8224
   8   2.0000     -11.232037      -305.6393
   9   2.0000      -1.395776       -37.9810
  10   2.0000      -1.374663       -37.4065
  11   2.0000      -1.148037       -31.2397
  12   2.0000      -1.023515       -27.8513
  13   2.0000      -1.003173       -27.2977
  14   2.0000      -0.922205       -25.0945
  15   2.0000      -0.840348       -22.8670
  16   2.0000      -0.771381       -20.9904
  17   2.0000      -0.754499       -20.5310
  18   2.0000      -0.697428       -18.9780
  19   2.0000      -0.676872       -18.4186
  20   2.0000      -0.651933       -17.7400
  21   2.0000      -0.626749       -17.0547
  22   2.0000      -0.605525       -16.4772
  23   2.0000      -0.602532       -16.3957
  24   2.0000      -0.586114       -15.9490
  25   2.0000      -0.557649       -15.1744
  26   2.0000      -0.531052       -14.4507
  27   2.0000      -0.527444       -14.3525
  28   2.0000      -0.520344       -14.1593
  29   2.0000      -0.509616       -13.8674
  30   2.0000      -0.465595       -12.6695
  31   2.0000      -0.447175       -12.1682
  32   2.0000      -0.423875       -11.5342
  33   2.0000      -0.363541        -9.8925
  34   0.0000       0.117306         3.1921
  35   0.0000       0.120693         3.2842
  36   0.0000       0.151686         4.1276
  37   0.0000       0.159948         4.3524
  38   0.0000       0.173683         4.7262

MULLIKEN ATOMIC CHARGES
-----------------------
   0 C :   -0.421986
   1 C :    0.156045
   2 O :   -0.463850
   3 C :   -0.228335
   4 C :   -0.148937
   5 C :   -0.264264
   6 C :    0.181990
   7 C :   -0.005854
   8 O :   -0.249936
   9 H :    0.127562
  10 H :    0.128560
  11 H :    0.162373
  12 H :    0.310689
  13 H :    0.111978
  14 H :    0.119512
  15 H :    0.132824
  16 H :    0.139878
  17 H :    0.123542
  18 H :    0.088207
Sum of atomic charges:   -0.0000000

LOEWDIN ATOMIC CHARGES
----------------------
   0 C :   -0.279086
   1 C :   -0.343861
   2 O :    0.014419
   3 C :   -0.206679
   4 C :   -0.146821
   5 C :   -0.131074
   6 C :   -0.186770
   7 C :   -0.270460
   8 O :    0.138963
   9 H :    0.128577
  10 H :    0.125936
  11 H :    0.134690
  12 H :    0.173469
  13 H :    0.140426
  14 H :    0.145507
  15 H :    0.138646
  16 H :    0.142275
  17 H :    0.167950
  18 H :    0.113894

  Mayer bond orders larger than 0.1
B(  0-C ,  1-C ) :   0.9471 B(  0-C ,  9-H ) :   0.9241 B(  0-C , 10-H ) :   0.9197
B(  0-C , 11-H ) :   0.9458 B(  1-C ,  2-O ) :   0.9244 B(  1-C ,  3-C ) :   0.9441
B(  1-C ,  6-C ) :   0.8062 B(  2-O , 12-H ) :   0.8416 B(  3-C ,  4-C ) :   0.9586
B(  3-C , 13-H ) :   0.9150 B(  3-C , 14-H ) :   0.8920 B(  4-C ,  5-C ) :   1.7790
B(  4-C , 15-H ) :   0.9271 B(  5-C ,  6-C ) :   0.8976 B(  5-C , 16-H ) :   0.9224
B(  6-C ,  7-C ) :   0.7675 B(  6-C , 17-H ) :   0.8923 B(  7-C ,  8-O ) :   2.0064
B(  7-C , 18-H ) :   0.9510

MP2 TOTAL ENERGY:     -422.337687391 Eh
FINAL SINGLE POINT ENERGY      -422.337687390575

DIPOLE MOMENT
-------------
                                X             Y             Z
Electronic contribution:      0.74335      -2.44860       4.76205
Nuclear contribution   :     -0.52316       2.72906      -6.19463
                        -----------------------------------------
Total Dipole Moment    :      0.22018       0.28046      -1.43258
                        -----------------------------------------
Magnitude (a.u.)       :      1.47629
Magnitude (Debye)      :      3.75244

                             ****ORCA TERMINATED NORMALLY****
TOTAL RUN TIME: 0 days 0 hours 17 minutes 42 seconds 597 msec
