                         Program Version 3.0.3 - RELEASE   -
|  1> ! RI-MP2 RIJK def2-TZVP def2-TZVP/C def2-TZVP/JK TIGHTSCF
|  2> % maxcore 2000
|  3> % mp2 density relaxed end
|  4> *xyz 0 1
|  5>  N       -0.0968384697     1.2239652924    -0.7485812431
|  6>  C        0.0574575160     0.0932630020    -0.2237047304
|  7>  C        1.1828370780    -0.8521423710     0.2381546941
|  8>  C        0.0476476749    -1.8142316424     0.6928058782
|  9>  C       -0.3196504066    -2.0320379676     2.1700488202
| 10>  C       -1.8384434887    -1.7479517346     2.1679299389
| 11>  C       -2.0118721563    -0.6454158303     1.1039269945
| 12>  O       -2.8485846321     0.2135395581     1.0585268009
| 13>  N       -0.9391518151    -0.8242509655     0.2126156382
| 14>  H        0.8045478932     1.6645803712    -0.9318611058
| 15>  H        1.8417915519    -1.2171022781    -0.5522472457
| 16>  H        1.7862152718    -0.4443897375     1.0533820168
| 17>  H        0.0080074366    -2.7484014902     0.1229945118
| 18>  H       -0.0613711559    -3.0282657222     2.5351806491
| 19>  H        0.1942326885    -1.2979204287     2.8008350165
| 20>  H       -2.4095366860    -2.6330025235     1.8621981314
| 21>  H       -2.2421036505    -1.4046401620     3.1211159644
| 22> *
| 23>
| 24>                          ****END OF INPUT****

CARTESIAN COORDINATES (ANGSTROEM)
---------------------------------
  N     -0.096838    1.223965   -0.748581
  C      0.057458    0.093263   -0.223705
  C      1.182837   -0.852142    0.238155
  C      0.047648   -1.814232    0.692806
  C     -0.319650   -2.032038    2.170049
  C     -1.838443   -1.747952    2.167930
  C     -2.011872   -0.645416    1.103927
  O     -2.848585    0.213540    1.058527
  N     -0.939152   -0.824251    0.212616
  H      0.804548    1.664580   -0.931861
  H      1.841792   -1.217102   -0.552247
  H      1.786215   -0.444390    1.053382
  H      0.008007   -2.748401    0.122995
  H     -0.061371   -3.028266    2.535181
  H      0.194233   -1.297920    2.800835
  H     -2.409537   -2.633003    1.862198
  H     -2.242104   -1.404640    3.121116

 Total Charge           Charge          ....    0
 Multiplicity           Mult            ....    1
 Number of Electrons    NEL             ....   66
 Basis Dimension        Dim             ....  327

ORBITAL ENERGIES
----------------

  NO   OCC          E(Eh)            E(eV)
   0   2.0000     -20.536866      -558.8365
   1   2.0000     -15.591337      -424.2618
   2   2.0000     -15.545048      -423.0023
   3   2.0000     -11.359260      -309.1012
   4   2.0000     -11.332133      -308.3630
   5   2.0000     -11.292331      -307.2799
   6   2.0000     -11.264828      -306.5316
   7   2.0000     -11.256207      -306.2970
   8   2.0000     -11.253897      -306.2341
   9   2.0000      -1.399226       -38.0749
  10   2.0000      -1.313335       -35.7377
  11   2.0000      -1.198714       -32.6187
  12   2.0000      -1.077915       -29.3315
  13   2.0000      -1.044806       -28.4306
  14   2.0000      -0.923479       -25.1291
  15   2.0000      -0.855994       -23.2928
  16   2.0000      -0.823308       -22.4033
  17   2.0000      -0.718616       -19.5545
  18   2.0000      -0.702506       -19.1162
  19   2.0000      -0.672705       -18.3052
  20   2.0000      -0.644409       -17.5353
  21   2.0000      -0.634236       -17.2584
  22   2.0000      -0.598745       -16.2927
  23   2.0000      -0.583742       -15.8844
  24   2.0000      -0.573913       -15.6170
  25   2.0000      -0.565968       -15.4008
  26   2.0000      -0.532290       -14.4844
  27   2.0000      -0.512306       -13.9405
  28   2.0000      -0.498823       -13.5737
  29   2.0000      -0.474297       -12.9063
  30   2.0000      -0.440380       -11.9833
  31   2.0000      -0.408647       -11.1199
  32   2.0000      -0.378151       -10.2900
  33   0.0000       0.120758         3.2860
  34   0.0000       0.135147         3.6775
  35   0.0000       0.139263         3.7895
  36   0.0000       0.149954         4.0805
  37   0.0000       0.156125         4.2484

MULLIKEN ATOMIC CHARGES
-----------------------
   0 N :   -0.316777
   1 C :    0.035624
   2 C :   -0.234505
   3 C :   -0.022528
   4 C :   -0.257347
   5 C :   -0.212714
   6 C :    0.181022
   7 O :   -0.272256
   8 N :   -0.069388
   9 H :    0.227554
  10 H :    0.145629
  11 H :    0.136466
  12 H :    0.118266
  13 H :    0.131894
  14 H :    0.124251
  15 H :    0.141154
  16 H :    0.143654
Sum of atomic charges:   -0.0000000

LOEWDIN ATOMIC CHARGES
----------------------
   0 N :   -0.028113
   1 C :   -0.319258
   2 C :   -0.188092
   3 C :   -0.206166
   4 C :   -0.230725
   5 C :   -0.214896
   6 C :   -0.389521
   7 O :    0.149160
   8 N :    0.248045
   9 H :    0.173078
  10 H :    0.140324
  11 H :    0.144067
  12 H :    0.142476
  13 H :    0.137258
  14 H :    0.142943
  15 H :    0.152073
  16 H :    0.147345

  Mayer bond orders larger than 0.1
B(  0-N ,  1-C ) :   2.0232 B(  0-N ,  9-H ) :   0.8433 B(  1-C ,  2-C ) :   0.9209
B(  1-C ,  8-N ) :   0.9781 B(  2-C ,  3-C ) :   0.9372 B(  2-C , 10-H ) :   0.9091
B(  2-C , 11-H ) :   0.8952 B(  3-C ,  4-C ) :   0.9318 B(  3-C ,  8-N ) :   0.9107
B(  3-C , 12-H ) :   0.9097 B(  4-C ,  5-C ) :   0.9210 B(  4-C , 13-H ) :   0.9315
B(  4-C , 14-H ) :   0.9185 B(  5-C ,  6-C ) :   0.9181 B(  5-C , 15-H ) :   0.9110
B(  5-C , 16-H ) :   0.9172 B(  6-C ,  7-O ) :   2.0437 B(  6-C ,  8-N ) :   0.9989

MP2 TOTAL ENERGY:     -417.326582721 Eh
FINAL SINGLE POINT ENERGY      -417.326582720553

DIPOLE MOMENT
-------------
                                X             Y             Z
Electronic contribution:     -3.91860       3.76708      -3.09669
Nuclear contribution   :      5.62870      -5.18505       3.74055
                        -----------------------------------------
Total Dipole Moment    :      1.71011      -1.41797       0.64386
                        -----------------------------------------
Magnitude (a.u.)       :      2.31293
Magnitude (Debye)      :      5.87901

                             ****ORCA TERMINATED NORMALLY****
TOTAL RUN TIME: 0 days 0 hours 17 minutes 52 seconds 364 msec
