                         Program Version 3.0.3 - RELEASE   -
|  1> ! RI-MP2 RIJK def2-TZVP def2-TZVP/C def2-TZVP/JK TIGHTSCF
|  2> % maxcore 2000
|  3> % mp2 density relaxed end
|  4> *xyz 0 1
|  5>  C       -0.0396061083     1.5153562452    -0.1208258178
|  6>  C        1.3039683122     0.8513996409     0.0201495064
|  7>  C        0.0353925594     0.0196054269     0.0399137908
|  8>  C        0.5190439344    -0.7503275801    -1.2227193614
|  9>  C        0.7937143419     0.1277880961    -2.3968415331
| 10>  C        1.7936653386     0.1052542232    -1.2525848982
| 11>  N        0.2457695535    -2.1460138131    -1.3180189544
| 12>  C        1.2503910082    -2.9992571482    -1.9410099740
| 13>  C        1.0358902503    -3.0414205014    -0.4689443796
| 14>  H       -0.3739816095     2.0360073148     0.7723560915
| 15>  H       -0.3649535207     1.9931113828    -1.0379509547
| 16>  H        1.9671464260     1.0689866948     0.8475935567
| 17>  H       -0.4183821487    -0.4998470541     0.8739561604
| 18>  H        1.1444904276    -0.4181177787    -3.2688428329
| 19>  H        0.1972034300     0.9970424392    -2.6547395885
| 20>  H        2.8299018638    -0.1628874493    -1.4164297149
| 21>  H        0.8641968226    -3.7867525607    -2.5812867893
| 22>  H        2.1730706181    -2.5383303337    -2.2882642879
| 23>  H        1.8097486885    -2.5968025219     0.1528173055
| 24>  H        0.4873650223    -3.8606825127    -0.0140938545
| 25> *
| 26>
| 27>                          ****END OF INPUT****

CARTESIAN COORDINATES (ANGSTROEM)
---------------------------------
  C     -0.039606    1.515356   -0.120826
  C      1.303968    0.851400    0.020150
  C      0.035393    0.019605    0.039914
  C      0.519044   -0.750328   -1.222719
  C      0.793714    0.127788   -2.396842
  C      1.793665    0.105254   -1.252585
  N      0.245770   -2.146014   -1.318019
  C      1.250391   -2.999257   -1.941010
  C      1.035890   -3.041421   -0.468944
  H     -0.373982    2.036007    0.772356
  H     -0.364954    1.993111   -1.037951
  H      1.967146    1.068987    0.847594
  H     -0.418382   -0.499847    0.873956
  H      1.144490   -0.418118   -3.268843
  H      0.197203    0.997042   -2.654740
  H      2.829902   -0.162887   -1.416430
  H      0.864197   -3.786753   -2.581287
  H      2.173071   -2.538330   -2.288264
  H      1.809749   -2.596803    0.152817
  H      0.487365   -3.860683   -0.014094

 Total Charge           Charge          ....    0
 Multiplicity           Mult            ....    1
 Number of Electrons    NEL             ....   66
 Basis Dimension        Dim             ....  345

ORBITAL ENERGIES
----------------

  NO   OCC          E(Eh)            E(eV)
   0   2.0000     -15.563057      -423.4923
   1   2.0000     -11.266229      -306.5697
   2   2.0000     -11.256317      -306.3000
   3   2.0000     -11.253863      -306.2332
   4   2.0000     -11.231977      -305.6376
   5   2.0000     -11.229371      -305.5667
   6   2.0000     -11.228225      -305.5355
   7   2.0000     -11.227609      -305.5188
   8   2.0000     -11.224578      -305.4363
   9   2.0000      -1.282345       -34.8944
  10   2.0000      -1.203157       -32.7396
  11   2.0000      -1.068642       -29.0792
  12   2.0000      -0.940216       -25.5846
  13   2.0000      -0.873690       -23.7743
  14   2.0000      -0.842891       -22.9362
  15   2.0000      -0.825121       -22.4527
  16   2.0000      -0.755789       -20.5661
  17   2.0000      -0.716097       -19.4860
  18   2.0000      -0.712351       -19.3841
  19   2.0000      -0.661470       -17.9995
  20   2.0000      -0.651784       -17.7360
  21   2.0000      -0.620151       -16.8752
  22   2.0000      -0.545856       -14.8535
  23   2.0000      -0.539496       -14.6804
  24   2.0000      -0.527059       -14.3420
  25   2.0000      -0.517410       -14.0794
  26   2.0000      -0.502842       -13.6830
  27   2.0000      -0.469651       -12.7798
  28   2.0000      -0.465162       -12.6577
  29   2.0000      -0.422036       -11.4842
  30   2.0000      -0.399412       -10.8685
  31   2.0000      -0.391186       -10.6447
  32   2.0000      -0.306897        -8.3511
  33   0.0000       0.144856         3.9417
  34   0.0000       0.157378         4.2825
  35   0.0000       0.165854         4.5131
  36   0.0000       0.177437         4.8283
  37   0.0000       0.189955         5.1689

MULLIKEN ATOMIC CHARGES
-----------------------
   0 C :   -0.244766
   1 C :   -0.122968
   2 C :   -0.191850
   3 C :    0.129945
   4 C :   -0.234302
   5 C :   -0.199031
   6 N :   -0.206484
   7 C :   -0.185648
   8 C :   -0.172387
   9 H :    0.127486
  10 H :    0.125508
  11 H :    0.132836
  12 H :    0.134613
  13 H :    0.130158
  14 H :    0.121859
  15 H :    0.140098
  16 H :    0.131956
  17 H :    0.124734
  18 H :    0.128765
  19 H :    0.129477
Sum of atomic charges:    0.0000000

LOEWDIN ATOMIC CHARGES
----------------------
   0 C :   -0.201320
   1 C :   -0.165260
   2 C :   -0.139020
   3 C :   -0.250125
   4 C :   -0.180359
   5 C :   -0.156414
   6 N :    0.144980
   7 C :   -0.258393
   8 C :   -0.252379
   9 H :    0.142086
  10 H :    0.128827
  11 H :    0.136922
  12 H :    0.141466
  13 H :    0.145614
  14 H :    0.127759
  15 H :    0.136262
  16 H :    0.125040
  17 H :    0.124204
  18 H :    0.126262
  19 H :    0.123849

  Mayer bond orders larger than 0.1
B(  0-C ,  1-C ) :   0.9099 B(  0-C ,  2-C ) :   0.9018 B(  0-C ,  9-H ) :   0.9301
B(  0-C , 10-H ) :   0.9068 B(  1-C ,  2-C ) :   0.8924 B(  1-C ,  5-C ) :   0.8878
B(  1-C , 11-H ) :   0.9258 B(  2-C ,  3-C ) :   0.8876 B(  2-C , 12-H ) :   0.9306
B(  3-C ,  4-C ) :   0.8984 B(  3-C ,  5-C ) :   0.8669 B(  3-C ,  6-N ) :   1.0129
B(  4-C ,  5-C ) :   0.8684 B(  4-C , 13-H ) :   0.9260 B(  4-C , 14-H ) :   0.9064
B(  5-C , 15-H ) :   0.9144 B(  6-N ,  7-C ) :   0.8739 B(  6-N ,  8-C ) :   0.8678
B(  7-C ,  8-C ) :   0.9431 B(  7-C , 16-H ) :   0.9267 B(  7-C , 17-H ) :   0.9246
B(  8-C , 18-H ) :   0.9175 B(  8-C , 19-H ) :   0.9282

MP2 TOTAL ENERGY:     -365.231515180 Eh
FINAL SINGLE POINT ENERGY      -365.231515180285

DIPOLE MOMENT
-------------
                                X             Y             Z
Electronic contribution:     -1.14751      -0.28078       0.12315
Nuclear contribution   :      1.65101       0.19780       0.03351
                        -----------------------------------------
Total Dipole Moment    :      0.50350      -0.08298       0.15665
                        -----------------------------------------
Magnitude (a.u.)       :      0.53380
Magnitude (Debye)      :      1.35680

                             ****ORCA TERMINATED NORMALLY****
TOTAL RUN TIME: 0 days 0 hours 18 minutes 4 seconds 440 msec
