                         Program Version 3.0.3 - RELEASE   -
|  1> ! RI-MP2 RIJK def2-TZVP def2-TZVP/C def2-TZVP/JK TIGHTSCF
|  2> % maxcore 2000
|  3> % mp2 density relaxed end
|  4> *xyz 0 1
|  5>  N       -0.0177364720     1.3459402165    -0.1690508976
|  6>  C       -0.0141633799    -0.0449403517    -0.0708552904
|  7>  N       -1.0906295347    -0.8101485672    -0.0695070278
|  8>  C       -0.6099891388    -2.0947691717    -0.0597774173
|  9>  O       -1.4496913177    -3.1591578493    -0.0531637182
| 10>  C        0.7560604898    -2.1364252986    -0.0393912965
| 11>  N        1.7373198420    -3.1435913408     0.0025181136
| 12>  N        1.1230332164    -0.7749599677    -0.0460223644
| 13>  H        0.5554772989     1.8018592225     0.5314227569
| 14>  H       -0.9693674668     1.6853236584    -0.1031654147
| 15>  H       -2.3417332088    -2.7929607737    -0.0581838258
| 16>  H        1.7201407858    -3.7304341130    -0.8252825170
| 17>  H        1.6253793320    -3.7528350149     0.8061698371
| 18>  H        2.0690150739    -0.4426890688    -0.1250657779
| 19> *
| 20>
| 21>                          ****END OF INPUT****

CARTESIAN COORDINATES (ANGSTROEM)
---------------------------------
  N     -0.017736    1.345940   -0.169051
  C     -0.014163   -0.044940   -0.070855
  N     -1.090630   -0.810149   -0.069507
  C     -0.609989   -2.094769   -0.059777
  O     -1.449691   -3.159158   -0.053164
  C      0.756060   -2.136425   -0.039391
  N      1.737320   -3.143591    0.002518
  N      1.123033   -0.774960   -0.046022
  H      0.555477    1.801859    0.531423
  H     -0.969367    1.685324   -0.103165
  H     -2.341733   -2.792961   -0.058184
  H      1.720141   -3.730434   -0.825283
  H      1.625379   -3.752835    0.806170
  H      2.069015   -0.442689   -0.125066

 Total Charge           Charge          ....    0
 Multiplicity           Mult            ....    1
 Number of Electrons    NEL             ....   60
 Basis Dimension        Dim             ....  284

ORBITAL ENERGIES
----------------

  NO   OCC          E(Eh)            E(eV)
   0   2.0000     -20.575310      -559.8827
   1   2.0000     -15.600179      -424.5025
   2   2.0000     -15.579568      -423.9416
   3   2.0000     -15.555810      -423.2951
   4   2.0000     -15.532196      -422.6525
   5   2.0000     -11.335623      -308.4580
   6   2.0000     -11.295060      -307.3542
   7   2.0000     -11.261954      -306.4533
   8   2.0000      -1.401804       -38.1450
   9   2.0000      -1.339491       -36.4494
  10   2.0000      -1.217265       -33.1235
  11   2.0000      -1.180034       -32.1104
  12   2.0000      -1.147400       -31.2223
  13   2.0000      -0.953655       -25.9503
  14   2.0000      -0.824468       -22.4349
  15   2.0000      -0.799273       -21.7493
  16   2.0000      -0.753419       -20.5016
  17   2.0000      -0.691900       -18.8276
  18   2.0000      -0.674100       -18.3432
  19   2.0000      -0.663742       -18.0613
  20   2.0000      -0.638367       -17.3709
  21   2.0000      -0.609575       -16.5874
  22   2.0000      -0.606022       -16.4907
  23   2.0000      -0.560688       -15.2571
  24   2.0000      -0.547039       -14.8857
  25   2.0000      -0.468030       -12.7357
  26   2.0000      -0.462533       -12.5862
  27   2.0000      -0.412179       -11.2160
  28   2.0000      -0.388136       -10.5617
  29   2.0000      -0.277809        -7.5596
  30   0.0000       0.124081         3.3764
  31   0.0000       0.141707         3.8561
  32   0.0000       0.165259         4.4969
  33   0.0000       0.170814         4.6481
  34   0.0000       0.190030         5.1710

MULLIKEN ATOMIC CHARGES
-----------------------
   0 N :   -0.520262
   1 C :    0.305869
   2 N :   -0.353441
   3 C :    0.187598
   4 O :   -0.452338
   5 C :    0.050587
   6 N :   -0.548183
   7 N :   -0.280521
   8 H :    0.250128
   9 H :    0.263712
  10 H :    0.338769
  11 H :    0.255357
  12 H :    0.255061
  13 H :    0.247664
Sum of atomic charges:   -0.0000000

LOEWDIN ATOMIC CHARGES
----------------------
   0 N :   -0.091962
   1 C :   -0.432904
   2 N :    0.077265
   3 C :   -0.404328
   4 O :    0.052737
   5 C :   -0.343459
   6 N :   -0.122900
   7 N :    0.195866
   8 H :    0.167482
   9 H :    0.177902
  10 H :    0.196585
  11 H :    0.167439
  12 H :    0.167588
  13 H :    0.192690

  Mayer bond orders larger than 0.1
B(  0-N ,  1-C ) :   1.0454 B(  0-N ,  8-H ) :   0.8726 B(  0-N ,  9-H ) :   0.8738
B(  1-C ,  2-N ) :   1.5373 B(  1-C ,  7-N ) :   1.2246 B(  2-N ,  3-C ) :   1.2521
B(  3-C ,  4-O ) :   1.1086 B(  3-C ,  5-C ) :   1.5308 B(  4-O , 10-H ) :   0.8223
B(  5-C ,  6-N ) :   1.0853 B(  5-C ,  7-N ) :   1.0338 B(  6-N , 11-H ) :   0.8866
B(  6-N , 12-H ) :   0.8879 B(  7-N , 13-H ) :   0.8586

MP2 TOTAL ENERGY:     -411.416796107 Eh
FINAL SINGLE POINT ENERGY      -411.416796106558

DIPOLE MOMENT
-------------
                                X             Y             Z
Electronic contribution:     -1.68274      -0.47719      -0.15241
Nuclear contribution   :      2.20413       0.92457       0.53809
                        -----------------------------------------
Total Dipole Moment    :      0.52139       0.44738       0.38568
                        -----------------------------------------
Magnitude (a.u.)       :      0.78788
Magnitude (Debye)      :      2.00262

                             ****ORCA TERMINATED NORMALLY****
TOTAL RUN TIME: 0 days 0 hours 9 minutes 54 seconds 766 msec
