                         Program Version 3.0.3 - RELEASE   -
|  1> ! RI-MP2 RIJK def2-TZVP def2-TZVP/C def2-TZVP/JK TIGHTSCF
|  2> % maxcore 2000
|  3> % mp2 density relaxed end
|  4> *xyz 0 1
|  5>  C        0.1205321169     1.5196189961    -0.1727140959
|  6>  C        0.0796713253    -0.0068305011    -0.0619711701
|  7>  C        0.6936341920    -0.5336518073     1.2265820431
|  8>  C        0.6876875215    -2.0708209823     1.3923200460
|  9>  C        1.9937103653    -2.3462334111     2.1454230351
| 10>  O        1.9487811835    -3.0532388537     3.3468215047
| 11>  C        3.2759890452    -2.3137926525     1.3391554585
| 12>  C        2.7762679365    -1.0760271178     2.0592375968
| 13>  O        2.0821945953    -0.1452833811     1.2781977567
| 14>  H        1.1509183314     1.8805921261    -0.1231063400
| 15>  H       -0.3181481372     1.8582407559    -1.1161830586
| 16>  H       -0.4391359684     1.9895792660     0.6437044100
| 17>  H       -0.9574753331    -0.3619711714    -0.1143711162
| 18>  H        0.6131094681    -0.4603644603    -0.9069132275
| 19>  H        0.1789996091    -0.0804299456     2.0899888532
| 20>  H       -0.1624967609    -2.4109072966     1.9883649987
| 21>  H        0.6506025048    -2.5746092465     0.4193772622
| 22>  H        1.9780071742    -3.9936882925     3.1396779635
| 23>  H        4.1330418924    -2.8154006821     1.7775417150
| 24>  H        3.2214023826    -2.3250905946     0.2554541076
| 25>  H        3.3269563454    -0.6717248075     2.9025954469
| 26> *
| 27>
| 28>                          ****END OF INPUT****

CARTESIAN COORDINATES (ANGSTROEM)
---------------------------------
  C      0.120532    1.519619   -0.172714
  C      0.079671   -0.006831   -0.061971
  C      0.693634   -0.533652    1.226582
  C      0.687688   -2.070821    1.392320
  C      1.993710   -2.346233    2.145423
  O      1.948781   -3.053239    3.346822
  C      3.275989   -2.313793    1.339155
  C      2.776268   -1.076027    2.059238
  O      2.082195   -0.145283    1.278198
  H      1.150918    1.880592   -0.123106
  H     -0.318148    1.858241   -1.116183
  H     -0.439136    1.989579    0.643704
  H     -0.957475   -0.361971   -0.114371
  H      0.613109   -0.460364   -0.906913
  H      0.179000   -0.080430    2.089989
  H     -0.162497   -2.410907    1.988365
  H      0.650603   -2.574609    0.419377
  H      1.978007   -3.993688    3.139678
  H      4.133042   -2.815401    1.777542
  H      3.221402   -2.325091    0.255454
  H      3.326956   -0.671725    2.902595

 Total Charge           Charge          ....    0
 Multiplicity           Mult            ....    1
 Number of Electrons    NEL             ....   70
 Basis Dimension        Dim             ....  351

ORBITAL ENERGIES
----------------

  NO   OCC          E(Eh)            E(eV)
   0   2.0000     -20.568856      -559.7070
   1   2.0000     -20.551951      -559.2470
   2   2.0000     -11.288256      -307.1691
   3   2.0000     -11.278925      -306.9151
   4   2.0000     -11.274946      -306.8069
   5   2.0000     -11.228413      -305.5406
   6   2.0000     -11.227238      -305.5087
   7   2.0000     -11.220622      -305.3286
   8   2.0000     -11.208080      -304.9874
   9   2.0000      -1.391194       -37.8563
  10   2.0000      -1.369554       -37.2674
  11   2.0000      -1.120823       -30.4991
  12   2.0000      -1.065678       -28.9986
  13   2.0000      -0.993122       -27.0242
  14   2.0000      -0.881497       -23.9867
  15   2.0000      -0.824070       -22.4241
  16   2.0000      -0.798112       -21.7177
  17   2.0000      -0.774349       -21.0711
  18   2.0000      -0.715194       -19.4614
  19   2.0000      -0.660007       -17.9597
  20   2.0000      -0.650673       -17.7057
  21   2.0000      -0.615877       -16.7589
  22   2.0000      -0.603576       -16.4241
  23   2.0000      -0.589413       -16.0387
  24   2.0000      -0.577892       -15.7253
  25   2.0000      -0.562763       -15.3136
  26   2.0000      -0.544645       -14.8205
  27   2.0000      -0.522112       -14.2074
  28   2.0000      -0.508369       -13.8334
  29   2.0000      -0.498265       -13.5585
  30   2.0000      -0.481475       -13.1016
  31   2.0000      -0.461736       -12.5645
  32   2.0000      -0.438179       -11.9234
  33   2.0000      -0.399030       -10.8582
  34   2.0000      -0.379974       -10.3396
  35   0.0000       0.137138         3.7317
  36   0.0000       0.144497         3.9320
  37   0.0000       0.161906         4.4057
  38   0.0000       0.173415         4.7189
  39   0.0000       0.179236         4.8773

MULLIKEN ATOMIC CHARGES
-----------------------
   0 C :   -0.393201
   1 C :   -0.184457
   2 C :    0.025953
   3 C :   -0.207750
   4 C :    0.161683
   5 O :   -0.453281
   6 C :   -0.332475
   7 C :    0.058871
   8 O :   -0.309345
   9 H :    0.146447
  10 H :    0.130649
  11 H :    0.117813
  12 H :    0.108507
  13 H :    0.103418
  14 H :    0.079291
  15 H :    0.123939
  16 H :    0.111628
  17 H :    0.325884
  18 H :    0.134004
  19 H :    0.128930
  20 H :    0.123492
Sum of atomic charges:   -0.0000000

LOEWDIN ATOMIC CHARGES
----------------------
   0 C :   -0.316849
   1 C :   -0.278474
   2 C :   -0.287071
   3 C :   -0.196301
   4 C :   -0.352467
   5 O :    0.023462
   6 C :   -0.195910
   7 C :   -0.261482
   8 O :    0.198694
   9 H :    0.126669
  10 H :    0.119793
  11 H :    0.120596
  12 H :    0.140761
  13 H :    0.138468
  14 H :    0.139607
  15 H :    0.144504
  16 H :    0.139366
  17 H :    0.182778
  18 H :    0.138450
  19 H :    0.136027
  20 H :    0.139378

  Mayer bond orders larger than 0.1
B(  0-C ,  1-C ) :   0.9258 B(  0-C ,  9-H ) :   0.9367 B(  0-C , 10-H ) :   0.9408
B(  0-C , 11-H ) :   0.9368 B(  1-C ,  2-C ) :   0.9291 B(  1-C , 12-H ) :   0.9302
B(  1-C , 13-H ) :   0.9264 B(  2-C ,  3-C ) :   0.9456 B(  2-C ,  8-O ) :   0.9266
B(  2-C , 14-H ) :   0.9235 B(  3-C ,  4-C ) :   0.9332 B(  3-C , 15-H ) :   0.9093
B(  3-C , 16-H ) :   0.9045 B(  4-C ,  5-O ) :   1.0360 B(  4-C ,  6-C ) :   0.9073
B(  4-C ,  7-C ) :   0.8693 B(  5-O , 17-H ) :   0.8383 B(  6-C ,  7-C ) :   0.8623
B(  6-C , 18-H ) :   0.9156 B(  6-C , 19-H ) :   0.8956 B(  7-C ,  8-O ) :   0.9906
B(  7-C , 20-H ) :   0.9291

MP2 TOTAL ENERGY:     -423.510168377 Eh
FINAL SINGLE POINT ENERGY      -423.510168377111

DIPOLE MOMENT
-------------
                                X             Y             Z
Electronic contribution:      4.17304      -3.94493       5.23730
Nuclear contribution   :     -4.44230       3.21665      -5.52813
                        -----------------------------------------
Total Dipole Moment    :     -0.26926      -0.72828      -0.29083
                        -----------------------------------------
Magnitude (a.u.)       :      0.82914
Magnitude (Debye)      :      2.10751

                             ****ORCA TERMINATED NORMALLY****
TOTAL RUN TIME: 0 days 0 hours 28 minutes 7 seconds 226 msec
