                         Program Version 3.0.3 - RELEASE   -
|  1> ! RI-MP2 RIJK def2-TZVP def2-TZVP/C def2-TZVP/JK TIGHTSCF
|  2> % maxcore 2000
|  3> % mp2 density relaxed end
|  4> *xyz 0 1
|  5>  C       -0.1941026651     1.5371310076    -0.0851474889
|  6>  C        0.0607628120     0.0506890295     0.0228816102
|  7>  O        1.1396806676    -0.4571635449    -0.8289987717
|  8>  C        1.6746534133    -1.2030354298     0.2483775809
|  9>  C        2.2054851735    -0.2944294626     1.3370795219
| 10>  C        2.8166290295     0.9800341365     1.0809858103
| 11>  N        3.3312866618     1.9996429495     0.8958690782
| 12>  C        0.7093742343    -0.6174332896     1.2514686770
| 13>  N        0.0824733188    -1.2116060306     2.3749882287
| 14>  H        0.6921826864     2.1249332146     0.1557222416
| 15>  H       -0.5108355237     1.7877664959    -1.1023852425
| 16>  H       -1.0045057841     1.8194168447     0.5962458618
| 17>  H       -0.8522709919    -0.5111379357    -0.2246383493
| 18>  H        2.0522929803    -2.2016131551     0.0636819607
| 19>  H        2.6558299930    -0.8446299014     2.1588272342
| 20>  H       -0.1896467250    -0.5160036737     3.0629257711
| 21>  H       -0.7486607106    -1.7287694451     2.1057226759
| 22> *
| 23>
| 24>                          ****END OF INPUT****

CARTESIAN COORDINATES (ANGSTROEM)
---------------------------------
  C     -0.194103    1.537131   -0.085147
  C      0.060763    0.050689    0.022882
  O      1.139681   -0.457164   -0.828999
  C      1.674653   -1.203035    0.248378
  C      2.205485   -0.294429    1.337080
  C      2.816629    0.980034    1.080986
  N      3.331287    1.999643    0.895869
  C      0.709374   -0.617433    1.251469
  N      0.082473   -1.211606    2.374988
  H      0.692183    2.124933    0.155722
  H     -0.510836    1.787766   -1.102385
  H     -1.004506    1.819417    0.596246
  H     -0.852271   -0.511138   -0.224638
  H      2.052293   -2.201613    0.063682
  H      2.655830   -0.844630    2.158827
  H     -0.189647   -0.516004    3.062926
  H     -0.748661   -1.728769    2.105723

 Total Charge           Charge          ....    0
 Multiplicity           Mult            ....    1
 Number of Electrons    NEL             ....   66
 Basis Dimension        Dim             ....  327

ORBITAL ENERGIES
----------------

  NO   OCC          E(Eh)            E(eV)
   0   2.0000     -20.575894      -559.8985
   1   2.0000     -15.580318      -423.9620
   2   2.0000     -15.566209      -423.5781
   3   2.0000     -11.317747      -307.9716
   4   2.0000     -11.309482      -307.7467
   5   2.0000     -11.305215      -307.6305
   6   2.0000     -11.288652      -307.1798
   7   2.0000     -11.273295      -306.7620
   8   2.0000     -11.227231      -305.5085
   9   2.0000      -1.419591       -38.6290
  10   2.0000      -1.233287       -33.5595
  11   2.0000      -1.213396       -33.0182
  12   2.0000      -1.120480       -30.4898
  13   2.0000      -1.036913       -28.2158
  14   2.0000      -0.925656       -25.1884
  15   2.0000      -0.876690       -23.8559
  16   2.0000      -0.774183       -21.0666
  17   2.0000      -0.743470       -20.2309
  18   2.0000      -0.713948       -19.4275
  19   2.0000      -0.687263       -18.7014
  20   2.0000      -0.638054       -17.3623
  21   2.0000      -0.618826       -16.8391
  22   2.0000      -0.613275       -16.6880
  23   2.0000      -0.570705       -15.5297
  24   2.0000      -0.557153       -15.1609
  25   2.0000      -0.541781       -14.7426
  26   2.0000      -0.536393       -14.5960
  27   2.0000      -0.529862       -14.4183
  28   2.0000      -0.481519       -13.1028
  29   2.0000      -0.464236       -12.6325
  30   2.0000      -0.446335       -12.1454
  31   2.0000      -0.415721       -11.3123
  32   2.0000      -0.385004       -10.4765
  33   0.0000       0.111703         3.0396
  34   0.0000       0.145846         3.9687
  35   0.0000       0.154176         4.1953
  36   0.0000       0.157996         4.2993
  37   0.0000       0.173689         4.7263

MULLIKEN ATOMIC CHARGES
-----------------------
   0 C :   -0.399352
   1 C :    0.109373
   2 O :   -0.321638
   3 C :    0.091346
   4 C :   -0.088999
   5 C :   -0.158319
   6 N :   -0.059614
   7 C :    0.031198
   8 N :   -0.540518
   9 H :    0.168312
  10 H :    0.146329
  11 H :    0.124775
  12 H :    0.089155
  13 H :    0.150159
  14 H :    0.160904
  15 H :    0.252256
  16 H :    0.244634
Sum of atomic charges:    0.0000000

LOEWDIN ATOMIC CHARGES
----------------------
   0 C :   -0.287021
   1 C :   -0.250914
   2 O :    0.183866
   3 C :   -0.197202
   4 C :   -0.164087
   5 C :   -0.177990
   6 N :    0.061930
   7 C :   -0.268211
   8 N :   -0.103837
   9 H :    0.136499
  10 H :    0.134003
  11 H :    0.131324
  12 H :    0.144900
  13 H :    0.138858
  14 H :    0.185053
  15 H :    0.167956
  16 H :    0.164874

  Mayer bond orders larger than 0.1
B(  0-C ,  1-C ) :   0.9257 B(  0-C ,  9-H ) :   0.9283 B(  0-C , 10-H ) :   0.9279
B(  0-C , 11-H ) :   0.9248 B(  1-C ,  2-O ) :   0.8909 B(  1-C ,  7-C ) :   0.9437
B(  1-C , 12-H ) :   0.9026 B(  2-O ,  3-C ) :   1.0127 B(  3-C ,  4-C ) :   0.8528
B(  3-C ,  7-C ) :   0.8798 B(  3-C , 13-H ) :   0.9132 B(  4-C ,  5-C ) :   0.9697
B(  4-C ,  7-C ) :   0.8403 B(  4-C , 14-H ) :   0.9043 B(  5-C ,  6-N ) :   2.8261
B(  7-C ,  8-N ) :   1.0478 B(  8-N , 15-H ) :   0.8769 B(  8-N , 16-H ) :   0.8813

MP2 TOTAL ENERGY:     -417.267225519 Eh
FINAL SINGLE POINT ENERGY      -417.267225519057

DIPOLE MOMENT
-------------
                                X             Y             Z
Electronic contribution:      5.89726      -0.48857      -0.51871
Nuclear contribution   :     -7.43386      -0.61981       1.19944
                        -----------------------------------------
Total Dipole Moment    :     -1.53660      -1.10838       0.68073
                        -----------------------------------------
Magnitude (a.u.)       :      2.01322
Magnitude (Debye)      :      5.11719

                             ****ORCA TERMINATED NORMALLY****
TOTAL RUN TIME: 0 days 0 hours 17 minutes 16 seconds 288 msec
