                         Program Version 3.0.3 - RELEASE   -
|  1> ! RI-MP2 RIJK def2-TZVP def2-TZVP/C def2-TZVP/JK TIGHTSCF
|  2> % maxcore 2000
|  3> % mp2 density relaxed end
|  4> *xyz 0 1
|  5>  C        0.0964993414     1.4929554674    -0.4746740100
|  6>  C        0.0528394155     0.0315940608    -0.0821449189
|  7>  C        1.2997172213    -0.7722813025     0.0698112299
|  8>  N        0.4687682246    -0.4657275880     1.2307444614
|  9>  C        1.0057016384     0.4520365836     2.2291985435
| 10>  C        1.7154910719    -0.3308106348     3.3358673600
| 11>  C        2.2687134928     0.5727419099     4.4404190498
| 12>  C        2.9743185277    -0.2053772360     5.5428747517
| 13>  O        3.4486039933     0.7261885120     6.5044842516
| 14>  H        1.0297395589     1.9796200552    -0.1820152790
| 15>  H        0.0019881852     1.5868389326    -1.5617845373
| 16>  H       -0.7329549716     2.0491573027    -0.0235124534
| 17>  H       -0.8306457100    -0.4874696473    -0.4536523394
| 18>  H        1.3417170414    -1.8154078488    -0.2338836665
| 19>  H        2.2426521645    -0.2338305841    -0.0335558101
| 20>  H        1.7055753087     1.1934027150     1.8070000595
| 21>  H        0.1661984368     1.0143158248     2.6575641185
| 22>  H        1.0093714579    -1.0583443191     3.7536497567
| 23>  H        2.5307208331    -0.9149443285     2.8881224405
| 24>  H        2.9783823582     1.2974513308     4.0219832868
| 25>  H        1.4592381976     1.1577772406     4.8946983315
| 26>  H        2.2730478304    -0.9247235494     5.9969440855
| 27>  H        3.8040743167    -0.7899480711     5.1119178270
| 28>  H        3.8865253554     0.2363733542     7.2064225106
| 29> *
| 30>
| 31>                          ****END OF INPUT****

CARTESIAN COORDINATES (ANGSTROEM)
---------------------------------
  C      0.096499    1.492955   -0.474674
  C      0.052839    0.031594   -0.082145
  C      1.299717   -0.772281    0.069811
  N      0.468768   -0.465728    1.230744
  C      1.005702    0.452037    2.229199
  C      1.715491   -0.330811    3.335867
  C      2.268713    0.572742    4.440419
  C      2.974319   -0.205377    5.542875
  O      3.448604    0.726189    6.504484
  H      1.029740    1.979620   -0.182015
  H      0.001988    1.586839   -1.561785
  H     -0.732955    2.049157   -0.023512
  H     -0.830646   -0.487470   -0.453652
  H      1.341717   -1.815408   -0.233884
  H      2.242652   -0.233831   -0.033556
  H      1.705575    1.193403    1.807000
  H      0.166198    1.014316    2.657564
  H      1.009371   -1.058344    3.753650
  H      2.530721   -0.914944    2.888122
  H      2.978382    1.297451    4.021983
  H      1.459238    1.157777    4.894698
  H      2.273048   -0.924724    5.996944
  H      3.804074   -0.789948    5.111918
  H      3.886525    0.236373    7.206423

 Total Charge           Charge          ....    0
 Multiplicity           Mult            ....    1
 Number of Electrons    NEL             ....   72
 Basis Dimension        Dim             ....  369

ORBITAL ENERGIES
----------------

  NO   OCC          E(Eh)            E(eV)
   0   2.0000     -20.551714      -559.2406
   1   2.0000     -15.549734      -423.1298
   2   2.0000     -11.271485      -306.7127
   3   2.0000     -11.255883      -306.2881
   4   2.0000     -11.246354      -306.0288
   5   2.0000     -11.246208      -306.0249
   6   2.0000     -11.221745      -305.3592
   7   2.0000     -11.215472      -305.1885
   8   2.0000     -11.214561      -305.1637
   9   2.0000      -1.355462       -36.8840
  10   2.0000      -1.266267       -34.4569
  11   2.0000      -1.072385       -29.1811
  12   2.0000      -1.005068       -27.3493
  13   2.0000      -0.969759       -26.3885
  14   2.0000      -0.887700       -24.1555
  15   2.0000      -0.819914       -22.3110
  16   2.0000      -0.794728       -21.6257
  17   2.0000      -0.767298       -20.8792
  18   2.0000      -0.690377       -18.7861
  19   2.0000      -0.670790       -18.2531
  20   2.0000      -0.653843       -17.7920
  21   2.0000      -0.636336       -17.3156
  22   2.0000      -0.608727       -16.5643
  23   2.0000      -0.585158       -15.9229
  24   2.0000      -0.571287       -15.5455
  25   2.0000      -0.550162       -14.9707
  26   2.0000      -0.533078       -14.5058
  27   2.0000      -0.517979       -14.0949
  28   2.0000      -0.507422       -13.8077
  29   2.0000      -0.500991       -13.6327
  30   2.0000      -0.476845       -12.9756
  31   2.0000      -0.469445       -12.7743
  32   2.0000      -0.445647       -12.1267
  33   2.0000      -0.440064       -11.9748
  34   2.0000      -0.430413       -11.7121
  35   2.0000      -0.360978        -9.8227
  36   0.0000       0.136019         3.7013
  37   0.0000       0.141575         3.8524
  38   0.0000       0.155794         4.2394
  39   0.0000       0.171768         4.6740
  40   0.0000       0.172595         4.6965

MULLIKEN ATOMIC CHARGES
-----------------------
   0 C :   -0.390530
   1 C :   -0.017914
   2 C :   -0.200676
   3 N :   -0.211621
   4 C :   -0.152625
   5 C :   -0.224271
   6 C :   -0.167691
   7 C :   -0.064980
   8 O :   -0.466879
   9 H :    0.126240
  10 H :    0.139997
  11 H :    0.132945
  12 H :    0.114698
  13 H :    0.126202
  14 H :    0.113215
  15 H :    0.089573
  16 H :    0.115605
  17 H :    0.114902
  18 H :    0.106816
  19 H :    0.108788
  20 H :    0.110300
  21 H :    0.092859
  22 H :    0.090536
  23 H :    0.314510
Sum of atomic charges:   -0.0000000

LOEWDIN ATOMIC CHARGES
----------------------
   0 C :   -0.302759
   1 C :   -0.283434
   2 C :   -0.253251
   3 N :    0.107733
   4 C :   -0.296015
   5 C :   -0.266178
   6 C :   -0.272579
   7 C :   -0.353764
   8 O :   -0.054292
   9 H :    0.123299
  10 H :    0.130040
  11 H :    0.126296
  12 H :    0.140151
  13 H :    0.121942
  14 H :    0.123031
  15 H :    0.121086
  16 H :    0.134327
  17 H :    0.139804
  18 H :    0.137126
  19 H :    0.138854
  20 H :    0.139926
  21 H :    0.114183
  22 H :    0.113488
  23 H :    0.170987

  Mayer bond orders larger than 0.1
B(  0-C ,  1-C ) :   0.9125 B(  0-C ,  9-H ) :   0.9358 B(  0-C , 10-H ) :   0.9319
B(  0-C , 11-H ) :   0.9373 B(  1-C ,  2-C ) :   0.9429 B(  1-C ,  3-N ) :   0.8967
B(  1-C , 12-H ) :   0.9246 B(  2-C ,  3-N ) :   0.8865 B(  2-C , 13-H ) :   0.9214
B(  2-C , 14-H ) :   0.9170 B(  3-N ,  4-C ) :   0.9144 B(  4-C ,  5-C ) :   0.9563
B(  4-C , 15-H ) :   0.9331 B(  4-C , 16-H ) :   0.9207 B(  5-C ,  6-C ) :   0.9217
B(  5-C , 17-H ) :   0.9228 B(  5-C , 18-H ) :   0.9214 B(  6-C ,  7-C ) :   0.9412
B(  6-C , 19-H ) :   0.9211 B(  6-C , 20-H ) :   0.9244 B(  7-C ,  8-O ) :   1.0222
B(  7-C , 21-H ) :   0.9335 B(  7-C , 22-H ) :   0.9341 B(  8-O , 23-H ) :   0.8501

MP2 TOTAL ENERGY:     -404.824095439 Eh
FINAL SINGLE POINT ENERGY      -404.824095438950

DIPOLE MOMENT
-------------
                                X             Y             Z
Electronic contribution:      0.35286      -1.59608       2.96048
Nuclear contribution   :     -0.07529       1.38011      -3.16857
                        -----------------------------------------
Total Dipole Moment    :      0.27757      -0.21597      -0.20810
                        -----------------------------------------
Magnitude (a.u.)       :      0.40865
Magnitude (Debye)      :      1.03870

                             ****ORCA TERMINATED NORMALLY****
TOTAL RUN TIME: 0 days 0 hours 16 minutes 17 seconds 536 msec
