                         Program Version 3.0.3 - RELEASE   -
|  1> ! RI-MP2 RIJK def2-TZVP def2-TZVP/C def2-TZVP/JK TIGHTSCF
|  2> % maxcore 2000
|  3> % mp2 density relaxed end
|  4> *xyz 0 1
|  5>  O        0.0872197312     0.6860041184    -1.5713460257
|  6>  C        0.1007866501     1.4554176111    -0.6392850224
|  7>  N        1.1714600511     1.6987062740     0.1807894090
|  8>  C        2.4072657957     1.0134815743     0.1128399233
|  9>  C        2.9789958775    -0.0677323115     1.0185667869
| 10>  N        4.3440276825     0.2255656785     0.4265113946
| 11>  C        4.1489946717    -0.2425287721    -1.0093384309
| 12>  C        3.1847660688     0.9073078962    -1.2154287800
| 13>  C        3.7902294546     1.5945361779    -0.0283446706
| 14>  H       -0.7716545152     2.0757431404    -0.3496676866
| 15>  H        1.0183993150     2.3266334642     0.9562674391
| 16>  H        2.9718121509     0.2196506181     2.0742386062
| 17>  H        2.6436739278    -1.1051028238     0.9123781736
| 18>  H        5.0846633800    -0.1171536824    -1.5597134339
| 19>  H        3.7934333410    -1.2734742180    -1.1090773903
| 20>  H        2.7717167522     1.3337583458    -2.1191198540
| 21>  H        4.2297355649     2.5619070390     0.1688888417
| 22> *
| 23>
| 24>                          ****END OF INPUT****

CARTESIAN COORDINATES (ANGSTROEM)
---------------------------------
  O      0.087220    0.686004   -1.571346
  C      0.100787    1.455418   -0.639285
  N      1.171460    1.698706    0.180789
  C      2.407266    1.013482    0.112840
  C      2.978996   -0.067732    1.018567
  N      4.344028    0.225566    0.426511
  C      4.148995   -0.242529   -1.009338
  C      3.184766    0.907308   -1.215429
  C      3.790229    1.594536   -0.028345
  H     -0.771655    2.075743   -0.349668
  H      1.018399    2.326633    0.956267
  H      2.971812    0.219651    2.074239
  H      2.643674   -1.105103    0.912378
  H      5.084663   -0.117154   -1.559713
  H      3.793433   -1.273474   -1.109077
  H      2.771717    1.333758   -2.119120
  H      4.229736    2.561907    0.168889

 Total Charge           Charge          ....    0
 Multiplicity           Mult            ....    1
 Number of Electrons    NEL             ....   66
 Basis Dimension        Dim             ....  327

ORBITAL ENERGIES
----------------

  NO   OCC          E(Eh)            E(eV)
   0   2.0000     -20.532984      -558.7309
   1   2.0000     -15.604308      -424.6148
   2   2.0000     -15.564464      -423.5306
   3   2.0000     -11.358720      -309.0865
   4   2.0000     -11.285594      -307.0966
   5   2.0000     -11.267684      -306.6093
   6   2.0000     -11.259503      -306.3867
   7   2.0000     -11.257201      -306.3240
   8   2.0000     -11.246328      -306.0281
   9   2.0000      -1.393878       -37.9294
  10   2.0000      -1.315560       -35.7982
  11   2.0000      -1.238601       -33.7040
  12   2.0000      -1.035773       -28.1848
  13   2.0000      -0.994702       -27.0672
  14   2.0000      -0.898530       -24.4502
  15   2.0000      -0.857858       -23.3435
  16   2.0000      -0.773641       -21.0519
  17   2.0000      -0.747308       -20.3353
  18   2.0000      -0.738797       -20.1037
  19   2.0000      -0.689662       -18.7666
  20   2.0000      -0.647492       -17.6191
  21   2.0000      -0.631937       -17.1959
  22   2.0000      -0.619988       -16.8707
  23   2.0000      -0.610326       -16.6078
  24   2.0000      -0.564160       -15.3516
  25   2.0000      -0.548527       -14.9262
  26   2.0000      -0.495141       -13.4735
  27   2.0000      -0.478878       -13.0309
  28   2.0000      -0.450169       -12.2497
  29   2.0000      -0.443163       -12.0591
  30   2.0000      -0.433290       -11.7904
  31   2.0000      -0.378240       -10.2924
  32   2.0000      -0.364569        -9.9204
  33   0.0000       0.122324         3.3286
  34   0.0000       0.156790         4.2665
  35   0.0000       0.162311         4.4167
  36   0.0000       0.175922         4.7871
  37   0.0000       0.179562         4.8861

MULLIKEN ATOMIC CHARGES
-----------------------
   0 O :   -0.342000
   1 C :    0.200374
   2 N :   -0.372404
   3 C :    0.074892
   4 C :   -0.088924
   5 N :   -0.203520
   6 C :   -0.116754
   7 C :   -0.146362
   8 C :   -0.106617
   9 H :    0.079759
  10 H :    0.244058
  11 H :    0.110492
  12 H :    0.119228
  13 H :    0.121101
  14 H :    0.116835
  15 H :    0.152080
  16 H :    0.157760
Sum of atomic charges:    0.0000000

LOEWDIN ATOMIC CHARGES
----------------------
   0 O :    0.077958
   1 C :   -0.421506
   2 N :    0.120556
   3 C :   -0.253100
   4 C :   -0.210531
   5 N :    0.105670
   6 C :   -0.221512
   7 C :   -0.152936
   8 C :   -0.139876
   9 H :    0.109972
  10 H :    0.191203
  11 H :    0.132915
  12 H :    0.124421
  13 H :    0.134325
  14 H :    0.123357
  15 H :    0.146060
  16 H :    0.133022

  Mayer bond orders larger than 0.1
B(  0-O ,  1-C ) :   1.9226 B(  1-C ,  2-N ) :   1.1076 B(  1-C ,  9-H ) :   0.9292
B(  2-N ,  3-C ) :   0.7920 B(  2-N , 10-H ) :   0.8661 B(  3-C ,  4-C ) :   0.9993
B(  3-C ,  7-C ) :   0.8083 B(  3-C ,  8-C ) :   0.9064 B(  4-C ,  5-N ) :   0.9291
B(  4-C , 11-H ) :   0.9149 B(  4-C , 12-H ) :   0.9268 B(  5-N ,  6-C ) :   0.9184
B(  5-N ,  8-C ) :   0.9566 B(  6-C ,  7-C ) :   0.9895 B(  6-C , 13-H ) :   0.9181
B(  6-C , 14-H ) :   0.9278 B(  7-C ,  8-C ) :   0.9042 B(  7-C , 15-H ) :   0.9220
B(  8-C , 16-H ) :   0.8858

MP2 TOTAL ENERGY:     -417.239598775 Eh
FINAL SINGLE POINT ENERGY      -417.239598774653

DIPOLE MOMENT
-------------
                                X             Y             Z
Electronic contribution:     -2.33967       1.25507      -0.65927
Nuclear contribution   :      2.22464      -0.39469       1.37268
                        -----------------------------------------
Total Dipole Moment    :     -0.11503       0.86038       0.71342
                        -----------------------------------------
Magnitude (a.u.)       :      1.12359
Magnitude (Debye)      :      2.85594

                             ****ORCA TERMINATED NORMALLY****
TOTAL RUN TIME: 0 days 0 hours 17 minutes 1 seconds 922 msec
