                         Program Version 3.0.3 - RELEASE   -
|  1> ! RI-MP2 RIJK def2-TZVP def2-TZVP/C def2-TZVP/JK TIGHTSCF
|  2> % maxcore 2000
|  3> % mp2 density relaxed end
|  4> *xyz 0 1
|  5>  C        0.0001715276     1.5030230599    -0.0096390977
|  6>  C       -0.0015114113    -0.0035025609     0.0262270204
|  7>  N        0.0521560251    -0.6214886391    -1.1584584652
|  8>  C        0.0531847882    -1.9639159810    -1.1817125264
|  9>  C        0.0005024719    -2.7459812149    -0.0193828993
| 10>  C       -0.0550012549    -2.0979893477     1.2057623674
| 11>  C       -0.0562258837    -0.7080681971     1.2333431138
| 12>  C        0.1112572452    -2.5987748228    -2.4636609150
| 13>  C        0.1593136468    -3.1648648730    -3.5245016328
| 14>  H        0.9032020987     1.8696679422    -0.5076393787
| 15>  H       -0.8535573617     1.8697114365    -0.5880620784
| 16>  H       -0.0457403999     1.9326346213     0.9939327180
| 17>  H        0.0038821485    -3.8263508744    -0.0944737324
| 18>  H       -0.0967982141    -2.6684681524     2.1278405513
| 19>  H       -0.0988568649    -0.1708402704     2.1742817115
| 20>  H        0.2020963985    -3.6485299663    -4.4689255466
| 21> *
| 22>
| 23>                          ****END OF INPUT****

CARTESIAN COORDINATES (ANGSTROEM)
---------------------------------
  C      0.000172    1.503023   -0.009639
  C     -0.001511   -0.003503    0.026227
  N      0.052156   -0.621489   -1.158458
  C      0.053185   -1.963916   -1.181713
  C      0.000502   -2.745981   -0.019383
  C     -0.055001   -2.097989    1.205762
  C     -0.056226   -0.708068    1.233343
  C      0.111257   -2.598775   -2.463661
  C      0.159314   -3.164865   -3.524502
  H      0.903202    1.869668   -0.507639
  H     -0.853557    1.869711   -0.588062
  H     -0.045740    1.932635    0.993933
  H      0.003882   -3.826351   -0.094474
  H     -0.096798   -2.668468    2.127841
  H     -0.098857   -0.170840    2.174282
  H      0.202096   -3.648530   -4.468926

 Total Charge           Charge          ....    0
 Multiplicity           Mult            ....    1
 Number of Electrons    NEL             ....   62
 Basis Dimension        Dim             ....  321

ORBITAL ENERGIES
----------------

  NO   OCC          E(Eh)            E(eV)
   0   2.0000     -15.565645      -423.5627
   1   2.0000     -11.301995      -307.5429
   2   2.0000     -11.285506      -307.0942
   3   2.0000     -11.261890      -306.4516
   4   2.0000     -11.245009      -305.9923
   5   2.0000     -11.242007      -305.9106
   6   2.0000     -11.238726      -305.8213
   7   2.0000     -11.233156      -305.6697
   8   2.0000     -11.225987      -305.4746
   9   2.0000      -1.268842       -34.5269
  10   2.0000      -1.093363       -29.7519
  11   2.0000      -1.086521       -29.5657
  12   2.0000      -1.019807       -27.7504
  13   2.0000      -0.957228       -26.0475
  14   2.0000      -0.882165       -24.0049
  15   2.0000      -0.834756       -22.7149
  16   2.0000      -0.747454       -20.3393
  17   2.0000      -0.700861       -19.0714
  18   2.0000      -0.681703       -18.5501
  19   2.0000      -0.662886       -18.0381
  20   2.0000      -0.598290       -16.2803
  21   2.0000      -0.591748       -16.1023
  22   2.0000      -0.577866       -15.7245
  23   2.0000      -0.544277       -14.8105
  24   2.0000      -0.534961       -14.5570
  25   2.0000      -0.527412       -14.3516
  26   2.0000      -0.430016       -11.7013
  27   2.0000      -0.423397       -11.5212
  28   2.0000      -0.401935       -10.9372
  29   2.0000      -0.381763       -10.3883
  30   2.0000      -0.326067        -8.8727
  31   0.0000       0.080214         2.1827
  32   0.0000       0.109218         2.9720
  33   0.0000       0.146095         3.9754
  34   0.0000       0.159018         4.3271
  35   0.0000       0.163463         4.4481

MULLIKEN ATOMIC CHARGES
-----------------------
   0 C :   -0.427058
   1 C :    0.159788
   2 N :   -0.260399
   3 C :    0.017344
   4 C :   -0.204485
   5 C :   -0.091797
   6 C :   -0.161683
   7 C :    0.042358
   8 C :   -0.098567
   9 H :    0.147447
  10 H :    0.147459
  11 H :    0.127893
  12 H :    0.138670
  13 H :    0.136684
  14 H :    0.132093
  15 H :    0.194250
Sum of atomic charges:    0.0000000

LOEWDIN ATOMIC CHARGES
----------------------
   0 C :   -0.265686
   1 C :   -0.237399
   2 N :    0.203607
   3 C :   -0.215906
   4 C :   -0.094262
   5 C :   -0.127119
   6 C :   -0.116233
   7 C :   -0.058358
   8 C :   -0.070794
   9 H :    0.135842
  10 H :    0.135843
  11 H :    0.125433
  12 H :    0.155970
  13 H :    0.150048
  14 H :    0.150666
  15 H :    0.128347

  Mayer bond orders larger than 0.1
B(  0-C ,  1-C ) :   0.8852 B(  0-C ,  9-H ) :   0.9292 B(  0-C , 10-H ) :   0.9293
B(  0-C , 11-H ) :   0.9517 B(  1-C ,  2-N ) :   1.3837 B(  1-C ,  6-C ) :   1.3356
B(  2-N ,  3-C ) :   1.3589 B(  3-C ,  4-C ) :   1.3070 B(  3-C ,  7-C ) :   1.1576
B(  3-C ,  8-C ) :  -0.1739 B(  4-C ,  5-C ) :   1.3549 B(  4-C , 12-H ) :   0.9301
B(  5-C ,  6-C ) :   1.3323 B(  5-C , 13-H ) :   0.9328 B(  6-C , 14-H ) :   0.9157
B(  7-C ,  8-C ) :   2.5719 B(  8-C , 15-H ) :   0.8802

MP2 TOTAL ENERGY:     -362.962672268 Eh
FINAL SINGLE POINT ENERGY      -362.962672268374

DIPOLE MOMENT
-------------
                                X             Y             Z
Electronic contribution:      0.13393      -4.54433      -2.95961
Nuclear contribution   :     -0.17081       4.33064       3.77377
                        -----------------------------------------
Total Dipole Moment    :     -0.03688      -0.21370       0.81416
                        -----------------------------------------
Magnitude (a.u.)       :      0.84254
Magnitude (Debye)      :      2.14157

                             ****ORCA TERMINATED NORMALLY****
TOTAL RUN TIME: 0 days 0 hours 16 minutes 17 seconds 837 msec
