                         Program Version 3.0.3 - RELEASE   -
|  1> ! RI-MP2 RIJK def2-TZVP def2-TZVP/C def2-TZVP/JK TIGHTSCF
|  2> % maxcore 2000
|  3> % mp2 density relaxed end
|  4> *xyz 0 1
|  5>  C        0.9245777478     0.8499689623     0.6557648608
|  6>  C        0.3513904523    -0.4382295427     0.2948413202
|  7>  C       -0.1350947780    -1.5090964855     0.0320079242
|  8>  C       -0.7004067152    -2.8061635906    -0.3572601413
|  9>  O       -1.9483558443    -2.6903348385    -1.0100186159
| 10>  C        0.2866517978    -3.5415015007    -1.3101979105
| 11>  O        0.4948768346    -2.7745851556    -2.4786182560
| 12>  C        1.5508473235    -3.8831030545    -0.6331055585
| 13>  N        2.5400982058    -4.1398575331    -0.0944252593
| 14>  H        2.0091094441     0.7741049352     0.7865496920
| 15>  H        0.7308221349     1.6014656029    -0.1168710974
| 16>  H        0.4985119183     1.2180313287     1.5949117953
| 17>  H       -0.8738164126    -3.4292118370     0.5265024023
| 18>  H       -1.7767470271    -2.2447789877    -1.8501421628
| 19>  H       -0.2018577879    -4.4647912052    -1.6352519933
| 20>  H        0.9056024960    -1.9430950882    -2.2017406399
| 21> *
| 22>
| 23>                          ****END OF INPUT****

CARTESIAN COORDINATES (ANGSTROEM)
---------------------------------
  C      0.924578    0.849969    0.655765
  C      0.351390   -0.438230    0.294841
  C     -0.135095   -1.509096    0.032008
  C     -0.700407   -2.806164   -0.357260
  O     -1.948356   -2.690335   -1.010019
  C      0.286652   -3.541502   -1.310198
  O      0.494877   -2.774585   -2.478618
  C      1.550847   -3.883103   -0.633106
  N      2.540098   -4.139858   -0.094425
  H      2.009109    0.774105    0.786550
  H      0.730822    1.601466   -0.116871
  H      0.498512    1.218031    1.594912
  H     -0.873816   -3.429212    0.526502
  H     -1.776747   -2.244779   -1.850142
  H     -0.201858   -4.464791   -1.635252
  H      0.905602   -1.943095   -2.201741

 Total Charge           Charge          ....    0
 Multiplicity           Mult            ....    1
 Number of Electrons    NEL             ....   66
 Basis Dimension        Dim             ....  321

ORBITAL ENERGIES
----------------

  NO   OCC          E(Eh)            E(eV)
   0   2.0000     -20.602989      -560.6358
   1   2.0000     -20.584650      -560.1368
   2   2.0000     -15.587148      -424.1478
   3   2.0000     -11.353136      -308.9345
   4   2.0000     -11.340639      -308.5945
   5   2.0000     -11.283538      -307.0407
   6   2.0000     -11.265199      -306.5416
   7   2.0000     -11.257888      -306.3427
   8   2.0000     -11.241479      -305.8962
   9   2.0000      -1.421919       -38.6924
  10   2.0000      -1.387924       -37.7673
  11   2.0000      -1.230695       -33.4889
  12   2.0000      -1.096519       -29.8378
  13   2.0000      -1.055972       -28.7345
  14   2.0000      -0.985721       -26.8228
  15   2.0000      -0.912123       -24.8201
  16   2.0000      -0.782321       -21.2880
  17   2.0000      -0.755263       -20.5518
  18   2.0000      -0.717240       -19.5171
  19   2.0000      -0.669927       -18.2296
  20   2.0000      -0.650289       -17.6953
  21   2.0000      -0.633884       -17.2489
  22   2.0000      -0.605942       -16.4885
  23   2.0000      -0.604525       -16.4500
  24   2.0000      -0.593146       -16.1403
  25   2.0000      -0.568759       -15.4767
  26   2.0000      -0.556364       -15.1394
  27   2.0000      -0.531241       -14.4558
  28   2.0000      -0.497903       -13.5486
  29   2.0000      -0.479902       -13.0588
  30   2.0000      -0.464572       -12.6417
  31   2.0000      -0.402559       -10.9542
  32   2.0000      -0.399233       -10.8637
  33   0.0000       0.110636         3.0105
  34   0.0000       0.136128         3.7042
  35   0.0000       0.141584         3.8527
  36   0.0000       0.150540         4.0964
  37   0.0000       0.165098         4.4925

MULLIKEN ATOMIC CHARGES
-----------------------
   0 C :   -0.477957
   1 C :    0.040283
   2 C :   -0.146492
   3 C :    0.074420
   4 O :   -0.440774
   5 C :    0.170606
   6 O :   -0.456985
   7 C :   -0.189396
   8 N :   -0.052733
   9 H :    0.173986
  10 H :    0.165813
  11 H :    0.171747
  12 H :    0.144711
  13 H :    0.331370
  14 H :    0.153871
  15 H :    0.337530
Sum of atomic charges:    0.0000000

LOEWDIN ATOMIC CHARGES
----------------------
   0 C :   -0.286729
   1 C :   -0.084864
   2 C :   -0.078215
   3 C :   -0.321404
   4 O :    0.010678
   5 C :   -0.320482
   6 O :    0.015143
   7 C :   -0.164685
   8 N :    0.078976
   9 H :    0.146109
  10 H :    0.143671
  11 H :    0.146421
  12 H :    0.168613
  13 H :    0.184634
  14 H :    0.172321
  15 H :    0.189813

  Mayer bond orders larger than 0.1
B(  0-C ,  1-C ) :   0.8574 B(  0-C ,  9-H ) :   0.9443 B(  0-C , 10-H ) :   0.9414
B(  0-C , 11-H ) :   0.9448 B(  1-C ,  2-C ) :   2.7180 B(  2-C ,  3-C ) :   0.9521
B(  3-C ,  4-O ) :   0.9495 B(  3-C ,  5-C ) :   0.9350 B(  3-C , 12-H ) :   0.9043
B(  4-O , 13-H ) :   0.8241 B(  5-C ,  6-O ) :   0.9138 B(  5-C ,  7-C ) :   0.9242
B(  5-C , 14-H ) :   0.9078 B(  6-O , 15-H ) :   0.8225 B(  7-C ,  8-N ) :   2.8388

MP2 TOTAL ENERGY:     -437.140660323 Eh
FINAL SINGLE POINT ENERGY      -437.140660322979

DIPOLE MOMENT
-------------
                                X             Y             Z
Electronic contribution:      0.57870      -6.08987      -1.36922
Nuclear contribution   :     -0.95844       7.23675       1.23503
                        -----------------------------------------
Total Dipole Moment    :     -0.37974       1.14688      -0.13419
                        -----------------------------------------
Magnitude (a.u.)       :      1.21554
Magnitude (Debye)      :      3.08966

                             ****ORCA TERMINATED NORMALLY****
TOTAL RUN TIME: 0 days 0 hours 14 minutes 50 seconds 421 msec
