                         Program Version 3.0.3 - RELEASE   -
|  1> ! RI-MP2 RIJK def2-TZVP def2-TZVP/C def2-TZVP/JK TIGHTSCF
|  2> % maxcore 2000
|  3> % mp2 density relaxed end
|  4> *xyz 0 1
|  5>  C       -0.1323460849     1.5531322782    -0.1229173794
|  6>  C        0.0356144827     0.0290386097    -0.0279126895
|  7>  C        0.7354650071    -0.5270249285    -1.2750616846
|  8>  C        0.7888018649    -0.4146514437     1.2438430135
|  9>  O        2.1242255432     0.0869610419     1.3027195058
| 10>  C        0.0507914556    -0.0820039292     2.5481644532
| 11>  O       -1.2773724089    -0.5652622585     2.4525925492
| 12>  C        0.7375889183    -0.6981460933     3.7638419057
| 13>  O       -0.0936948668    -0.3878238111     4.8825655898
| 14>  H        0.8358186693     2.0675332794    -0.1761084565
| 15>  H       -0.6768334897     1.8183057019    -1.0343176254
| 16>  H       -0.6932009659     1.9594119261     0.7237275455
| 17>  H       -0.9628531619    -0.4150074032     0.0460597106
| 18>  H        1.7635413893    -0.1571574511    -1.3399742863
| 19>  H        0.7773961426    -1.6212439913    -1.2512927124
| 20>  H        0.2067521750    -0.2314322736    -2.1868778513
| 21>  H        0.9058064137    -1.5046483731     1.1963575602
| 22>  H        2.0758355888     1.0491332711     1.3182108463
| 23>  H        0.0492472598     1.0141701747     2.6904150270
| 24>  H       -1.6125378167    -0.5737157077     3.3584673881
| 25>  H        0.8142634823    -1.7864201600     3.6217250112
| 26>  H        1.7478088772    -0.2877408290     3.8792188877
| 27>  H        0.1864870151    -0.9210017200     5.6312181916
| 28> *
| 29>
| 30>                          ****END OF INPUT****

CARTESIAN COORDINATES (ANGSTROEM)
---------------------------------
  C     -0.132346    1.553132   -0.122917
  C      0.035614    0.029039   -0.027913
  C      0.735465   -0.527025   -1.275062
  C      0.788802   -0.414651    1.243843
  O      2.124226    0.086961    1.302720
  C      0.050791   -0.082004    2.548164
  O     -1.277372   -0.565262    2.452593
  C      0.737589   -0.698146    3.763842
  O     -0.093695   -0.387824    4.882566
  H      0.835819    2.067533   -0.176108
  H     -0.676833    1.818306   -1.034318
  H     -0.693201    1.959412    0.723728
  H     -0.962853   -0.415007    0.046060
  H      1.763541   -0.157157   -1.339974
  H      0.777396   -1.621244   -1.251293
  H      0.206752   -0.231432   -2.186878
  H      0.905806   -1.504648    1.196358
  H      2.075836    1.049133    1.318211
  H      0.049247    1.014170    2.690415
  H     -1.612538   -0.573716    3.358467
  H      0.814263   -1.786420    3.621725
  H      1.747809   -0.287741    3.879219
  H      0.186487   -0.921002    5.631218

 Total Charge           Charge          ....    0
 Multiplicity           Mult            ....    1
 Number of Electrons    NEL             ....   74
 Basis Dimension        Dim             ....  363

ORBITAL ENERGIES
----------------

  NO   OCC          E(Eh)            E(eV)
   0   2.0000     -20.570744      -559.7584
   1   2.0000     -20.556795      -559.3788
   2   2.0000     -20.551173      -559.2259
   3   2.0000     -11.279656      -306.9351
   4   2.0000     -11.278265      -306.8972
   5   2.0000     -11.276246      -306.8423
   6   2.0000     -11.222110      -305.3692
   7   2.0000     -11.214233      -305.1548
   8   2.0000     -11.205438      -304.9155
   9   2.0000      -1.384779       -37.6817
  10   2.0000      -1.363639       -37.1065
  11   2.0000      -1.349109       -36.7111
  12   2.0000      -1.075820       -29.2746
  13   2.0000      -1.015176       -27.6243
  14   2.0000      -0.929147       -25.2834
  15   2.0000      -0.915628       -24.9155
  16   2.0000      -0.818885       -22.2830
  17   2.0000      -0.774345       -21.0710
  18   2.0000      -0.726907       -19.7801
  19   2.0000      -0.683431       -18.5971
  20   2.0000      -0.662791       -18.0355
  21   2.0000      -0.657264       -17.8851
  22   2.0000      -0.635436       -17.2911
  23   2.0000      -0.607315       -16.5259
  24   2.0000      -0.604224       -16.4418
  25   2.0000      -0.564962       -15.3734
  26   2.0000      -0.550144       -14.9702
  27   2.0000      -0.542238       -14.7551
  28   2.0000      -0.534071       -14.5328
  29   2.0000      -0.528559       -14.3828
  30   2.0000      -0.512822       -13.9546
  31   2.0000      -0.490570       -13.3491
  32   2.0000      -0.469049       -12.7635
  33   2.0000      -0.466149       -12.6846
  34   2.0000      -0.462848       -12.5947
  35   2.0000      -0.432542       -11.7701
  36   2.0000      -0.422363       -11.4931
  37   0.0000       0.129557         3.5254
  38   0.0000       0.135786         3.6949
  39   0.0000       0.157900         4.2967
  40   0.0000       0.175706         4.7812
  41   0.0000       0.186404         5.0723

MULLIKEN ATOMIC CHARGES
-----------------------
   0 C :   -0.478891
   1 C :   -0.002552
   2 C :   -0.383615
   3 C :    0.074023
   4 O :   -0.479851
   5 C :    0.088230
   6 O :   -0.488208
   7 C :   -0.080271
   8 O :   -0.496287
   9 H :    0.110091
  10 H :    0.139009
  11 H :    0.150763
  12 H :    0.112868
  13 H :    0.130522
  14 H :    0.125770
  15 H :    0.129180
  16 H :    0.086627
  17 H :    0.314256
  18 H :    0.072034
  19 H :    0.331540
  20 H :    0.105448
  21 H :    0.112838
  22 H :    0.326476
Sum of atomic charges:   -0.0000000

LOEWDIN ATOMIC CHARGES
----------------------
   0 C :   -0.300239
   1 C :   -0.293345
   2 C :   -0.294365
   3 C :   -0.305314
   4 O :   -0.010836
   5 C :   -0.352912
   6 O :   -0.013070
   7 C :   -0.329301
   8 O :   -0.060589
   9 H :    0.116807
  10 H :    0.127387
  11 H :    0.125297
  12 H :    0.162095
  13 H :    0.124874
  14 H :    0.122934
  15 H :    0.121678
  16 H :    0.151387
  17 H :    0.172886
  18 H :    0.135241
  19 H :    0.180189
  20 H :    0.120936
  21 H :    0.123300
  22 H :    0.174959

  Mayer bond orders larger than 0.1
B(  0-C ,  1-C ) :   0.8834 B(  0-C ,  9-H ) :   0.9344 B(  0-C , 10-H ) :   0.9391
B(  0-C , 11-H ) :   0.9396 B(  1-C ,  2-C ) :   0.9089 B(  1-C ,  3-C ) :   0.9149
B(  1-C , 12-H ) :   0.9213 B(  2-C , 13-H ) :   0.9290 B(  2-C , 14-H ) :   0.9392
B(  2-C , 15-H ) :   0.9431 B(  3-C ,  4-O ) :   0.8899 B(  3-C ,  5-C ) :   0.9295
B(  3-C , 16-H ) :   0.9049 B(  4-O , 17-H ) :   0.8404 B(  5-C ,  6-O ) :   0.9685
B(  5-C ,  7-C ) :   0.9334 B(  5-C , 18-H ) :   0.9143 B(  6-O , 19-H ) :   0.8213
B(  7-C ,  8-O ) :   0.9769 B(  7-C , 20-H ) :   0.9325 B(  7-C , 21-H ) :   0.9288
B(  8-O , 22-H ) :   0.8452

MP2 TOTAL ENERGY:     -461.841510174 Eh
FINAL SINGLE POINT ENERGY      -461.841510173782

DIPOLE MOMENT
-------------
                                X             Y             Z
Electronic contribution:     -0.59374      -1.83368       7.44078
Nuclear contribution   :      0.75963       1.85723      -6.85105
                        -----------------------------------------
Total Dipole Moment    :      0.16589       0.02354       0.58973
                        -----------------------------------------
Magnitude (a.u.)       :      0.61307
Magnitude (Debye)      :      1.55829

                             ****ORCA TERMINATED NORMALLY****
TOTAL RUN TIME: 0 days 0 hours 17 minutes 31 seconds 649 msec
