                         Program Version 3.0.3 - RELEASE   -
|  1> ! RI-MP2 RIJK def2-TZVP def2-TZVP/C def2-TZVP/JK TIGHTSCF
|  2> % maxcore 2000
|  3> % mp2 density relaxed end
|  4> *xyz 0 1
|  5>  C        0.0205142606     1.3303941739    -0.0015896262
|  6>  O        0.0310807389    -0.0746822040    -0.1074937494
|  7>  C       -1.2271520683    -0.6493145026     0.1547474133
|  8>  C       -1.1114515862    -2.1335403865     0.0643706629
|  9>  O       -0.4098621834    -2.9045343529     1.0847859073
| 10>  C       -0.8541280506    -3.9348908072     0.1609551646
| 11>  C       -2.2049336594    -3.2297525875    -0.1764029225
| 12>  O       -2.0084805799    -3.2697174609    -1.6160436566
| 13>  C       -0.6568394578    -3.0580904026    -1.1136994794
| 14>  H        1.0315679105     1.6795492714    -0.2224528652
| 15>  H       -0.6800693759     1.7887395692    -0.7175280373
| 16>  H       -0.2576751628     1.6608705467     1.0113752588
| 17>  H       -1.5932999771    -0.3702994516     1.1570297151
| 18>  H       -1.9800274335    -0.3187850365    -0.5816355881
| 19>  H       -0.6129642873    -4.9760633794     0.3695908183
| 20>  H       -3.2085132566    -3.3508597216     0.2311601746
| 21>  H        0.1699945388    -2.9694191478    -1.8161836802
| 22> *
| 23>
| 24>                          ****END OF INPUT****

CARTESIAN COORDINATES (ANGSTROEM)
---------------------------------
  C      0.020514    1.330394   -0.001590
  O      0.031081   -0.074682   -0.107494
  C     -1.227152   -0.649315    0.154747
  C     -1.111452   -2.133540    0.064371
  O     -0.409862   -2.904534    1.084786
  C     -0.854128   -3.934891    0.160955
  C     -2.204934   -3.229753   -0.176403
  O     -2.008481   -3.269717   -1.616044
  C     -0.656839   -3.058090   -1.113699
  H      1.031568    1.679549   -0.222453
  H     -0.680069    1.788740   -0.717528
  H     -0.257675    1.660871    1.011375
  H     -1.593300   -0.370299    1.157030
  H     -1.980027   -0.318785   -0.581636
  H     -0.612964   -4.976063    0.369591
  H     -3.208513   -3.350860    0.231160
  H      0.169995   -2.969419   -1.816184

 Total Charge           Charge          ....    0
 Multiplicity           Mult            ....    1
 Number of Electrons    NEL             ....   68
 Basis Dimension        Dim             ....  327

ORBITAL ENERGIES
----------------

  NO   OCC          E(Eh)            E(eV)
   0   2.0000     -20.566977      -559.6559
   1   2.0000     -20.565145      -559.6060
   2   2.0000     -20.562297      -559.5285
   3   2.0000     -11.313230      -307.8486
   4   2.0000     -11.311833      -307.8106
   5   2.0000     -11.310483      -307.7739
   6   2.0000     -11.309024      -307.7342
   7   2.0000     -11.294073      -307.3274
   8   2.0000     -11.278318      -306.8986
   9   2.0000      -1.449700       -39.4483
  10   2.0000      -1.388470       -37.7822
  11   2.0000      -1.362481       -37.0750
  12   2.0000      -1.050791       -28.5935
  13   2.0000      -1.014137       -27.5961
  14   2.0000      -0.917194       -24.9581
  15   2.0000      -0.906909       -24.6782
  16   2.0000      -0.850686       -23.1483
  17   2.0000      -0.729144       -19.8410
  18   2.0000      -0.707894       -19.2628
  19   2.0000      -0.687704       -18.7134
  20   2.0000      -0.671068       -18.2607
  21   2.0000      -0.645401       -17.5623
  22   2.0000      -0.641884       -17.4666
  23   2.0000      -0.635911       -17.3040
  24   2.0000      -0.599099       -16.3023
  25   2.0000      -0.561467       -15.2783
  26   2.0000      -0.535972       -14.5845
  27   2.0000      -0.521888       -14.2013
  28   2.0000      -0.496215       -13.5027
  29   2.0000      -0.478969       -13.0334
  30   2.0000      -0.448291       -12.1986
  31   2.0000      -0.435896       -11.8613
  32   2.0000      -0.415067       -11.2946
  33   2.0000      -0.413051       -11.2397
  34   0.0000       0.141371         3.8469
  35   0.0000       0.165607         4.5064
  36   0.0000       0.168434         4.5833
  37   0.0000       0.171245         4.6598
  38   0.0000       0.177445         4.8285

MULLIKEN ATOMIC CHARGES
-----------------------
   0 C :   -0.226572
   1 O :   -0.288514
   2 C :   -0.172755
   3 C :    0.242501
   4 O :   -0.331927
   5 C :   -0.006428
   6 C :    0.020560
   7 O :   -0.336140
   8 C :    0.040557
   9 H :    0.144022
  10 H :    0.113353
  11 H :    0.116226
  12 H :    0.114808
  13 H :    0.122979
  14 H :    0.150201
  15 H :    0.145575
  16 H :    0.151554
Sum of atomic charges:   -0.0000000

LOEWDIN ATOMIC CHARGES
----------------------
   0 C :   -0.355870
   1 O :    0.145283
   2 C :   -0.295890
   3 C :   -0.238579
   4 O :    0.156371
   5 C :   -0.188718
   6 C :   -0.173716
   7 O :    0.132769
   8 C :   -0.164049
   9 H :    0.115560
  10 H :    0.102268
  11 H :    0.103088
  12 H :    0.134896
  13 H :    0.138383
  14 H :    0.127830
  15 H :    0.128624
  16 H :    0.131751

  Mayer bond orders larger than 0.1
B(  0-C ,  1-O ) :   0.9138 B(  0-C ,  9-H ) :   0.9390 B(  0-C , 10-H ) :   0.9361
B(  0-C , 11-H ) :   0.9382 B(  1-O ,  2-C ) :   1.0380 B(  2-C ,  3-C ) :   0.8680
B(  2-C , 12-H ) :   0.9203 B(  2-C , 13-H ) :   0.9255 B(  3-C ,  4-O ) :   0.9506
B(  3-C ,  6-C ) :   0.8633 B(  3-C ,  8-C ) :   0.8742 B(  4-O ,  5-C ) :   0.9308
B(  5-C ,  6-C ) :   0.8905 B(  5-C ,  8-C ) :   0.9078 B(  5-C , 14-H ) :   0.8953
B(  6-C ,  7-O ) :   0.9369 B(  6-C , 15-H ) :   0.8889 B(  7-O ,  8-C ) :   0.9321
B(  8-C , 16-H ) :   0.8832

MP2 TOTAL ENERGY:     -458.086624674 Eh
FINAL SINGLE POINT ENERGY      -458.086624674234

DIPOLE MOMENT
-------------
                                X             Y             Z
Electronic contribution:     -0.54616      -7.59817      -0.62400
Nuclear contribution   :      0.21915       8.03646       0.73820
                        -----------------------------------------
Total Dipole Moment    :     -0.32701       0.43829       0.11420
                        -----------------------------------------
Magnitude (a.u.)       :      0.55864
Magnitude (Debye)      :      1.41994

                             ****ORCA TERMINATED NORMALLY****
TOTAL RUN TIME: 0 days 0 hours 13 minutes 43 seconds 433 msec
