                         Program Version 3.0.3 - RELEASE   -
|  1> ! RI-MP2 RIJK def2-TZVP def2-TZVP/C def2-TZVP/JK TIGHTSCF
|  2> % maxcore 2000
|  3> % mp2 density relaxed end
|  4> *xyz 0 1
|  5>  C        0.2253860361     1.6682321300     0.0080843734
|  6>  C       -0.1028468097     0.1953774649     0.2551466984
|  7>  O        0.0667991126    -0.5576467537    -0.9559978272
|  8>  C        0.9973734400    -1.6241706011    -0.7677785860
|  9>  C        1.4352803708    -1.5015574011     0.6682569508
| 10>  C        0.8015107501    -0.4890486968     1.2462188243
| 11>  C        0.3234699691    -2.9483997955    -1.0788248685
| 12>  C        0.4404017293    -3.5775131978    -2.3972334768
| 13>  O        1.2060048509    -4.0525758986    -1.2857122885
| 14>  H        1.2740589431     1.7844886682    -0.2807207675
| 15>  H       -0.4040103483     2.0637020780    -0.7940197645
| 16>  H        0.0429929557     2.2599356277     0.9115404508
| 17>  H       -1.1578459194     0.1187509821     0.5659765899
| 18>  H        1.8449782261    -1.5094339044    -1.4626629084
| 19>  H        2.1545888096    -2.1746276088     1.1160549391
| 20>  H        0.9003260066    -0.1598374773     2.2731360829
| 21>  H       -0.5526892001    -3.1680046884    -0.4671427272
| 22>  H       -0.3415824401    -4.2495316538    -2.7465184289
| 23>  H        1.0120725075    -3.0788723239    -3.1789600661
| 24> *
| 25>
| 26>                          ****END OF INPUT****

CARTESIAN COORDINATES (ANGSTROEM)
---------------------------------
  C      0.225386    1.668232    0.008084
  C     -0.102847    0.195377    0.255147
  O      0.066799   -0.557647   -0.955998
  C      0.997373   -1.624171   -0.767779
  C      1.435280   -1.501557    0.668257
  C      0.801511   -0.489049    1.246219
  C      0.323470   -2.948400   -1.078825
  C      0.440402   -3.577513   -2.397233
  O      1.206005   -4.052576   -1.285712
  H      1.274059    1.784489   -0.280721
  H     -0.404010    2.063702   -0.794020
  H      0.042993    2.259936    0.911540
  H     -1.157846    0.118751    0.565977
  H      1.844978   -1.509434   -1.462663
  H      2.154589   -2.174628    1.116055
  H      0.900326   -0.159837    2.273136
  H     -0.552689   -3.168005   -0.467143
  H     -0.341582   -4.249532   -2.746518
  H      1.012073   -3.078872   -3.178960

 Total Charge           Charge          ....    0
 Multiplicity           Mult            ....    1
 Number of Electrons    NEL             ....   68
 Basis Dimension        Dim             ....  339

ORBITAL ENERGIES
----------------

  NO   OCC          E(Eh)            E(eV)
   0   2.0000     -20.569496      -559.7244
   1   2.0000     -20.555912      -559.3548
   2   2.0000     -11.290740      -307.2367
   3   2.0000     -11.288811      -307.1842
   4   2.0000     -11.285192      -307.0857
   5   2.0000     -11.282366      -307.0088
   6   2.0000     -11.237193      -305.7796
   7   2.0000     -11.235159      -305.7242
   8   2.0000     -11.218719      -305.2769
   9   2.0000      -1.413417       -38.4610
  10   2.0000      -1.380984       -37.5785
  11   2.0000      -1.079862       -29.3845
  12   2.0000      -1.048269       -28.5249
  13   2.0000      -0.958644       -26.0860
  14   2.0000      -0.909549       -24.7501
  15   2.0000      -0.848249       -23.0820
  16   2.0000      -0.788854       -21.4658
  17   2.0000      -0.770156       -20.9570
  18   2.0000      -0.713351       -19.4113
  19   2.0000      -0.684940       -18.6382
  20   2.0000      -0.662738       -18.0340
  21   2.0000      -0.636321       -17.3152
  22   2.0000      -0.592963       -16.1354
  23   2.0000      -0.576380       -15.6841
  24   2.0000      -0.556177       -15.1343
  25   2.0000      -0.546505       -14.8711
  26   2.0000      -0.531782       -14.4705
  27   2.0000      -0.528733       -14.3876
  28   2.0000      -0.504612       -13.7312
  29   2.0000      -0.485393       -13.2082
  30   2.0000      -0.458255       -12.4697
  31   2.0000      -0.445155       -12.1133
  32   2.0000      -0.428309       -11.6549
  33   2.0000      -0.359719        -9.7884
  34   0.0000       0.134906         3.6710
  35   0.0000       0.152702         4.1552
  36   0.0000       0.164974         4.4892
  37   0.0000       0.169936         4.6242
  38   0.0000       0.179364         4.8807

MULLIKEN ATOMIC CHARGES
-----------------------
   0 C :   -0.389382
   1 C :    0.152794
   2 O :   -0.341184
   3 C :    0.148742
   4 C :   -0.221082
   5 C :   -0.194866
   6 C :    0.023635
   7 C :   -0.073911
   8 O :   -0.339495
   9 H :    0.128220
  10 H :    0.139717
  11 H :    0.119376
  12 H :    0.093381
  13 H :    0.103499
  14 H :    0.146859
  15 H :    0.138248
  16 H :    0.127858
  17 H :    0.119518
  18 H :    0.118075
Sum of atomic charges:    0.0000000

LOEWDIN ATOMIC CHARGES
----------------------
   0 C :   -0.289994
   1 C :   -0.312011
   2 O :    0.198392
   3 C :   -0.281804
   4 C :   -0.132101
   5 C :   -0.138958
   6 C :   -0.269322
   7 C :   -0.259967
   8 O :    0.144164
   9 H :    0.125699
  10 H :    0.126894
  11 H :    0.124922
  12 H :    0.142169
  13 H :    0.149675
  14 H :    0.146864
  15 H :    0.143284
  16 H :    0.140131
  17 H :    0.120366
  18 H :    0.121596

  Mayer bond orders larger than 0.1
B(  0-C ,  1-C ) :   0.9105 B(  0-C ,  9-H ) :   0.9339 B(  0-C , 10-H ) :   0.9351
B(  0-C , 11-H ) :   0.9309 B(  1-C ,  2-O ) :   0.9133 B(  1-C ,  5-C ) :   0.9540
B(  1-C , 12-H ) :   0.9045 B(  2-O ,  3-C ) :   0.9287 B(  3-C ,  4-C ) :   0.9430
B(  3-C ,  6-C ) :   0.9052 B(  3-C , 13-H ) :   0.8989 B(  4-C ,  5-C ) :   1.8032
B(  4-C , 14-H ) :   0.9199 B(  5-C , 15-H ) :   0.9158 B(  6-C ,  7-C ) :   0.9831
B(  6-C ,  8-O ) :   0.8920 B(  6-C , 16-H ) :   0.9106 B(  7-C ,  8-O ) :   0.9048
B(  7-C , 17-H ) :   0.9220 B(  7-C , 18-H ) :   0.9064

MP2 TOTAL ENERGY:     -422.292859234 Eh
FINAL SINGLE POINT ENERGY      -422.292859234301

DIPOLE MOMENT
-------------
                                X             Y             Z
Electronic contribution:      0.86320      -5.38958      -0.70377
Nuclear contribution   :     -1.07362       5.84920       0.98721
                        -----------------------------------------
Total Dipole Moment    :     -0.21042       0.45962       0.28344
                        -----------------------------------------
Magnitude (a.u.)       :      0.57954
Magnitude (Debye)      :      1.47308

                             ****ORCA TERMINATED NORMALLY****
TOTAL RUN TIME: 0 days 0 hours 14 minutes 31 seconds 299 msec
