                         Program Version 3.0.3 - RELEASE   -
|  1> ! RI-MP2 RIJK def2-TZVP def2-TZVP/C def2-TZVP/JK TIGHTSCF
|  2> % maxcore 2000
|  3> % mp2 density relaxed end
|  4> *xyz 0 1
|  5>  C       -0.0155894766     1.5185128497    -0.0566098832
|  6>  C       -0.0074715266     0.0166780120     0.0342774674
|  7>  C        1.2695388721    -0.7653961593    -0.1824899463
|  8>  C        0.6056418522    -0.7562537052     1.1810811733
|  9>  O        1.2067999932    -0.0743880653     2.2400949796
| 10>  C       -0.2935940863    -1.9537118619     1.4893067140
| 11>  C       -1.4162179009    -1.8305596262     0.4577678186
| 12>  C       -2.2916737648    -0.6353088337     0.5484357844
| 13>  N       -1.2028795860    -0.6722818939    -0.4439335076
| 14>  H        0.8729738766     1.9306052346     0.4273123698
| 15>  H       -0.0335674163     1.8449299731    -1.1012753359
| 16>  H       -0.8949022816     1.9379266777     0.4436977091
| 17>  H        1.2331231004    -1.6696463573    -0.7825303426
| 18>  H        2.1781434786    -0.1803229118    -0.2811894027
| 19>  H        2.0207315586    -0.5343340253     2.4727336031
| 20>  H        0.2328902175    -2.9102714381     1.3893973424
| 21>  H       -0.6625908233    -1.8844403142     2.5179307233
| 22>  H       -1.7891230519    -2.7331822060    -0.0160981109
| 23>  H       -3.2938329896    -0.6537739101     0.1310687029
| 24>  H       -2.1676060854     0.0066013610     1.4184993813
| 25> *
| 26>
| 27>                          ****END OF INPUT****

CARTESIAN COORDINATES (ANGSTROEM)
---------------------------------
  C     -0.015589    1.518513   -0.056610
  C     -0.007472    0.016678    0.034277
  C      1.269539   -0.765396   -0.182490
  C      0.605642   -0.756254    1.181081
  O      1.206800   -0.074388    2.240095
  C     -0.293594   -1.953712    1.489307
  C     -1.416218   -1.830560    0.457768
  C     -2.291674   -0.635309    0.548436
  N     -1.202880   -0.672282   -0.443934
  H      0.872974    1.930605    0.427312
  H     -0.033567    1.844930   -1.101275
  H     -0.894902    1.937927    0.443698
  H      1.233123   -1.669646   -0.782530
  H      2.178143   -0.180323   -0.281189
  H      2.020732   -0.534334    2.472734
  H      0.232890   -2.910271    1.389397
  H     -0.662591   -1.884440    2.517931
  H     -1.789123   -2.733182   -0.016098
  H     -3.293833   -0.653774    0.131069
  H     -2.167606    0.006601    1.418499

 Total Charge           Charge          ....    0
 Multiplicity           Mult            ....    1
 Number of Electrons    NEL             ....   68
 Basis Dimension        Dim             ....  345

ORBITAL ENERGIES
----------------

  NO   OCC          E(Eh)            E(eV)
   0   2.0000     -20.566844      -559.6523
   1   2.0000     -15.557857      -423.3508
   2   2.0000     -11.284412      -307.0645
   3   2.0000     -11.259310      -306.3814
   4   2.0000     -11.258742      -306.3659
   5   2.0000     -11.250113      -306.1311
   6   2.0000     -11.231175      -305.6158
   7   2.0000     -11.220855      -305.3350
   8   2.0000     -11.212352      -305.1036
   9   2.0000      -1.377800       -37.4918
  10   2.0000      -1.286327       -35.0027
  11   2.0000      -1.123605       -30.5748
  12   2.0000      -1.020143       -27.7595
  13   2.0000      -0.946878       -25.7659
  14   2.0000      -0.889076       -24.1930
  15   2.0000      -0.832708       -22.6591
  16   2.0000      -0.783172       -21.3112
  17   2.0000      -0.741452       -20.1759
  18   2.0000      -0.686992       -18.6940
  19   2.0000      -0.667137       -18.1537
  20   2.0000      -0.640557       -17.4305
  21   2.0000      -0.611755       -16.6467
  22   2.0000      -0.598017       -16.2729
  23   2.0000      -0.567722       -15.4485
  24   2.0000      -0.550530       -14.9807
  25   2.0000      -0.545218       -14.8361
  26   2.0000      -0.536588       -14.6013
  27   2.0000      -0.521762       -14.1979
  28   2.0000      -0.489830       -13.3290
  29   2.0000      -0.463744       -12.6191
  30   2.0000      -0.458021       -12.4634
  31   2.0000      -0.427084       -11.6216
  32   2.0000      -0.388409       -10.5691
  33   2.0000      -0.346470        -9.4279
  34   0.0000       0.133373         3.6293
  35   0.0000       0.159650         4.3443
  36   0.0000       0.164204         4.4682
  37   0.0000       0.177619         4.8333
  38   0.0000       0.187089         5.0909

MULLIKEN ATOMIC CHARGES
-----------------------
   0 C :   -0.430516
   1 C :    0.224081
   2 C :   -0.364794
   3 C :    0.094025
   4 O :   -0.456743
   5 C :   -0.188263
   6 C :   -0.072434
   7 C :   -0.204104
   8 N :   -0.229252
   9 H :    0.142426
  10 H :    0.141288
  11 H :    0.126773
  12 H :    0.127862
  13 H :    0.139865
  14 H :    0.325455
  15 H :    0.119026
  16 H :    0.117399
  17 H :    0.124853
  18 H :    0.129395
  19 H :    0.133659
Sum of atomic charges:   -0.0000000

LOEWDIN ATOMIC CHARGES
----------------------
   0 C :   -0.259895
   1 C :   -0.283853
   2 C :   -0.170597
   3 C :   -0.329884
   4 O :    0.025349
   5 C :   -0.206856
   6 C :   -0.227827
   7 C :   -0.235568
   8 N :    0.154164
   9 H :    0.134770
  10 H :    0.130793
  11 H :    0.128532
  12 H :    0.138882
  13 H :    0.140817
  14 H :    0.182338
  15 H :    0.138109
  16 H :    0.144927
  17 H :    0.137435
  18 H :    0.126110
  19 H :    0.132257

  Mayer bond orders larger than 0.1
B(  0-C ,  1-C ) :   0.9088 B(  0-C ,  9-H ) :   0.9309 B(  0-C , 10-H ) :   0.9428
B(  0-C , 11-H ) :   0.9293 B(  1-C ,  2-C ) :   0.8394 B(  1-C ,  3-C ) :   0.8474
B(  1-C ,  8-N ) :   0.9084 B(  2-C ,  3-C ) :   0.9097 B(  2-C , 12-H ) :   0.8946
B(  2-C , 13-H ) :   0.9242 B(  3-C ,  4-O ) :   1.0660 B(  3-C ,  5-C ) :   0.9599
B(  4-O , 14-H ) :   0.8366 B(  5-C ,  6-C ) :   0.9364 B(  5-C , 15-H ) :   0.9067
B(  5-C , 16-H ) :   0.9101 B(  6-C ,  7-C ) :   0.9314 B(  6-C ,  8-N ) :   0.9043
B(  6-C , 17-H ) :   0.9194 B(  7-C ,  8-N ) :   0.8801 B(  7-C , 18-H ) :   0.9236
B(  7-C , 19-H ) :   0.9151

MP2 TOTAL ENERGY:     -402.431661485 Eh
FINAL SINGLE POINT ENERGY      -402.431661485350

DIPOLE MOMENT
-------------
                                X             Y             Z
Electronic contribution:      0.38653      -1.53098       0.59266
Nuclear contribution   :     -0.02877       1.10035      -0.20193
                        -----------------------------------------
Total Dipole Moment    :      0.35776      -0.43063       0.39073
                        -----------------------------------------
Magnitude (a.u.)       :      0.68272
Magnitude (Debye)      :      1.73533

                             ****ORCA TERMINATED NORMALLY****
TOTAL RUN TIME: 0 days 0 hours 17 minutes 52 seconds 255 msec
