                         Program Version 3.0.3 - RELEASE   -
|  1> ! RI-MP2 RIJK def2-TZVP def2-TZVP/C def2-TZVP/JK TIGHTSCF
|  2> % maxcore 2000
|  3> % mp2 density relaxed end
|  4> *xyz 0 1
|  5>  C        0.0096976783     1.5176398906     0.1175201996
|  6>  C        1.3474703871     0.8257013552    -0.0661762237
|  7>  C        1.6770379899     0.0595706473     1.2060616909
|  8>  O        0.3773429127    -0.5911314118     1.2025044390
|  9>  C        0.0543700669     0.0288553187    -0.0574928001
| 10>  C       -0.6887781023    -0.7887539549    -1.0525727494
| 11>  C       -0.1948889717    -2.2335128178    -1.3593259428
| 12>  C       -1.6752829232    -2.6986939851    -1.3753137228
| 13>  C       -2.0549800091    -1.4024656229    -0.6110201654
| 14>  H       -0.2655184647     1.9385380628     1.0813392007
| 15>  H       -0.3292353198     2.0814314714    -0.7463410711
| 16>  H        2.0316539292     1.0560498314    -0.8717232334
| 17>  H        2.4771116546    -0.6792843236     1.0833990999
| 18>  H        1.8464927886     0.6392773248     2.1218325459
| 19>  H       -0.8054627450    -0.2079265672    -1.9734833001
| 20>  H        0.4024695554    -2.3844315765    -2.2618133739
| 21>  H        0.3459124854    -2.6371238641    -0.4995684620
| 22>  H       -2.0876961467    -2.7069052966    -2.3886849329
| 23>  H       -1.9104320548    -3.6526417717    -0.8982012351
| 24>  H       -2.0723290806    -1.5612872923     0.4704743260
| 25>  H       -2.9650070602    -0.8751398576    -0.9064792194
| 26> *
| 27>
| 28>                          ****END OF INPUT****

CARTESIAN COORDINATES (ANGSTROEM)
---------------------------------
  C      0.009698    1.517640    0.117520
  C      1.347470    0.825701   -0.066176
  C      1.677038    0.059571    1.206062
  O      0.377343   -0.591131    1.202504
  C      0.054370    0.028855   -0.057493
  C     -0.688778   -0.788754   -1.052573
  C     -0.194889   -2.233513   -1.359326
  C     -1.675283   -2.698694   -1.375314
  C     -2.054980   -1.402466   -0.611020
  H     -0.265518    1.938538    1.081339
  H     -0.329235    2.081431   -0.746341
  H      2.031654    1.056050   -0.871723
  H      2.477112   -0.679284    1.083399
  H      1.846493    0.639277    2.121833
  H     -0.805463   -0.207927   -1.973483
  H      0.402470   -2.384432   -2.261813
  H      0.345912   -2.637124   -0.499568
  H     -2.087696   -2.706905   -2.388685
  H     -1.910432   -3.652642   -0.898201
  H     -2.072329   -1.561287    0.470474
  H     -2.965007   -0.875140   -0.906479

 Total Charge           Charge          ....    0
 Multiplicity           Mult            ....    1
 Number of Electrons    NEL             ....   68
 Basis Dimension        Dim             ....  351

ORBITAL ENERGIES
----------------

  NO   OCC          E(Eh)            E(eV)
   0   2.0000     -20.547703      -559.1314
   1   2.0000     -11.286476      -307.1206
   2   2.0000     -11.280737      -306.9644
   3   2.0000     -11.234789      -305.7142
   4   2.0000     -11.229544      -305.5714
   5   2.0000     -11.229351      -305.5662
   6   2.0000     -11.215734      -305.1956
   7   2.0000     -11.215157      -305.1799
   8   2.0000     -11.214130      -305.1520
   9   2.0000      -1.386373       -37.7251
  10   2.0000      -1.130671       -30.7671
  11   2.0000      -1.107077       -30.1251
  12   2.0000      -0.962111       -26.1804
  13   2.0000      -0.901473       -24.5303
  14   2.0000      -0.890951       -24.2440
  15   2.0000      -0.812057       -22.0972
  16   2.0000      -0.765953       -20.8426
  17   2.0000      -0.724014       -19.7014
  18   2.0000      -0.691707       -18.8223
  19   2.0000      -0.656265       -17.8579
  20   2.0000      -0.636065       -17.3082
  21   2.0000      -0.627986       -17.0884
  22   2.0000      -0.591110       -16.0849
  23   2.0000      -0.549222       -14.9451
  24   2.0000      -0.535530       -14.5725
  25   2.0000      -0.528460       -14.3801
  26   2.0000      -0.515648       -14.0315
  27   2.0000      -0.494027       -13.4431
  28   2.0000      -0.468717       -12.7544
  29   2.0000      -0.457280       -12.4432
  30   2.0000      -0.446536       -12.1509
  31   2.0000      -0.438821       -11.9409
  32   2.0000      -0.392166       -10.6714
  33   2.0000      -0.362898        -9.8750
  34   0.0000       0.140964         3.8358
  35   0.0000       0.156453         4.2573
  36   0.0000       0.161645         4.3986
  37   0.0000       0.168677         4.5899
  38   0.0000       0.182847         4.9755

MULLIKEN ATOMIC CHARGES
-----------------------
   0 C :   -0.272500
   1 C :   -0.205249
   2 C :   -0.012355
   3 O :   -0.348488
   4 C :    0.135741
   5 C :    0.032895
   6 C :   -0.274748
   7 C :   -0.190526
   8 C :   -0.276826
   9 H :    0.131528
  10 H :    0.128840
  11 H :    0.138212
  12 H :    0.105008
  13 H :    0.105360
  14 H :    0.097580
  15 H :    0.111281
  16 H :    0.126643
  17 H :    0.107150
  18 H :    0.114324
  19 H :    0.132516
  20 H :    0.113613
Sum of atomic charges:    0.0000000

LOEWDIN ATOMIC CHARGES
----------------------
   0 C :   -0.185727
   1 C :   -0.183046
   2 C :   -0.244750
   3 O :    0.161048
   4 C :   -0.268774
   5 C :   -0.202004
   6 C :   -0.214299
   7 C :   -0.244403
   8 C :   -0.209617
   9 H :    0.135264
  10 H :    0.142018
  11 H :    0.135630
  12 H :    0.123380
  13 H :    0.118303
  14 H :    0.158940
  15 H :    0.120991
  16 H :    0.140146
  17 H :    0.131303
  18 H :    0.122061
  19 H :    0.141670
  20 H :    0.121866

  Mayer bond orders larger than 0.1
B(  0-C ,  1-C ) :   0.9066 B(  0-C ,  4-C ) :   0.8640 B(  0-C ,  9-H ) :   0.9087
B(  0-C , 10-H ) :   0.9322 B(  1-C ,  2-C ) :   0.9695 B(  1-C ,  4-C ) :   0.8524
B(  1-C , 11-H ) :   0.9048 B(  2-C ,  3-O ) :   0.9195 B(  2-C , 12-H ) :   0.9239
B(  2-C , 13-H ) :   0.9118 B(  3-O ,  4-C ) :   0.9512 B(  4-C ,  5-C ) :   0.9076
B(  5-C ,  6-C ) :   0.9090 B(  5-C ,  8-C ) :   0.9133 B(  5-C , 14-H ) :   0.9015
B(  6-C ,  7-C ) :   0.9453 B(  6-C , 15-H ) :   0.9284 B(  6-C , 16-H ) :   0.9201
B(  7-C ,  8-C ) :   0.9439 B(  7-C , 17-H ) :   0.9276 B(  7-C , 18-H ) :   0.9251
B(  8-C , 19-H ) :   0.9190 B(  8-C , 20-H ) :   0.9292

MP2 TOTAL ENERGY:     -386.354370901 Eh
FINAL SINGLE POINT ENERGY      -386.354370901188

DIPOLE MOMENT
-------------
                                X             Y             Z
Electronic contribution:      1.97978       1.97937       2.66395
Nuclear contribution   :     -1.70048      -1.64595      -3.14308
                        -----------------------------------------
Total Dipole Moment    :      0.27930       0.33342      -0.47913
                        -----------------------------------------
Magnitude (a.u.)       :      0.64710
Magnitude (Debye)      :      1.64479

                             ****ORCA TERMINATED NORMALLY****
TOTAL RUN TIME: 0 days 0 hours 17 minutes 57 seconds 959 msec
