                         Program Version 3.0.3 - RELEASE   -
|  1> ! RI-MP2 RIJK def2-TZVP def2-TZVP/C def2-TZVP/JK TIGHTSCF
|  2> % maxcore 2000
|  3> % mp2 density relaxed end
|  4> *xyz 0 1
|  5>  C        0.0306855368     1.4612176003     0.0008051591
|  6>  C       -0.0337954443    -0.0443738752    -0.0089874697
|  7>  C       -0.9046874721    -0.8241662329     0.9443004392
|  8>  C        0.5996024910    -0.9365870761     1.0475539455
|  9>  C        1.3613643928    -1.8926889543     0.1095588425
| 10>  C        0.3594593756    -2.2916752746    -0.9953654448
| 11>  C        0.5294780312    -0.7799218630    -1.2514165139
| 12>  O        1.9432804924    -0.9461580583    -0.8643213250
| 13>  H        1.0143169646     1.8032783422    -0.3385910704
| 14>  H       -0.7281961282     1.9026583583    -0.6564459616
| 15>  H       -0.1344784612     1.8588383916     1.0072695236
| 16>  H       -1.3776853742    -0.2333650271     1.7246072356
| 17>  H       -1.5136158368    -1.6595542279     0.6198222080
| 18>  H        1.1181367342    -0.5282085388     1.9071731313
| 19>  H        2.0878363588    -2.5806386283     0.5408533494
| 20>  H        0.8585851408    -2.8685924585    -1.7730641426
| 21>  H       -0.6119114322    -2.7244906432    -0.7549710678
| 22>  H        0.3937174907    -0.3129302441    -2.2273880183
| 23> *
| 24>
| 25>                          ****END OF INPUT****

CARTESIAN COORDINATES (ANGSTROEM)
---------------------------------
  C      0.030686    1.461218    0.000805
  C     -0.033795   -0.044374   -0.008987
  C     -0.904687   -0.824166    0.944300
  C      0.599602   -0.936587    1.047554
  C      1.361364   -1.892689    0.109559
  C      0.359459   -2.291675   -0.995365
  C      0.529478   -0.779922   -1.251417
  O      1.943280   -0.946158   -0.864321
  H      1.014317    1.803278   -0.338591
  H     -0.728196    1.902658   -0.656446
  H     -0.134478    1.858838    1.007270
  H     -1.377685   -0.233365    1.724607
  H     -1.513616   -1.659554    0.619822
  H      1.118137   -0.528209    1.907173
  H      2.087836   -2.580639    0.540853
  H      0.858585   -2.868592   -1.773064
  H     -0.611911   -2.724491   -0.754971
  H      0.393717   -0.312930   -2.227388

 Total Charge           Charge          ....    0
 Multiplicity           Mult            ....    1
 Number of Electrons    NEL             ....   60
 Basis Dimension        Dim             ....  308

ORBITAL ENERGIES
----------------

  NO   OCC          E(Eh)            E(eV)
   0   2.0000     -20.539900      -558.9191
   1   2.0000     -11.290084      -307.2188
   2   2.0000     -11.288634      -307.1793
   3   2.0000     -11.237843      -305.7973
   4   2.0000     -11.234925      -305.7178
   5   2.0000     -11.229238      -305.5631
   6   2.0000     -11.229019      -305.5571
   7   2.0000     -11.217694      -305.2490
   8   2.0000      -1.379200       -37.5299
   9   2.0000      -1.159148       -31.5420
  10   2.0000      -1.007650       -27.4196
  11   2.0000      -0.977404       -26.5965
  12   2.0000      -0.916521       -24.9398
  13   2.0000      -0.859338       -23.3838
  14   2.0000      -0.749978       -20.4079
  15   2.0000      -0.733105       -19.9488
  16   2.0000      -0.692308       -18.8386
  17   2.0000      -0.672530       -18.3005
  18   2.0000      -0.617981       -16.8161
  19   2.0000      -0.572262       -15.5720
  20   2.0000      -0.562883       -15.3168
  21   2.0000      -0.553631       -15.0651
  22   2.0000      -0.538721       -14.6594
  23   2.0000      -0.531577       -14.4649
  24   2.0000      -0.497777       -13.5452
  25   2.0000      -0.476859       -12.9760
  26   2.0000      -0.460398       -12.5281
  27   2.0000      -0.417311       -11.3556
  28   2.0000      -0.413011       -11.2386
  29   2.0000      -0.378270       -10.2932
  30   0.0000       0.144079         3.9206
  31   0.0000       0.161677         4.3994
  32   0.0000       0.167262         4.5514
  33   0.0000       0.178625         4.8606
  34   0.0000       0.195113         5.3093

MULLIKEN ATOMIC CHARGES
-----------------------
   0 C :   -0.447734
   1 C :    0.102745
   2 C :   -0.279081
   3 C :   -0.128935
   4 C :   -0.006242
   5 C :   -0.205977
   6 C :   -0.008884
   7 O :   -0.308914
   8 H :    0.147989
   9 H :    0.132053
  10 H :    0.127083
  11 H :    0.127973
  12 H :    0.123345
  13 H :    0.130516
  14 H :    0.128508
  15 H :    0.126166
  16 H :    0.112514
  17 H :    0.126874
Sum of atomic charges:   -0.0000000

LOEWDIN ATOMIC CHARGES
----------------------
   0 C :   -0.271189
   1 C :   -0.221755
   2 C :   -0.183719
   3 C :   -0.158721
   4 C :   -0.228631
   5 C :   -0.202027
   6 C :   -0.208043
   7 O :    0.140857
   8 H :    0.133472
   9 H :    0.126310
  10 H :    0.128707
  11 H :    0.140059
  12 H :    0.129275
  13 H :    0.143949
  14 H :    0.131666
  15 H :    0.141958
  16 H :    0.123602
  17 H :    0.134232

  Mayer bond orders larger than 0.1
B(  0-C ,  1-C ) :   0.8952 B(  0-C ,  8-H ) :   0.9404 B(  0-C ,  9-H ) :   0.9400
B(  0-C , 10-H ) :   0.9353 B(  1-C ,  2-C ) :   0.8924 B(  1-C ,  3-C ) :   0.8316
B(  1-C ,  6-C ) :   0.9323 B(  2-C ,  3-C ) :   0.8885 B(  2-C , 11-H ) :   0.9162
B(  2-C , 12-H ) :   0.9044 B(  3-C ,  4-C ) :   0.9241 B(  3-C , 13-H ) :   0.9227
B(  4-C ,  5-C ) :   0.9545 B(  4-C ,  7-O ) :   0.9258 B(  4-C , 14-H ) :   0.9113
B(  5-C ,  6-C ) :   0.9475 B(  5-C , 15-H ) :   0.9291 B(  5-C , 16-H ) :   0.9303
B(  6-C ,  7-O ) :   0.9219 B(  6-C , 17-H ) :   0.9073

MP2 TOTAL ENERGY:     -347.152551788 Eh
FINAL SINGLE POINT ENERGY      -347.152551788127

DIPOLE MOMENT
-------------
                                X             Y             Z
Electronic contribution:      3.03327      -2.30542      -1.15630
Nuclear contribution   :     -3.67004       2.16260       1.36611
                        -----------------------------------------
Total Dipole Moment    :     -0.63677      -0.14282       0.20981
                        -----------------------------------------
Magnitude (a.u.)       :      0.68549
Magnitude (Debye)      :      1.74237

                             ****ORCA TERMINATED NORMALLY****
TOTAL RUN TIME: 0 days 0 hours 14 minutes 13 seconds 541 msec
