                         Program Version 3.0.3 - RELEASE   -
|  1> ! RI-MP2 RIJK def2-TZVP def2-TZVP/C def2-TZVP/JK TIGHTSCF
|  2> % maxcore 2000
|  3> % mp2 density relaxed end
|  4> *xyz 0 1
|  5>  O       -0.8635673208     0.8475949701    -0.3815788303
|  6>  C        0.1743939695     0.8916448675     0.2279245686
|  7>  C        1.2046061283     1.9680466067     0.0515811089
|  8>  C        1.0285998019     2.9342712705    -1.0960729543
|  9>  C        1.2294696426     2.2376224639    -2.4602022927
| 10>  C        1.1474051367     3.1800148774    -3.5723567093
| 11>  N        1.0826904338     3.9411931634    -4.4392429108
| 12>  C        1.9634972867     2.3429942361     1.2666211895
| 13>  O        2.5400155882     1.4839754895     0.2983915574
| 14>  H        0.4637650467     0.1200618969     0.9741217836
| 15>  H        0.0222361261     3.3600160838    -1.0489465914
| 16>  H        1.7451419570     3.7532547325    -0.9947844003
| 17>  H        2.2099125141     1.7495497779    -2.4839350468
| 18>  H        0.4699101462     1.4621172837    -2.5979460484
| 19>  H        2.3732847067     3.3502739834     1.3172657410
| 20>  H        1.7275361364     1.8819639966     2.2250035753
| 21> *
| 22>
| 23>                          ****END OF INPUT****

CARTESIAN COORDINATES (ANGSTROEM)
---------------------------------
  O     -0.863567    0.847595   -0.381579
  C      0.174394    0.891645    0.227925
  C      1.204606    1.968047    0.051581
  C      1.028600    2.934271   -1.096073
  C      1.229470    2.237622   -2.460202
  C      1.147405    3.180015   -3.572357
  N      1.082690    3.941193   -4.439243
  C      1.963497    2.342994    1.266621
  O      2.540016    1.483975    0.298392
  H      0.463765    0.120062    0.974122
  H      0.022236    3.360016   -1.048947
  H      1.745142    3.753255   -0.994784
  H      2.209913    1.749550   -2.483935
  H      0.469910    1.462117   -2.597946
  H      2.373285    3.350274    1.317266
  H      1.727536    1.881964    2.225004

 Total Charge           Charge          ....    0
 Multiplicity           Mult            ....    1
 Number of Electrons    NEL             ....   66
 Basis Dimension        Dim             ....  321

ORBITAL ENERGIES
----------------

  NO   OCC          E(Eh)            E(eV)
   0   2.0000     -20.614478      -560.9485
   1   2.0000     -20.588519      -560.2421
   2   2.0000     -15.570041      -423.6824
   3   2.0000     -11.361555      -309.1636
   4   2.0000     -11.333484      -308.3998
   5   2.0000     -11.327451      -308.2356
   6   2.0000     -11.287678      -307.1533
   7   2.0000     -11.274703      -306.8003
   8   2.0000     -11.272643      -306.7442
   9   2.0000      -1.460870       -39.7523
  10   2.0000      -1.425259       -38.7833
  11   2.0000      -1.220268       -33.2052
  12   2.0000      -1.109963       -30.2036
  13   2.0000      -1.013233       -27.5715
  14   2.0000      -0.936029       -25.4707
  15   2.0000      -0.922146       -25.0929
  16   2.0000      -0.793268       -21.5859
  17   2.0000      -0.736288       -20.0354
  18   2.0000      -0.721801       -19.6412
  19   2.0000      -0.698593       -19.0097
  20   2.0000      -0.664042       -18.0695
  21   2.0000      -0.657294       -17.8859
  22   2.0000      -0.611687       -16.6448
  23   2.0000      -0.602076       -16.3833
  24   2.0000      -0.572338       -15.5741
  25   2.0000      -0.566850       -15.4248
  26   2.0000      -0.550662       -14.9843
  27   2.0000      -0.547230       -14.8909
  28   2.0000      -0.505089       -13.7442
  29   2.0000      -0.482091       -13.1184
  30   2.0000      -0.459575       -12.5057
  31   2.0000      -0.452438       -12.3115
  32   2.0000      -0.446025       -12.1370
  33   0.0000       0.094261         2.5650
  34   0.0000       0.130963         3.5637
  35   0.0000       0.144772         3.9394
  36   0.0000       0.154441         4.2025
  37   0.0000       0.163943         4.4611

MULLIKEN ATOMIC CHARGES
-----------------------
   0 O :   -0.261328
   1 C :    0.055703
   2 C :    0.198544
   3 C :   -0.215722
   4 C :   -0.159797
   5 C :   -0.191051
   6 N :   -0.055951
   7 C :   -0.075750
   8 O :   -0.323915
   9 H :    0.109378
  10 H :    0.150809
  11 H :    0.146283
  12 H :    0.173066
  13 H :    0.179256
  14 H :    0.136004
  15 H :    0.134470
Sum of atomic charges:   -0.0000000

LOEWDIN ATOMIC CHARGES
----------------------
   0 O :    0.150287
   1 C :   -0.257439
   2 C :   -0.319706
   3 C :   -0.198247
   4 C :   -0.233056
   5 C :   -0.191907
   6 N :    0.057821
   7 C :   -0.230711
   8 O :    0.185961
   9 H :    0.126181
  10 H :    0.161227
  11 H :    0.155285
  12 H :    0.168645
  13 H :    0.169180
  14 H :    0.129674
  15 H :    0.126807

  Mayer bond orders larger than 0.1
B(  0-O ,  1-C ) :   1.9810 B(  1-C ,  2-C ) :   0.8553 B(  1-C ,  9-H ) :   0.9498
B(  2-C ,  3-C ) :   0.8885 B(  2-C ,  7-C ) :   0.9378 B(  2-C ,  8-O ) :   0.8280
B(  3-C ,  4-C ) :   0.9174 B(  3-C , 10-H ) :   0.9139 B(  3-C , 11-H ) :   0.9357
B(  4-C ,  5-C ) :   0.9298 B(  4-C , 12-H ) :   0.9091 B(  4-C , 13-H ) :   0.8976
B(  5-C ,  6-N ) :   2.8826 B(  7-C ,  8-O ) :   0.9017 B(  7-C , 14-H ) :   0.8985
B(  7-C , 15-H ) :   0.9173

MP2 TOTAL ENERGY:     -437.162503085 Eh
FINAL SINGLE POINT ENERGY      -437.162503084853

DIPOLE MOMENT
-------------
                                X             Y             Z
Electronic contribution:     -1.09222      -0.79964      -2.65811
Nuclear contribution   :      1.51407       0.45888       4.55433
                        -----------------------------------------
Total Dipole Moment    :      0.42185      -0.34076       1.89623
                        -----------------------------------------
Magnitude (a.u.)       :      1.97224
Magnitude (Debye)      :      5.01305

                             ****ORCA TERMINATED NORMALLY****
TOTAL RUN TIME: 0 days 0 hours 14 minutes 24 seconds 530 msec
