                         Program Version 3.0.3 - RELEASE   -
|  1> ! RI-MP2 RIJK def2-TZVP def2-TZVP/C def2-TZVP/JK TIGHTSCF
|  2> % maxcore 2000
|  3> % mp2 density relaxed end
|  4> *xyz 0 1
|  5>  C       -0.1494907773     1.4062033822     0.0741291773
|  6>  N        0.0228229140    -0.0340924195    -0.0465312939
|  7>  C        0.0127468786    -0.8448104986     1.1487160724
|  8>  C       -1.4275430293    -1.0570766885     1.7131323385
|  9>  N       -2.3750316792    -1.6980740404     0.8082589983
| 10>  C       -1.3304818359    -1.8276815399     2.9608696563
| 11>  N       -1.2000733237    -2.4401752564     3.9315197939
| 12>  C        0.2371563652    -0.5891576040    -1.2807033286
| 13>  O        0.2501410202     0.0149210794    -2.3297355744
| 14>  H        0.5931816038     1.8232177297     0.7637213229
| 15>  H       -0.0145275052     1.8387190124    -0.9171383992
| 16>  H       -1.1487301054     1.6675321822     0.4414050541
| 17>  H        0.4417499055    -1.8249474763     0.9164788510
| 18>  H        0.6426439731    -0.3838111112     1.9197522947
| 19>  H       -1.8398853536    -0.0745365984     1.9749602418
| 20>  H       -2.4537224713    -1.1492780542    -0.0424209435
| 21>  H       -2.0475001230    -2.6229135494     0.5440943483
| 22>  H        0.4058050134    -1.6816477689    -1.2117983498
| 23> *
| 24>
| 25>                          ****END OF INPUT****

CARTESIAN COORDINATES (ANGSTROEM)
---------------------------------
  C     -0.149491    1.406203    0.074129
  N      0.022823   -0.034092   -0.046531
  C      0.012747   -0.844810    1.148716
  C     -1.427543   -1.057077    1.713132
  N     -2.375032   -1.698074    0.808259
  C     -1.330482   -1.827682    2.960870
  N     -1.200073   -2.440175    3.931520
  C      0.237156   -0.589158   -1.280703
  O      0.250141    0.014921   -2.329736
  H      0.593182    1.823218    0.763721
  H     -0.014528    1.838719   -0.917138
  H     -1.148730    1.667532    0.441405
  H      0.441750   -1.824947    0.916479
  H      0.642644   -0.383811    1.919752
  H     -1.839885   -0.074537    1.974960
  H     -2.453722   -1.149278   -0.042421
  H     -2.047500   -2.622914    0.544094
  H      0.405805   -1.681648   -1.211798

 Total Charge           Charge          ....    0
 Multiplicity           Mult            ....    1
 Number of Electrons    NEL             ....   68
 Basis Dimension        Dim             ....  333

ORBITAL ENERGIES
----------------

  NO   OCC          E(Eh)            E(eV)
   0   2.0000     -20.541540      -558.9637
   1   2.0000     -15.615321      -424.9145
   2   2.0000     -15.585341      -424.0987
   3   2.0000     -15.584671      -424.0805
   4   2.0000     -11.366989      -309.3115
   5   2.0000     -11.332310      -308.3678
   6   2.0000     -11.309755      -307.7541
   7   2.0000     -11.284681      -307.0718
   8   2.0000     -11.280109      -306.9474
   9   2.0000      -1.404110       -38.2078
  10   2.0000      -1.285527       -34.9810
  11   2.0000      -1.244413       -33.8622
  12   2.0000      -1.213926       -33.0326
  13   2.0000      -1.046609       -28.4797
  14   2.0000      -0.988878       -26.9087
  15   2.0000      -0.923710       -25.1354
  16   2.0000      -0.805063       -21.9069
  17   2.0000      -0.759966       -20.6797
  18   2.0000      -0.720663       -19.6102
  19   2.0000      -0.693937       -18.8830
  20   2.0000      -0.676814       -18.4171
  21   2.0000      -0.658753       -17.9256
  22   2.0000      -0.626326       -17.0432
  23   2.0000      -0.613516       -16.6946
  24   2.0000      -0.601600       -16.3704
  25   2.0000      -0.572318       -15.5736
  26   2.0000      -0.568073       -15.4581
  27   2.0000      -0.556682       -15.1481
  28   2.0000      -0.551594       -15.0096
  29   2.0000      -0.481796       -13.1103
  30   2.0000      -0.478601       -13.0234
  31   2.0000      -0.450387       -12.2557
  32   2.0000      -0.445957       -12.1351
  33   2.0000      -0.396823       -10.7981
  34   0.0000       0.102558         2.7907
  35   0.0000       0.126254         3.4356
  36   0.0000       0.130362         3.5473
  37   0.0000       0.153539         4.1780
  38   0.0000       0.167258         4.5513

MULLIKEN ATOMIC CHARGES
-----------------------
   0 C :   -0.335207
   1 N :   -0.075230
   2 C :   -0.269698
   3 C :    0.165072
   4 N :   -0.519491
   5 C :   -0.194071
   6 N :   -0.045583
   7 C :    0.125455
   8 O :   -0.346463
   9 H :    0.143722
  10 H :    0.188338
  11 H :    0.137515
  12 H :    0.162373
  13 H :    0.153243
  14 H :    0.141005
  15 H :    0.246464
  16 H :    0.237502
  17 H :    0.085055
Sum of atomic charges:   -0.0000000

LOEWDIN ATOMIC CHARGES
----------------------
   0 C :   -0.283944
   1 N :    0.141282
   2 C :   -0.244594
   3 C :   -0.322667
   4 N :   -0.118683
   5 C :   -0.168075
   6 N :    0.074167
   7 C :   -0.424562
   8 O :    0.067889
   9 H :    0.121952
  10 H :    0.138512
  11 H :    0.116756
  12 H :    0.146799
  13 H :    0.145610
  14 H :    0.170578
  15 H :    0.161867
  16 H :    0.162944
  17 H :    0.114170

  Mayer bond orders larger than 0.1
B(  0-C ,  1-N ) :   0.8573 B(  0-C ,  9-H ) :   0.9298 B(  0-C , 10-H ) :   0.9171
B(  0-C , 11-H ) :   0.9310 B(  1-N ,  2-C ) :   0.8993 B(  1-N ,  7-C ) :   1.1115
B(  2-C ,  3-C ) :   0.8702 B(  2-C , 12-H ) :   0.9309 B(  2-C , 13-H ) :   0.9317
B(  3-C ,  4-N ) :   0.9379 B(  3-C ,  5-C ) :   0.9360 B(  3-C , 14-H ) :   0.8988
B(  4-N , 15-H ) :   0.8864 B(  4-N , 16-H ) :   0.8840 B(  5-C ,  6-N ) :   2.8618
B(  7-C ,  8-O ) :   1.9077 B(  7-C , 17-H ) :   0.9286

MP2 TOTAL ENERGY:     -434.572170907 Eh
FINAL SINGLE POINT ENERGY      -434.572170907389

DIPOLE MOMENT
-------------
                                X             Y             Z
Electronic contribution:     -0.18402      -3.47380       1.63686
Nuclear contribution   :      0.43992       4.09142      -1.77872
                        -----------------------------------------
Total Dipole Moment    :      0.25590       0.61762      -0.14185
                        -----------------------------------------
Magnitude (a.u.)       :      0.68342
Magnitude (Debye)      :      1.73711

                             ****ORCA TERMINATED NORMALLY****
TOTAL RUN TIME: 0 days 0 hours 17 minutes 28 seconds 511 msec
