                         Program Version 3.0.3 - RELEASE   -
|  1> ! RI-MP2 RIJK def2-TZVP def2-TZVP/C def2-TZVP/JK TIGHTSCF
|  2> % maxcore 2000
|  3> % mp2 density relaxed end
|  4> *xyz 0 1
|  5>  C       -0.1362581490     1.5128801260    -0.0397707763
|  6>  C        0.0230983459     0.0075911809     0.0781496350
|  7>  O        0.7500225465    -0.4887648187    -1.0648710723
|  8>  C        1.5037264130    -1.5759927711    -0.7432154959
|  9>  O        2.1300578404    -2.1899365645    -1.5542208343
| 10>  C        1.3931733578    -1.8294273310     0.7589226064
| 11>  C        0.7988668969    -0.5275387526     1.3179539451
| 12>  C        1.8955899526     0.4203708329     1.7685607376
| 13>  O        1.8690603926     1.0399046588     2.7994282029
| 14>  H        0.8331924565     2.0145667728    -0.1010393473
| 15>  H       -0.7070907252     1.7619035358    -0.9374933732
| 16>  H       -0.6712561813     1.9008337168     0.8321068924
| 17>  H       -0.9667981861    -0.4673394879     0.0673587975
| 18>  H        0.7201000750    -2.6780551728     0.9183888461
| 19>  H        2.3682136852    -2.1062537604     1.1654281055
| 20>  H        0.1220690695    -0.6714411055     2.1620270808
| 21>  H        2.7597797996     0.5050820004     1.0696533800
| 22> *
| 23>
| 24>                          ****END OF INPUT****

CARTESIAN COORDINATES (ANGSTROEM)
---------------------------------
  C     -0.136258    1.512880   -0.039771
  C      0.023098    0.007591    0.078150
  O      0.750023   -0.488765   -1.064871
  C      1.503726   -1.575993   -0.743215
  O      2.130058   -2.189937   -1.554221
  C      1.393173   -1.829427    0.758923
  C      0.798867   -0.527539    1.317954
  C      1.895590    0.420371    1.768561
  O      1.869060    1.039905    2.799428
  H      0.833192    2.014567   -0.101039
  H     -0.707091    1.761904   -0.937493
  H     -0.671256    1.900834    0.832107
  H     -0.966798   -0.467339    0.067359
  H      0.720100   -2.678055    0.918389
  H      2.368214   -2.106254    1.165428
  H      0.122069   -0.671441    2.162027
  H      2.759780    0.505082    1.069653

 Total Charge           Charge          ....    0
 Multiplicity           Mult            ....    1
 Number of Electrons    NEL             ....   68
 Basis Dimension        Dim             ....  327

ORBITAL ENERGIES
----------------

  NO   OCC          E(Eh)            E(eV)
   0   2.0000     -20.613961      -560.9344
   1   2.0000     -20.578340      -559.9651
   2   2.0000     -20.553534      -559.2901
   3   2.0000     -11.392070      -309.9940
   4   2.0000     -11.352078      -308.9058
   5   2.0000     -11.328789      -308.2720
   6   2.0000     -11.277124      -306.8661
   7   2.0000     -11.276118      -306.8388
   8   2.0000     -11.245223      -305.9981
   9   2.0000      -1.472316       -40.0637
  10   2.0000      -1.417214       -38.5644
  11   2.0000      -1.381378       -37.5892
  12   2.0000      -1.127816       -30.6894
  13   2.0000      -1.057146       -28.7664
  14   2.0000      -0.949112       -25.8267
  15   2.0000      -0.888417       -24.1750
  16   2.0000      -0.819848       -22.3092
  17   2.0000      -0.789804       -21.4917
  18   2.0000      -0.726602       -19.7718
  19   2.0000      -0.700054       -19.0494
  20   2.0000      -0.677956       -18.4481
  21   2.0000      -0.651836       -17.7374
  22   2.0000      -0.648871       -17.6567
  23   2.0000      -0.627944       -17.0872
  24   2.0000      -0.596685       -16.2366
  25   2.0000      -0.583369       -15.8743
  26   2.0000      -0.565608       -15.3910
  27   2.0000      -0.551717       -15.0130
  28   2.0000      -0.550669       -14.9845
  29   2.0000      -0.535283       -14.5658
  30   2.0000      -0.503010       -13.6876
  31   2.0000      -0.469328       -12.7711
  32   2.0000      -0.452389       -12.3101
  33   2.0000      -0.433728       -11.8023
  34   0.0000       0.106393         2.8951
  35   0.0000       0.117164         3.1882
  36   0.0000       0.143266         3.8985
  37   0.0000       0.146915         3.9978
  38   0.0000       0.157897         4.2966

MULLIKEN ATOMIC CHARGES
-----------------------
   0 C :   -0.362937
   1 C :    0.001028
   2 O :   -0.212290
   3 C :    0.229708
   4 O :   -0.272562
   5 C :   -0.290355
   6 C :    0.053116
   7 C :   -0.009288
   8 O :   -0.242191
   9 H :    0.138609
  10 H :    0.153881
  11 H :    0.145821
  12 H :    0.112265
  13 H :    0.158440
  14 H :    0.161605
  15 H :    0.129456
  16 H :    0.105695
Sum of atomic charges:   -0.0000000

LOEWDIN ATOMIC CHARGES
----------------------
   0 C :   -0.281438
   1 C :   -0.275395
   2 O :    0.274540
   3 C :   -0.466990
   4 O :    0.146888
   5 C :   -0.201142
   6 C :   -0.223674
   7 C :   -0.272722
   8 O :    0.146940
   9 H :    0.131671
  10 H :    0.133155
  11 H :    0.137210
  12 H :    0.147516
  13 H :    0.162415
  14 H :    0.157730
  15 H :    0.162370
  16 H :    0.120926

  Mayer bond orders larger than 0.1
B(  0-C ,  1-C ) :   0.9341 B(  0-C ,  9-H ) :   0.9206 B(  0-C , 10-H ) :   0.9305
B(  0-C , 11-H ) :   0.9284 B(  1-C ,  2-O ) :   0.8819 B(  1-C ,  6-C ) :   0.8776
B(  1-C , 12-H ) :   0.9269 B(  2-O ,  3-C ) :   1.1005 B(  3-C ,  4-O ) :   2.0490
B(  3-C ,  5-C ) :   0.9253 B(  5-C ,  6-C ) :   0.8779 B(  5-C , 13-H ) :   0.9034
B(  5-C , 14-H ) :   0.9162 B(  6-C ,  7-C ) :   0.8099 B(  6-C , 15-H ) :   0.8967
B(  7-C ,  8-O ) :   2.0001 B(  7-C , 16-H ) :   0.9426

MP2 TOTAL ENERGY:     -458.283159409 Eh
FINAL SINGLE POINT ENERGY      -458.283159408796

DIPOLE MOMENT
-------------
                                X             Y             Z
Electronic contribution:      3.45662      -3.11682      -1.56436
Nuclear contribution   :     -4.36625       3.15847       2.15888
                        -----------------------------------------
Total Dipole Moment    :     -0.90963       0.04165       0.59452
                        -----------------------------------------
Magnitude (a.u.)       :      1.08748
Magnitude (Debye)      :      2.76416

                             ****ORCA TERMINATED NORMALLY****
TOTAL RUN TIME: 0 days 0 hours 16 minutes 44 seconds 633 msec
