                         Program Version 3.0.3 - RELEASE   -
|  1> ! RI-MP2 RIJK def2-TZVP def2-TZVP/C def2-TZVP/JK TIGHTSCF
|  2> % maxcore 2000
|  3> % mp2 density relaxed end
|  4> *xyz 0 1
|  5>  O        0.1391089568     1.3944240323    -0.2630219726
|  6>  C       -0.0128260356     0.0372715767     0.0205985279
|  7>  C        0.1958259176    -0.5358928288     1.4533018774
|  8>  O       -0.5829115364     0.1543004957     2.4728584985
|  9>  C       -1.7622708036    -0.6113059853     2.1320370778
| 10>  C       -2.4278432460     0.0770809160     0.9203169864
| 11>  O       -2.4426972796     1.4902172404     0.9809015388
| 12>  C       -1.4084879034    -0.6289536471    -0.0325970264
| 13>  C       -0.9666736002    -1.5394377621     1.1818889400
| 14>  H       -0.7007357483     1.8203183989    -0.0480208791
| 15>  H        0.6691279981    -0.5246918976    -0.6326916774
| 16>  H        1.2025560588    -0.7604735186     1.8078860785
| 17>  H       -2.3480276420    -0.8880439739     3.0103871664
| 18>  H       -3.4462838366    -0.2811410912     0.7399434147
| 19>  H       -1.8066375037     1.7110227192     1.6807835014
| 20>  H       -1.7782623979    -0.9860330794    -0.9927928555
| 21>  H       -0.9178158579    -2.6227236653     1.2077222931
| 22> *
| 23>
| 24>                          ****END OF INPUT****

CARTESIAN COORDINATES (ANGSTROEM)
---------------------------------
  O      0.139109    1.394424   -0.263022
  C     -0.012826    0.037272    0.020599
  C      0.195826   -0.535893    1.453302
  O     -0.582912    0.154300    2.472858
  C     -1.762271   -0.611306    2.132037
  C     -2.427843    0.077081    0.920317
  O     -2.442697    1.490217    0.980902
  C     -1.408488   -0.628954   -0.032597
  C     -0.966674   -1.539438    1.181889
  H     -0.700736    1.820318   -0.048021
  H      0.669128   -0.524692   -0.632692
  H      1.202556   -0.760474    1.807886
  H     -2.348028   -0.888044    3.010387
  H     -3.446284   -0.281141    0.739943
  H     -1.806638    1.711023    1.680784
  H     -1.778262   -0.986033   -0.992793
  H     -0.917816   -2.622724    1.207722

 Total Charge           Charge          ....    0
 Multiplicity           Mult            ....    1
 Number of Electrons    NEL             ....   68
 Basis Dimension        Dim             ....  327

ORBITAL ENERGIES
----------------

  NO   OCC          E(Eh)            E(eV)
   0   2.0000     -20.570651      -559.7559
   1   2.0000     -20.570269      -559.7455
   2   2.0000     -20.552633      -559.2656
   3   2.0000     -11.299694      -307.4803
   4   2.0000     -11.297005      -307.4071
   5   2.0000     -11.296800      -307.4016
   6   2.0000     -11.291812      -307.2658
   7   2.0000     -11.254950      -306.2628
   8   2.0000     -11.246471      -306.0320
   9   2.0000      -1.416446       -38.5435
  10   2.0000      -1.370333       -37.2887
  11   2.0000      -1.362088       -37.0643
  12   2.0000      -1.149456       -31.2783
  13   2.0000      -1.016463       -27.6594
  14   2.0000      -0.920963       -25.0607
  15   2.0000      -0.847880       -23.0720
  16   2.0000      -0.844756       -22.9870
  17   2.0000      -0.760337       -20.6898
  18   2.0000      -0.718335       -19.5469
  19   2.0000      -0.703176       -19.1344
  20   2.0000      -0.678060       -18.4510
  21   2.0000      -0.636761       -17.3272
  22   2.0000      -0.628085       -17.0911
  23   2.0000      -0.599575       -16.3153
  24   2.0000      -0.594862       -16.1870
  25   2.0000      -0.575221       -15.6526
  26   2.0000      -0.558759       -15.2046
  27   2.0000      -0.542982       -14.7753
  28   2.0000      -0.512906       -13.9569
  29   2.0000      -0.468845       -12.7579
  30   2.0000      -0.448951       -12.2166
  31   2.0000      -0.437781       -11.9126
  32   2.0000      -0.414048       -11.2668
  33   2.0000      -0.396819       -10.7980
  34   0.0000       0.141141         3.8406
  35   0.0000       0.149403         4.0655
  36   0.0000       0.156262         4.2521
  37   0.0000       0.169927         4.6240
  38   0.0000       0.187308         5.0969

MULLIKEN ATOMIC CHARGES
-----------------------
   0 O :   -0.463963
   1 C :   -0.024728
   2 C :    0.089581
   3 O :   -0.350629
   4 C :    0.062757
   5 C :    0.012533
   6 O :   -0.503228
   7 C :    0.026922
   8 C :   -0.275141
   9 H :    0.338640
  10 H :    0.096911
  11 H :    0.122703
  12 H :    0.129222
  13 H :    0.115200
  14 H :    0.338221
  15 H :    0.135299
  16 H :    0.149700
Sum of atomic charges:    0.0000000

LOEWDIN ATOMIC CHARGES
----------------------
   0 O :   -0.004221
   1 C :   -0.314865
   2 C :   -0.200778
   3 O :    0.149644
   4 C :   -0.224442
   5 C :   -0.290925
   6 O :   -0.021489
   7 C :   -0.151465
   8 C :   -0.119559
   9 H :    0.175162
  10 H :    0.153293
  11 H :    0.127867
  12 H :    0.128287
  13 H :    0.145542
  14 H :    0.180258
  15 H :    0.134686
  16 H :    0.133006

  Mayer bond orders larger than 0.1
B(  0-O ,  1-C ) :   1.0050 B(  0-O ,  9-H ) :   0.8047 B(  1-C ,  2-C ) :   0.8797
B(  1-C ,  7-C ) :   0.8936 B(  1-C , 10-H ) :   0.9344 B(  2-C ,  3-O ) :   0.8637
B(  2-C ,  8-C ) :   0.9214 B(  2-C , 11-H ) :   0.9231 B(  3-O ,  4-C ) :   0.8965
B(  4-C ,  5-C ) :   0.9294 B(  4-C ,  8-C ) :   0.9325 B(  4-C , 12-H ) :   0.9203
B(  5-C ,  6-O ) :   0.9193 B(  5-C ,  7-C ) :   0.8704 B(  5-C , 13-H ) :   0.9438
B(  6-O , 14-H ) :   0.8057 B(  7-C ,  8-C ) :   0.9181 B(  7-C , 15-H ) :   0.9192
B(  8-C , 16-H ) :   0.9013

MP2 TOTAL ENERGY:     -458.178105445 Eh
FINAL SINGLE POINT ENERGY      -458.178105445080

DIPOLE MOMENT
-------------
                                X             Y             Z
Electronic contribution:      0.48798       1.58406       1.16647
Nuclear contribution   :     -0.82435      -2.77918      -1.02544
                        -----------------------------------------
Total Dipole Moment    :     -0.33636      -1.19512       0.14104
                        -----------------------------------------
Magnitude (a.u.)       :      1.24954
Magnitude (Debye)      :      3.17608

                             ****ORCA TERMINATED NORMALLY****
TOTAL RUN TIME: 0 days 0 hours 17 minutes 42 seconds 682 msec
