                         Program Version 3.0.3 - RELEASE   -
|  1> ! RI-MP2 RIJK def2-TZVP def2-TZVP/C def2-TZVP/JK TIGHTSCF
|  2> % maxcore 2000
|  3> % mp2 density relaxed end
|  4> *xyz 0 1
|  5>  C       -0.1616885074     1.5569715297    -0.0185419817
|  6>  C       -0.0096885495     0.0439393121    -0.0189883042
|  7>  C        0.7388076882    -0.6099468728    -1.1871804029
|  8>  O        2.0999410434    -0.1461365785    -1.1320759873
|  9>  C        1.7167145652    -1.2534221218    -0.2962586968
| 10>  C        1.0800313427    -0.6079652217     0.9441768032
| 11>  O        1.9045277280     0.2406036030     1.6917464240
| 12>  H        0.7776118157     2.0450222994    -0.2921507455
| 13>  H       -0.9262361598     1.8749322121    -0.7351684964
| 14>  H       -0.4533198783     1.9177130683     0.9722592984
| 15>  H       -0.9741829586    -0.4486325532     0.1437488042
| 16>  H        0.3719360193    -0.9268820521    -2.1566711597
| 17>  H        2.2877495335    -2.1691366366    -0.3994533494
| 18>  H        0.6368451432    -1.3254549625     1.6385752003
| 19>  H        2.4266172246     0.7396937246     1.0506217237
| 20> *
| 21>
| 22>                          ****END OF INPUT****

CARTESIAN COORDINATES (ANGSTROEM)
---------------------------------
  C     -0.161689    1.556972   -0.018542
  C     -0.009689    0.043939   -0.018988
  C      0.738808   -0.609947   -1.187180
  O      2.099941   -0.146137   -1.132076
  C      1.716715   -1.253422   -0.296259
  C      1.080031   -0.607965    0.944177
  O      1.904528    0.240604    1.691746
  H      0.777612    2.045022   -0.292151
  H     -0.926236    1.874932   -0.735168
  H     -0.453320    1.917713    0.972259
  H     -0.974183   -0.448633    0.143749
  H      0.371936   -0.926882   -2.156671
  H      2.287750   -2.169137   -0.399453
  H      0.636845   -1.325455    1.638575
  H      2.426617    0.739694    1.050622

 Total Charge           Charge          ....    0
 Multiplicity           Mult            ....    1
 Number of Electrons    NEL             ....   54
 Basis Dimension        Dim             ....  265

ORBITAL ENERGIES
----------------

  NO   OCC          E(Eh)            E(eV)
   0   2.0000     -20.577706      -559.9478
   1   2.0000     -20.557899      -559.4089
   2   2.0000     -11.293521      -307.3123
   3   2.0000     -11.292150      -307.2750
   4   2.0000     -11.289259      -307.1963
   5   2.0000     -11.243138      -305.9413
   6   2.0000     -11.217173      -305.2348
   7   2.0000      -1.428793       -38.8794
   8   2.0000      -1.364014       -37.1167
   9   2.0000      -1.089474       -29.6461
  10   2.0000      -0.978441       -26.6247
  11   2.0000      -0.887838       -24.1593
  12   2.0000      -0.846953       -23.0468
  13   2.0000      -0.774188       -21.0667
  14   2.0000      -0.731749       -19.9119
  15   2.0000      -0.661392       -17.9974
  16   2.0000      -0.633179       -17.2297
  17   2.0000      -0.617887       -16.8136
  18   2.0000      -0.596771       -16.2390
  19   2.0000      -0.559688       -15.2299
  20   2.0000      -0.543449       -14.7880
  21   2.0000      -0.530231       -14.4283
  22   2.0000      -0.507779       -13.8174
  23   2.0000      -0.491504       -13.3745
  24   2.0000      -0.459847       -12.5131
  25   2.0000      -0.417626       -11.3642
  26   2.0000      -0.408726       -11.1220
  27   0.0000       0.143379         3.9015
  28   0.0000       0.152984         4.1629
  29   0.0000       0.171247         4.6599
  30   0.0000       0.176651         4.8069
  31   0.0000       0.203882         5.5479

MULLIKEN ATOMIC CHARGES
-----------------------
   0 C :   -0.419832
   1 C :   -0.025022
   2 C :   -0.013776
   3 O :   -0.343206
   4 C :   -0.031621
   5 C :    0.058514
   6 O :   -0.459501
   7 H :    0.129042
   8 H :    0.131669
   9 H :    0.143518
  10 H :    0.104460
  11 H :    0.140888
  12 H :    0.140549
  13 H :    0.114036
  14 H :    0.330283
Sum of atomic charges:    0.0000000

LOEWDIN ATOMIC CHARGES
----------------------
   0 C :   -0.298780
   1 C :   -0.226537
   2 C :   -0.223395
   3 O :    0.157906
   4 C :   -0.231379
   5 C :   -0.293531
   6 O :   -0.001988
   7 H :    0.125400
   8 H :    0.125261
   9 H :    0.129585
  10 H :    0.151726
  11 H :    0.131103
  12 H :    0.129855
  13 H :    0.141460
  14 H :    0.183315

  Mayer bond orders larger than 0.1
B(  0-C ,  1-C ) :   0.8972 B(  0-C ,  7-H ) :   0.9339 B(  0-C ,  8-H ) :   0.9379
B(  0-C ,  9-H ) :   0.9338 B(  1-C ,  2-C ) :   0.9005 B(  1-C ,  5-C ) :   0.9130
B(  1-C , 10-H ) :   0.9042 B(  2-C ,  3-O ) :   0.9012 B(  2-C ,  4-C ) :   0.8980
B(  2-C , 11-H ) :   0.9217 B(  3-O ,  4-C ) :   0.8698 B(  4-C ,  5-C ) :   0.9136
B(  4-C , 12-H ) :   0.9295 B(  5-C ,  6-O ) :   0.9982 B(  5-C , 13-H ) :   0.9280
B(  6-O , 14-H ) :   0.8271

MP2 TOTAL ENERGY:     -345.051720011 Eh
FINAL SINGLE POINT ENERGY      -345.051720010946

DIPOLE MOMENT
-------------
                                X             Y             Z
Electronic contribution:      3.64753      -2.57866      -0.42115
Nuclear contribution   :     -4.22770       2.14667       0.04700
                        -----------------------------------------
Total Dipole Moment    :     -0.58017      -0.43199      -0.37415
                        -----------------------------------------
Magnitude (a.u.)       :      0.81438
Magnitude (Debye)      :      2.06998

                             ****ORCA TERMINATED NORMALLY****
TOTAL RUN TIME: 0 days 0 hours 8 minutes 16 seconds 322 msec
