                         Program Version 3.0.3 - RELEASE   -
|  1> ! RI-MP2 RIJK def2-TZVP def2-TZVP/C def2-TZVP/JK TIGHTSCF
|  2> % maxcore 2000
|  3> % mp2 density relaxed end
|  4> *xyz 0 1
|  5>  O        0.3545682166     1.1618433579     0.5745046590
|  6>  C        0.0229442844    -0.0872156254     0.0405549450
|  7>  C       -1.5025853256    -0.3122583935    -0.1289353930
|  8>  C       -1.6682219382    -0.9598927040    -1.5011378747
|  9>  O       -2.6793225062    -1.1117471353    -2.1361978082
| 10>  C       -0.2851986261    -1.3119330144    -2.0695287903
| 11>  O       -0.2352632249    -1.4037842759    -3.4482990949
| 12>  C        0.5632223363    -0.2437741201    -1.3921972610
| 13>  O        1.4134199897     0.4651549892    -1.8598369735
| 14>  H        1.0420952488     1.5252406422    -0.0049384831
| 15>  H        0.4492363676    -0.8974732161     0.6556398785
| 16>  H       -1.9472734095    -0.9261422787     0.6588908779
| 17>  H       -2.0229639450     0.6509790910    -0.1281559076
| 18>  H       -0.0014652918    -2.2649103639    -1.5736140508
| 19>  H       -1.1573892264    -1.4402093130    -3.7459772232
| 20> *
| 21>
| 22>                          ****END OF INPUT****

CARTESIAN COORDINATES (ANGSTROEM)
---------------------------------
  O      0.354568    1.161843    0.574505
  C      0.022944   -0.087216    0.040555
  C     -1.502585   -0.312258   -0.128935
  C     -1.668222   -0.959893   -1.501138
  O     -2.679323   -1.111747   -2.136198
  C     -0.285199   -1.311933   -2.069529
  O     -0.235263   -1.403784   -3.448299
  C      0.563222   -0.243774   -1.392197
  O      1.413420    0.465155   -1.859837
  H      1.042095    1.525241   -0.004938
  H      0.449236   -0.897473    0.655640
  H     -1.947273   -0.926142    0.658891
  H     -2.022964    0.650979   -0.128156
  H     -0.001465   -2.264910   -1.573614
  H     -1.157389   -1.440209   -3.745977

 Total Charge           Charge          ....    0
 Multiplicity           Mult            ....    1
 Number of Electrons    NEL             ....   68
 Basis Dimension        Dim             ....  315

ORBITAL ENERGIES
----------------

  NO   OCC          E(Eh)            E(eV)
   0   2.0000     -20.590076      -560.2844
   1   2.0000     -20.589825      -560.2776
   2   2.0000     -20.589566      -560.2706
   3   2.0000     -20.582682      -560.0833
   4   2.0000     -11.371837      -309.4434
   5   2.0000     -11.363959      -309.2291
   6   2.0000     -11.331620      -308.3491
   7   2.0000     -11.325859      -308.1923
   8   2.0000     -11.273928      -306.7792
   9   2.0000      -1.446462       -39.3602
  10   2.0000      -1.434156       -39.0254
  11   2.0000      -1.397939       -38.0399
  12   2.0000      -1.387898       -37.7666
  13   2.0000      -1.143388       -31.1132
  14   2.0000      -1.002364       -27.2757
  15   2.0000      -0.937405       -25.5081
  16   2.0000      -0.808552       -22.0018
  17   2.0000      -0.796904       -21.6849
  18   2.0000      -0.734711       -19.9925
  19   2.0000      -0.722897       -19.6710
  20   2.0000      -0.702396       -19.1132
  21   2.0000      -0.693777       -18.8786
  22   2.0000      -0.675604       -18.3841
  23   2.0000      -0.642112       -17.4728
  24   2.0000      -0.618930       -16.8419
  25   2.0000      -0.602046       -16.3825
  26   2.0000      -0.574816       -15.6415
  27   2.0000      -0.568445       -15.4682
  28   2.0000      -0.547992       -14.9116
  29   2.0000      -0.534482       -14.5440
  30   2.0000      -0.516509       -14.0549
  31   2.0000      -0.479089       -13.0367
  32   2.0000      -0.449634       -12.2352
  33   2.0000      -0.423820       -11.5327
  34   0.0000       0.074373         2.0238
  35   0.0000       0.123950         3.3729
  36   0.0000       0.138950         3.7810
  37   0.0000       0.156693         4.2638
  38   0.0000       0.161738         4.4011

MULLIKEN ATOMIC CHARGES
-----------------------
   0 O :   -0.468489
   1 C :    0.029067
   2 C :   -0.157119
   3 C :    0.073824
   4 O :   -0.275148
   5 C :    0.117164
   6 O :   -0.449133
   7 C :    0.155709
   8 O :   -0.266963
   9 H :    0.339137
  10 H :    0.114910
  11 H :    0.161198
  12 H :    0.157248
  13 H :    0.128558
  14 H :    0.340038
Sum of atomic charges:   -0.0000000

LOEWDIN ATOMIC CHARGES
----------------------
   0 O :   -0.000015
   1 C :   -0.317035
   2 C :   -0.186261
   3 C :   -0.298667
   4 O :    0.164862
   5 C :   -0.313606
   6 O :    0.028065
   7 C :   -0.287951
   8 O :    0.179637
   9 H :    0.189183
  10 H :    0.150468
  11 H :    0.155753
  12 H :    0.167357
  13 H :    0.174188
  14 H :    0.194022

  Mayer bond orders larger than 0.1
B(  0-O ,  1-C ) :   1.0676 B(  0-O ,  9-H ) :   0.8097 B(  1-C ,  2-C ) :   0.8468
B(  1-C ,  7-C ) :   0.8767 B(  1-C , 10-H ) :   0.9206 B(  2-C ,  3-C ) :   0.8497
B(  2-C , 11-H ) :   0.8959 B(  2-C , 12-H ) :   0.8819 B(  3-C ,  4-O ) :   1.9643
B(  3-C ,  5-C ) :   0.8790 B(  5-C ,  6-O ) :   1.1071 B(  5-C ,  7-C ) :   0.8464
B(  5-C , 13-H ) :   0.9006 B(  6-O , 14-H ) :   0.8097 B(  7-C ,  8-O ) :   1.9801

MP2 TOTAL ENERGY:     -494.166398984 Eh
FINAL SINGLE POINT ENERGY      -494.166398984413

DIPOLE MOMENT
-------------
                                X             Y             Z
Electronic contribution:      0.70788       0.25422      -2.92450
Nuclear contribution   :     -0.96035      -0.85826       3.65663
                        -----------------------------------------
Total Dipole Moment    :     -0.25247      -0.60404       0.73213
                        -----------------------------------------
Magnitude (a.u.)       :      0.98215
Magnitude (Debye)      :      2.49643

                             ****ORCA TERMINATED NORMALLY****
TOTAL RUN TIME: 0 days 0 hours 13 minutes 21 seconds 762 msec
