                         Program Version 3.0.3 - RELEASE   -
|  1> ! RI-MP2 RIJK def2-TZVP def2-TZVP/C def2-TZVP/JK TIGHTSCF
|  2> % maxcore 2000
|  3> % mp2 density relaxed end
|  4> *xyz 0 1
|  5>  C        0.0086222953     1.5555684765    -0.0424406294
|  6>  C        0.0036791933     0.0265244309    -0.0379527514
|  7>  C       -1.4363790154    -0.4963080897     0.0753999528
|  8>  C        0.7180851594    -0.5920465489    -1.2687150586
|  9>  C        1.3349023449    -1.9105551202    -0.7465911532
| 10>  O        2.5782474405    -2.2532168471    -1.3435567983
| 11>  C        1.5264293159    -1.6501900001     0.7377523651
| 12>  C        2.1892678327    -0.3747141737     1.1043759939
| 13>  N        0.7262018386    -0.4891617719     1.1638633834
| 14>  H        1.0278357739     1.9514734408    -0.0876249176
| 15>  H       -0.5403756485     1.9406527064    -0.9077332313
| 16>  H       -0.4662816169     1.9428484309     0.8642371690
| 17>  H       -2.0450014698    -0.1459169651    -0.7647721462
| 18>  H       -1.4613942088    -1.5906225994     0.0809177090
| 19>  H       -1.8913107632    -0.1487006951     1.0068273221
| 20>  H        0.0331789113    -0.7488359640    -2.1067593944
| 21>  H        1.5289793607     0.0493892475    -1.6273009404
| 22>  H        0.6226726504    -2.7404023166    -0.8695718275
| 23>  H        2.4089130046    -2.5131372745    -2.2544678214
| 24>  H        1.5623192657    -2.5027709019     1.4091304202
| 25>  H        2.6708526193    -0.2792765156     2.0728703834
| 26>  H        2.6549992559     0.2061349208     0.3136220008
| 27> *
| 28>
| 29>                          ****END OF INPUT****

CARTESIAN COORDINATES (ANGSTROEM)
---------------------------------
  C      0.008622    1.555568   -0.042441
  C      0.003679    0.026524   -0.037953
  C     -1.436379   -0.496308    0.075400
  C      0.718085   -0.592047   -1.268715
  C      1.334902   -1.910555   -0.746591
  O      2.578247   -2.253217   -1.343557
  C      1.526429   -1.650190    0.737752
  C      2.189268   -0.374714    1.104376
  N      0.726202   -0.489162    1.163863
  H      1.027836    1.951473   -0.087625
  H     -0.540376    1.940653   -0.907733
  H     -0.466282    1.942848    0.864237
  H     -2.045001   -0.145917   -0.764772
  H     -1.461394   -1.590623    0.080918
  H     -1.891311   -0.148701    1.006827
  H      0.033179   -0.748836   -2.106759
  H      1.528979    0.049389   -1.627301
  H      0.622673   -2.740402   -0.869572
  H      2.408913   -2.513137   -2.254468
  H      1.562319   -2.502771    1.409130
  H      2.670853   -0.279277    2.072870
  H      2.654999    0.206135    0.313622

 Total Charge           Charge          ....    0
 Multiplicity           Mult            ....    1
 Number of Electrons    NEL             ....   70
 Basis Dimension        Dim             ....  357

ORBITAL ENERGIES
----------------

  NO   OCC          E(Eh)            E(eV)
   0   2.0000     -20.559120      -559.4421
   1   2.0000     -15.552181      -423.1964
   2   2.0000     -11.285564      -307.0958
   3   2.0000     -11.263770      -306.5028
   4   2.0000     -11.249543      -306.1156
   5   2.0000     -11.246368      -306.0292
   6   2.0000     -11.221516      -305.3530
   7   2.0000     -11.212266      -305.1013
   8   2.0000     -11.210679      -305.0581
   9   2.0000      -1.365681       -37.1621
  10   2.0000      -1.277121       -34.7522
  11   2.0000      -1.079336       -29.3702
  12   2.0000      -1.010131       -27.4871
  13   2.0000      -0.934757       -25.4360
  14   2.0000      -0.900627       -24.5073
  15   2.0000      -0.869220       -23.6527
  16   2.0000      -0.775888       -21.1130
  17   2.0000      -0.740878       -20.1603
  18   2.0000      -0.701937       -19.1007
  19   2.0000      -0.675416       -18.3790
  20   2.0000      -0.632443       -17.2096
  21   2.0000      -0.607875       -16.5411
  22   2.0000      -0.601200       -16.3595
  23   2.0000      -0.576244       -15.6804
  24   2.0000      -0.555173       -15.1070
  25   2.0000      -0.547438       -14.8965
  26   2.0000      -0.539220       -14.6729
  27   2.0000      -0.517259       -14.0753
  28   2.0000      -0.502601       -13.6765
  29   2.0000      -0.480111       -13.0645
  30   2.0000      -0.477703       -12.9989
  31   2.0000      -0.445413       -12.1203
  32   2.0000      -0.440883       -11.9970
  33   2.0000      -0.425535       -11.5794
  34   2.0000      -0.369539       -10.0557
  35   0.0000       0.128796         3.5047
  36   0.0000       0.144443         3.9305
  37   0.0000       0.157644         4.2897
  38   0.0000       0.177786         4.8378
  39   0.0000       0.192677         5.2430

MULLIKEN ATOMIC CHARGES
-----------------------
   0 C :   -0.403309
   1 C :    0.133287
   2 C :   -0.416782
   3 C :   -0.250411
   4 C :   -0.008918
   5 O :   -0.445234
   6 C :    0.004070
   7 C :   -0.199739
   8 N :   -0.226155
   9 H :    0.124456
  10 H :    0.128798
  11 H :    0.139792
  12 H :    0.123973
  13 H :    0.125848
  14 H :    0.138369
  15 H :    0.126180
  16 H :    0.125070
  17 H :    0.087371
  18 H :    0.314037
  19 H :    0.125857
  20 H :    0.128195
  21 H :    0.125245
Sum of atomic charges:   -0.0000000

LOEWDIN ATOMIC CHARGES
----------------------
   0 C :   -0.269111
   1 C :   -0.348037
   2 C :   -0.267166
   3 C :   -0.210074
   4 C :   -0.325762
   5 O :   -0.018403
   6 C :   -0.224310
   7 C :   -0.235971
   8 N :    0.150909
   9 H :    0.124310
  10 H :    0.127430
  11 H :    0.130096
  12 H :    0.123889
  13 H :    0.125212
  14 H :    0.128848
  15 H :    0.138262
  16 H :    0.143205
  17 H :    0.135060
  18 H :    0.173982
  19 H :    0.139773
  20 H :    0.127753
  21 H :    0.130104

  Mayer bond orders larger than 0.1
B(  0-C ,  1-C ) :   0.9137 B(  0-C ,  9-H ) :   0.9261 B(  0-C , 10-H ) :   0.9380
B(  0-C , 11-H ) :   0.9382 B(  1-C ,  2-C ) :   0.9099 B(  1-C ,  3-C ) :   0.8884
B(  1-C ,  8-N ) :   0.8789 B(  2-C , 12-H ) :   0.9383 B(  2-C , 13-H ) :   0.9297
B(  2-C , 14-H ) :   0.9402 B(  3-C ,  4-C ) :   0.9034 B(  3-C , 15-H ) :   0.9160
B(  3-C , 16-H ) :   0.9206 B(  4-C ,  5-O ) :   1.1059 B(  4-C ,  6-C ) :   0.9058
B(  4-C , 17-H ) :   0.9550 B(  5-O , 18-H ) :   0.8467 B(  6-C ,  7-C ) :   0.9260
B(  6-C ,  8-N ) :   0.9098 B(  6-C , 19-H ) :   0.9170 B(  7-C ,  8-N ) :   0.8815
B(  7-C , 20-H ) :   0.9247 B(  7-C , 21-H ) :   0.9081

MP2 TOTAL ENERGY:     -403.655405339 Eh
FINAL SINGLE POINT ENERGY      -403.655405339182

DIPOLE MOMENT
-------------
                                X             Y             Z
Electronic contribution:      4.48421      -4.23238       0.92450
Nuclear contribution   :     -4.77249       4.20266      -1.72429
                        -----------------------------------------
Total Dipole Moment    :     -0.28828      -0.02972      -0.79980
                        -----------------------------------------
Magnitude (a.u.)       :      0.85069
Magnitude (Debye)      :      2.16227

                             ****ORCA TERMINATED NORMALLY****
TOTAL RUN TIME: 0 days 0 hours 20 minutes 34 seconds 879 msec
