                         Program Version 3.0.3 - RELEASE   -
|  1> ! RI-MP2 RIJK def2-TZVP def2-TZVP/C def2-TZVP/JK TIGHTSCF
|  2> % maxcore 2000
|  3> % mp2 density relaxed end
|  4> *xyz 0 1
|  5>  O        0.0215876476     1.4292255795     0.0084353332
|  6>  C       -0.0039287294     0.0135722134     0.0035462149
|  7>  C       -1.4335585688    -0.4746538090     0.0143080577
|  8>  N       -1.5744052007    -1.8057679255     0.0123867669
|  9>  C       -2.8131936466    -2.2982770909     0.0213837236
| 10>  C       -3.9595108968    -1.5070672850     0.0326285829
| 11>  C       -3.8007781290    -0.1258039429     0.0345414635
| 12>  C       -2.5148773620     0.4050188234     0.0252130817
| 13>  H        0.9395849607     1.7122753702     0.0008353153
| 14>  H        0.4953004226    -0.4015955439    -0.8858213592
| 15>  H        0.5107995712    -0.4080747761     0.8809236965
| 16>  H       -2.8956666841    -3.3830904522     0.0195474273
| 17>  H       -4.9421970558    -1.9649998252     0.0396406618
| 18>  H       -4.6649791475     0.5308639848     0.0431723206
| 19>  H       -2.3359862813     1.4718999195     0.0262444934
| 20> *
| 21>
| 22>                          ****END OF INPUT****

CARTESIAN COORDINATES (ANGSTROEM)
---------------------------------
  O      0.021588    1.429226    0.008435
  C     -0.003929    0.013572    0.003546
  C     -1.433559   -0.474654    0.014308
  N     -1.574405   -1.805768    0.012387
  C     -2.813194   -2.298277    0.021384
  C     -3.959511   -1.507067    0.032629
  C     -3.800778   -0.125804    0.034541
  C     -2.514877    0.405019    0.025213
  H      0.939585    1.712275    0.000835
  H      0.495300   -0.401596   -0.885821
  H      0.510800   -0.408075    0.880924
  H     -2.895667   -3.383090    0.019547
  H     -4.942197   -1.965000    0.039641
  H     -4.664979    0.530864    0.043172
  H     -2.335986    1.471900    0.026244

 Total Charge           Charge          ....    0
 Multiplicity           Mult            ....    1
 Number of Electrons    NEL             ....   58
 Basis Dimension        Dim             ....  290

ORBITAL ENERGIES
----------------

  NO   OCC          E(Eh)            E(eV)
   0   2.0000     -20.564988      -559.6018
   1   2.0000     -15.558003      -423.3548
   2   2.0000     -11.284332      -307.0623
   3   2.0000     -11.275419      -306.8197
   4   2.0000     -11.270118      -306.6755
   5   2.0000     -11.252774      -306.2036
   6   2.0000     -11.233118      -305.6687
   7   2.0000     -11.228864      -305.5529
   8   2.0000      -1.371864       -37.3303
   9   2.0000      -1.256754       -34.1980
  10   2.0000      -1.082836       -29.4655
  11   2.0000      -1.046807       -28.4851
  12   2.0000      -0.937873       -25.5208
  13   2.0000      -0.855856       -23.2890
  14   2.0000      -0.818125       -22.2623
  15   2.0000      -0.713351       -19.4113
  16   2.0000      -0.699031       -19.0216
  17   2.0000      -0.645054       -17.5528
  18   2.0000      -0.641602       -17.4589
  19   2.0000      -0.635970       -17.3056
  20   2.0000      -0.596462       -16.2305
  21   2.0000      -0.571865       -15.5612
  22   2.0000      -0.534632       -14.5481
  23   2.0000      -0.527253       -14.3473
  24   2.0000      -0.504097       -13.7172
  25   2.0000      -0.460496       -12.5307
  26   2.0000      -0.414235       -11.2719
  27   2.0000      -0.377433       -10.2705
  28   2.0000      -0.335384        -9.1263
  29   0.0000       0.106832         2.9070
  30   0.0000       0.127886         3.4800
  31   0.0000       0.134419         3.6577
  32   0.0000       0.162127         4.4117
  33   0.0000       0.179133         4.8745

MULLIKEN ATOMIC CHARGES
-----------------------
   0 O :   -0.471687
   1 C :   -0.073121
   2 C :    0.165985
   3 N :   -0.267044
   4 C :   -0.072711
   5 C :   -0.083721
   6 C :   -0.135180
   7 C :   -0.159757
   8 H :    0.319638
   9 H :    0.114080
  10 H :    0.114125
  11 H :    0.125176
  12 H :    0.133006
  13 H :    0.133337
  14 H :    0.157873
Sum of atomic charges:   -0.0000000

LOEWDIN ATOMIC CHARGES
----------------------
   0 O :   -0.042627
   1 C :   -0.306998
   2 C :   -0.225148
   3 N :    0.157513
   4 C :   -0.215026
   5 C :   -0.149451
   6 C :   -0.131041
   7 C :   -0.109857
   8 H :    0.175914
   9 H :    0.128156
  10 H :    0.128161
  11 H :    0.137746
  12 H :    0.147813
  13 H :    0.147829
  14 H :    0.157016

  Mayer bond orders larger than 0.1
B(  0-O ,  1-C ) :   1.0147 B(  0-O ,  2-C ) :  -0.1008 B(  0-O ,  8-H ) :   0.8460
B(  1-C ,  2-C ) :   0.9103 B(  1-C ,  9-H ) :   0.9316 B(  1-C , 10-H ) :   0.9316
B(  2-C ,  3-N ) :   1.3162 B(  2-C ,  7-C ) :   1.3705 B(  3-N ,  4-C ) :   1.4300
B(  4-C ,  5-C ) :   1.3117 B(  4-C , 11-H ) :   0.9448 B(  5-C ,  6-C ) :   1.3484
B(  5-C , 12-H ) :   0.9221 B(  6-C ,  7-C ) :   1.3295 B(  6-C , 13-H ) :   0.9355
B(  7-C , 14-H ) :   0.9158

MP2 TOTAL ENERGY:     -362.087990933 Eh
FINAL SINGLE POINT ENERGY      -362.087990932773

DIPOLE MOMENT
-------------
                                X             Y             Z
Electronic contribution:     -0.53494      -0.61434       0.00425
Nuclear contribution   :      0.52240       0.90556      -0.00459
                        -----------------------------------------
Total Dipole Moment    :     -0.01254       0.29121      -0.00034
                        -----------------------------------------
Magnitude (a.u.)       :      0.29148
Magnitude (Debye)      :      0.74089

                             ****ORCA TERMINATED NORMALLY****
TOTAL RUN TIME: 0 days 0 hours 10 minutes 55 seconds 577 msec
