                         Program Version 3.0.3 - RELEASE   -
|  1> ! RI-MP2 RIJK def2-TZVP def2-TZVP/C def2-TZVP/JK TIGHTSCF
|  2> % maxcore 2000
|  3> % mp2 density relaxed end
|  4> *xyz 0 1
|  5>  O        0.0164075031     0.0302240622     0.0602280472
|  6>  C        0.0008649922     1.2315051808     0.0295340258
|  7>  C       -1.2537236681     2.1393737414     0.0210095455
|  8>  C       -0.6309595468     3.5552928018     0.0397691608
|  9>  C        0.6144634313     3.3362717065    -0.8567100499
| 10>  C        1.2069455149     2.1886010541    -0.0060161036
| 11>  C        1.1845924720     2.7954614445     1.4059770209
| 12>  N        1.3522528396     4.2663960814     1.4555011762
| 13>  C       -0.0056112474     3.6872265639     1.4325766907
| 14>  H       -1.8261732198     1.9505958168    -0.8938495349
| 15>  H       -1.9044821597     1.9100759828     0.8701953246
| 16>  H       -1.3008856177     4.3610737205    -0.2633147582
| 17>  H        0.3474198942     3.0131049071    -1.8665972334
| 18>  H        1.2676661086     4.2045793284    -0.9062507898
| 19>  H        2.1370894238     1.7241066586    -0.3291081301
| 20>  H        1.4808520250     2.1921887577     2.2564140971
| 21>  H        1.5815062802     4.5281654656     2.4114070376
| 22>  H       -0.6421091054     3.7721941659     2.3072294934
| 23> *
| 24>
| 25>                          ****END OF INPUT****

CARTESIAN COORDINATES (ANGSTROEM)
---------------------------------
  O      0.016408    0.030224    0.060228
  C      0.000865    1.231505    0.029534
  C     -1.253724    2.139374    0.021010
  C     -0.630960    3.555293    0.039769
  C      0.614463    3.336272   -0.856710
  C      1.206946    2.188601   -0.006016
  C      1.184592    2.795461    1.405977
  N      1.352253    4.266396    1.455501
  C     -0.005611    3.687227    1.432577
  H     -1.826173    1.950596   -0.893850
  H     -1.904482    1.910076    0.870195
  H     -1.300886    4.361074   -0.263315
  H      0.347420    3.013105   -1.866597
  H      1.267666    4.204579   -0.906251
  H      2.137089    1.724107   -0.329108
  H      1.480852    2.192189    2.256414
  H      1.581506    4.528165    2.411407
  H     -0.642109    3.772194    2.307229

 Total Charge           Charge          ....    0
 Multiplicity           Mult            ....    1
 Number of Electrons    NEL             ....   66
 Basis Dimension        Dim             ....  333

ORBITAL ENERGIES
----------------

  NO   OCC          E(Eh)            E(eV)
   0   2.0000     -20.545182      -559.0628
   1   2.0000     -15.571257      -423.7154
   2   2.0000     -11.328680      -308.2690
   3   2.0000     -11.273412      -306.7651
   4   2.0000     -11.270533      -306.6868
   5   2.0000     -11.247359      -306.0562
   6   2.0000     -11.244991      -305.9917
   7   2.0000     -11.239442      -305.8408
   8   2.0000     -11.231671      -305.6293
   9   2.0000      -1.389658       -37.8145
  10   2.0000      -1.288932       -35.0736
  11   2.0000      -1.139720       -31.0134
  12   2.0000      -1.003373       -27.3032
  13   2.0000      -0.946625       -25.7590
  14   2.0000      -0.914241       -24.8778
  15   2.0000      -0.805517       -21.9192
  16   2.0000      -0.774685       -21.0802
  17   2.0000      -0.732045       -19.9200
  18   2.0000      -0.724283       -19.7087
  19   2.0000      -0.674412       -18.3517
  20   2.0000      -0.652403       -17.7528
  21   2.0000      -0.603338       -16.4177
  22   2.0000      -0.575505       -15.6603
  23   2.0000      -0.571413       -15.5490
  24   2.0000      -0.539765       -14.6878
  25   2.0000      -0.523365       -14.2415
  26   2.0000      -0.519119       -14.1259
  27   2.0000      -0.511659       -13.9229
  28   2.0000      -0.488950       -13.3050
  29   2.0000      -0.466073       -12.6825
  30   2.0000      -0.459740       -12.5102
  31   2.0000      -0.398246       -10.8368
  32   2.0000      -0.374701       -10.1961
  33   0.0000       0.126796         3.4503
  34   0.0000       0.144405         3.9295
  35   0.0000       0.151285         4.1167
  36   0.0000       0.163249         4.4422
  37   0.0000       0.169355         4.6084

MULLIKEN ATOMIC CHARGES
-----------------------
   0 O :   -0.258109
   1 C :    0.074987
   2 C :   -0.295956
   3 C :    0.059669
   4 C :   -0.332017
   5 C :    0.074391
   6 C :   -0.124362
   7 N :   -0.379366
   8 C :   -0.141920
   9 H :    0.144656
  10 H :    0.135557
  11 H :    0.131808
  12 H :    0.134736
  13 H :    0.148899
  14 H :    0.135231
  15 H :    0.138727
  16 H :    0.221345
  17 H :    0.131724
Sum of atomic charges:   -0.0000000

LOEWDIN ATOMIC CHARGES
----------------------
   0 O :    0.155281
   1 C :   -0.283716
   2 C :   -0.195401
   3 C :   -0.205003
   4 C :   -0.191220
   5 C :   -0.177727
   6 C :   -0.215408
   7 N :    0.008981
   8 C :   -0.225502
   9 H :    0.151632
  10 H :    0.147114
  11 H :    0.143841
  12 H :    0.141412
  13 H :    0.146218
  14 H :    0.149869
  15 H :    0.140016
  16 H :    0.172034
  17 H :    0.137580

  Mayer bond orders larger than 0.1
B(  0-O ,  1-C ) :   2.0551 B(  1-C ,  2-C ) :   0.9276 B(  1-C ,  5-C ) :   0.8303
B(  2-C ,  3-C ) :   0.8663 B(  2-C ,  5-C ) :  -0.1329 B(  2-C ,  9-H ) :   0.9024
B(  2-C , 10-H ) :   0.9128 B(  3-C ,  4-C ) :   0.9159 B(  3-C ,  8-C ) :   0.8374
B(  3-C , 11-H ) :   0.9061 B(  4-C ,  5-C ) :   0.9266 B(  4-C , 12-H ) :   0.9334
B(  4-C , 13-H ) :   0.8979 B(  5-C ,  6-C ) :   0.8223 B(  5-C , 14-H ) :   0.9044
B(  6-C ,  7-N ) :   0.9684 B(  6-C ,  8-C ) :   0.9520 B(  6-C , 15-H ) :   0.9264
B(  7-N ,  8-C ) :   1.0041 B(  7-N , 16-H ) :   0.8701 B(  8-C , 17-H ) :   0.9288

MP2 TOTAL ENERGY:     -401.270629211 Eh
FINAL SINGLE POINT ENERGY      -401.270629211231

DIPOLE MOMENT
-------------
                                X             Y             Z
Electronic contribution:      0.98916      -3.43953       0.50622
Nuclear contribution   :     -1.24245       4.28505      -0.04797
                        -----------------------------------------
Total Dipole Moment    :     -0.25329       0.84552       0.45825
                        -----------------------------------------
Magnitude (a.u.)       :      0.99451
Magnitude (Debye)      :      2.52785

                             ****ORCA TERMINATED NORMALLY****
TOTAL RUN TIME: 0 days 0 hours 19 minutes 11 seconds 555 msec
