                         Program Version 3.0.3 - RELEASE   -
|  1> ! RI-MP2 RIJK def2-TZVP def2-TZVP/C def2-TZVP/JK TIGHTSCF
|  2> % maxcore 2000
|  3> % mp2 density relaxed end
|  4> *xyz 0 1
|  5>  N        0.2443185911     1.1705862974    -0.2534228465
|  6>  C        0.1292391550    -0.0495953308     0.0097669714
|  7>  O        1.0567842401    -0.9802223066     0.4240535342
|  8>  C        0.0356250843    -2.0273226495     0.4870580640
|  9>  C       -1.0307361753    -1.0247823799    -0.0159715800
| 10>  C       -2.2656513997    -0.7372858161     0.8709372070
| 11>  C       -3.4654553997    -1.0466030601    -0.0577859939
| 12>  O       -2.9415585124    -1.8331395266    -1.1181811283
| 13>  C       -1.6652415547    -1.2914376584    -1.3953547102
| 14>  H        1.2032701574     1.4977073837    -0.1263844597
| 15>  H        0.2830847211    -2.8562977255    -0.1811537514
| 16>  H       -0.0866322172    -2.3856916097     1.5125204730
| 17>  H       -2.2642874405    -1.3828124528     1.7529188674
| 18>  H       -2.2710234907     0.3002105238     1.2116812157
| 19>  H       -4.2604475653    -1.6190966321     0.4255423825
| 20>  H       -3.8964665386    -0.1130041922    -0.4506886783
| 21>  H       -1.7442115059    -0.3389001052    -1.9434796450
| 22>  H       -1.1103915890    -2.0067224293    -2.0073633619
| 23> *
| 24>
| 25>                          ****END OF INPUT****

CARTESIAN COORDINATES (ANGSTROEM)
---------------------------------
  N      0.244319    1.170586   -0.253423
  C      0.129239   -0.049595    0.009767
  O      1.056784   -0.980222    0.424054
  C      0.035625   -2.027323    0.487058
  C     -1.030736   -1.024782   -0.015972
  C     -2.265651   -0.737286    0.870937
  C     -3.465455   -1.046603   -0.057786
  O     -2.941559   -1.833140   -1.118181
  C     -1.665242   -1.291438   -1.395355
  H      1.203270    1.497707   -0.126384
  H      0.283085   -2.856298   -0.181154
  H     -0.086632   -2.385692    1.512520
  H     -2.264287   -1.382812    1.752919
  H     -2.271023    0.300211    1.211681
  H     -4.260448   -1.619097    0.425542
  H     -3.896467   -0.113004   -0.450689
  H     -1.744212   -0.338900   -1.943480
  H     -1.110392   -2.006722   -2.007363

 Total Charge           Charge          ....    0
 Multiplicity           Mult            ....    1
 Number of Electrons    NEL             ....   68
 Basis Dimension        Dim             ....  333

ORBITAL ENERGIES
----------------

  NO   OCC          E(Eh)            E(eV)
   0   2.0000     -20.595529      -560.4328
   1   2.0000     -20.565637      -559.6194
   2   2.0000     -15.541303      -422.9003
   3   2.0000     -11.341760      -308.6250
   4   2.0000     -11.303781      -307.5915
   5   2.0000     -11.289149      -307.1934
   6   2.0000     -11.284461      -307.0658
   7   2.0000     -11.264403      -306.5200
   8   2.0000     -11.243779      -305.9588
   9   2.0000      -1.438098       -39.1326
  10   2.0000      -1.393780       -37.9267
  11   2.0000      -1.201299       -32.6890
  12   2.0000      -1.092360       -29.7246
  13   2.0000      -1.013633       -27.5824
  14   2.0000      -0.932331       -25.3700
  15   2.0000      -0.876174       -23.8419
  16   2.0000      -0.838407       -22.8142
  17   2.0000      -0.732840       -19.9416
  18   2.0000      -0.713773       -19.4227
  19   2.0000      -0.694317       -18.8933
  20   2.0000      -0.676772       -18.4159
  21   2.0000      -0.664612       -18.0850
  22   2.0000      -0.632999       -17.2248
  23   2.0000      -0.614871       -16.7315
  24   2.0000      -0.579968       -15.7817
  25   2.0000      -0.553824       -15.0703
  26   2.0000      -0.532520       -14.4906
  27   2.0000      -0.511695       -13.9239
  28   2.0000      -0.499278       -13.5861
  29   2.0000      -0.489345       -13.3157
  30   2.0000      -0.474131       -12.9018
  31   2.0000      -0.442582       -12.0433
  32   2.0000      -0.431384       -11.7386
  33   2.0000      -0.404051       -10.9948
  34   0.0000       0.134880         3.6703
  35   0.0000       0.156180         4.2499
  36   0.0000       0.162796         4.4299
  37   0.0000       0.171058         4.6547
  38   0.0000       0.176566         4.8046

MULLIKEN ATOMIC CHARGES
-----------------------
   0 N :   -0.379723
   1 C :    0.059971
   2 O :   -0.260656
   3 C :   -0.051812
   4 C :    0.156617
   5 C :   -0.287278
   6 C :   -0.038589
   7 O :   -0.312490
   8 C :   -0.081423
   9 H :    0.230816
  10 H :    0.117260
  11 H :    0.112287
  12 H :    0.122238
  13 H :    0.150178
  14 H :    0.121242
  15 H :    0.096151
  16 H :    0.120707
  17 H :    0.124506
Sum of atomic charges:   -0.0000000

LOEWDIN ATOMIC CHARGES
----------------------
   0 N :   -0.051054
   1 C :   -0.376363
   2 O :    0.213272
   3 C :   -0.189684
   4 C :   -0.213740
   5 C :   -0.202582
   6 C :   -0.298637
   7 O :    0.155100
   8 C :   -0.260885
   9 H :    0.174370
  10 H :    0.124395
  11 H :    0.123197
  12 H :    0.140174
  13 H :    0.148202
  14 H :    0.126422
  15 H :    0.121714
  16 H :    0.133486
  17 H :    0.132614

  Mayer bond orders larger than 0.1
B(  0-N ,  1-C ) :   2.0587 B(  0-N ,  9-H ) :   0.8469 B(  1-C ,  2-O ) :   1.0823
B(  1-C ,  4-C ) :   0.8747 B(  2-O ,  3-C ) :   0.8970 B(  3-C ,  4-C ) :   0.9540
B(  3-C , 10-H ) :   0.9140 B(  3-C , 11-H ) :   0.9089 B(  4-C ,  5-C ) :   0.8853
B(  4-C ,  8-C ) :   0.9160 B(  5-C ,  6-C ) :   0.9586 B(  5-C , 12-H ) :   0.9290
B(  5-C , 13-H ) :   0.9137 B(  6-C ,  7-O ) :   0.9434 B(  6-C , 14-H ) :   0.9226
B(  6-C , 15-H ) :   0.9300 B(  7-O ,  8-C ) :   0.9338 B(  8-C , 16-H ) :   0.9282
B(  8-C , 17-H ) :   0.9167

MP2 TOTAL ENERGY:     -438.362037008 Eh
FINAL SINGLE POINT ENERGY      -438.362037007725

DIPOLE MOMENT
-------------
                                X             Y             Z
Electronic contribution:      3.84376       0.46466      -0.72679
Nuclear contribution   :     -3.94761      -0.93490       1.21542
                        -----------------------------------------
Total Dipole Moment    :     -0.10385      -0.47024       0.48863
                        -----------------------------------------
Magnitude (a.u.)       :      0.68605
Magnitude (Debye)      :      1.74380

                             ****ORCA TERMINATED NORMALLY****
TOTAL RUN TIME: 0 days 0 hours 17 minutes 24 seconds 92 msec
