                         Program Version 3.0.3 - RELEASE   -
|  1> ! RI-MP2 RIJK def2-TZVP def2-TZVP/C def2-TZVP/JK TIGHTSCF
|  2> % maxcore 2000
|  3> % mp2 density relaxed end
|  4> *xyz 0 1
|  5>  C       -0.0536598923     1.5998259921    -0.0127159261
|  6>  C        0.0548176928     0.1054737570    -0.0282156458
|  7>  C        0.6719924696    -0.9107230536    -0.9525659120
|  8>  O        1.1515800234    -1.7120826239     0.1525123037
|  9>  C        0.6648108947    -0.7665872121     1.0521622452
| 10>  O        0.8149146902    -0.7378287551     2.2274565936
| 11>  C       -0.8255091118    -0.8264459134    -0.9102565938
| 12>  C       -1.6686806181    -1.8653678853    -0.3948522762
| 13>  C       -2.3880385555    -2.7273014249     0.0335337401
| 14>  H        0.8913532424     2.0590646956     0.2930861387
| 15>  H       -0.3162049459     1.9844243961    -1.0024861291
| 16>  H       -0.8278451271     1.9224795438     0.6904000691
| 17>  H        1.3126227861    -0.8200450119    -1.8188317807
| 18>  H       -1.2442523741    -0.2671330846    -1.7462110474
| 19>  H       -3.0135822445    -3.4943970399     0.4185128508
| 20> *
| 21>
| 22>                          ****END OF INPUT****

CARTESIAN COORDINATES (ANGSTROEM)
---------------------------------
  C     -0.053660    1.599826   -0.012716
  C      0.054818    0.105474   -0.028216
  C      0.671992   -0.910723   -0.952566
  O      1.151580   -1.712083    0.152512
  C      0.664811   -0.766587    1.052162
  O      0.814915   -0.737829    2.227457
  C     -0.825509   -0.826446   -0.910257
  C     -1.668681   -1.865368   -0.394852
  C     -2.388039   -2.727301    0.033534
  H      0.891353    2.059065    0.293086
  H     -0.316205    1.984424   -1.002486
  H     -0.827845    1.922480    0.690400
  H      1.312623   -0.820045   -1.818832
  H     -1.244252   -0.267133   -1.746211
  H     -3.013582   -3.494397    0.418513

 Total Charge           Charge          ....    0
 Multiplicity           Mult            ....    1
 Number of Electrons    NEL             ....   64
 Basis Dimension        Dim             ....  315

ORBITAL ENERGIES
----------------

  NO   OCC          E(Eh)            E(eV)
   0   2.0000     -20.607337      -560.7541
   1   2.0000     -20.562639      -559.5379
   2   2.0000     -11.393502      -310.0330
   3   2.0000     -11.332711      -308.3787
   4   2.0000     -11.300031      -307.4895
   5   2.0000     -11.289615      -307.2060
   6   2.0000     -11.253293      -306.2177
   7   2.0000     -11.248016      -306.0741
   8   2.0000     -11.238286      -305.8093
   9   2.0000      -1.475701       -40.1559
  10   2.0000      -1.392885       -37.9023
  11   2.0000      -1.181171       -32.1413
  12   2.0000      -1.050930       -28.5972
  13   2.0000      -1.002501       -27.2794
  14   2.0000      -0.915404       -24.9094
  15   2.0000      -0.885469       -24.0948
  16   2.0000      -0.759071       -20.6554
  17   2.0000      -0.730060       -19.8659
  18   2.0000      -0.706612       -19.2279
  19   2.0000      -0.705190       -19.1892
  20   2.0000      -0.676730       -18.4148
  21   2.0000      -0.622905       -16.9501
  22   2.0000      -0.611589       -16.6422
  23   2.0000      -0.599714       -16.3191
  24   2.0000      -0.586256       -15.9528
  25   2.0000      -0.557628       -15.1738
  26   2.0000      -0.533866       -14.5272
  27   2.0000      -0.477091       -12.9823
  28   2.0000      -0.453278       -12.3343
  29   2.0000      -0.442043       -12.0286
  30   2.0000      -0.399291       -10.8653
  31   2.0000      -0.381411       -10.3787
  32   0.0000       0.122967         3.3461
  33   0.0000       0.134722         3.6660
  34   0.0000       0.157535         4.2868
  35   0.0000       0.160286         4.3616
  36   0.0000       0.164864         4.4862

MULLIKEN ATOMIC CHARGES
-----------------------
   0 C :   -0.400696
   1 C :   -0.051484
   2 C :    0.124432
   3 O :   -0.255232
   4 C :    0.290916
   5 O :   -0.243458
   6 C :   -0.333794
   7 C :    0.027810
   8 C :   -0.112127
   9 H :    0.150717
  10 H :    0.138909
  11 H :    0.158405
  12 H :    0.160605
  13 H :    0.147109
  14 H :    0.197887
Sum of atomic charges:    0.0000000

LOEWDIN ATOMIC CHARGES
----------------------
   0 C :   -0.259621
   1 C :   -0.164513
   2 C :   -0.167290
   3 O :    0.251643
   4 C :   -0.395975
   5 O :    0.179197
   6 C :   -0.144993
   7 C :   -0.088742
   8 C :   -0.070082
   9 H :    0.137270
  10 H :    0.133816
  11 H :    0.140403
  12 H :    0.141555
  13 H :    0.177364
  14 H :    0.129969

  Mayer bond orders larger than 0.1
B(  0-C ,  1-C ) :   0.8790 B(  0-C ,  9-H ) :   0.9300 B(  0-C , 10-H ) :   0.9358
B(  0-C , 11-H ) :   0.9332 B(  1-C ,  2-C ) :   0.8460 B(  1-C ,  4-C ) :   0.9256
B(  1-C ,  6-C ) :   0.8162 B(  2-C ,  3-O ) :   0.9268 B(  2-C ,  6-C ) :   0.8738
B(  2-C , 12-H ) :   0.9087 B(  3-O ,  4-C ) :   1.0364 B(  4-C ,  5-O ) :   2.0705
B(  6-C ,  7-C ) :   1.1607 B(  6-C ,  8-C ) :  -0.1227 B(  6-C , 13-H ) :   0.9217
B(  7-C ,  8-C ) :   2.5793 B(  8-C , 14-H ) :   0.8910

MP2 TOTAL ENERGY:     -419.868824445 Eh
FINAL SINGLE POINT ENERGY      -419.868824445107

DIPOLE MOMENT
-------------
                                X             Y             Z
Electronic contribution:      1.86694      -5.17818       2.55131
Nuclear contribution   :     -2.30705       6.01445      -3.87607
                        -----------------------------------------
Total Dipole Moment    :     -0.44011       0.83626      -1.32476
                        -----------------------------------------
Magnitude (a.u.)       :      1.62727
Magnitude (Debye)      :      4.13620

                             ****ORCA TERMINATED NORMALLY****
TOTAL RUN TIME: 0 days 0 hours 15 minutes 55 seconds 146 msec
