                         Program Version 3.0.3 - RELEASE   -
|  1> ! RI-MP2 RIJK def2-TZVP def2-TZVP/C def2-TZVP/JK TIGHTSCF
|  2> % maxcore 2000
|  3> % mp2 density relaxed end
|  4> *xyz 0 1
|  5>  C        0.0045616333     1.5218513715    -0.3243402516
|  6>  C       -0.1218296423     0.0179298893    -0.2018747495
|  7>  C       -0.1539111619    -0.6322276627     1.1576659533
|  8>  C       -1.3989332383    -0.6043767539     0.3064755030
|  9>  C        1.4316347764     2.0232334966    -0.1680122814
| 10>  C        1.6669573261     3.5501237564    -0.1240388191
| 11>  C        2.3217824623     3.2639598630     1.2411497461
| 12>  O        1.9406252491     1.8748669427     1.1836215999
| 13>  H       -0.3670993755     1.8530046520    -1.3050585381
| 14>  H       -0.6199434089     2.0119955875     0.4337549296
| 15>  H        0.3974965129    -0.5360877250    -0.9806725842
| 16>  H        0.3591530028    -1.5784597843     1.2885221398
| 17>  H       -0.1048931224     0.0211924681     2.0206838379
| 18>  H       -2.2035145244     0.0620099422     0.6012614236
| 19>  H       -1.7370275459    -1.5303418445    -0.1458104539
| 20>  H        2.0914687954     1.5035056304    -0.8791118105
| 21>  H        2.3128230921     3.9668500974    -0.8981979237
| 22>  H        0.7458625415     4.1351511022    -0.0699585104
| 23>  H        3.4127149079     3.3871628053     1.2645593908
| 24>  H        1.8920878898     3.7731372859     2.1118071985
| 25> *
| 26>
| 27>                          ****END OF INPUT****

CARTESIAN COORDINATES (ANGSTROEM)
---------------------------------
  C      0.004562    1.521851   -0.324340
  C     -0.121830    0.017930   -0.201875
  C     -0.153911   -0.632228    1.157666
  C     -1.398933   -0.604377    0.306476
  C      1.431635    2.023233   -0.168012
  C      1.666957    3.550124   -0.124039
  C      2.321782    3.263960    1.241150
  O      1.940625    1.874867    1.183622
  H     -0.367099    1.853005   -1.305059
  H     -0.619943    2.011996    0.433755
  H      0.397497   -0.536088   -0.980673
  H      0.359153   -1.578460    1.288522
  H     -0.104893    0.021192    2.020684
  H     -2.203515    0.062010    0.601261
  H     -1.737028   -1.530342   -0.145810
  H      2.091469    1.503506   -0.879112
  H      2.312823    3.966850   -0.898198
  H      0.745863    4.135151   -0.069959
  H      3.412715    3.387163    1.264559
  H      1.892088    3.773137    2.111807

 Total Charge           Charge          ....    0
 Multiplicity           Mult            ....    1
 Number of Electrons    NEL             ....   62
 Basis Dimension        Dim             ....  320

ORBITAL ENERGIES
----------------

  NO   OCC          E(Eh)            E(eV)
   0   2.0000     -20.539749      -558.9150
   1   2.0000     -11.278516      -306.9040
   2   2.0000     -11.274872      -306.8049
   3   2.0000     -11.227022      -305.5028
   4   2.0000     -11.224022      -305.4212
   5   2.0000     -11.221977      -305.3655
   6   2.0000     -11.216459      -305.2154
   7   2.0000     -11.212453      -305.1063
   8   2.0000      -1.370733       -37.2995
   9   2.0000      -1.136939       -30.9377
  10   2.0000      -1.027895       -27.9704
  11   2.0000      -0.988706       -26.9041
  12   2.0000      -0.882485       -24.0136
  13   2.0000      -0.812705       -22.1148
  14   2.0000      -0.777117       -21.1464
  15   2.0000      -0.757191       -20.6042
  16   2.0000      -0.676136       -18.3986
  17   2.0000      -0.665379       -18.1059
  18   2.0000      -0.646466       -17.5912
  19   2.0000      -0.614870       -16.7315
  20   2.0000      -0.600419       -16.3382
  21   2.0000      -0.545880       -14.8541
  22   2.0000      -0.538546       -14.6546
  23   2.0000      -0.520854       -14.1732
  24   2.0000      -0.507274       -13.8036
  25   2.0000      -0.501799       -13.6546
  26   2.0000      -0.458869       -12.4865
  27   2.0000      -0.454886       -12.3781
  28   2.0000      -0.415799       -11.3145
  29   2.0000      -0.404545       -11.0082
  30   2.0000      -0.388935       -10.5835
  31   0.0000       0.144475         3.9314
  32   0.0000       0.154528         4.2049
  33   0.0000       0.162628         4.4253
  34   0.0000       0.172938         4.7059
  35   0.0000       0.183891         5.0039

MULLIKEN ATOMIC CHARGES
-----------------------
   0 C :   -0.256258
   1 C :   -0.079977
   2 C :   -0.254525
   3 C :   -0.268406
   4 C :    0.121586
   5 C :   -0.279454
   6 C :   -0.014045
   7 O :   -0.332620
   8 H :    0.116692
   9 H :    0.111644
  10 H :    0.114315
  11 H :    0.124596
  12 H :    0.133904
  13 H :    0.124337
  14 H :    0.125405
  15 H :    0.075931
  16 H :    0.127418
  17 H :    0.119205
  18 H :    0.092427
  19 H :    0.097824
Sum of atomic charges:   -0.0000000

LOEWDIN ATOMIC CHARGES
----------------------
   0 C :   -0.238864
   1 C :   -0.232076
   2 C :   -0.226427
   3 C :   -0.234599
   4 C :   -0.276643
   5 C :   -0.231277
   6 C :   -0.279037
   7 O :    0.130112
   8 H :    0.147082
   9 H :    0.147000
  10 H :    0.145842
  11 H :    0.129978
  12 H :    0.134852
  13 H :    0.130332
  14 H :    0.129174
  15 H :    0.134944
  16 H :    0.128041
  17 H :    0.132440
  18 H :    0.114946
  19 H :    0.114180

  Mayer bond orders larger than 0.1
B(  0-C ,  1-C ) :   0.9304 B(  0-C ,  4-C ) :   0.9332 B(  0-C ,  8-H ) :   0.9236
B(  0-C ,  9-H ) :   0.9198 B(  1-C ,  2-C ) :   0.8941 B(  1-C ,  3-C ) :   0.8941
B(  1-C , 10-H ) :   0.9249 B(  2-C ,  3-C ) :   0.9042 B(  2-C , 11-H ) :   0.9319
B(  2-C , 12-H ) :   0.9280 B(  3-C , 13-H ) :   0.9289 B(  3-C , 14-H ) :   0.9305
B(  4-C ,  5-C ) :   0.9037 B(  4-C ,  7-O ) :   0.9400 B(  4-C , 15-H ) :   0.9193
B(  5-C ,  6-C ) :   0.9768 B(  5-C , 16-H ) :   0.9283 B(  5-C , 17-H ) :   0.9257
B(  6-C ,  7-O ) :   0.9475 B(  6-C , 18-H ) :   0.9181 B(  6-C , 19-H ) :   0.9179

MP2 TOTAL ENERGY:     -348.360541335 Eh
FINAL SINGLE POINT ENERGY      -348.360541335465

DIPOLE MOMENT
-------------
                                X             Y             Z
Electronic contribution:      2.40167       0.26387       0.82512
Nuclear contribution   :     -2.44717       0.26480      -1.28300
                        -----------------------------------------
Total Dipole Moment    :     -0.04550       0.52867      -0.45787
                        -----------------------------------------
Magnitude (a.u.)       :      0.70086
Magnitude (Debye)      :      1.78145

                             ****ORCA TERMINATED NORMALLY****
TOTAL RUN TIME: 0 days 0 hours 12 minutes 27 seconds 162 msec
