                         Program Version 3.0.3 - RELEASE   -
|  1> ! RI-MP2 RIJK def2-TZVP def2-TZVP/C def2-TZVP/JK TIGHTSCF
|  2> % maxcore 2000
|  3> % mp2 density relaxed end
|  4> *xyz 0 1
|  5>  C        0.1592462382     1.2161459899    -0.3409349493
|  6>  O        0.3653391852    -0.1770852718    -0.2455828363
|  7>  C        0.7388704877    -0.6508256379     1.0551849723
|  8>  C       -0.4708823157    -0.7136463332     1.9902655736
|  9>  C        1.4148884742    -2.0112049836     0.8882017402
| 10>  C        0.6508961123    -3.0548528874     0.0128575750
| 11>  C        1.6859472919    -2.8394334451    -1.1336818967
| 12>  O        1.2153279695    -2.0925380764    -2.2268967208
| 13>  C        2.5895047513    -2.0535936866    -0.1340384273
| 14>  H        1.0446279932     1.7768901602    -0.0062317242
| 15>  H       -0.0257886013     1.4438645007    -1.3934474076
| 16>  H       -0.7069234810     1.5515247216     0.2452689911
| 17>  H        1.4820009009     0.0504911271     1.4712000919
| 18>  H       -0.1603395181    -1.0382483195     2.9882675696
| 19>  H       -0.9529030464     0.2622505713     2.0961215917
| 20>  H       -1.2128771340    -1.4227659145     1.6115456893
| 21>  H        1.6754336840    -2.3674392184     1.8890540877
| 22>  H        0.6748823459    -4.0618154214     0.4377661407
| 23>  H       -0.3789971908    -2.8134286677    -0.2618570336
| 24>  H        2.1240853838    -3.7491819379    -1.5523354947
| 25>  H        0.8192394808    -1.2932949553    -1.8498618329
| 26>  H        2.9468558420    -1.0910187780    -0.5095777975
| 27>  H        3.4444470465    -2.6324655258     0.2259551879
| 28> *
| 29>
| 30>                          ****END OF INPUT****

CARTESIAN COORDINATES (ANGSTROEM)
---------------------------------
  C      0.159246    1.216146   -0.340935
  O      0.365339   -0.177085   -0.245583
  C      0.738870   -0.650826    1.055185
  C     -0.470882   -0.713646    1.990266
  C      1.414888   -2.011205    0.888202
  C      0.650896   -3.054853    0.012858
  C      1.685947   -2.839433   -1.133682
  O      1.215328   -2.092538   -2.226897
  C      2.589505   -2.053594   -0.134038
  H      1.044628    1.776890   -0.006232
  H     -0.025789    1.443865   -1.393447
  H     -0.706923    1.551525    0.245269
  H      1.482001    0.050491    1.471200
  H     -0.160340   -1.038248    2.988268
  H     -0.952903    0.262251    2.096122
  H     -1.212877   -1.422766    1.611546
  H      1.675434   -2.367439    1.889054
  H      0.674882   -4.061815    0.437766
  H     -0.378997   -2.813429   -0.261857
  H      2.124085   -3.749182   -1.552335
  H      0.819239   -1.293295   -1.849862
  H      2.946856   -1.091019   -0.509578
  H      3.444447   -2.632466    0.225955

 Total Charge           Charge          ....    0
 Multiplicity           Mult            ....    1
 Number of Electrons    NEL             ....   72
 Basis Dimension        Dim             ....  363

ORBITAL ENERGIES
----------------

  NO   OCC          E(Eh)            E(eV)
   0   2.0000     -20.566219      -559.6353
   1   2.0000     -20.528574      -558.6109
   2   2.0000     -11.287642      -307.1524
   3   2.0000     -11.280159      -306.9487
   4   2.0000     -11.264568      -306.5245
   5   2.0000     -11.227668      -305.5204
   6   2.0000     -11.221311      -305.3474
   7   2.0000     -11.212354      -305.1037
   8   2.0000     -11.212043      -305.0952
   9   2.0000      -1.385025       -37.6884
  10   2.0000      -1.340773       -36.4843
  11   2.0000      -1.116766       -30.3888
  12   2.0000      -1.027915       -27.9710
  13   2.0000      -0.939396       -25.5623
  14   2.0000      -0.901458       -24.5299
  15   2.0000      -0.888652       -24.1815
  16   2.0000      -0.815294       -22.1853
  17   2.0000      -0.739870       -20.1329
  18   2.0000      -0.687644       -18.7118
  19   2.0000      -0.670654       -18.2494
  20   2.0000      -0.658811       -17.9272
  21   2.0000      -0.637411       -17.3448
  22   2.0000      -0.619691       -16.8627
  23   2.0000      -0.583579       -15.8800
  24   2.0000      -0.567515       -15.4429
  25   2.0000      -0.565481       -15.3875
  26   2.0000      -0.552433       -15.0325
  27   2.0000      -0.546668       -14.8756
  28   2.0000      -0.526165       -14.3177
  29   2.0000      -0.514129       -13.9902
  30   2.0000      -0.484132       -13.1739
  31   2.0000      -0.466519       -12.6946
  32   2.0000      -0.449255       -12.2248
  33   2.0000      -0.425376       -11.5751
  34   2.0000      -0.418574       -11.3900
  35   2.0000      -0.396578       -10.7914
  36   0.0000       0.131299         3.5728
  37   0.0000       0.150899         4.1062
  38   0.0000       0.160527         4.3682
  39   0.0000       0.169406         4.6098
  40   0.0000       0.187024         5.0892

MULLIKEN ATOMIC CHARGES
-----------------------
   0 C :   -0.223970
   1 O :   -0.354473
   2 C :    0.054530
   3 C :   -0.410145
   4 C :   -0.002303
   5 C :   -0.277765
   6 C :    0.079910
   7 O :   -0.475588
   8 C :   -0.246487
   9 H :    0.118495
  10 H :    0.143038
  11 H :    0.118393
  12 H :    0.082629
  13 H :    0.132023
  14 H :    0.131225
  15 H :    0.139674
  16 H :    0.105510
  17 H :    0.113466
  18 H :    0.118061
  19 H :    0.104257
  20 H :    0.327996
  21 H :    0.108564
  22 H :    0.112959
Sum of atomic charges:   -0.0000000

LOEWDIN ATOMIC CHARGES
----------------------
   0 C :   -0.356384
   1 O :    0.141812
   2 C :   -0.327919
   3 C :   -0.291630
   4 C :   -0.218403
   5 C :   -0.208042
   6 C :   -0.328323
   7 O :   -0.020841
   8 C :   -0.208094
   9 H :    0.104255
  10 H :    0.115414
  11 H :    0.103695
  12 H :    0.139909
  13 H :    0.128442
  14 H :    0.121349
  15 H :    0.128159
  16 H :    0.146866
  17 H :    0.132508
  18 H :    0.132557
  19 H :    0.128842
  20 H :    0.171551
  21 H :    0.132020
  22 H :    0.132258

  Mayer bond orders larger than 0.1
B(  0-C ,  1-O ) :   0.9046 B(  0-C ,  9-H ) :   0.9370 B(  0-C , 10-H ) :   0.9382
B(  0-C , 11-H ) :   0.9333 B(  1-O ,  2-C ) :   0.8620 B(  2-C ,  3-C ) :   0.9202
B(  2-C ,  4-C ) :   0.9131 B(  2-C , 12-H ) :   0.9396 B(  3-C , 13-H ) :   0.9347
B(  3-C , 14-H ) :   0.9374 B(  3-C , 15-H ) :   0.9333 B(  4-C ,  5-C ) :   0.9178
B(  4-C ,  8-C ) :   0.9143 B(  4-C , 16-H ) :   0.9067 B(  5-C ,  6-C ) :   0.9342
B(  5-C , 17-H ) :   0.9102 B(  5-C , 18-H ) :   0.9143 B(  6-C ,  7-O ) :   0.9767
B(  6-C ,  8-C ) :   0.9290 B(  6-C , 19-H ) :   0.9451 B(  7-O , 20-H ) :   0.8179
B(  8-C , 21-H ) :   0.9152 B(  8-C , 22-H ) :   0.9101

MP2 TOTAL ENERGY:     -424.705383021 Eh
FINAL SINGLE POINT ENERGY      -424.705383020923

DIPOLE MOMENT
-------------
                                X             Y             Z
Electronic contribution:      1.65419      -2.42568      -4.50463
Nuclear contribution   :     -1.74459       3.04828       5.63293
                        -----------------------------------------
Total Dipole Moment    :     -0.09040       0.62260       1.12829
                        -----------------------------------------
Magnitude (a.u.)       :      1.29184
Magnitude (Debye)      :      3.28359

                             ****ORCA TERMINATED NORMALLY****
TOTAL RUN TIME: 0 days 0 hours 19 minutes 20 seconds 933 msec
