                         Program Version 3.0.3 - RELEASE   -
|  1> ! RI-MP2 RIJK def2-TZVP def2-TZVP/C def2-TZVP/JK TIGHTSCF
|  2> % maxcore 2000
|  3> % mp2 density relaxed end
|  4> *xyz 0 1
|  5>  C        0.0364732343     1.5093246132     0.0958508458
|  6>  C        0.0343654131     0.0155421911    -0.0038277133
|  7>  C       -0.9198322563    -0.9104740847     0.7739438978
|  8>  O       -1.0685374406    -2.1299068396     0.0475544844
|  9>  C        0.3501230617    -2.0486058533    -0.2125841963
| 10>  C        0.5528004079    -1.0410680300     0.9763110113
| 11>  C        0.4795013133    -0.8432042226    -1.2007814738
| 12>  C       -0.3178348570    -0.8575942734    -2.4215853168
| 13>  N       -0.9444243614    -0.8510516688    -3.3928021010
| 14>  H        1.0301907984     1.9252219549    -0.1030766550
| 15>  H       -0.6642515572     1.9481268038    -0.6226010303
| 16>  H       -0.2650472632     1.8344903236     1.0970837989
| 17>  H       -1.7260662682    -0.5680692994     1.4085197386
| 18>  H        0.8286559110    -3.0061660963    -0.4000226954
| 19>  H        1.2120266988    -0.9964959439     1.8315366141
| 20>  H        1.5293083554    -0.6491760947    -1.4375226990
| 21> *
| 22>
| 23>                          ****END OF INPUT****

CARTESIAN COORDINATES (ANGSTROEM)
---------------------------------
  C      0.036473    1.509325    0.095851
  C      0.034365    0.015542   -0.003828
  C     -0.919832   -0.910474    0.773944
  O     -1.068537   -2.129907    0.047554
  C      0.350123   -2.048606   -0.212584
  C      0.552800   -1.041068    0.976311
  C      0.479501   -0.843204   -1.200781
  C     -0.317835   -0.857594   -2.421585
  N     -0.944424   -0.851052   -3.392802
  H      1.030191    1.925222   -0.103077
  H     -0.664252    1.948127   -0.622601
  H     -0.265047    1.834490    1.097084
  H     -1.726066   -0.568069    1.408520
  H      0.828656   -3.006166   -0.400023
  H      1.212027   -0.996496    1.831537
  H      1.529308   -0.649176   -1.437523

 Total Charge           Charge          ....    0
 Multiplicity           Mult            ....    1
 Number of Electrons    NEL             ....   64
 Basis Dimension        Dim             ....  321

ORBITAL ENERGIES
----------------

  NO   OCC          E(Eh)            E(eV)
   0   2.0000     -20.575692      -559.8930
   1   2.0000     -15.565972      -423.5716
   2   2.0000     -11.327116      -308.2265
   3   2.0000     -11.311362      -307.7978
   4   2.0000     -11.292043      -307.2721
   5   2.0000     -11.278367      -306.9000
   6   2.0000     -11.267021      -306.5912
   7   2.0000     -11.262792      -306.4762
   8   2.0000     -11.245024      -305.9927
   9   2.0000      -1.430827       -38.9348
  10   2.0000      -1.215357       -33.0715
  11   2.0000      -1.184224       -32.2244
  12   2.0000      -1.036301       -28.1992
  13   2.0000      -1.002691       -27.2846
  14   2.0000      -0.914283       -24.8789
  15   2.0000      -0.797980       -21.7141
  16   2.0000      -0.776243       -21.1226
  17   2.0000      -0.722301       -19.6548
  18   2.0000      -0.716654       -19.5012
  19   2.0000      -0.652389       -17.7524
  20   2.0000      -0.634675       -17.2704
  21   2.0000      -0.588205       -16.0059
  22   2.0000      -0.581271       -15.8172
  23   2.0000      -0.570414       -15.5217
  24   2.0000      -0.557401       -15.1677
  25   2.0000      -0.550814       -14.9884
  26   2.0000      -0.520061       -14.1516
  27   2.0000      -0.478637       -13.0244
  28   2.0000      -0.457748       -12.4560
  29   2.0000      -0.441474       -12.0131
  30   2.0000      -0.413879       -11.2622
  31   2.0000      -0.396881       -10.7997
  32   0.0000       0.123537         3.3616
  33   0.0000       0.139771         3.8034
  34   0.0000       0.153593         4.1795
  35   0.0000       0.162583         4.4241
  36   0.0000       0.178449         4.8558

MULLIKEN ATOMIC CHARGES
-----------------------
   0 C :   -0.409827
   1 C :   -0.028797
   2 C :    0.000832
   3 O :   -0.305959
   4 C :    0.040071
   5 C :   -0.168859
   6 C :    0.100748
   7 C :   -0.233868
   8 N :   -0.046942
   9 H :    0.139189
  10 H :    0.159893
  11 H :    0.139147
  12 H :    0.151141
  13 H :    0.154189
  14 H :    0.163140
  15 H :    0.145900
Sum of atomic charges:   -0.0000000

LOEWDIN ATOMIC CHARGES
----------------------
   0 C :   -0.265568
   1 C :   -0.181358
   2 C :   -0.204657
   3 O :    0.190522
   4 C :   -0.164352
   5 C :   -0.109120
   6 C :   -0.169032
   7 C :   -0.163359
   8 N :    0.067835
   9 H :    0.131385
  10 H :    0.138720
  11 H :    0.135491
  12 H :    0.140565
  13 H :    0.135407
  14 H :    0.137836
  15 H :    0.179685

  Mayer bond orders larger than 0.1
B(  0-C ,  1-C ) :   0.8950 B(  0-C ,  9-H ) :   0.9330 B(  0-C , 10-H ) :   0.9347
B(  0-C , 11-H ) :   0.9307 B(  1-C ,  2-C ) :   0.8670 B(  1-C ,  5-C ) :   0.8372
B(  1-C ,  6-C ) :   0.8772 B(  2-C ,  3-O ) :   0.9380 B(  2-C ,  5-C ) :   0.8776
B(  2-C , 12-H ) :   0.9227 B(  3-O ,  4-C ) :   0.9466 B(  4-C ,  5-C ) :   0.9461
B(  4-C ,  6-C ) :   0.8878 B(  4-C , 13-H ) :   0.9107 B(  5-C , 14-H ) :   0.8972
B(  6-C ,  7-C ) :   0.9539 B(  6-C , 15-H ) :   0.8999 B(  7-C ,  8-N ) :   2.8692

MP2 TOTAL ENERGY:     -400.000447195 Eh
FINAL SINGLE POINT ENERGY      -400.000447194857

DIPOLE MOMENT
-------------
                                X             Y             Z
Electronic contribution:     -1.97414      -5.05503      -3.79253
Nuclear contribution   :      3.20518       5.62379       5.39348
                        -----------------------------------------
Total Dipole Moment    :      1.23103       0.56876       1.60095
                        -----------------------------------------
Magnitude (a.u.)       :      2.09809
Magnitude (Debye)      :      5.33291

                             ****ORCA TERMINATED NORMALLY****
TOTAL RUN TIME: 0 days 0 hours 16 minutes 58 seconds 700 msec
