                         Program Version 3.0.3 - RELEASE   -
|  1> ! RI-MP2 RIJK def2-TZVP def2-TZVP/C def2-TZVP/JK TIGHTSCF
|  2> % maxcore 2000
|  3> % mp2 density relaxed end
|  4> *xyz 0 1
|  5>  C       -0.4531933686     1.1479380918    -0.2415899914
|  6>  C        0.4297846327    -0.0768075152    -0.0159826298
|  7>  C        0.9804548878    -0.6476695824    -1.3023566996
|  8>  O        0.6845231549    -0.3025482662    -2.4174254721
|  9>  O        1.8867579844    -1.6254834156    -1.0411702119
| 10>  C        2.3621567584    -2.3263923451    -2.1768806490
| 11>  C        1.3399925595    -3.3456915690    -2.6891059474
| 12>  C        1.7458685845    -4.0876307984    -3.9465266453
| 13>  O        0.2912837212    -3.5255228946    -2.1230910112
| 14>  H        0.1113775336     1.9602841616    -0.7071708240
| 15>  H       -1.2881690046     0.9078319649    -0.9038893845
| 16>  H       -0.8552628287     1.5090787715     0.7088723734
| 17>  H        1.2732705906     0.1428498378     0.6480044795
| 18>  H       -0.1267189185    -0.8850713345     0.4741848258
| 19>  H        2.6206451886    -1.6354125632    -2.9864078399
| 20>  H        3.2691449495    -2.8507494797    -1.8590115798
| 21>  H        2.7729575221    -4.4617508300    -3.8776101470
| 22>  H        1.0572791937    -4.9139266239    -4.1255673058
| 23>  H        1.7095669989    -3.3994938297    -4.7993054101
| 24> *
| 25>
| 26>                          ****END OF INPUT****

CARTESIAN COORDINATES (ANGSTROEM)
---------------------------------
  C     -0.453193    1.147938   -0.241590
  C      0.429785   -0.076808   -0.015983
  C      0.980455   -0.647670   -1.302357
  O      0.684523   -0.302548   -2.417425
  O      1.886758   -1.625483   -1.041170
  C      2.362157   -2.326392   -2.176881
  C      1.339993   -3.345692   -2.689106
  C      1.745869   -4.087631   -3.946527
  O      0.291284   -3.525523   -2.123091
  H      0.111378    1.960284   -0.707171
  H     -1.288169    0.907832   -0.903889
  H     -0.855263    1.509079    0.708872
  H      1.273271    0.142850    0.648004
  H     -0.126719   -0.885071    0.474185
  H      2.620645   -1.635413   -2.986408
  H      3.269145   -2.850749   -1.859012
  H      2.772958   -4.461751   -3.877610
  H      1.057279   -4.913927   -4.125567
  H      1.709567   -3.399494   -4.799305

 Total Charge           Charge          ....    0
 Multiplicity           Mult            ....    1
 Number of Electrons    NEL             ....   70
 Basis Dimension        Dim             ....  339

ORBITAL ENERGIES
----------------

  NO   OCC          E(Eh)            E(eV)
   0   2.0000     -20.605592      -560.7067
   1   2.0000     -20.552856      -559.2716
   2   2.0000     -20.543696      -559.0224
   3   2.0000     -11.378728      -309.6309
   4   2.0000     -11.339569      -308.5654
   5   2.0000     -11.305796      -307.6463
   6   2.0000     -11.243626      -305.9546
   7   2.0000     -11.242610      -305.9270
   8   2.0000     -11.218832      -305.2799
   9   2.0000      -1.466122       -39.8952
  10   2.0000      -1.397342       -38.0236
  11   2.0000      -1.362465       -37.0745
  12   2.0000      -1.069555       -29.1041
  13   2.0000      -1.040332       -28.3089
  14   2.0000      -0.976891       -26.5826
  15   2.0000      -0.886575       -24.1249
  16   2.0000      -0.795193       -21.6383
  17   2.0000      -0.743733       -20.2380
  18   2.0000      -0.707140       -19.2422
  19   2.0000      -0.694990       -18.9116
  20   2.0000      -0.681915       -18.5559
  21   2.0000      -0.635287       -17.2870
  22   2.0000      -0.629997       -17.1431
  23   2.0000      -0.617096       -16.7920
  24   2.0000      -0.592362       -16.1190
  25   2.0000      -0.586155       -15.9501
  26   2.0000      -0.551682       -15.0120
  27   2.0000      -0.543112       -14.7788
  28   2.0000      -0.523751       -14.2520
  29   2.0000      -0.521118       -14.1803
  30   2.0000      -0.500963       -13.6319
  31   2.0000      -0.495530       -13.4841
  32   2.0000      -0.479523       -13.0485
  33   2.0000      -0.449034       -12.2188
  34   2.0000      -0.418188       -11.3795
  35   0.0000       0.127269         3.4632
  36   0.0000       0.137751         3.7484
  37   0.0000       0.143068         3.8931
  38   0.0000       0.169982         4.6254
  39   0.0000       0.176644         4.8067

MULLIKEN ATOMIC CHARGES
-----------------------
   0 C :   -0.374926
   1 C :   -0.219478
   2 C :    0.325408
   3 O :   -0.338595
   4 O :   -0.256033
   5 C :   -0.090207
   6 C :    0.203773
   7 C :   -0.415973
   8 O :   -0.278750
   9 H :    0.127810
  10 H :    0.140203
  11 H :    0.133532
  12 H :    0.135603
  13 H :    0.145880
  14 H :    0.149095
  15 H :    0.157328
  16 H :    0.140490
  17 H :    0.156738
  18 H :    0.158100
Sum of atomic charges:   -0.0000000

LOEWDIN ATOMIC CHARGES
----------------------
   0 C :   -0.307479
   1 C :   -0.260258
   2 C :   -0.463918
   3 O :    0.130926
   4 O :    0.258886
   5 C :   -0.278073
   6 C :   -0.356775
   7 C :   -0.277451
   8 O :    0.165492
   9 H :    0.125369
  10 H :    0.128657
  11 H :    0.122113
  12 H :    0.151326
  13 H :    0.158018
  14 H :    0.144265
  15 H :    0.144544
  16 H :    0.134576
  17 H :    0.136409
  18 H :    0.143374

  Mayer bond orders larger than 0.1
B(  0-C ,  1-C ) :   0.9342 B(  0-C ,  9-H ) :   0.9347 B(  0-C , 10-H ) :   0.9333
B(  0-C , 11-H ) :   0.9373 B(  1-C ,  2-C ) :   0.9491 B(  1-C , 12-H ) :   0.9168
B(  1-C , 13-H ) :   0.9091 B(  2-C ,  3-O ) :   1.9069 B(  2-C ,  4-O ) :   1.0779
B(  4-O ,  5-C ) :   0.8947 B(  5-C ,  6-C ) :   0.8873 B(  5-C , 14-H ) :   0.9245
B(  5-C , 15-H ) :   0.9052 B(  6-C ,  7-C ) :   0.9121 B(  6-C ,  8-O ) :   2.0004
B(  7-C , 16-H ) :   0.9156 B(  7-C , 17-H ) :   0.9325 B(  7-C , 18-H ) :   0.9123

MP2 TOTAL ENERGY:     -459.479144587 Eh
FINAL SINGLE POINT ENERGY      -459.479144587245

DIPOLE MOMENT
-------------
                                X             Y             Z
Electronic contribution:      0.71961      -2.76685      -0.36733
Nuclear contribution   :      0.27557       2.57182       0.33086
                        -----------------------------------------
Total Dipole Moment    :      0.99518      -0.19502      -0.03647
                        -----------------------------------------
Magnitude (a.u.)       :      1.01477
Magnitude (Debye)      :      2.57934

                             ****ORCA TERMINATED NORMALLY****
TOTAL RUN TIME: 0 days 0 hours 15 minutes 29 seconds 752 msec
