                         Program Version 3.0.3 - RELEASE   -
|  1> ! RI-MP2 RIJK def2-TZVP def2-TZVP/C def2-TZVP/JK TIGHTSCF
|  2> % maxcore 2000
|  3> % mp2 density relaxed end
|  4> *xyz 0 1
|  5>  O        0.3901397559     1.0778353543    -0.6453225928
|  6>  C        0.1243434168    -0.1839879713    -0.0415406960
|  7>  C        0.6094020124    -0.2786282167     1.3847010405
|  8>  C       -0.3245232818    -0.7339384939     2.2177763993
|  9>  C       -1.6292098134    -1.0389155428     1.5226566565
| 10>  O       -2.7596771798    -0.4578381058     2.1643461181
| 11>  C       -1.3659793335    -0.5687350994     0.0760831050
| 12>  C       -2.4130707863     0.2371714422    -0.6572967580
| 13>  C       -2.1076759886    -1.1723380032    -1.0853066504
| 14>  H       -0.0124096374     1.7518327015    -0.0858311436
| 15>  H        0.6583355361    -0.8943104392    -0.6848807963
| 16>  H        1.6240321634    -0.0013474147     1.6497022882
| 17>  H       -0.2083267521    -0.8946659310     3.2841956910
| 18>  H       -1.8442464328    -2.1144330932     1.5474753077
| 19>  H       -2.5986189764     0.4909442969     2.2211023481
| 20>  H       -3.3487317708     0.4165400162    -0.1399302766
| 21>  H       -2.0605240990     1.0445891124    -1.2890321378
| 22>  H       -1.5630212516    -1.3164735533    -2.0133725766
| 23>  H       -2.8438862713    -1.9409220988    -0.8708213063
| 24> *
| 25>
| 26>                          ****END OF INPUT****

CARTESIAN COORDINATES (ANGSTROEM)
---------------------------------
  O      0.390140    1.077835   -0.645323
  C      0.124343   -0.183988   -0.041541
  C      0.609402   -0.278628    1.384701
  C     -0.324523   -0.733938    2.217776
  C     -1.629210   -1.038916    1.522657
  O     -2.759677   -0.457838    2.164346
  C     -1.365979   -0.568735    0.076083
  C     -2.413071    0.237171   -0.657297
  C     -2.107676   -1.172338   -1.085307
  H     -0.012410    1.751833   -0.085831
  H      0.658336   -0.894310   -0.684881
  H      1.624032   -0.001347    1.649702
  H     -0.208327   -0.894666    3.284196
  H     -1.844246   -2.114433    1.547475
  H     -2.598619    0.490944    2.221102
  H     -3.348732    0.416540   -0.139930
  H     -2.060524    1.044589   -1.289032
  H     -1.563021   -1.316474   -2.013373
  H     -2.843886   -1.940922   -0.870821

 Total Charge           Charge          ....    0
 Multiplicity           Mult            ....    1
 Number of Electrons    NEL             ....   68
 Basis Dimension        Dim             ....  339

ORBITAL ENERGIES
----------------

  NO   OCC          E(Eh)            E(eV)
   0   2.0000     -20.560423      -559.4776
   1   2.0000     -20.560422      -559.4775
   2   2.0000     -11.290482      -307.2296
   3   2.0000     -11.290470      -307.2293
   4   2.0000     -11.239243      -305.8353
   5   2.0000     -11.238950      -305.8274
   6   2.0000     -11.237498      -305.7879
   7   2.0000     -11.228269      -305.5367
   8   2.0000     -11.227152      -305.5063
   9   2.0000      -1.369071       -37.2543
  10   2.0000      -1.364234       -37.1227
  11   2.0000      -1.161747       -31.6127
  12   2.0000      -1.096395       -29.8344
  13   2.0000      -0.944484       -25.7007
  14   2.0000      -0.913890       -24.8682
  15   2.0000      -0.828716       -22.5505
  16   2.0000      -0.775059       -21.0904
  17   2.0000      -0.770055       -20.9542
  18   2.0000      -0.699492       -19.0341
  19   2.0000      -0.684270       -18.6199
  20   2.0000      -0.634820       -17.2743
  21   2.0000      -0.628660       -17.1067
  22   2.0000      -0.623891       -16.9769
  23   2.0000      -0.604755       -16.4562
  24   2.0000      -0.600721       -16.3465
  25   2.0000      -0.551378       -15.0037
  26   2.0000      -0.532468       -14.4892
  27   2.0000      -0.515289       -14.0217
  28   2.0000      -0.483718       -13.1626
  29   2.0000      -0.479223       -13.0403
  30   2.0000      -0.429199       -11.6791
  31   2.0000      -0.419970       -11.4280
  32   2.0000      -0.408499       -11.1158
  33   2.0000      -0.377333       -10.2678
  34   0.0000       0.128499         3.4966
  35   0.0000       0.131314         3.5732
  36   0.0000       0.152800         4.1579
  37   0.0000       0.169936         4.6242
  38   0.0000       0.179854         4.8941

MULLIKEN ATOMIC CHARGES
-----------------------
   0 O :   -0.465123
   1 C :    0.179910
   2 C :   -0.210937
   3 C :   -0.210943
   4 C :    0.179916
   5 O :   -0.465124
   6 C :   -0.032382
   7 C :   -0.290632
   8 C :   -0.337775
   9 H :    0.309290
  10 H :    0.107630
  11 H :    0.134951
  12 H :    0.134951
  13 H :    0.107631
  14 H :    0.309291
  15 H :    0.140422
  16 H :    0.140423
  17 H :    0.134251
  18 H :    0.134250
Sum of atomic charges:   -0.0000000

LOEWDIN ATOMIC CHARGES
----------------------
   0 O :   -0.015033
   1 C :   -0.283626
   2 C :   -0.134904
   3 C :   -0.134904
   4 C :   -0.283632
   5 O :   -0.015026
   6 C :   -0.196728
   7 C :   -0.209341
   8 C :   -0.202197
   9 H :    0.173495
  10 H :    0.151906
  11 H :    0.141330
  12 H :    0.141330
  13 H :    0.151906
  14 H :    0.173496
  15 H :    0.134747
  16 H :    0.134747
  17 H :    0.136216
  18 H :    0.136216

  Mayer bond orders larger than 0.1
B(  0-O ,  1-C ) :   0.9293 B(  0-O ,  9-H ) :   0.8408 B(  1-C ,  2-C ) :   0.9478
B(  1-C ,  6-C ) :   0.8963 B(  1-C , 10-H ) :   0.9038 B(  2-C ,  3-C ) :   1.7234
B(  2-C , 11-H ) :   0.9324 B(  3-C ,  4-C ) :   0.9478 B(  3-C , 12-H ) :   0.9324
B(  4-C ,  5-O ) :   0.9293 B(  4-C ,  6-C ) :   0.8963 B(  4-C , 13-H ) :   0.9038
B(  5-O , 14-H ) :   0.8408 B(  6-C ,  7-C ) :   0.8788 B(  6-C ,  8-C ) :   0.8324
B(  7-C ,  8-C ) :   0.9537 B(  7-C , 15-H ) :   0.9192 B(  7-C , 16-H ) :   0.9192
B(  8-C , 17-H ) :   0.9273 B(  8-C , 18-H ) :   0.9273

MP2 TOTAL ENERGY:     -422.312452219 Eh
FINAL SINGLE POINT ENERGY      -422.312452219328

DIPOLE MOMENT
-------------
                                X             Y             Z
Electronic contribution:      1.53706       0.55418       2.02604
Nuclear contribution   :     -1.36509      -0.36460      -1.72961
                        -----------------------------------------
Total Dipole Moment    :      0.17197       0.18958       0.29643
                        -----------------------------------------
Magnitude (a.u.)       :      0.39164
Magnitude (Debye)      :      0.99547

                             ****ORCA TERMINATED NORMALLY****
TOTAL RUN TIME: 0 days 0 hours 16 minutes 47 seconds 340 msec
