                         Program Version 3.0.3 - RELEASE   -
|  1> ! RI-MP2 RIJK def2-TZVP def2-TZVP/C def2-TZVP/JK TIGHTSCF
|  2> % maxcore 2000
|  3> % mp2 density relaxed end
|  4> *xyz 0 1
|  5>  C        0.3312611785     1.2088444227     0.3322492186
|  6>  O       -0.3590817498     0.1958866140    -0.3705884759
|  7>  C        0.4211763174    -0.4171635673    -1.3488327930
|  8>  C        1.3815731190    -1.5410885439    -0.9410241057
|  9>  C        0.1097622228    -1.8222080784    -1.6795092870
| 10>  C       -1.1037430159    -2.7050003956    -1.3364855151
| 11>  C       -1.7154650912    -2.2321283068    -2.6911260109
| 12>  C       -0.2185180248    -2.5465803366    -2.9996843349
| 13>  C       -0.3913861124    -3.8376146166    -2.1410464142
| 14>  H        1.2159568019     0.8128236319     0.8515525190
| 15>  H        0.6590064908     2.0168290672    -0.3398140981
| 16>  H       -0.3624210522     1.6215508612     1.0687108250
| 17>  H        0.7554160755     0.2551437929    -2.1432649803
| 18>  H        2.3363935448    -1.6167928933    -1.4533106531
| 19>  H        1.4118043353    -1.7870954622     0.1164866917
| 20>  H       -1.6056300730    -2.7848565768    -0.3726350751
| 21>  H       -2.4517039976    -2.8993938858    -3.1481318835
| 22>  H       -2.0215857325    -1.1854841469    -2.7494383692
| 23>  H        0.2990842791    -2.4477000677    -3.9550044541
| 24>  H        0.5148637715    -4.2579599715    -1.6988104061
| 25>  H       -1.0378289171    -4.6141602105    -2.5596467982
| 26> *
| 27>
| 28>                          ****END OF INPUT****

CARTESIAN COORDINATES (ANGSTROEM)
---------------------------------
  C      0.331261    1.208844    0.332249
  O     -0.359082    0.195887   -0.370588
  C      0.421176   -0.417164   -1.348833
  C      1.381573   -1.541089   -0.941024
  C      0.109762   -1.822208   -1.679509
  C     -1.103743   -2.705000   -1.336486
  C     -1.715465   -2.232128   -2.691126
  C     -0.218518   -2.546580   -2.999684
  C     -0.391386   -3.837615   -2.141046
  H      1.215957    0.812824    0.851553
  H      0.659006    2.016829   -0.339814
  H     -0.362421    1.621551    1.068711
  H      0.755416    0.255144   -2.143265
  H      2.336394   -1.616793   -1.453311
  H      1.411804   -1.787095    0.116487
  H     -1.605630   -2.784857   -0.372635
  H     -2.451704   -2.899394   -3.148132
  H     -2.021586   -1.185484   -2.749438
  H      0.299084   -2.447700   -3.955004
  H      0.514864   -4.257960   -1.698810
  H     -1.037829   -4.614160   -2.559647

 Total Charge           Charge          ....    0
 Multiplicity           Mult            ....    1
 Number of Electrons    NEL             ....   68
 Basis Dimension        Dim             ....  351

ORBITAL ENERGIES
----------------

  NO   OCC          E(Eh)            E(eV)
   0   2.0000     -20.556872      -559.3809
   1   2.0000     -11.273601      -306.7703
   2   2.0000     -11.268276      -306.6254
   3   2.0000     -11.241470      -305.8960
   4   2.0000     -11.239846      -305.8518
   5   2.0000     -11.236704      -305.7663
   6   2.0000     -11.224737      -305.4406
   7   2.0000     -11.223518      -305.4075
   8   2.0000     -11.217486      -305.2433
   9   2.0000      -1.378952       -37.5232
  10   2.0000      -1.213767       -33.0283
  11   2.0000      -1.097285       -29.8586
  12   2.0000      -0.930727       -25.3264
  13   2.0000      -0.898230       -24.4421
  14   2.0000      -0.854352       -23.2481
  15   2.0000      -0.833130       -22.6706
  16   2.0000      -0.800929       -21.7944
  17   2.0000      -0.714845       -19.4519
  18   2.0000      -0.675510       -18.3816
  19   2.0000      -0.672351       -18.2956
  20   2.0000      -0.642824       -17.4921
  21   2.0000      -0.619966       -16.8701
  22   2.0000      -0.600860       -16.3502
  23   2.0000      -0.571304       -15.5460
  24   2.0000      -0.560657       -15.2562
  25   2.0000      -0.516128       -14.0446
  26   2.0000      -0.490223       -13.3397
  27   2.0000      -0.471504       -12.8303
  28   2.0000      -0.451343       -12.2817
  29   2.0000      -0.450393       -12.2558
  30   2.0000      -0.443310       -12.0631
  31   2.0000      -0.435113       -11.8400
  32   2.0000      -0.390429       -10.6241
  33   2.0000      -0.378955       -10.3119
  34   0.0000       0.147439         4.0120
  35   0.0000       0.162170         4.4129
  36   0.0000       0.164927         4.4879
  37   0.0000       0.171247         4.6599
  38   0.0000       0.181204         4.9308

MULLIKEN ATOMIC CHARGES
-----------------------
   0 C :   -0.211254
   1 O :   -0.299116
   2 C :   -0.036599
   3 C :   -0.303979
   4 C :    0.016683
   5 C :   -0.088378
   6 C :   -0.207936
   7 C :   -0.101260
   8 C :   -0.205721
   9 H :    0.114285
  10 H :    0.110043
  11 H :    0.139404
  12 H :    0.098167
  13 H :    0.125917
  14 H :    0.132377
  15 H :    0.132547
  16 H :    0.108705
  17 H :    0.122051
  18 H :    0.129088
  19 H :    0.114585
  20 H :    0.110391
Sum of atomic charges:   -0.0000000

LOEWDIN ATOMIC CHARGES
----------------------
   0 C :   -0.349278
   1 O :    0.169086
   2 C :   -0.278975
   3 C :   -0.194873
   4 C :   -0.185477
   5 C :   -0.136259
   6 C :   -0.183811
   7 C :   -0.144039
   8 C :   -0.187632
   9 H :    0.102725
  10 H :    0.101910
  11 H :    0.112488
  12 H :    0.134143
  13 H :    0.132764
  14 H :    0.139901
  15 H :    0.128662
  16 H :    0.126616
  17 H :    0.131771
  18 H :    0.125020
  19 H :    0.128812
  20 H :    0.126444

  Mayer bond orders larger than 0.1
B(  0-C ,  1-O ) :   0.9054 B(  0-C ,  9-H ) :   0.9347 B(  0-C , 10-H ) :   0.9377
B(  0-C , 11-H ) :   0.9398 B(  1-O ,  2-C ) :   1.0127 B(  2-C ,  3-C ) :   0.9543
B(  2-C ,  4-C ) :   0.8604 B(  2-C , 12-H ) :   0.9236 B(  3-C ,  4-C ) :   0.8639
B(  3-C , 13-H ) :   0.9118 B(  3-C , 14-H ) :   0.9134 B(  4-C ,  5-C ) :   0.8450
B(  4-C ,  7-C ) :   0.8404 B(  5-C ,  6-C ) :   0.9181 B(  5-C ,  8-C ) :   0.9131
B(  5-C , 15-H ) :   0.8919 B(  6-C ,  7-C ) :   0.9242 B(  6-C , 16-H ) :   0.9235
B(  6-C , 17-H ) :   0.9254 B(  7-C ,  8-C ) :   0.9224 B(  7-C , 18-H ) :   0.8840
B(  8-C , 19-H ) :   0.9277 B(  8-C , 20-H ) :   0.9261

MP2 TOTAL ENERGY:     -386.322072395 Eh
FINAL SINGLE POINT ENERGY      -386.322072394906

DIPOLE MOMENT
-------------
                                X             Y             Z
Electronic contribution:     -1.18812      -0.44541      -0.65687
Nuclear contribution   :      1.56590       0.56826       0.62344
                        -----------------------------------------
Total Dipole Moment    :      0.37778       0.12285      -0.03343
                        -----------------------------------------
Magnitude (a.u.)       :      0.39866
Magnitude (Debye)      :      1.01331

                             ****ORCA TERMINATED NORMALLY****
TOTAL RUN TIME: 0 days 0 hours 29 minutes 8 seconds 994 msec
