                         Program Version 3.0.3 - RELEASE   -
|  1> ! RI-MP2 RIJK def2-TZVP def2-TZVP/C def2-TZVP/JK TIGHTSCF
|  2> % maxcore 2000
|  3> % mp2 density relaxed end
|  4> *xyz 0 1
|  5>  C       -0.2328804346     1.5499334325     0.1719031063
|  6>  C        0.1453954862     0.0918484824    -0.1176277945
|  7>  C        0.7781203067    -0.5833153526     1.0846326469
|  8>  C        0.0044724580    -1.2741664342     2.2010208290
|  9>  C       -1.3693497111    -1.7588986870     1.8630884766
| 10>  C       -1.3435093674    -2.7179148454     0.9364219128
| 11>  C        0.0776039915    -3.0792528968     0.5271106441
| 12>  O        0.2919017102    -3.1259307401    -0.8793147538
| 13>  C        0.9365612356    -2.0736602331     1.3069521213
| 14>  H        0.6432164011     2.1323297021     0.4777271840
| 15>  H       -0.6627378619     2.0322301995    -0.7113326807
| 16>  H       -0.9682529237     1.6083422613     0.9809233981
| 17>  H       -0.7518031196    -0.4502389731    -0.4348213768
| 18>  H        0.8519675614     0.0606690726    -0.9579853791
| 19>  H        1.6352425984    -0.0250659044     1.4591252361
| 20>  H        0.2508397658    -1.0362543745     3.2301074434
| 21>  H       -2.2640195329    -1.3370434919     2.3086006786
| 22>  H       -2.2021776792    -3.1970533914     0.4797394138
| 23>  H        0.3201240570    -4.0971495486     0.8586113576
| 24>  H        0.1063848325    -2.2496874461    -1.2313480781
| 25>  H        1.8985513962    -2.4170237014     1.6685966744
| 26> *
| 27>
| 28>                          ****END OF INPUT****

CARTESIAN COORDINATES (ANGSTROEM)
---------------------------------
  C     -0.232880    1.549933    0.171903
  C      0.145395    0.091848   -0.117628
  C      0.778120   -0.583315    1.084633
  C      0.004472   -1.274166    2.201021
  C     -1.369350   -1.758899    1.863088
  C     -1.343509   -2.717915    0.936422
  C      0.077604   -3.079253    0.527111
  O      0.291902   -3.125931   -0.879315
  C      0.936561   -2.073660    1.306952
  H      0.643216    2.132330    0.477727
  H     -0.662738    2.032230   -0.711333
  H     -0.968253    1.608342    0.980923
  H     -0.751803   -0.450239   -0.434821
  H      0.851968    0.060669   -0.957985
  H      1.635243   -0.025066    1.459125
  H      0.250840   -1.036254    3.230107
  H     -2.264020   -1.337043    2.308601
  H     -2.202178   -3.197053    0.479739
  H      0.320124   -4.097150    0.858611
  H      0.106385   -2.249687   -1.231348
  H      1.898551   -2.417024    1.668597

 Total Charge           Charge          ....    0
 Multiplicity           Mult            ....    1
 Number of Electrons    NEL             ....   68
 Basis Dimension        Dim             ....  351

ORBITAL ENERGIES
----------------

  NO   OCC          E(Eh)            E(eV)
   0   2.0000     -20.550311      -559.2024
   1   2.0000     -11.283483      -307.0392
   2   2.0000     -11.239313      -305.8373
   3   2.0000     -11.235733      -305.7398
   4   2.0000     -11.234272      -305.7001
   5   2.0000     -11.228931      -305.5547
   6   2.0000     -11.228841      -305.5523
   7   2.0000     -11.223384      -305.4038
   8   2.0000     -11.217604      -305.2465
   9   2.0000      -1.356438       -36.9106
  10   2.0000      -1.181897       -32.1611
  11   2.0000      -1.058840       -28.8125
  12   2.0000      -1.014241       -27.5989
  13   2.0000      -0.942299       -25.6413
  14   2.0000      -0.876633       -23.8544
  15   2.0000      -0.798276       -21.7222
  16   2.0000      -0.776383       -21.1265
  17   2.0000      -0.736819       -20.0499
  18   2.0000      -0.699062       -19.0225
  19   2.0000      -0.656787       -17.8721
  20   2.0000      -0.626886       -17.0584
  21   2.0000      -0.609902       -16.5963
  22   2.0000      -0.587456       -15.9855
  23   2.0000      -0.577894       -15.7253
  24   2.0000      -0.561702       -15.2847
  25   2.0000      -0.533744       -14.5239
  26   2.0000      -0.522468       -14.2171
  27   2.0000      -0.507249       -13.8029
  28   2.0000      -0.491574       -13.3764
  29   2.0000      -0.478527       -13.0214
  30   2.0000      -0.438978       -11.9452
  31   2.0000      -0.435341       -11.8462
  32   2.0000      -0.403108       -10.9691
  33   2.0000      -0.338121        -9.2007
  34   0.0000       0.129802         3.5321
  35   0.0000       0.135002         3.6736
  36   0.0000       0.156165         4.2495
  37   0.0000       0.167702         4.5634
  38   0.0000       0.176098         4.7919

MULLIKEN ATOMIC CHARGES
-----------------------
   0 C :   -0.406208
   1 C :   -0.223853
   2 C :   -0.151095
   3 C :   -0.051901
   4 C :   -0.179205
   5 C :   -0.224576
   6 C :    0.098850
   7 O :   -0.458242
   8 C :   -0.098524
   9 H :    0.124762
  10 H :    0.135625
  11 H :    0.130840
  12 H :    0.116240
  13 H :    0.127754
  14 H :    0.114715
  15 H :    0.133085
  16 H :    0.129645
  17 H :    0.127452
  18 H :    0.105624
  19 H :    0.317927
  20 H :    0.131085
Sum of atomic charges:    0.0000000

LOEWDIN ATOMIC CHARGES
----------------------
   0 C :   -0.311311
   1 C :   -0.285512
   2 C :   -0.180527
   3 C :   -0.166202
   4 C :   -0.133266
   5 C :   -0.144606
   6 C :   -0.297879
   7 O :   -0.018570
   8 C :   -0.150612
   9 H :    0.121447
  10 H :    0.121042
  11 H :    0.122935
  12 H :    0.138543
  13 H :    0.138974
  14 H :    0.156662
  15 H :    0.144786
  16 H :    0.139411
  17 H :    0.138294
  18 H :    0.150544
  19 H :    0.170440
  20 H :    0.145407

  Mayer bond orders larger than 0.1
B(  0-C ,  1-C ) :   0.9163 B(  0-C ,  9-H ) :   0.9408 B(  0-C , 10-H ) :   0.9407
B(  0-C , 11-H ) :   0.9404 B(  1-C ,  2-C ) :   0.9018 B(  1-C , 12-H ) :   0.9266
B(  1-C , 13-H ) :   0.9341 B(  2-C ,  3-C ) :   0.8581 B(  2-C ,  8-C ) :   0.8886
B(  2-C , 14-H ) :   0.9294 B(  3-C ,  4-C ) :   0.9175 B(  3-C ,  8-C ) :   0.8450
B(  3-C , 15-H ) :   0.9160 B(  4-C ,  5-C ) :   1.7532 B(  4-C , 16-H ) :   0.9260
B(  5-C ,  6-C ) :   0.9570 B(  5-C , 17-H ) :   0.9372 B(  6-C ,  7-O ) :   0.9385
B(  6-C ,  8-C ) :   0.9163 B(  6-C , 18-H ) :   0.9253 B(  7-O , 19-H ) :   0.8417
B(  8-C , 20-H ) :   0.9267

MP2 TOTAL ENERGY:     -386.405433577 Eh
FINAL SINGLE POINT ENERGY      -386.405433577132

DIPOLE MOMENT
-------------
                                X             Y             Z
Electronic contribution:      0.17780      -6.97787       0.93713
Nuclear contribution   :     -0.29286       7.62861      -0.54788
                        -----------------------------------------
Total Dipole Moment    :     -0.11506       0.65073       0.38925
                        -----------------------------------------
Magnitude (a.u.)       :      0.76695
Magnitude (Debye)      :      1.94943

                             ****ORCA TERMINATED NORMALLY****
TOTAL RUN TIME: 0 days 0 hours 19 minutes 9 seconds 290 msec
