                         Program Version 3.0.3 - RELEASE   -
|  1> ! RI-MP2 RIJK def2-TZVP def2-TZVP/C def2-TZVP/JK TIGHTSCF
|  2> % maxcore 2000
|  3> % mp2 density relaxed end
|  4> *xyz 0 1
|  5>  C        0.3768212629     1.4260902901     0.3245326017
|  6>  C        0.0785587535    -0.0271402161     0.0656086678
|  7>  C        0.5125548512    -0.8797760955    -1.1660689417
|  8>  C       -0.3017074408    -1.8462437520    -0.2620675036
|  9>  C        0.4844054534    -1.2531081708     0.9428742012
| 10>  C       -1.3384675929    -0.6890304621    -0.0983771680
| 11>  C       -2.3529428171    -0.6627192011     1.0241250698
| 12>  C       -3.6190005232    -1.4793924858     0.9090005864
| 13>  C       -2.5944262252    -1.8282080222     1.9555926993
| 14>  H        1.4565176590     1.6007069016     0.3913902282
| 15>  H       -0.0155943972     2.0591614632    -0.4793317780
| 16>  H       -0.0724336479     1.7623249991     1.2659479243
| 17>  H        0.0696490288    -0.6126865949    -2.1305998236
| 18>  H        1.5825107068    -1.0874971234    -1.2599731525
| 19>  H       -0.5129904915    -2.8988275564    -0.4580008081
| 20>  H        1.5537243459    -1.4833254520     0.9815238473
| 21>  H        0.0279501282    -1.3285495271     1.9300882514
| 22>  H       -1.8245300945    -0.4041428455    -1.0409503387
| 23>  H       -2.4883608965     0.3207524828     1.4700964766
| 24>  H       -4.5560563526    -1.0336463610     1.2243293684
| 25>  H       -3.7079967451    -2.1425366375     0.0539925343
| 26>  H       -2.0095646342    -2.7289158421     1.8047808605
| 27>  H       -2.8225599107    -1.6187245012     2.9953223370
| 28> *
| 29>
| 30>                          ****END OF INPUT****

CARTESIAN COORDINATES (ANGSTROEM)
---------------------------------
  C      0.376821    1.426090    0.324533
  C      0.078559   -0.027140    0.065609
  C      0.512555   -0.879776   -1.166069
  C     -0.301707   -1.846244   -0.262068
  C      0.484405   -1.253108    0.942874
  C     -1.338468   -0.689030   -0.098377
  C     -2.352943   -0.662719    1.024125
  C     -3.619001   -1.479392    0.909001
  C     -2.594426   -1.828208    1.955593
  H      1.456518    1.600707    0.391390
  H     -0.015594    2.059161   -0.479332
  H     -0.072434    1.762325    1.265948
  H      0.069649   -0.612687   -2.130600
  H      1.582511   -1.087497   -1.259973
  H     -0.512990   -2.898828   -0.458001
  H      1.553724   -1.483325    0.981524
  H      0.027950   -1.328550    1.930088
  H     -1.824530   -0.404143   -1.040950
  H     -2.488361    0.320752    1.470096
  H     -4.556056   -1.033646    1.224329
  H     -3.707997   -2.142537    0.053993
  H     -2.009565   -2.728916    1.804781
  H     -2.822560   -1.618725    2.995322

 Total Charge           Charge          ....    0
 Multiplicity           Mult            ....    1
 Number of Electrons    NEL             ....   68
 Basis Dimension        Dim             ....  363

ORBITAL ENERGIES
----------------

  NO   OCC          E(Eh)            E(eV)
   0   2.0000     -11.241207      -305.8888
   1   2.0000     -11.236146      -305.7511
   2   2.0000     -11.227741      -305.5224
   3   2.0000     -11.224533      -305.4351
   4   2.0000     -11.220178      -305.3166
   5   2.0000     -11.219782      -305.3058
   6   2.0000     -11.218111      -305.2603
   7   2.0000     -11.217090      -305.2325
   8   2.0000     -11.212175      -305.0988
   9   2.0000      -1.206421       -32.8284
  10   2.0000      -1.129594       -30.7378
  11   2.0000      -0.978812       -26.6348
  12   2.0000      -0.922388       -25.0995
  13   2.0000      -0.898773       -24.4569
  14   2.0000      -0.817262       -22.2388
  15   2.0000      -0.807725       -21.9793
  16   2.0000      -0.786056       -21.3897
  17   2.0000      -0.709103       -19.2957
  18   2.0000      -0.655923       -17.8486
  19   2.0000      -0.629016       -17.1164
  20   2.0000      -0.619273       -16.8513
  21   2.0000      -0.614410       -16.7189
  22   2.0000      -0.567865       -15.4524
  23   2.0000      -0.560596       -15.2546
  24   2.0000      -0.549371       -14.9491
  25   2.0000      -0.508865       -13.8469
  26   2.0000      -0.489574       -13.3220
  27   2.0000      -0.457286       -12.4434
  28   2.0000      -0.455101       -12.3839
  29   2.0000      -0.436467       -11.8769
  30   2.0000      -0.429242       -11.6803
  31   2.0000      -0.423574       -11.5260
  32   2.0000      -0.397597       -10.8192
  33   2.0000      -0.387960       -10.5569
  34   0.0000       0.139925         3.8076
  35   0.0000       0.151066         4.1107
  36   0.0000       0.164325         4.4715
  37   0.0000       0.168363         4.5814
  38   0.0000       0.187457         5.1010

MULLIKEN ATOMIC CHARGES
-----------------------
   0 C :   -0.408372
   1 C :   -0.010744
   2 C :   -0.184190
   3 C :   -0.170790
   4 C :   -0.206994
   5 C :   -0.045552
   6 C :   -0.149201
   7 C :   -0.259869
   8 C :   -0.274558
   9 H :    0.134630
  10 H :    0.133135
  11 H :    0.132524
  12 H :    0.105535
  13 H :    0.108990
  14 H :    0.132686
  15 H :    0.104715
  16 H :    0.128478
  17 H :    0.093579
  18 H :    0.117257
  19 H :    0.128398
  20 H :    0.126358
  21 H :    0.136494
  22 H :    0.127490
Sum of atomic charges:   -0.0000000

LOEWDIN ATOMIC CHARGES
----------------------
   0 C :   -0.281686
   1 C :   -0.218329
   2 C :   -0.179770
   3 C :   -0.167620
   4 C :   -0.174580
   5 C :   -0.151828
   6 C :   -0.211074
   7 C :   -0.228505
   8 C :   -0.231708
   9 H :    0.129083
  10 H :    0.128799
  11 H :    0.127720
  12 H :    0.126863
  13 H :    0.127579
  14 H :    0.122369
  15 H :    0.126468
  16 H :    0.131096
  17 H :    0.150167
  18 H :    0.149611
  19 H :    0.129203
  20 H :    0.133251
  21 H :    0.133694
  22 H :    0.129198

  Mayer bond orders larger than 0.1
B(  0-C ,  1-C ) :   0.8287 B(  0-C ,  9-H ) :   0.9412 B(  0-C , 10-H ) :   0.9436
B(  0-C , 11-H ) :   0.9427 B(  1-C ,  2-C ) :   0.8925 B(  1-C ,  4-C ) :   0.9001
B(  1-C ,  5-C ) :   0.8669 B(  2-C ,  3-C ) :   0.9176 B(  2-C , 12-H ) :   0.9290
B(  2-C , 13-H ) :   0.9278 B(  3-C ,  4-C ) :   0.9168 B(  3-C ,  5-C ) :   0.8834
B(  3-C , 14-H ) :   0.8953 B(  4-C , 15-H ) :   0.9307 B(  4-C , 16-H ) :   0.9227
B(  5-C ,  6-C ) :   0.8954 B(  5-C , 17-H ) :   0.9378 B(  6-C ,  7-C ) :   0.8702
B(  6-C ,  8-C ) :   0.8864 B(  6-C , 18-H ) :   0.9326 B(  7-C ,  8-C ) :   0.9168
B(  7-C , 19-H ) :   0.9316 B(  7-C , 20-H ) :   0.9295 B(  8-C , 21-H ) :   0.9282
B(  8-C , 22-H ) :   0.9311

MP2 TOTAL ENERGY:     -350.447767438 Eh
FINAL SINGLE POINT ENERGY      -350.447767438142

DIPOLE MOMENT
-------------
                                X             Y             Z
Electronic contribution:     -0.24805      -1.27207      -0.78734
Nuclear contribution   :      0.24722       1.38217       0.83025
                        -----------------------------------------
Total Dipole Moment    :     -0.00083       0.11010       0.04292
                        -----------------------------------------
Magnitude (a.u.)       :      0.11817
Magnitude (Debye)      :      0.30037

                             ****ORCA TERMINATED NORMALLY****
TOTAL RUN TIME: 0 days 0 hours 21 minutes 23 seconds 700 msec
