                         Program Version 3.0.3 - RELEASE   -
|  1> ! RI-MP2 RIJK def2-TZVP def2-TZVP/C def2-TZVP/JK TIGHTSCF
|  2> % maxcore 2000
|  3> % mp2 density relaxed end
|  4> *xyz 0 1
|  5>  C       -0.0091624428     1.4953646758     0.0915112384
|  6>  C       -0.0445135045     0.0022003145     0.0632648279
|  7>  C        0.1693003000    -1.0053348302     1.1289735339
|  8>  C       -0.4121931008    -2.0737118043     0.1294815143
|  9>  C        0.9939967346    -2.0827913651    -0.4833196916
| 10>  N        1.2618315776    -0.7445962072     0.1401337758
| 11>  C       -1.0857535980    -0.8946687934    -0.6490286739
| 12>  C       -2.4457394756    -0.6074593933    -0.2360590973
| 13>  C       -3.5712050169    -0.3610722380     0.1094786710
| 14>  H        0.7511378455     1.8453316516     0.7945582243
| 15>  H        0.2357948127     1.8988449149    -0.8973791543
| 16>  H       -0.9815647995     1.8958487822     0.3939944358
| 17>  H        0.2880691349    -0.9443922975     2.2026059811
| 18>  H       -0.9824228765    -2.9710658756     0.3582387476
| 19>  H        1.6638829539    -2.8152891972    -0.0258201780
| 20>  H        1.0884610807    -2.1240090665    -1.5752644671
| 21>  H       -1.0222100101    -0.9558262929    -1.7431458903
| 22>  H       -4.5675777753    -0.1488697877     0.4090529424
| 23> *
| 24>
| 25>                          ****END OF INPUT****

CARTESIAN COORDINATES (ANGSTROEM)
---------------------------------
  C     -0.009162    1.495365    0.091511
  C     -0.044514    0.002200    0.063265
  C      0.169300   -1.005335    1.128974
  C     -0.412193   -2.073712    0.129482
  C      0.993997   -2.082791   -0.483320
  N      1.261832   -0.744596    0.140134
  C     -1.085754   -0.894669   -0.649029
  C     -2.445739   -0.607459   -0.236059
  C     -3.571205   -0.361072    0.109479
  H      0.751138    1.845332    0.794558
  H      0.235795    1.898845   -0.897379
  H     -0.981565    1.895849    0.393994
  H      0.288069   -0.944392    2.202606
  H     -0.982423   -2.971066    0.358239
  H      1.663883   -2.815289   -0.025820
  H      1.088461   -2.124009   -1.575264
  H     -1.022210   -0.955826   -1.743146
  H     -4.567578   -0.148870    0.409053

 Total Charge           Charge          ....    0
 Multiplicity           Mult            ....    1
 Number of Electrons    NEL             ....   64
 Basis Dimension        Dim             ....  333

ORBITAL ENERGIES
----------------

  NO   OCC          E(Eh)            E(eV)
   0   2.0000     -15.563559      -423.5060
   1   2.0000     -11.274628      -306.7982
   2   2.0000     -11.264643      -306.5265
   3   2.0000     -11.264001      -306.5090
   4   2.0000     -11.259127      -306.3764
   5   2.0000     -11.253778      -306.2309
   6   2.0000     -11.237124      -305.7777
   7   2.0000     -11.225013      -305.4481
   8   2.0000     -11.220693      -305.3306
   9   2.0000      -1.321382       -35.9566
  10   2.0000      -1.081609       -29.4321
  11   2.0000      -1.027358       -27.9558
  12   2.0000      -0.997630       -27.1469
  13   2.0000      -0.941055       -25.6074
  14   2.0000      -0.887225       -24.1426
  15   2.0000      -0.775623       -21.1058
  16   2.0000      -0.752472       -20.4758
  17   2.0000      -0.709544       -19.3077
  18   2.0000      -0.684391       -18.6232
  19   2.0000      -0.653457       -17.7815
  20   2.0000      -0.619357       -16.8536
  21   2.0000      -0.603326       -16.4173
  22   2.0000      -0.565940       -15.4000
  23   2.0000      -0.547560       -14.8999
  24   2.0000      -0.543831       -14.7984
  25   2.0000      -0.497861       -13.5475
  26   2.0000      -0.472391       -12.8544
  27   2.0000      -0.434956       -11.8358
  28   2.0000      -0.426336       -11.6012
  29   2.0000      -0.395609       -10.7651
  30   2.0000      -0.384134       -10.4528
  31   2.0000      -0.361187        -9.8284
  32   0.0000       0.144950         3.9443
  33   0.0000       0.153840         4.1862
  34   0.0000       0.161795         4.4027
  35   0.0000       0.170214         4.6318
  36   0.0000       0.174336         4.7439

MULLIKEN ATOMIC CHARGES
-----------------------
   0 C :   -0.443933
   1 C :    0.125831
   2 C :   -0.168598
   3 C :   -0.064515
   4 C :   -0.107534
   5 N :   -0.235932
   6 C :   -0.166290
   7 C :   -0.059853
   8 C :   -0.143657
   9 H :    0.146946
  10 H :    0.134286
  11 H :    0.148525
  12 H :    0.146411
  13 H :    0.144621
  14 H :    0.126755
  15 H :    0.106309
  16 H :    0.120663
  17 H :    0.189964
Sum of atomic charges:   -0.0000000

LOEWDIN ATOMIC CHARGES
----------------------
   0 C :   -0.264142
   1 C :   -0.237010
   2 C :   -0.140681
   3 C :   -0.144352
   4 C :   -0.230999
   5 N :    0.141481
   6 C :   -0.161901
   7 C :   -0.080679
   8 C :   -0.096192
   9 H :    0.136715
  10 H :    0.132058
  11 H :    0.134909
  12 H :    0.132505
  13 H :    0.136062
  14 H :    0.134441
  15 H :    0.120700
  16 H :    0.160070
  17 H :    0.127014

  Mayer bond orders larger than 0.1
B(  0-C ,  1-C ) :   0.8883 B(  0-C ,  9-H ) :   0.9372 B(  0-C , 10-H ) :   0.9402
B(  0-C , 11-H ) :   0.9359 B(  1-C ,  2-C ) :   0.8925 B(  1-C ,  5-N ) :   0.8780
B(  1-C ,  6-C ) :   0.8321 B(  2-C ,  3-C ) :   0.9076 B(  2-C ,  5-N ) :   0.8893
B(  2-C , 12-H ) :   0.8925 B(  3-C ,  4-C ) :   0.9314 B(  3-C ,  6-C ) :   0.8516
B(  3-C , 13-H ) :   0.9141 B(  4-C ,  5-N ) :   0.9177 B(  4-C , 14-H ) :   0.9331
B(  4-C , 15-H ) :   0.9157 B(  6-C ,  7-C ) :   1.1905 B(  6-C ,  8-C ) :  -0.1207
B(  6-C , 16-H ) :   0.9247 B(  7-C ,  8-C ) :   2.5765 B(  8-C , 17-H ) :   0.8901

MP2 TOTAL ENERGY:     -364.045082327 Eh
FINAL SINGLE POINT ENERGY      -364.045082326760

DIPOLE MOMENT
-------------
                                X             Y             Z
Electronic contribution:     -1.53310      -1.97177       0.36405
Nuclear contribution   :      1.15212       1.69886      -0.34188
                        -----------------------------------------
Total Dipole Moment    :     -0.38098      -0.27292       0.02217
                        -----------------------------------------
Magnitude (a.u.)       :      0.46917
Magnitude (Debye)      :      1.19253

                             ****ORCA TERMINATED NORMALLY****
TOTAL RUN TIME: 0 days 0 hours 18 minutes 10 seconds 295 msec
