                         Program Version 3.0.3 - RELEASE   -
|  1> ! RI-MP2 RIJK def2-TZVP def2-TZVP/C def2-TZVP/JK TIGHTSCF
|  2> % maxcore 2000
|  3> % mp2 density relaxed end
|  4> *xyz 0 1
|  5>  C       -0.2530976683     1.5723705905    -0.0870734031
|  6>  C       -0.0514595419     0.0519369312    -0.0205607090
|  7>  C        0.7260353997    -0.4240576414     1.1791501097
|  8>  C        0.3385516519    -1.6180017147     2.0432878604
|  9>  C        0.5128937132    -0.2682967357     2.6693736925
| 10>  O        1.8974196998    -0.0013238988     2.9258763792
| 11>  C        2.1696946562    -0.1011643019     1.5159525090
| 12>  C        3.4560166234    -0.6649820714     1.0105493983
| 13>  C        3.1428486306     0.8197936544     0.8611056282
| 14>  H        0.6999696012     2.1074222998    -0.1110968187
| 15>  H       -0.8179244894     1.8507288868    -0.9823442350
| 16>  H       -0.8075282658     1.9291864461     0.7868114401
| 17>  H       -1.0304284578    -0.4414581075    -0.0222806248
| 18>  H        0.4532011020    -0.2957078286    -0.9329752227
| 19>  H       -0.6892709204    -1.9467536526     1.9166684029
| 20>  H        1.0544930265    -2.4048030160     2.2643800730
| 21>  H       -0.2207980813     0.2652312503     3.2621465596
| 22>  H        4.1949856567    -0.9462843634     1.7527632138
| 23>  H        3.4388553713    -1.2900813451     0.1234718754
| 24>  H        2.9215527521     1.2005762462    -0.1304393308
| 25>  H        3.6709372802     1.5128473117     1.5071769720
| 26> *
| 27>
| 28>                          ****END OF INPUT****

CARTESIAN COORDINATES (ANGSTROEM)
---------------------------------
  C     -0.253098    1.572371   -0.087073
  C     -0.051460    0.051937   -0.020561
  C      0.726035   -0.424058    1.179150
  C      0.338552   -1.618002    2.043288
  C      0.512894   -0.268297    2.669374
  O      1.897420   -0.001324    2.925876
  C      2.169695   -0.101164    1.515953
  C      3.456017   -0.664982    1.010549
  C      3.142849    0.819794    0.861106
  H      0.699970    2.107422   -0.111097
  H     -0.817924    1.850729   -0.982344
  H     -0.807528    1.929186    0.786811
  H     -1.030428   -0.441458   -0.022281
  H      0.453201   -0.295708   -0.932975
  H     -0.689271   -1.946754    1.916668
  H      1.054493   -2.404803    2.264380
  H     -0.220798    0.265231    3.262147
  H      4.194986   -0.946284    1.752763
  H      3.438855   -1.290081    0.123472
  H      2.921553    1.200576   -0.130439
  H      3.670937    1.512847    1.507177

 Total Charge           Charge          ....    0
 Multiplicity           Mult            ....    1
 Number of Electrons    NEL             ....   68
 Basis Dimension        Dim             ....  351

ORBITAL ENERGIES
----------------

  NO   OCC          E(Eh)            E(eV)
   0   2.0000     -20.552060      -559.2500
   1   2.0000     -11.289691      -307.2081
   2   2.0000     -11.284062      -307.0549
   3   2.0000     -11.242888      -305.9345
   4   2.0000     -11.233368      -305.6755
   5   2.0000     -11.229439      -305.5686
   6   2.0000     -11.226030      -305.4758
   7   2.0000     -11.222797      -305.3878
   8   2.0000     -11.216742      -305.2231
   9   2.0000      -1.393955       -37.9314
  10   2.0000      -1.129891       -30.7459
  11   2.0000      -1.126550       -30.6550
  12   2.0000      -1.026721       -27.9385
  13   2.0000      -0.887676       -24.1549
  14   2.0000      -0.842521       -22.9262
  15   2.0000      -0.833781       -22.6883
  16   2.0000      -0.813738       -22.1429
  17   2.0000      -0.706365       -19.2212
  18   2.0000      -0.682898       -18.5826
  19   2.0000      -0.665163       -18.1000
  20   2.0000      -0.625740       -17.0273
  21   2.0000      -0.607993       -16.5443
  22   2.0000      -0.597199       -16.2506
  23   2.0000      -0.568945       -15.4818
  24   2.0000      -0.558800       -15.2057
  25   2.0000      -0.532636       -14.4938
  26   2.0000      -0.519991       -14.1497
  27   2.0000      -0.515112       -14.0169
  28   2.0000      -0.497345       -13.5335
  29   2.0000      -0.477681       -12.9984
  30   2.0000      -0.456820       -12.4307
  31   2.0000      -0.418858       -11.3977
  32   2.0000      -0.371681       -10.1139
  33   2.0000      -0.363218        -9.8837
  34   0.0000       0.135529         3.6879
  35   0.0000       0.151115         4.1121
  36   0.0000       0.162693         4.4271
  37   0.0000       0.178704         4.8628
  38   0.0000       0.188539         5.1304

MULLIKEN ATOMIC CHARGES
-----------------------
   0 C :   -0.392650
   1 C :   -0.217987
   2 C :   -0.002150
   3 C :   -0.244549
   4 C :    0.041630
   5 O :   -0.319615
   6 C :    0.162166
   7 C :   -0.271215
   8 C :   -0.294932
   9 H :    0.126732
  10 H :    0.132584
  11 H :    0.125112
  12 H :    0.115714
  13 H :    0.117729
  14 H :    0.124366
  15 H :    0.135309
  16 H :    0.130508
  17 H :    0.136620
  18 H :    0.128841
  19 H :    0.128509
  20 H :    0.137278
Sum of atomic charges:   -0.0000000

LOEWDIN ATOMIC CHARGES
----------------------
   0 C :   -0.308481
   1 C :   -0.253560
   2 C :   -0.176046
   3 C :   -0.181756
   4 C :   -0.219816
   5 O :    0.196951
   6 C :   -0.261076
   7 C :   -0.204309
   8 C :   -0.201832
   9 H :    0.121001
  10 H :    0.120706
  11 H :    0.122060
  12 H :    0.144475
  13 H :    0.144640
  14 H :    0.140701
  15 H :    0.137002
  16 H :    0.130691
  17 H :    0.140094
  18 H :    0.134880
  19 H :    0.133475
  20 H :    0.140200

  Mayer bond orders larger than 0.1
B(  0-C ,  1-C ) :   0.9306 B(  0-C ,  9-H ) :   0.9368 B(  0-C , 10-H ) :   0.9384
B(  0-C , 11-H ) :   0.9384 B(  1-C ,  2-C ) :   0.8826 B(  1-C , 12-H ) :   0.9337
B(  1-C , 13-H ) :   0.9306 B(  2-C ,  3-C ) :   0.8698 B(  2-C ,  4-C ) :   0.9172
B(  2-C ,  6-C ) :   0.9141 B(  3-C ,  4-C ) :   0.8725 B(  3-C , 14-H ) :   0.9187
B(  3-C , 15-H ) :   0.9027 B(  4-C ,  5-O ) :   0.9539 B(  4-C , 16-H ) :   0.9149
B(  5-O ,  6-C ) :   0.9608 B(  6-C ,  7-C ) :   0.8643 B(  6-C ,  8-C ) :   0.8687
B(  7-C ,  8-C ) :   0.9301 B(  7-C , 17-H ) :   0.9182 B(  7-C , 18-H ) :   0.9124
B(  8-C , 19-H ) :   0.9127 B(  8-C , 20-H ) :   0.9154

MP2 TOTAL ENERGY:     -386.347554168 Eh
FINAL SINGLE POINT ENERGY      -386.347554167667

DIPOLE MOMENT
-------------
                                X             Y             Z
Electronic contribution:      2.35256      -2.05399       5.59677
Nuclear contribution   :     -2.78100       1.99606      -6.21848
                        -----------------------------------------
Total Dipole Moment    :     -0.42844      -0.05793      -0.62171
                        -----------------------------------------
Magnitude (a.u.)       :      0.75726
Magnitude (Debye)      :      1.92480

                             ****ORCA TERMINATED NORMALLY****
TOTAL RUN TIME: 0 days 0 hours 18 minutes 57 seconds 227 msec
