                         Program Version 3.0.3 - RELEASE   -
|  1> ! RI-MP2 RIJK def2-TZVP def2-TZVP/C def2-TZVP/JK TIGHTSCF
|  2> % maxcore 2000
|  3> % mp2 density relaxed end
|  4> *xyz 0 1
|  5>  C        0.1134179435    -1.1586013001    -0.0052913522
|  6>  C        0.0099747695     0.0388226466     0.0030165607
|  7>  C       -0.1035296263     1.4425671353     0.0126447315
|  8>  N       -1.1802036028     2.1696411113     0.0311117359
|  9>  C       -0.7128265484     3.4758235789     0.0323354470
| 10>  C        0.6513070815     3.4628784723     0.0138239830
| 11>  O        1.0555018088     2.1770425825     0.0010136088
| 12>  C       -1.5685671759     4.6084346385     0.0503033294
| 13>  N       -2.2453060140     5.5464033181     0.0647484072
| 14>  H        0.1957101482    -2.2181892694    -0.0125101422
| 15>  H        1.4107251459     4.2255437660     0.0078890008
| 16> *
| 17>
| 18>                          ****END OF INPUT****

CARTESIAN COORDINATES (ANGSTROEM)
---------------------------------
  C      0.113418   -1.158601   -0.005291
  C      0.009975    0.038823    0.003017
  C     -0.103530    1.442567    0.012645
  N     -1.180204    2.169641    0.031112
  C     -0.712827    3.475824    0.032335
  C      0.651307    3.462878    0.013824
  O      1.055502    2.177043    0.001014
  C     -1.568567    4.608435    0.050303
  N     -2.245306    5.546403    0.064748
  H      0.195710   -2.218189   -0.012510
  H      1.410725    4.225544    0.007889

 Total Charge           Charge          ....    0
 Multiplicity           Mult            ....    1
 Number of Electrons    NEL             ....   60
 Basis Dimension        Dim             ....  291

ORBITAL ENERGIES
----------------

  NO   OCC          E(Eh)            E(eV)
   0   2.0000     -20.685033      -562.8684
   1   2.0000     -15.614445      -424.8906
   2   2.0000     -15.589032      -424.1991
   3   2.0000     -11.394431      -310.0582
   4   2.0000     -11.352603      -308.9200
   5   2.0000     -11.327656      -308.2412
   6   2.0000     -11.291518      -307.2578
   7   2.0000     -11.282726      -307.0186
   8   2.0000     -11.277112      -306.8658
   9   2.0000      -1.534863       -41.7657
  10   2.0000      -1.286795       -35.0155
  11   2.0000      -1.230526       -33.4843
  12   2.0000      -1.124097       -30.5882
  13   2.0000      -1.055625       -28.7250
  14   2.0000      -0.934716       -25.4349
  15   2.0000      -0.899039       -24.4641
  16   2.0000      -0.830110       -22.5884
  17   2.0000      -0.756650       -20.5895
  18   2.0000      -0.711509       -19.3611
  19   2.0000      -0.709583       -19.3087
  20   2.0000      -0.693010       -18.8578
  21   2.0000      -0.634959       -17.2781
  22   2.0000      -0.573126       -15.5955
  23   2.0000      -0.539874       -14.6907
  24   2.0000      -0.510977       -13.9044
  25   2.0000      -0.500979       -13.6323
  26   2.0000      -0.482857       -13.1392
  27   2.0000      -0.446510       -12.1502
  28   2.0000      -0.446140       -12.1401
  29   2.0000      -0.360523        -9.8103
  30   0.0000       0.060961         1.6588
  31   0.0000       0.100000         2.7211
  32   0.0000       0.135282         3.6812
  33   0.0000       0.139605         3.7988
  34   0.0000       0.146034         3.9738

MULLIKEN ATOMIC CHARGES
-----------------------
   0 C :   -0.032966
   1 C :    0.049567
   2 C :    0.076522
   3 N :   -0.256812
   4 C :    0.199873
   5 C :   -0.003343
   6 O :   -0.176509
   7 C :   -0.219166
   8 N :   -0.033596
   9 H :    0.212136
  10 H :    0.184294
Sum of atomic charges:   -0.0000000

LOEWDIN ATOMIC CHARGES
----------------------
   0 C :   -0.017977
   1 C :   -0.061843
   2 C :   -0.308189
   3 N :    0.195004
   4 C :   -0.250196
   5 C :   -0.175959
   6 O :    0.384320
   7 C :   -0.143006
   8 N :    0.093665
   9 H :    0.135870
  10 H :    0.148310

  Mayer bond orders larger than 0.1
B(  0-C ,  1-C ) :   2.6380 B(  0-C ,  2-C ) :  -0.1724 B(  0-C ,  9-H ) :   0.8558
B(  1-C ,  2-C ) :   1.2218 B(  2-C ,  3-N ) :   1.5785 B(  2-C ,  6-O ) :   1.0260
B(  3-N ,  4-C ) :   1.1955 B(  4-C ,  5-C ) :   1.5251 B(  4-C ,  7-C ) :   0.8969
B(  5-C ,  6-O ) :   1.0900 B(  5-C , 10-H ) :   0.9067 B(  7-C ,  8-N ) :   2.8454

MP2 TOTAL ENERGY:     -413.688446199 Eh
FINAL SINGLE POINT ENERGY      -413.688446198694

DIPOLE MOMENT
-------------
                                X             Y             Z
Electronic contribution:     -0.78186       1.52389       0.01943
Nuclear contribution   :      2.29013      -2.67286      -0.04627
                        -----------------------------------------
Total Dipole Moment    :      1.50827      -1.14897      -0.02685
                        -----------------------------------------
Magnitude (a.u.)       :      1.89624
Magnitude (Debye)      :      4.81986

                             ****ORCA TERMINATED NORMALLY****
TOTAL RUN TIME: 0 days 0 hours 11 minutes 7 seconds 519 msec
