                         Program Version 3.0.3 - RELEASE   -
|  1> ! RI-MP2 RIJK def2-TZVP def2-TZVP/C def2-TZVP/JK TIGHTSCF
|  2> % maxcore 2000
|  3> % mp2 density relaxed end
|  4> *xyz 0 1
|  5>  C       -0.0748492684     1.5041055092    -0.0249777384
|  6>  O       -0.1623557113     0.0861970760    -0.0678143069
|  7>  C        0.6130737819    -0.5343315731    -1.0585155632
|  8>  C        2.1632120005    -0.5534571447    -0.7714877904
|  9>  C        2.0389553908    -2.0609126310    -0.4915646484
| 10>  O        2.8105672080    -2.8953225752    -0.1287665050
| 11>  C        0.5483226361    -2.0827092405    -0.8617589879
| 12>  C        0.2553365553    -0.0716317343    -2.4085472348
| 13>  N       -0.0219563341     0.3010685132    -3.4670484406
| 14>  H        0.9544301892     1.8425363968     0.1563005030
| 15>  H       -0.4392026948     1.9571707075    -0.9552899750
| 16>  H       -0.7062322621     1.8238302262     0.8053117797
| 17>  H        2.8068277650    -0.3154857040    -1.6222666176
| 18>  H        2.4620408487     0.0518572839     0.0878928072
| 19>  H       -0.1339308171    -2.3736684635    -0.0597018481
| 20>  H        0.3235791223    -2.6596002463    -1.7619185937
| 21> *
| 22>
| 23>                          ****END OF INPUT****

CARTESIAN COORDINATES (ANGSTROEM)
---------------------------------
  C     -0.074849    1.504106   -0.024978
  O     -0.162356    0.086197   -0.067814
  C      0.613074   -0.534332   -1.058516
  C      2.163212   -0.553457   -0.771488
  C      2.038955   -2.060913   -0.491565
  O      2.810567   -2.895323   -0.128767
  C      0.548323   -2.082709   -0.861759
  C      0.255337   -0.071632   -2.408547
  N     -0.021956    0.301069   -3.467048
  H      0.954430    1.842536    0.156301
  H     -0.439203    1.957171   -0.955290
  H     -0.706232    1.823830    0.805312
  H      2.806828   -0.315486   -1.622267
  H      2.462041    0.051857    0.087893
  H     -0.133931   -2.373668   -0.059702
  H      0.323579   -2.659600   -1.761919

 Total Charge           Charge          ....    0
 Multiplicity           Mult            ....    1
 Number of Electrons    NEL             ....   66
 Basis Dimension        Dim             ....  321

ORBITAL ENERGIES
----------------

  NO   OCC          E(Eh)            E(eV)
   0   2.0000     -20.602703      -560.6281
   1   2.0000     -20.575492      -559.8876
   2   2.0000     -15.591766      -424.2735
   3   2.0000     -11.363794      -309.2246
   4   2.0000     -11.358032      -309.0678
   5   2.0000     -11.298948      -307.4600
   6   2.0000     -11.288746      -307.1824
   7   2.0000     -11.273984      -306.7807
   8   2.0000     -11.270721      -306.6919
   9   2.0000      -1.427936       -38.8561
  10   2.0000      -1.418292       -38.5937
  11   2.0000      -1.237287       -33.6683
  12   2.0000      -1.162525       -31.6339
  13   2.0000      -0.985704       -26.8224
  14   2.0000      -0.964432       -26.2435
  15   2.0000      -0.917696       -24.9718
  16   2.0000      -0.759923       -20.6785
  17   2.0000      -0.748843       -20.3770
  18   2.0000      -0.709582       -19.3087
  19   2.0000      -0.685516       -18.6538
  20   2.0000      -0.658168       -17.9097
  21   2.0000      -0.635448       -17.2914
  22   2.0000      -0.632143       -17.2015
  23   2.0000      -0.595226       -16.1969
  24   2.0000      -0.593670       -16.1546
  25   2.0000      -0.567199       -15.4343
  26   2.0000      -0.550370       -14.9763
  27   2.0000      -0.527061       -14.3421
  28   2.0000      -0.520055       -14.1514
  29   2.0000      -0.484863       -13.1938
  30   2.0000      -0.479756       -13.0548
  31   2.0000      -0.456660       -12.4264
  32   2.0000      -0.423374       -11.5206
  33   0.0000       0.103386         2.8133
  34   0.0000       0.122333         3.3288
  35   0.0000       0.144442         3.9305
  36   0.0000       0.151259         4.1160
  37   0.0000       0.165394         4.5006

MULLIKEN ATOMIC CHARGES
-----------------------
   0 C :   -0.227514
   1 O :   -0.294339
   2 C :    0.399920
   3 C :   -0.250401
   4 C :    0.102340
   5 O :   -0.230583
   6 C :   -0.228219
   7 C :   -0.284603
   8 N :   -0.046226
   9 H :    0.116041
  10 H :    0.146546
  11 H :    0.153715
  12 H :    0.167835
  13 H :    0.146653
  14 H :    0.158326
  15 H :    0.170508
Sum of atomic charges:    0.0000000

LOEWDIN ATOMIC CHARGES
----------------------
   0 C :   -0.328130
   1 O :    0.200018
   2 C :   -0.334360
   3 C :   -0.153159
   4 C :   -0.307161
   5 O :    0.180190
   6 C :   -0.142182
   7 C :   -0.155646
   8 N :    0.077017
   9 H :    0.105674
  10 H :    0.114546
  11 H :    0.119682
  12 H :    0.155802
  13 H :    0.152475
  14 H :    0.157894
  15 H :    0.157340

  Mayer bond orders larger than 0.1
B(  0-C ,  1-O ) :   0.8798 B(  0-C ,  9-H ) :   0.9271 B(  0-C , 10-H ) :   0.9297
B(  0-C , 11-H ) :   0.9369 B(  1-O ,  2-C ) :   1.0411 B(  2-C ,  3-C ) :   0.9109
B(  2-C ,  6-C ) :   0.8790 B(  2-C ,  7-C ) :   0.8748 B(  3-C ,  4-C ) :   0.9014
B(  3-C ,  6-C ) :  -0.1066 B(  3-C , 12-H ) :   0.8865 B(  3-C , 13-H ) :   0.8868
B(  4-C ,  5-O ) :   2.0445 B(  4-C ,  6-C ) :   0.9043 B(  6-C , 14-H ) :   0.8836
B(  6-C , 15-H ) :   0.8948 B(  7-C ,  8-N ) :   2.8505

MP2 TOTAL ENERGY:     -437.160602559 Eh
FINAL SINGLE POINT ENERGY      -437.160602559335

DIPOLE MOMENT
-------------
                                X             Y             Z
Electronic contribution:      0.98496      -4.20141      -2.54011
Nuclear contribution   :     -1.03222       4.80571       3.30168
                        -----------------------------------------
Total Dipole Moment    :     -0.04726       0.60430       0.76158
                        -----------------------------------------
Magnitude (a.u.)       :      0.97335
Magnitude (Debye)      :      2.47406

                             ****ORCA TERMINATED NORMALLY****
TOTAL RUN TIME: 0 days 0 hours 15 minutes 6 seconds 388 msec
