                         Program Version 3.0.3 - RELEASE   -
|  1> ! RI-MP2 RIJK def2-TZVP def2-TZVP/C def2-TZVP/JK TIGHTSCF
|  2> % maxcore 2000
|  3> % mp2 density relaxed end
|  4> *xyz 0 1
|  5>  N        0.0278806485    -1.1964885341    -0.0825506437
|  6>  C       -0.0004356652    -0.0417001728    -0.0636517214
|  7>  C       -0.0020383486     1.4200543874     0.0252103507
|  8>  C       -0.2586208039     2.0288668864     1.4545732110
|  9>  C        1.1557208824     2.5882212514     1.3713328576
| 10>  C        2.1425394988     1.5307800415     1.1037882218
| 11>  N        1.3777050267     2.0662695958    -0.0468511861
| 12>  C       -0.8715806259     1.9903975885    -1.0048878579
| 13>  N       -1.5744434170     2.4632349582    -1.7891611188
| 14>  H       -1.0421104500     2.7845905929     1.4238441920
| 15>  H       -0.4659908666     1.3118907541     2.2509105534
| 16>  H        1.4339294495     3.6010397696     1.6375793932
| 17>  H        3.1863575380     1.8204256770     1.0486881496
| 18>  H        1.9696030034     0.5090410541     1.4317465088
| 19> *
| 20>
| 21>                          ****END OF INPUT****

CARTESIAN COORDINATES (ANGSTROEM)
---------------------------------
  N      0.027881   -1.196489   -0.082551
  C     -0.000436   -0.041700   -0.063652
  C     -0.002038    1.420054    0.025210
  C     -0.258621    2.028867    1.454573
  C      1.155721    2.588221    1.371333
  C      2.142539    1.530780    1.103788
  N      1.377705    2.066270   -0.046851
  C     -0.871581    1.990398   -1.004888
  N     -1.574443    2.463235   -1.789161
  H     -1.042110    2.784591    1.423844
  H     -0.465991    1.311891    2.250911
  H      1.433929    3.601040    1.637579
  H      3.186358    1.820426    1.048688
  H      1.969603    0.509041    1.431747

 Total Charge           Charge          ....    0
 Multiplicity           Mult            ....    1
 Number of Electrons    NEL             ....   62
 Basis Dimension        Dim             ....  309

ORBITAL ENERGIES
----------------

  NO   OCC          E(Eh)            E(eV)
   0   2.0000     -15.621258      -425.0760
   1   2.0000     -15.605089      -424.6361
   2   2.0000     -15.598874      -424.4669
   3   2.0000     -11.382585      -309.7359
   4   2.0000     -11.312030      -307.8160
   5   2.0000     -11.303945      -307.5960
   6   2.0000     -11.300192      -307.4938
   7   2.0000     -11.298533      -307.4487
   8   2.0000     -11.296441      -307.3918
   9   2.0000      -1.350290       -36.7433
  10   2.0000      -1.250190       -34.0194
  11   2.0000      -1.240547       -33.7570
  12   2.0000      -1.101426       -29.9713
  13   2.0000      -1.015433       -27.6313
  14   2.0000      -0.910468       -24.7751
  15   2.0000      -0.838229       -22.8094
  16   2.0000      -0.801983       -21.8231
  17   2.0000      -0.731198       -19.8969
  18   2.0000      -0.687704       -18.7134
  19   2.0000      -0.650541       -17.7021
  20   2.0000      -0.612112       -16.6564
  21   2.0000      -0.590517       -16.0688
  22   2.0000      -0.582344       -15.8464
  23   2.0000      -0.570069       -15.5124
  24   2.0000      -0.540073       -14.6961
  25   2.0000      -0.507548       -13.8111
  26   2.0000      -0.495886       -13.4938
  27   2.0000      -0.486691       -13.2435
  28   2.0000      -0.480646       -13.0790
  29   2.0000      -0.474409       -12.9093
  30   2.0000      -0.425005       -11.5650
  31   0.0000       0.103522         2.8170
  32   0.0000       0.121068         3.2944
  33   0.0000       0.127704         3.4750
  34   0.0000       0.144498         3.9320
  35   0.0000       0.152397         4.1469

MULLIKEN ATOMIC CHARGES
-----------------------
   0 N :   -0.029600
   1 C :   -0.204915
   2 C :    0.405146
   3 C :   -0.255977
   4 C :   -0.068997
   5 C :   -0.169929
   6 N :   -0.242257
   7 C :   -0.188100
   8 N :   -0.031509
   9 H :    0.166992
  10 H :    0.156964
  11 H :    0.152298
  12 H :    0.154403
  13 H :    0.155483
Sum of atomic charges:    0.0000000

LOEWDIN ATOMIC CHARGES
----------------------
   0 N :    0.099711
   1 C :   -0.136728
   2 C :   -0.255964
   3 C :   -0.142641
   4 C :   -0.200560
   5 C :   -0.225626
   6 N :    0.164507
   7 C :   -0.125583
   8 N :    0.101697
   9 H :    0.153501
  10 H :    0.145466
  11 H :    0.140366
  12 H :    0.143130
  13 H :    0.138726

  Mayer bond orders larger than 0.1
B(  0-N ,  1-C ) :   2.8100 B(  1-C ,  2-C ) :   0.9486 B(  2-C ,  3-C ) :   0.8742
B(  2-C ,  6-N ) :   0.9284 B(  2-C ,  7-C ) :   0.8996 B(  3-C ,  4-C ) :   0.9434
B(  3-C ,  9-H ) :   0.9279 B(  3-C , 10-H ) :   0.9060 B(  4-C ,  5-C ) :   0.9487
B(  4-C ,  6-N ) :   0.8492 B(  4-C , 11-H ) :   0.9050 B(  5-C ,  6-N ) :   0.8668
B(  5-C , 12-H ) :   0.9251 B(  5-C , 13-H ) :   0.9050 B(  7-C ,  8-N ) :   2.8330

MP2 TOTAL ENERGY:     -394.999678192 Eh
FINAL SINGLE POINT ENERGY      -394.999678192464

DIPOLE MOMENT
-------------
                                X             Y             Z
Electronic contribution:     -2.91558      -1.95182      -4.86770
Nuclear contribution   :      3.62989       2.66440       6.68201
                        -----------------------------------------
Total Dipole Moment    :      0.71431       0.71258       1.81431
                        -----------------------------------------
Magnitude (a.u.)       :      2.07599
Magnitude (Debye)      :      5.27675

                             ****ORCA TERMINATED NORMALLY****
TOTAL RUN TIME: 0 days 0 hours 14 minutes 29 seconds 211 msec
