                         Program Version 3.0.3 - RELEASE   -
|  1> ! RI-MP2 RIJK def2-TZVP def2-TZVP/C def2-TZVP/JK TIGHTSCF
|  2> % maxcore 2000
|  3> % mp2 density relaxed end
|  4> *xyz 0 1
|  5>  C       -0.2272358778     1.2051567033    -0.9656895067
|  6>  C       -0.0078926282    -0.0868352828    -0.3403245911
|  7>  C        0.1765613006    -1.1588659873     0.1825948240
|  8>  C        0.3509763192    -2.4312466144     0.8488907519
|  9>  O       -0.3495398513    -2.7797415059     1.7777654166
| 10>  C        1.4600661372    -3.3244114547     0.3363092657
| 11>  C        1.8325422388    -4.4788613821     1.2321568840
| 12>  C        1.6651560904    -3.3962018573    -1.1279589367
| 13>  O        2.5370746625    -2.6301333384    -0.3111337007
| 14>  H        0.7056787391     1.6148522108    -1.3665424967
| 15>  H       -0.9380715896     1.1159054817    -1.7947417207
| 16>  H       -0.6394572069     1.9240241290    -0.2499683051
| 17>  H        0.9654062554    -5.1202883716     1.4061832783
| 18>  H        2.6329541575    -5.0651436874     0.7754200692
| 19>  H        2.1736609797    -4.1143525526     2.2052042587
| 20>  H        2.0835404087    -4.3139484378    -1.5396046512
| 21>  H        1.0270791547    -2.8218046025    -1.7966979895
| 22> *
| 23>
| 24>                          ****END OF INPUT****

CARTESIAN COORDINATES (ANGSTROEM)
---------------------------------
  C     -0.227236    1.205157   -0.965690
  C     -0.007893   -0.086835   -0.340325
  C      0.176561   -1.158866    0.182595
  C      0.350976   -2.431247    0.848891
  O     -0.349540   -2.779742    1.777765
  C      1.460066   -3.324411    0.336309
  C      1.832542   -4.478861    1.232157
  C      1.665156   -3.396202   -1.127959
  O      2.537075   -2.630133   -0.311134
  H      0.705679    1.614852   -1.366542
  H     -0.938072    1.115905   -1.794742
  H     -0.639457    1.924024   -0.249968
  H      0.965406   -5.120288    1.406183
  H      2.632954   -5.065144    0.775420
  H      2.173661   -4.114353    2.205204
  H      2.083540   -4.313948   -1.539605
  H      1.027079   -2.821805   -1.796698

 Total Charge           Charge          ....    0
 Multiplicity           Mult            ....    1
 Number of Electrons    NEL             ....   66
 Basis Dimension        Dim             ....  327

ORBITAL ENERGIES
----------------

  NO   OCC          E(Eh)            E(eV)
   0   2.0000     -20.586086      -560.1759
   1   2.0000     -20.561383      -559.5037
   2   2.0000     -11.360122      -309.1246
   3   2.0000     -11.311047      -307.7892
   4   2.0000     -11.299734      -307.4814
   5   2.0000     -11.264488      -306.5223
   6   2.0000     -11.262689      -306.4733
   7   2.0000     -11.236373      -305.7573
   8   2.0000     -11.229025      -305.5573
   9   2.0000      -1.434232       -39.0274
  10   2.0000      -1.400133       -38.0996
  11   2.0000      -1.084403       -29.5081
  12   2.0000      -1.035723       -28.1835
  13   2.0000      -0.995562       -27.0906
  14   2.0000      -0.928129       -25.2557
  15   2.0000      -0.906297       -24.6616
  16   2.0000      -0.800400       -21.7800
  17   2.0000      -0.725037       -19.7293
  18   2.0000      -0.689532       -18.7631
  19   2.0000      -0.655076       -17.8255
  20   2.0000      -0.641416       -17.4538
  21   2.0000      -0.608862       -16.5680
  22   2.0000      -0.606161       -16.4945
  23   2.0000      -0.604045       -16.4369
  24   2.0000      -0.581899       -15.8343
  25   2.0000      -0.557183       -15.1617
  26   2.0000      -0.548158       -14.9161
  27   2.0000      -0.536179       -14.5902
  28   2.0000      -0.482204       -13.1214
  29   2.0000      -0.447554       -12.1786
  30   2.0000      -0.432616       -11.7721
  31   2.0000      -0.399916       -10.8823
  32   2.0000      -0.396876       -10.7995
  33   0.0000       0.085489         2.3263
  34   0.0000       0.128611         3.4997
  35   0.0000       0.150443         4.0938
  36   0.0000       0.174827         4.7573
  37   0.0000       0.181307         4.9336

MULLIKEN ATOMIC CHARGES
-----------------------
   0 C :   -0.477448
   1 C :    0.045133
   2 C :    0.100986
   3 C :    0.036849
   4 O :   -0.273454
   5 C :    0.144460
   6 C :   -0.393707
   7 C :   -0.068706
   8 O :   -0.318719
   9 H :    0.172912
  10 H :    0.168393
  11 H :    0.172718
  12 H :    0.147598
  13 H :    0.139670
  14 H :    0.144941
  15 H :    0.127565
  16 H :    0.130809
Sum of atomic charges:   -0.0000000

LOEWDIN ATOMIC CHARGES
----------------------
   0 C :   -0.283808
   1 C :   -0.053228
   2 C :   -0.032442
   3 C :   -0.294123
   4 O :    0.179730
   5 C :   -0.308963
   6 C :   -0.258856
   7 C :   -0.236156
   8 O :    0.188860
   9 H :    0.146200
  10 H :    0.147147
  11 H :    0.146994
  12 H :    0.138422
  13 H :    0.132594
  14 H :    0.136122
  15 H :    0.125014
  16 H :    0.126494

  Mayer bond orders larger than 0.1
B(  0-C ,  1-C ) :   0.8666 B(  0-C ,  9-H ) :   0.9423 B(  0-C , 10-H ) :   0.9394
B(  0-C , 11-H ) :   0.9418 B(  1-C ,  2-C ) :   2.6977 B(  2-C ,  3-C ) :   0.9344
B(  2-C ,  5-C ) :  -0.1612 B(  3-C ,  4-O ) :   1.9958 B(  3-C ,  5-C ) :   0.9930
B(  5-C ,  6-C ) :   0.9324 B(  5-C ,  7-C ) :   0.9379 B(  5-C ,  8-O ) :   0.8822
B(  6-C , 12-H ) :   0.9267 B(  6-C , 13-H ) :   0.9361 B(  6-C , 14-H ) :   0.9314
B(  7-C ,  8-O ) :   0.8916 B(  7-C , 15-H ) :   0.9139 B(  7-C , 16-H ) :   0.9034

MP2 TOTAL ENERGY:     -421.075612758 Eh
FINAL SINGLE POINT ENERGY      -421.075612757934

DIPOLE MOMENT
-------------
                                X             Y             Z
Electronic contribution:     -1.09642      -0.16113       2.54029
Nuclear contribution   :      1.10582       0.42391      -3.59393
                        -----------------------------------------
Total Dipole Moment    :      0.00940       0.26278      -1.05364
                        -----------------------------------------
Magnitude (a.u.)       :      1.08596
Magnitude (Debye)      :      2.76029

                             ****ORCA TERMINATED NORMALLY****
TOTAL RUN TIME: 0 days 0 hours 14 minutes 56 seconds 21 msec
