                         Program Version 3.0.3 - RELEASE   -
|  1> ! RI-MP2 RIJK def2-TZVP def2-TZVP/C def2-TZVP/JK TIGHTSCF
|  2> % maxcore 2000
|  3> % mp2 density relaxed end
|  4> *xyz 0 1
|  5>  O       -0.0658640184     1.4110581538    -0.0179221218
|  6>  C        0.0168436399    -0.0001664338     0.0069865063
|  7>  C       -1.3856034872    -0.6297849741     0.0746319702
|  8>  C       -0.9986405657    -2.0690853405     0.4837142820
|  9>  C       -0.3731783363    -2.7826761231    -0.7482276493
| 10>  C        0.5318266176    -1.8670549733    -1.5425251976
| 11>  C        0.7173067152    -0.5875528490    -1.2146549760
| 12>  C        0.0763668383    -1.7813691300     1.5249068086
| 13>  C        0.6580301363    -0.6125641595     1.2602264010
| 14>  H        0.8253470513     1.7643137148    -0.1099063465
| 15>  H       -1.9689585997    -0.1413970471     0.8596004539
| 16>  H       -1.9210710481    -0.5624027597    -0.8757834003
| 17>  H       -1.8366675881    -2.6559932464     0.8697290874
| 18>  H        0.1881975012    -3.6729410961    -0.4298990999
| 19>  H       -1.1732294153    -3.1575900487    -1.4020352960
| 20>  H        1.0418049112    -2.2974866755    -2.4009926917
| 21>  H        1.3735690818     0.0613042909    -1.7903351666
| 22>  H        0.3645834011    -2.4850943826     2.2978093189
| 23>  H        1.5106781346    -0.1703213099     1.7637517772
| 24> *
| 25>
| 26>                          ****END OF INPUT****

CARTESIAN COORDINATES (ANGSTROEM)
---------------------------------
  O     -0.065864    1.411058   -0.017922
  C      0.016844   -0.000166    0.006987
  C     -1.385603   -0.629785    0.074632
  C     -0.998641   -2.069085    0.483714
  C     -0.373178   -2.782676   -0.748228
  C      0.531827   -1.867055   -1.542525
  C      0.717307   -0.587553   -1.214655
  C      0.076367   -1.781369    1.524907
  C      0.658030   -0.612564    1.260226
  H      0.825347    1.764314   -0.109906
  H     -1.968959   -0.141397    0.859600
  H     -1.921071   -0.562403   -0.875783
  H     -1.836668   -2.655993    0.869729
  H      0.188198   -3.672941   -0.429899
  H     -1.173229   -3.157590   -1.402035
  H      1.041805   -2.297487   -2.400993
  H      1.373569    0.061304   -1.790335
  H      0.364583   -2.485094    2.297809
  H      1.510678   -0.170321    1.763752

 Total Charge           Charge          ....    0
 Multiplicity           Mult            ....    1
 Number of Electrons    NEL             ....   66
 Basis Dimension        Dim             ....  339

ORBITAL ENERGIES
----------------

  NO   OCC          E(Eh)            E(eV)
   0   2.0000     -20.557454      -559.3968
   1   2.0000     -11.289570      -307.2048
   2   2.0000     -11.234887      -305.7168
   3   2.0000     -11.230595      -305.6000
   4   2.0000     -11.228387      -305.5399
   5   2.0000     -11.224753      -305.4411
   6   2.0000     -11.224476      -305.4335
   7   2.0000     -11.222950      -305.3920
   8   2.0000     -11.215946      -305.2014
   9   2.0000      -1.366714       -37.1902
  10   2.0000      -1.162365       -31.6296
  11   2.0000      -1.049040       -28.5458
  12   2.0000      -1.001924       -27.2637
  13   2.0000      -0.962936       -26.2028
  14   2.0000      -0.860871       -23.4255
  15   2.0000      -0.813196       -22.1282
  16   2.0000      -0.744059       -20.2469
  17   2.0000      -0.717683       -19.5291
  18   2.0000      -0.701656       -19.0930
  19   2.0000      -0.651278       -17.7222
  20   2.0000      -0.631658       -17.1883
  21   2.0000      -0.602041       -16.3824
  22   2.0000      -0.578987       -15.7550
  23   2.0000      -0.556103       -15.1323
  24   2.0000      -0.549203       -14.9446
  25   2.0000      -0.540645       -14.7117
  26   2.0000      -0.509961       -13.8767
  27   2.0000      -0.478984       -13.0338
  28   2.0000      -0.476420       -12.9641
  29   2.0000      -0.459945       -12.5158
  30   2.0000      -0.433837       -11.8053
  31   2.0000      -0.360838        -9.8189
  32   2.0000      -0.332095        -9.0368
  33   0.0000       0.129761         3.5310
  34   0.0000       0.138231         3.7615
  35   0.0000       0.149644         4.0720
  36   0.0000       0.169352         4.6083
  37   0.0000       0.174128         4.7383

MULLIKEN ATOMIC CHARGES
-----------------------
   0 O :   -0.458822
   1 C :    0.433903
   2 C :   -0.286251
   3 C :    0.031439
   4 C :   -0.221427
   5 C :   -0.144654
   6 C :   -0.319052
   7 C :   -0.220912
   8 C :   -0.223313
   9 H :    0.314034
  10 H :    0.123820
  11 H :    0.125280
  12 H :    0.115965
  13 H :    0.120766
  14 H :    0.126369
  15 H :    0.121864
  16 H :    0.109127
  17 H :    0.130732
  18 H :    0.121132
Sum of atomic charges:   -0.0000000

LOEWDIN ATOMIC CHARGES
----------------------
   0 O :    0.015734
   1 C :   -0.348212
   2 C :   -0.164934
   3 C :   -0.211709
   4 C :   -0.219783
   5 C :   -0.155438
   6 C :   -0.131901
   7 C :   -0.128624
   8 C :   -0.109585
   9 H :    0.175192
  10 H :    0.145973
  11 H :    0.141402
  12 H :    0.146096
  13 H :    0.146214
  14 H :    0.146903
  15 H :    0.140895
  16 H :    0.140284
  17 H :    0.135897
  18 H :    0.135598

  Mayer bond orders larger than 0.1
B(  0-O ,  1-C ) :   0.9799 B(  0-O ,  9-H ) :   0.8427 B(  1-C ,  2-C ) :   0.8918
B(  1-C ,  6-C ) :   0.8988 B(  1-C ,  8-C ) :   0.8811 B(  2-C ,  3-C ) :   0.9125
B(  2-C , 10-H ) :   0.9184 B(  2-C , 11-H ) :   0.9297 B(  3-C ,  4-C ) :   0.9075
B(  3-C ,  7-C ) :   0.8943 B(  3-C , 12-H ) :   0.9288 B(  4-C ,  5-C ) :   0.9492
B(  4-C , 13-H ) :   0.9115 B(  4-C , 14-H ) :   0.9087 B(  5-C ,  6-C ) :   1.7761
B(  5-C , 15-H ) :   0.9231 B(  6-C , 16-H ) :   0.9253 B(  7-C ,  8-C ) :   1.7668
B(  7-C , 17-H ) :   0.9185 B(  8-C , 18-H ) :   0.9159

MP2 TOTAL ENERGY:     -385.225833692 Eh
FINAL SINGLE POINT ENERGY      -385.225833692108

DIPOLE MOMENT
-------------
                                X             Y             Z
Electronic contribution:      1.04619       3.16027       0.80251
Nuclear contribution   :     -0.59391      -3.63384      -0.88339
                        -----------------------------------------
Total Dipole Moment    :      0.45229      -0.47358      -0.08088
                        -----------------------------------------
Magnitude (a.u.)       :      0.65983
Magnitude (Debye)      :      1.67716

                             ****ORCA TERMINATED NORMALLY****
TOTAL RUN TIME: 0 days 0 hours 18 minutes 47 seconds 545 msec
