                         Program Version 3.0.3 - RELEASE   -
|  1> ! RI-MP2 RIJK def2-TZVP def2-TZVP/C def2-TZVP/JK TIGHTSCF
|  2> % maxcore 2000
|  3> % mp2 density relaxed end
|  4> *xyz 0 1
|  5>  C       -0.2284894402     1.4132225898    -0.1246984760
|  6>  C       -0.0240714989    -0.0857587155     0.0436228229
|  7>  C        1.1765998648    -0.6635543343    -0.7782976326
|  8>  N        1.9495387947    -0.8040364535     0.4759228007
|  9>  C        0.7311301151    -0.6041194110     1.3222933419
| 10>  C        0.9745112528     0.3800440176     2.4613463343
| 11>  C        0.1308593474    -1.9101536051     1.8515322387
| 12>  C        0.8904486204    -1.9090166197    -1.4930546636
| 13>  N        0.6815012912    -2.9058700708    -2.0421584791
| 14>  H        0.7110500606     1.9653474892    -0.0280314383
| 15>  H       -0.6448899178     1.6317238408    -1.1136872098
| 16>  H       -0.9275647299     1.8016344318     0.6225056995
| 17>  H       -0.9633886882    -0.6134386615    -0.1335998613
| 18>  H        1.6304145762     0.0398884291    -1.4863041000
| 19>  H        2.4245748294    -1.6937721312     0.5922833839
| 20>  H        1.4406028950     1.3000458133     2.1032485409
| 21>  H        0.0392707569     0.6336771197     2.9724718730
| 22>  H        1.6474237799    -0.0658644282     3.2021250691
| 23>  H        0.8064692054    -2.3776174844     2.5773233203
| 24>  H       -0.8219878856    -1.7234304640     2.3592905630
| 25>  H       -0.0506931991    -2.6264780722     1.0445368926
| 26> *
| 27>
| 28>                          ****END OF INPUT****

CARTESIAN COORDINATES (ANGSTROEM)
---------------------------------
  C     -0.228489    1.413223   -0.124698
  C     -0.024071   -0.085759    0.043623
  C      1.176600   -0.663554   -0.778298
  N      1.949539   -0.804036    0.475923
  C      0.731130   -0.604119    1.322293
  C      0.974511    0.380044    2.461346
  C      0.130859   -1.910154    1.851532
  C      0.890449   -1.909017   -1.493055
  N      0.681501   -2.905870   -2.042158
  H      0.711050    1.965347   -0.028031
  H     -0.644890    1.631724   -1.113687
  H     -0.927565    1.801634    0.622506
  H     -0.963389   -0.613439   -0.133600
  H      1.630415    0.039888   -1.486304
  H      2.424575   -1.693772    0.592283
  H      1.440603    1.300046    2.103249
  H      0.039271    0.633677    2.972472
  H      1.647424   -0.065864    3.202125
  H      0.806469   -2.377617    2.577323
  H     -0.821988   -1.723430    2.359291
  H     -0.050693   -2.626478    1.044537

 Total Charge           Charge          ....    0
 Multiplicity           Mult            ....    1
 Number of Electrons    NEL             ....   68
 Basis Dimension        Dim             ....  351

ORBITAL ENERGIES
----------------

  NO   OCC          E(Eh)            E(eV)
   0   2.0000     -15.571895      -423.7328
   1   2.0000     -15.563471      -423.5036
   2   2.0000     -11.306515      -307.6659
   3   2.0000     -11.280349      -306.9539
   4   2.0000     -11.272349      -306.7362
   5   2.0000     -11.256174      -306.2961
   6   2.0000     -11.233051      -305.6669
   7   2.0000     -11.226692      -305.4938
   8   2.0000     -11.221189      -305.3441
   9   2.0000      -1.267176       -34.4816
  10   2.0000      -1.213758       -33.0280
  11   2.0000      -1.053604       -28.6700
  12   2.0000      -1.042361       -28.3641
  13   2.0000      -0.955872       -26.0106
  14   2.0000      -0.939524       -25.5657
  15   2.0000      -0.875396       -23.8207
  16   2.0000      -0.744601       -20.2616
  17   2.0000      -0.729720       -19.8567
  18   2.0000      -0.666371       -18.1329
  19   2.0000      -0.639485       -17.4013
  20   2.0000      -0.611621       -16.6431
  21   2.0000      -0.588620       -16.0172
  22   2.0000      -0.585058       -15.9202
  23   2.0000      -0.568140       -15.4599
  24   2.0000      -0.558861       -15.2074
  25   2.0000      -0.544888       -14.8271
  26   2.0000      -0.535346       -14.5675
  27   2.0000      -0.523137       -14.2353
  28   2.0000      -0.502914       -13.6850
  29   2.0000      -0.495876       -13.4935
  30   2.0000      -0.465235       -12.6597
  31   2.0000      -0.459507       -12.5038
  32   2.0000      -0.432376       -11.7656
  33   2.0000      -0.395053       -10.7499
  34   0.0000       0.119461         3.2507
  35   0.0000       0.143365         3.9012
  36   0.0000       0.154596         4.2068
  37   0.0000       0.157471         4.2850
  38   0.0000       0.173028         4.7083

MULLIKEN ATOMIC CHARGES
-----------------------
   0 C :   -0.466870
   1 C :   -0.021687
   2 C :    0.090830
   3 N :   -0.330027
   4 C :    0.101167
   5 C :   -0.378591
   6 C :   -0.436137
   7 C :   -0.239326
   8 N :   -0.055502
   9 H :    0.148177
  10 H :    0.147419
  11 H :    0.141875
  12 H :    0.132945
  13 H :    0.134799
  14 H :    0.214023
  15 H :    0.133275
  16 H :    0.125678
  17 H :    0.131823
  18 H :    0.135911
  19 H :    0.130852
  20 H :    0.159368
Sum of atomic charges:   -0.0000000

LOEWDIN ATOMIC CHARGES
----------------------
   0 C :   -0.289374
   1 C :   -0.177246
   2 C :   -0.241518
   3 N :    0.063501
   4 C :   -0.323609
   5 C :   -0.272331
   6 C :   -0.275243
   7 C :   -0.182852
   8 N :    0.058929
   9 H :    0.129679
  10 H :    0.129279
  11 H :    0.129170
  12 H :    0.154174
  13 H :    0.161371
  14 H :    0.163348
  15 H :    0.126879
  16 H :    0.127157
  17 H :    0.129448
  18 H :    0.127467
  19 H :    0.129736
  20 H :    0.132035

  Mayer bond orders larger than 0.1
B(  0-C ,  1-C ) :   0.8736 B(  0-C ,  9-H ) :   0.9435 B(  0-C , 10-H ) :   0.9349
B(  0-C , 11-H ) :   0.9394 B(  1-C ,  2-C ) :   0.8515 B(  1-C ,  4-C ) :   0.8729
B(  1-C , 12-H ) :   0.9268 B(  2-C ,  3-N ) :   1.0013 B(  2-C ,  7-C ) :   0.9498
B(  2-C , 13-H ) :   0.8908 B(  3-N ,  4-C ) :   0.9753 B(  3-N , 14-H ) :   0.8842
B(  4-C ,  5-C ) :   0.8933 B(  4-C ,  6-C ) :   0.9445 B(  5-C , 15-H ) :   0.9381
B(  5-C , 16-H ) :   0.9362 B(  5-C , 17-H ) :   0.9315 B(  6-C , 18-H ) :   0.9346
B(  6-C , 19-H ) :   0.9319 B(  6-C , 20-H ) :   0.9221 B(  7-C ,  8-N ) :   2.8499

MP2 TOTAL ENERGY:     -382.601808081 Eh
FINAL SINGLE POINT ENERGY      -382.601808081028

DIPOLE MOMENT
-------------
                                X             Y             Z
Electronic contribution:      2.61618      -5.96383      -8.25994
Nuclear contribution   :     -2.82878       6.91486       9.16769
                        -----------------------------------------
Total Dipole Moment    :     -0.21260       0.95102       0.90775
                        -----------------------------------------
Magnitude (a.u.)       :      1.33178
Magnitude (Debye)      :      3.38512

                             ****ORCA TERMINATED NORMALLY****
TOTAL RUN TIME: 0 days 0 hours 22 minutes 6 seconds 819 msec
