                         Program Version 3.0.3 - RELEASE   -
|  1> ! RI-MP2 RIJK def2-TZVP def2-TZVP/C def2-TZVP/JK TIGHTSCF
|  2> % maxcore 2000
|  3> % mp2 density relaxed end
|  4> *xyz 0 1
|  5>  N       -0.0445622032     1.2902481998     0.0088606139
|  6>  C        0.0573476386    -0.0513491974     0.0006917416
|  7>  O        1.0864868443    -0.7042315334    -0.0125908630
|  8>  C       -1.3371538247    -0.7215771707     0.0099716203
|  9>  N       -1.2352349359    -2.0631798254     0.0028112553
| 10>  O       -2.3662900985    -0.0686953673     0.0235163538
| 11>  H        0.7794981069     1.8658783839     0.0044531232
| 12>  H       -0.9695388773     1.6916240141     0.0199042700
| 13>  H       -0.3102527021    -2.4645590030    -0.0076313499
| 14>  H       -2.0592851780    -2.6388151106     0.0082981949
| 15> *
| 16>
| 17>                          ****END OF INPUT****

CARTESIAN COORDINATES (ANGSTROEM)
---------------------------------
  N     -0.044562    1.290248    0.008861
  C      0.057348   -0.051349    0.000692
  O      1.086487   -0.704232   -0.012591
  C     -1.337154   -0.721577    0.009972
  N     -1.235235   -2.063180    0.002811
  O     -2.366290   -0.068695    0.023516
  H      0.779498    1.865878    0.004453
  H     -0.969539    1.691624    0.019904
  H     -0.310253   -2.464559   -0.007631
  H     -2.059285   -2.638815    0.008298

 Total Charge           Charge          ....    0
 Multiplicity           Mult            ....    1
 Number of Electrons    NEL             ....   46
 Basis Dimension        Dim             ....  210

ORBITAL ENERGIES
----------------

  NO   OCC          E(Eh)            E(eV)
   0   2.0000     -20.545520      -559.0720
   1   2.0000     -20.545520      -559.0720
   2   2.0000     -15.599159      -424.4747
   3   2.0000     -15.599158      -424.4747
   4   2.0000     -11.375025      -309.5302
   5   2.0000     -11.374471      -309.5151
   6   2.0000      -1.420307       -38.6485
   7   2.0000      -1.391303       -37.8593
   8   2.0000      -1.238940       -33.7133
   9   2.0000      -1.226946       -33.3869
  10   2.0000      -0.923764       -25.1369
  11   2.0000      -0.803328       -21.8597
  12   2.0000      -0.775191       -21.0940
  13   2.0000      -0.731792       -19.9131
  14   2.0000      -0.671586       -18.2748
  15   2.0000      -0.664318       -18.0770
  16   2.0000      -0.624820       -17.0022
  17   2.0000      -0.607558       -16.5325
  18   2.0000      -0.556728       -15.1493
  19   2.0000      -0.515009       -14.0141
  20   2.0000      -0.442836       -12.0502
  21   2.0000      -0.424946       -11.5634
  22   2.0000      -0.423787       -11.5318
  23   0.0000       0.103975         2.8293
  24   0.0000       0.136117         3.7039
  25   0.0000       0.142546         3.8789
  26   0.0000       0.193891         5.2760
  27   0.0000       0.199782         5.4364

MULLIKEN ATOMIC CHARGES
-----------------------
   0 N :   -0.443993
   1 C :    0.264281
   2 O :   -0.375936
   3 C :    0.264282
   4 N :   -0.443993
   5 O :   -0.375936
   6 H :    0.263764
   7 H :    0.291884
   8 H :    0.291884
   9 H :    0.263764
Sum of atomic charges:   -0.0000000

LOEWDIN ATOMIC CHARGES
----------------------
   0 N :    0.020880
   1 C :   -0.458649
   2 O :    0.072889
   3 C :   -0.458649
   4 N :    0.020880
   5 O :    0.072889
   6 H :    0.176712
   7 H :    0.188168
   8 H :    0.188168
   9 H :    0.176712

  Mayer bond orders larger than 0.1
B(  0-N ,  1-C ) :   1.2384 B(  0-N ,  6-H ) :   0.8578 B(  0-N ,  7-H ) :   0.8394
B(  1-C ,  2-O ) :   1.8746 B(  1-C ,  3-C ) :   0.8771 B(  3-C ,  4-N ) :   1.2384
B(  3-C ,  5-O ) :   1.8746 B(  4-N ,  8-H ) :   0.8394 B(  4-N ,  9-H ) :   0.8578

MP2 TOTAL ENERGY:     -338.042862679 Eh
FINAL SINGLE POINT ENERGY      -338.042862678557

DIPOLE MOMENT
-------------
                                X             Y             Z
Electronic contribution:     -0.00001       0.00001      -0.00148
Nuclear contribution   :      0.00002      -0.00001       0.00253
                        -----------------------------------------
Total Dipole Moment    :      0.00001      -0.00001       0.00105
                        -----------------------------------------
Magnitude (a.u.)       :      0.00105
Magnitude (Debye)      :      0.00267

                             ****ORCA TERMINATED NORMALLY****
TOTAL RUN TIME: 0 days 0 hours 3 minutes 30 seconds 615 msec
