                         Program Version 3.0.3 - RELEASE   -
|  1> ! RI-MP2 RIJK def2-TZVP def2-TZVP/C def2-TZVP/JK TIGHTSCF
|  2> % maxcore 2000
|  3> % mp2 density relaxed end
|  4> *xyz 0 1
|  5>  C        0.1642387124     1.6146415195    -0.1154155322
|  6>  C        0.0869886801     0.0949721852     0.0117980793
|  7>  C       -1.3409807955    -0.4183922799    -0.1059084339
|  8>  O        0.8714252609    -0.4599543648    -1.1059287171
|  9>  C        1.9675986755    -1.0167440268    -0.5606816110
| 10>  N        2.0911968075    -1.0858583496     0.7007417867
| 11>  C        0.8530385093    -0.5098415500     1.2421509155
| 12>  C        1.1355159974     0.4257072721     2.4084511428
| 13>  O        0.3154542655     1.1644798414     2.8909152021
| 14>  H        1.1997122608     1.9617011035    -0.0483670714
| 15>  H       -0.2371589481     1.9198336635    -1.0854931933
| 16>  H       -0.4099066908     2.0952299844     0.6782567913
| 17>  H       -1.8127801351    -0.0549153579    -1.0231416247
| 18>  H       -1.3617680121    -1.5117554771    -0.1138437942
| 19>  H       -1.9253871847    -0.0651247456     0.7492593460
| 20>  H        2.6944074632    -1.3828320539    -1.2782384092
| 21>  H        0.2548837811    -1.3245389120     1.6814210434
| 22>  H        2.1682630826     0.3441910480     2.8092238499
| 23> *
| 24>
| 25>                          ****END OF INPUT****

CARTESIAN COORDINATES (ANGSTROEM)
---------------------------------
  C      0.164239    1.614642   -0.115416
  C      0.086989    0.094972    0.011798
  C     -1.340981   -0.418392   -0.105908
  O      0.871425   -0.459954   -1.105929
  C      1.967599   -1.016744   -0.560682
  N      2.091197   -1.085858    0.700742
  C      0.853039   -0.509842    1.242151
  C      1.135516    0.425707    2.408451
  O      0.315454    1.164480    2.890915
  H      1.199712    1.961701   -0.048367
  H     -0.237159    1.919834   -1.085493
  H     -0.409907    2.095230    0.678257
  H     -1.812780   -0.054915   -1.023142
  H     -1.361768   -1.511755   -0.113844
  H     -1.925387   -0.065125    0.749259
  H      2.694407   -1.382832   -1.278238
  H      0.254884   -1.324539    1.681421
  H      2.168263    0.344191    2.809224

 Total Charge           Charge          ....    0
 Multiplicity           Mult            ....    1
 Number of Electrons    NEL             ....   68
 Basis Dimension        Dim             ....  333

ORBITAL ENERGIES
----------------

  NO   OCC          E(Eh)            E(eV)
   0   2.0000     -20.602896      -560.6333
   1   2.0000     -20.564972      -559.6013
   2   2.0000     -15.560600      -423.4255
   3   2.0000     -11.345680      -308.7317
   4   2.0000     -11.338997      -308.5498
   5   2.0000     -11.318679      -307.9969
   6   2.0000     -11.283805      -307.0480
   7   2.0000     -11.232355      -305.6479
   8   2.0000     -11.226258      -305.4820
   9   2.0000      -1.448792       -39.4236
  10   2.0000      -1.405066       -38.2338
  11   2.0000      -1.229263       -33.4499
  12   2.0000      -1.099628       -29.9224
  13   2.0000      -0.982583       -26.7374
  14   2.0000      -0.957236       -26.0477
  15   2.0000      -0.866825       -23.5875
  16   2.0000      -0.809716       -22.0335
  17   2.0000      -0.770168       -20.9573
  18   2.0000      -0.716497       -19.4969
  19   2.0000      -0.677280       -18.4297
  20   2.0000      -0.669296       -18.2125
  21   2.0000      -0.629380       -17.1263
  22   2.0000      -0.623234       -16.9591
  23   2.0000      -0.606558       -16.5053
  24   2.0000      -0.592338       -16.1183
  25   2.0000      -0.554179       -15.0800
  26   2.0000      -0.540949       -14.7200
  27   2.0000      -0.535100       -14.5608
  28   2.0000      -0.530927       -14.4472
  29   2.0000      -0.508320       -13.8321
  30   2.0000      -0.503201       -13.6928
  31   2.0000      -0.448344       -12.2001
  32   2.0000      -0.435105       -11.8398
  33   2.0000      -0.388761       -10.5787
  34   0.0000       0.112430         3.0594
  35   0.0000       0.141792         3.8584
  36   0.0000       0.152723         4.1558
  37   0.0000       0.173667         4.7257
  38   0.0000       0.176159         4.7935

MULLIKEN ATOMIC CHARGES
-----------------------
   0 C :   -0.420535
   1 C :    0.186821
   2 C :   -0.409790
   3 O :   -0.265782
   4 C :    0.101095
   5 N :   -0.286406
   6 C :    0.042004
   7 C :    0.065387
   8 O :   -0.267567
   9 H :    0.139722
  10 H :    0.143030
  11 H :    0.162426
  12 H :    0.140864
  13 H :    0.139400
  14 H :    0.148324
  15 H :    0.148114
  16 H :    0.125906
  17 H :    0.106987
Sum of atomic charges:    0.0000000

LOEWDIN ATOMIC CHARGES
----------------------
   0 C :   -0.266018
   1 C :   -0.308209
   2 C :   -0.265512
   3 O :    0.256886
   4 C :   -0.349194
   5 N :    0.078167
   6 C :   -0.243190
   7 C :   -0.264468
   8 O :    0.138219
   9 H :    0.132153
  10 H :    0.131573
  11 H :    0.136936
  12 H :    0.130877
  13 H :    0.129767
  14 H :    0.137323
  15 H :    0.135622
  16 H :    0.169425
  17 H :    0.119643

  Mayer bond orders larger than 0.1
B(  0-C ,  1-C ) :   0.9246 B(  0-C ,  9-H ) :   0.9297 B(  0-C , 10-H ) :   0.9265
B(  0-C , 11-H ) :   0.9277 B(  1-C ,  2-C ) :   0.9155 B(  1-C ,  3-O ) :   0.7951
B(  1-C ,  6-C ) :   0.8909 B(  2-C , 12-H ) :   0.9320 B(  2-C , 13-H ) :   0.9318
B(  2-C , 14-H ) :   0.9297 B(  3-O ,  4-C ) :   1.1069 B(  4-C ,  5-N ) :   1.7887
B(  4-C , 15-H ) :   0.9223 B(  5-N ,  6-C ) :   0.9272 B(  6-C ,  7-C ) :   0.8451
B(  6-C , 16-H ) :   0.8911 B(  7-C ,  8-O ) :   1.9853 B(  7-C , 17-H ) :   0.9443

MP2 TOTAL ENERGY:     -438.391033698 Eh
FINAL SINGLE POINT ENERGY      -438.391033697694

DIPOLE MOMENT
-------------
                                X             Y             Z
Electronic contribution:      4.77698      -2.03123       2.16998
Nuclear contribution   :     -4.98977       1.84064      -2.77245
                        -----------------------------------------
Total Dipole Moment    :     -0.21279      -0.19059      -0.60246
                        -----------------------------------------
Magnitude (a.u.)       :      0.66676
Magnitude (Debye)      :      1.69476

                             ****ORCA TERMINATED NORMALLY****
TOTAL RUN TIME: 0 days 0 hours 18 minutes 9 seconds 620 msec
