                         Program Version 3.0.3 - RELEASE   -
|  1> ! RI-MP2 RIJK def2-TZVP def2-TZVP/C def2-TZVP/JK TIGHTSCF
|  2> % maxcore 2000
|  3> % mp2 density relaxed end
|  4> *xyz 0 1
|  5>  C        0.2538081970    -0.2284909551    -1.1700761888
|  6>  C        0.1209957866     0.5188028177    -0.2381530510
|  7>  C       -0.0004291444     1.4110787724     0.9194271501
|  8>  N        1.1994098403     2.1866463176     1.2167989173
|  9>  C        1.4943760566     3.2839024213     0.4356422032
| 10>  N        0.5862501636     3.9447390089    -0.2717478955
| 11>  N        1.3374116830     4.9599682461    -0.7921883644
| 12>  C        2.6132431237     4.8505170507    -0.3918630846
| 13>  N        2.7609347631     3.7985971538     0.3907574469
| 14>  H        0.3621742650    -0.8797730484    -2.0017629238
| 15>  H       -0.8193419475     2.1184232985     0.7600648404
| 16>  H       -0.2540599428     0.8233274505     1.8086029525
| 17>  H        2.0224053205     1.6358026704     1.4164816498
| 18>  H        0.9076523453     5.6377698987    -1.3980619203
| 19>  H        3.3893563000     5.5413868271    -0.6855807419
| 20> *
| 21>
| 22>                          ****END OF INPUT****

CARTESIAN COORDINATES (ANGSTROEM)
---------------------------------
  C      0.253808   -0.228491   -1.170076
  C      0.120996    0.518803   -0.238153
  C     -0.000429    1.411079    0.919427
  N      1.199410    2.186646    1.216799
  C      1.494376    3.283902    0.435642
  N      0.586250    3.944739   -0.271748
  N      1.337412    4.959968   -0.792188
  C      2.613243    4.850517   -0.391863
  N      2.760935    3.798597    0.390757
  H      0.362174   -0.879773   -2.001763
  H     -0.819342    2.118423    0.760065
  H     -0.254060    0.823327    1.808603
  H      2.022405    1.635803    1.416482
  H      0.907652    5.637770   -1.398062
  H      3.389356    5.541387   -0.685581

 Total Charge           Charge          ....    0
 Multiplicity           Mult            ....    1
 Number of Electrons    NEL             ....   64
 Basis Dimension        Dim             ....  315

ORBITAL ENERGIES
----------------

  NO   OCC          E(Eh)            E(eV)
   0   2.0000     -15.643636      -425.6850
   1   2.0000     -15.574501      -423.8037
   2   2.0000     -15.574245      -423.7968
   3   2.0000     -15.552330      -423.2004
   4   2.0000     -11.322899      -308.1117
   5   2.0000     -11.322232      -308.0936
   6   2.0000     -11.287817      -307.1571
   7   2.0000     -11.232364      -305.6482
   8   2.0000     -11.222833      -305.3888
   9   2.0000      -1.408088       -38.3160
  10   2.0000      -1.253295       -34.1039
  11   2.0000      -1.188167       -32.3317
  12   2.0000      -1.098395       -29.8888
  13   2.0000      -1.039232       -28.2790
  14   2.0000      -0.949225       -25.8297
  15   2.0000      -0.862241       -23.4628
  16   2.0000      -0.802638       -21.8409
  17   2.0000      -0.771909       -21.0047
  18   2.0000      -0.729429       -19.8488
  19   2.0000      -0.677028       -18.4229
  20   2.0000      -0.653840       -17.7919
  21   2.0000      -0.651129       -17.7181
  22   2.0000      -0.627511       -17.0754
  23   2.0000      -0.589377       -16.0378
  24   2.0000      -0.570765       -15.5313
  25   2.0000      -0.505841       -13.7646
  26   2.0000      -0.479709       -13.0536
  27   2.0000      -0.445528       -12.1234
  28   2.0000      -0.408435       -11.1141
  29   2.0000      -0.393868       -10.7177
  30   2.0000      -0.387924       -10.5559
  31   2.0000      -0.332000        -9.0342
  32   0.0000       0.131932         3.5901
  33   0.0000       0.146281         3.9805
  34   0.0000       0.148200         4.0327
  35   0.0000       0.170132         4.6295
  36   0.0000       0.175957         4.7880

MULLIKEN ATOMIC CHARGES
-----------------------
   0 C :   -0.191037
   1 C :   -0.047238
   2 C :   -0.161276
   3 N :   -0.333546
   4 C :    0.259834
   5 N :   -0.270845
   6 N :   -0.140167
   7 C :    0.037024
   8 N :   -0.330519
   9 H :    0.189075
  10 H :    0.167876
  11 H :    0.159664
  12 H :    0.242876
  13 H :    0.262310
  14 H :    0.155969
Sum of atomic charges:    0.0000000

LOEWDIN ATOMIC CHARGES
----------------------
   0 C :   -0.099738
   1 C :   -0.114033
   2 C :   -0.273590
   3 N :    0.080600
   4 C :   -0.439619
   5 N :    0.013162
   6 N :    0.120334
   7 C :   -0.327077
   8 N :    0.084722
   9 H :    0.126638
  10 H :    0.160362
  11 H :    0.152023
  12 H :    0.192357
  13 H :    0.189520
  14 H :    0.134341

  Mayer bond orders larger than 0.1
B(  0-C ,  1-C ) :   2.6694 B(  0-C ,  9-H ) :   0.9103 B(  1-C ,  2-C ) :   0.9887
B(  2-C ,  3-N ) :   0.8974 B(  2-C , 10-H ) :   0.9353 B(  2-C , 11-H ) :   0.9494
B(  3-N ,  4-C ) :   1.1107 B(  3-N , 12-H ) :   0.8695 B(  4-C ,  5-N ) :   1.5321
B(  4-C ,  8-N ) :   1.3111 B(  5-N ,  6-N ) :   1.0365 B(  6-N ,  7-C ) :   1.2476
B(  6-N , 13-H ) :   0.8677 B(  7-C ,  8-N ) :   1.5050 B(  7-C , 14-H ) :   0.9236

MP2 TOTAL ENERGY:     -412.257687136 Eh
FINAL SINGLE POINT ENERGY      -412.257687136414

DIPOLE MOMENT
-------------
                                X             Y             Z
Electronic contribution:      1.21889       2.31327      -0.42330
Nuclear contribution   :     -1.27211      -1.77139      -0.19139
                        -----------------------------------------
Total Dipole Moment    :     -0.05322       0.54188      -0.61469
                        -----------------------------------------
Magnitude (a.u.)       :      0.82116
Magnitude (Debye)      :      2.08723

                             ****ORCA TERMINATED NORMALLY****
TOTAL RUN TIME: 0 days 0 hours 13 minutes 46 seconds 299 msec
