                         Program Version 3.0.3 - RELEASE   -
|  1> ! RI-MP2 RIJK def2-TZVP def2-TZVP/C def2-TZVP/JK TIGHTSCF
|  2> % maxcore 2000
|  3> % mp2 density relaxed end
|  4> *xyz 0 1
|  5>  C       -0.0533648395     1.4620667729     0.0090242836
|  6>  N       -0.0161984595     0.0013386074     0.0008211098
|  7>  C       -1.2319532013    -0.6918867230     0.0042329695
|  8>  N       -2.3268166043    -0.0285717090     0.0145679995
|  9>  C       -1.0936695496    -2.1502953715    -0.0048117392
| 10>  N        0.0280158155    -2.7775067451    -0.0149091281
| 11>  N        1.1400189712    -2.0188151284    -0.0171231138
| 12>  C        1.2175536289    -0.6309561789    -0.0096281689
| 13>  O        2.2882812374    -0.0622730219    -0.0129007753
| 14>  H        0.9736283391     1.8192098443     0.0030255828
| 15>  H       -0.5973903107     1.8206483678    -0.8678391192
| 16>  H       -0.5835455670     1.8113298701     0.8980875888
| 17>  H       -3.1234719712    -0.6639873226     0.0156684238
| 18>  H       -1.9945966428    -2.7542129061    -0.0029535205
| 19>  H        2.0182269340    -2.5132483058    -0.0250094427
| 20> *
| 21>
| 22>                          ****END OF INPUT****

CARTESIAN COORDINATES (ANGSTROEM)
---------------------------------
  C     -0.053365    1.462067    0.009024
  N     -0.016198    0.001339    0.000821
  C     -1.231953   -0.691887    0.004233
  N     -2.326817   -0.028572    0.014568
  C     -1.093670   -2.150295   -0.004812
  N      0.028016   -2.777507   -0.014909
  N      1.140019   -2.018815   -0.017123
  C      1.217554   -0.630956   -0.009628
  O      2.288281   -0.062273   -0.012901
  H      0.973628    1.819210    0.003026
  H     -0.597390    1.820648   -0.867839
  H     -0.583546    1.811330    0.898088
  H     -3.123472   -0.663987    0.015668
  H     -1.994597   -2.754213   -0.002954
  H      2.018227   -2.513248   -0.025009

 Total Charge           Charge          ....    0
 Multiplicity           Mult            ....    1
 Number of Electrons    NEL             ....   66
 Basis Dimension        Dim             ....  315

ORBITAL ENERGIES
----------------

  NO   OCC          E(Eh)            E(eV)
   0   2.0000     -20.536873      -558.8367
   1   2.0000     -15.661235      -426.1639
   2   2.0000     -15.646628      -425.7664
   3   2.0000     -15.628171      -425.2641
   4   2.0000     -15.557577      -423.3432
   5   2.0000     -11.408119      -310.4307
   6   2.0000     -11.351917      -308.9014
   7   2.0000     -11.305593      -307.6408
   8   2.0000     -11.262965      -306.4809
   9   2.0000      -1.438849       -39.1531
  10   2.0000      -1.370424       -37.2911
  11   2.0000      -1.305324       -35.5197
  12   2.0000      -1.203672       -32.7536
  13   2.0000      -1.145603       -31.1734
  14   2.0000      -1.000628       -27.2285
  15   2.0000      -0.904994       -24.6261
  16   2.0000      -0.898792       -24.4574
  17   2.0000      -0.792575       -21.5671
  18   2.0000      -0.778504       -21.1842
  19   2.0000      -0.690397       -18.7866
  20   2.0000      -0.683929       -18.6107
  21   2.0000      -0.654971       -17.8227
  22   2.0000      -0.641690       -17.4613
  23   2.0000      -0.624234       -16.9863
  24   2.0000      -0.605843       -16.4858
  25   2.0000      -0.559577       -15.2269
  26   2.0000      -0.547046       -14.8859
  27   2.0000      -0.536272       -14.5927
  28   2.0000      -0.511781       -13.9263
  29   2.0000      -0.462249       -12.5784
  30   2.0000      -0.446106       -12.1392
  31   2.0000      -0.404127       -10.9969
  32   2.0000      -0.366428        -9.9710
  33   0.0000       0.075090         2.0433
  34   0.0000       0.131134         3.5683
  35   0.0000       0.150727         4.1015
  36   0.0000       0.158060         4.3010
  37   0.0000       0.166205         4.5227

MULLIKEN ATOMIC CHARGES
-----------------------
   0 C :   -0.303219
   1 N :   -0.078475
   2 C :    0.147483
   3 N :   -0.392303
   4 C :   -0.125740
   5 N :   -0.113953
   6 N :   -0.185320
   7 C :    0.291251
   8 O :   -0.364238
   9 H :    0.185055
  10 H :    0.152169
  11 H :    0.152025
  12 H :    0.215579
  13 H :    0.146743
  14 H :    0.272942
Sum of atomic charges:   -0.0000000

LOEWDIN ATOMIC CHARGES
----------------------
   0 C :   -0.259016
   1 N :    0.230234
   2 C :   -0.348033
   3 N :   -0.054591
   4 C :   -0.225880
   5 N :    0.079271
   6 N :    0.091258
   7 C :   -0.499951
   8 O :    0.082616
   9 H :    0.134708
  10 H :    0.127957
  11 H :    0.127924
  12 H :    0.166241
  13 H :    0.148042
  14 H :    0.199221

  Mayer bond orders larger than 0.1
B(  0-C ,  1-N ) :   0.8482 B(  0-C ,  9-H ) :   0.9152 B(  0-C , 10-H ) :   0.9285
B(  0-C , 11-H ) :   0.9285 B(  1-N ,  2-C ) :   1.0575 B(  1-N ,  7-C ) :   1.0966
B(  2-C ,  3-N ) :   1.8523 B(  2-C ,  4-C ) :   0.9997 B(  3-N , 12-H ) :   0.8618
B(  4-C ,  5-N ) :   1.7438 B(  4-C , 13-H ) :   0.9352 B(  5-N ,  6-N ) :   0.9508
B(  6-N ,  7-C ) :   1.0789 B(  6-N , 14-H ) :   0.8647 B(  7-C ,  8-O ) :   1.9360

MP2 TOTAL ENERGY:     -449.424210700 Eh
FINAL SINGLE POINT ENERGY      -449.424210699517

DIPOLE MOMENT
-------------
                                X             Y             Z
Electronic contribution:      2.66541      -4.26477      -0.03892
Nuclear contribution   :     -3.20419       3.70889       0.03883
                        -----------------------------------------
Total Dipole Moment    :     -0.53878      -0.55588      -0.00009
                        -----------------------------------------
Magnitude (a.u.)       :      0.77413
Magnitude (Debye)      :      1.96769

                             ****ORCA TERMINATED NORMALLY****
TOTAL RUN TIME: 0 days 0 hours 16 minutes 13 seconds 13 msec
