                         Program Version 3.0.3 - RELEASE   -
|  1> ! RI-MP2 RIJK def2-TZVP def2-TZVP/C def2-TZVP/JK TIGHTSCF
|  2> % maxcore 2000
|  3> % mp2 density relaxed end
|  4> *xyz 0 1
|  5>  C       -0.0240046433     1.5246511489     0.0944548762
|  6>  C        0.0223364652     0.0108285817     0.0488829574
|  7>  C        0.8770875226    -0.6727097410    -0.9446808057
|  8>  O        1.2976050863    -0.5662301508     0.4102911861
|  9>  C       -1.1425522392    -0.6693176123     0.5629460597
| 10>  C       -2.1352303573    -1.1971535099     1.0006422397
| 11>  C       -3.3074197014    -1.8330205821     1.5245913605
| 12>  C       -4.2167991094    -2.6418616361     0.6101094974
| 13>  C       -3.3724360815    -3.3499204066     1.6255957907
| 14>  H        0.9056693468     1.9415696746    -0.3006990203
| 15>  H       -0.8651689485     1.9012449300    -0.4952568166
| 16>  H       -0.1508818021     1.8690570493     1.1249252318
| 17>  H        0.6119206239    -1.6744847930    -1.2783501196
| 18>  H        1.4352569959    -0.0718191975    -1.6629765850
| 19>  H       -3.8064300210    -1.2874725084     2.3203153909
| 20>  H       -5.2842902121    -2.5655830087     0.7830584285
| 21>  H       -3.9290858367    -2.7118660719    -0.4319646192
| 22>  H       -2.5081040170    -3.9020578753     1.2770300030
| 23>  H       -3.8531492314    -3.7652646610     2.5039771047
| 24> *
| 25>
| 26>                          ****END OF INPUT****

CARTESIAN COORDINATES (ANGSTROEM)
---------------------------------
  C     -0.024005    1.524651    0.094455
  C      0.022336    0.010829    0.048883
  C      0.877088   -0.672710   -0.944681
  O      1.297605   -0.566230    0.410291
  C     -1.142552   -0.669318    0.562946
  C     -2.135230   -1.197154    1.000642
  C     -3.307420   -1.833021    1.524591
  C     -4.216799   -2.641862    0.610109
  C     -3.372436   -3.349920    1.625596
  H      0.905669    1.941570   -0.300699
  H     -0.865169    1.901245   -0.495257
  H     -0.150882    1.869057    1.124925
  H      0.611921   -1.674485   -1.278350
  H      1.435257   -0.071819   -1.662977
  H     -3.806430   -1.287473    2.320315
  H     -5.284290   -2.565583    0.783058
  H     -3.929086   -2.711866   -0.431965
  H     -2.508104   -3.902058    1.277030
  H     -3.853149   -3.765265    2.503977

 Total Charge           Charge          ....    0
 Multiplicity           Mult            ....    1
 Number of Electrons    NEL             ....   66
 Basis Dimension        Dim             ....  339

ORBITAL ENERGIES
----------------

  NO   OCC          E(Eh)            E(eV)
   0   2.0000     -20.568754      -559.7043
   1   2.0000     -11.313265      -307.8496
   2   2.0000     -11.285986      -307.1073
   3   2.0000     -11.258832      -306.3684
   4   2.0000     -11.240957      -305.8820
   5   2.0000     -11.240150      -305.8600
   6   2.0000     -11.232256      -305.6452
   7   2.0000     -11.227905      -305.5268
   8   2.0000     -11.221132      -305.3425
   9   2.0000      -1.412709       -38.4418
  10   2.0000      -1.159732       -31.5579
  11   2.0000      -1.056309       -28.7436
  12   2.0000      -0.998026       -27.1577
  13   2.0000      -0.913449       -24.8562
  14   2.0000      -0.881933       -23.9986
  15   2.0000      -0.833676       -22.6855
  16   2.0000      -0.825885       -22.4735
  17   2.0000      -0.715591       -19.4722
  18   2.0000      -0.696330       -18.9481
  19   2.0000      -0.658024       -17.9058
  20   2.0000      -0.654231       -17.8025
  21   2.0000      -0.595478       -16.2038
  22   2.0000      -0.567659       -15.4468
  23   2.0000      -0.562074       -15.2948
  24   2.0000      -0.546959       -14.8835
  25   2.0000      -0.530790       -14.4435
  26   2.0000      -0.527765       -14.3612
  27   2.0000      -0.483086       -13.1454
  28   2.0000      -0.465552       -12.6683
  29   2.0000      -0.452872       -12.3233
  30   2.0000      -0.447030       -12.1643
  31   2.0000      -0.369388       -10.0516
  32   2.0000      -0.349194        -9.5020
  33   0.0000       0.142444         3.8761
  34   0.0000       0.151828         4.1314
  35   0.0000       0.164461         4.4752
  36   0.0000       0.165207         4.4955
  37   0.0000       0.180816         4.9203

MULLIKEN ATOMIC CHARGES
-----------------------
   0 C :   -0.409283
   1 C :   -0.026346
   2 C :   -0.042572
   3 O :   -0.317704
   4 C :    0.064648
   5 C :    0.086036
   6 C :   -0.235284
   7 C :   -0.234324
   8 C :   -0.228626
   9 H :    0.138630
  10 H :    0.137327
  11 H :    0.141705
  12 H :    0.118778
  13 H :    0.113837
  14 H :    0.139071
  15 H :    0.134834
  16 H :    0.140495
  17 H :    0.143158
  18 H :    0.135621
Sum of atomic charges:    0.0000000

LOEWDIN ATOMIC CHARGES
----------------------
   0 C :   -0.250672
   1 C :   -0.338802
   2 C :   -0.235331
   3 O :    0.170691
   4 C :   -0.027453
   5 C :   -0.040707
   6 C :   -0.213382
   7 C :   -0.206905
   8 C :   -0.204725
   9 H :    0.131815
  10 H :    0.133475
  11 H :    0.133966
  12 H :    0.123477
  13 H :    0.120421
  14 H :    0.162188
  15 H :    0.132940
  16 H :    0.137270
  17 H :    0.138434
  18 H :    0.133302

  Mayer bond orders larger than 0.1
B(  0-C ,  1-C ) :   0.9415 B(  0-C ,  9-H ) :   0.9350 B(  0-C , 10-H ) :   0.9322
B(  0-C , 11-H ) :   0.9372 B(  1-C ,  2-C ) :   0.9895 B(  1-C ,  3-O ) :   0.9333
B(  1-C ,  4-C ) :   1.0787 B(  1-C ,  5-C ) :  -0.1856 B(  2-C ,  3-O ) :   0.8946
B(  2-C , 12-H ) :   0.9119 B(  2-C , 13-H ) :   0.9082 B(  4-C ,  5-C ) :   2.6025
B(  4-C ,  6-C ) :  -0.1239 B(  5-C ,  6-C ) :   1.0800 B(  6-C ,  7-C ) :   0.8587
B(  6-C ,  8-C ) :   0.8595 B(  6-C , 14-H ) :   0.9361 B(  7-C ,  8-C ) :   0.9001
B(  7-C , 15-H ) :   0.9305 B(  7-C , 16-H ) :   0.9333 B(  8-C , 17-H ) :   0.9331
B(  8-C , 18-H ) :   0.9311

MP2 TOTAL ENERGY:     -385.137590645 Eh
FINAL SINGLE POINT ENERGY      -385.137590645270

DIPOLE MOMENT
-------------
                                X             Y             Z
Electronic contribution:      3.56068       0.00774       0.93121
Nuclear contribution   :     -4.30485       0.00852      -1.37197
                        -----------------------------------------
Total Dipole Moment    :     -0.74418       0.01625      -0.44076
                        -----------------------------------------
Magnitude (a.u.)       :      0.86506
Magnitude (Debye)      :      2.19881

                             ****ORCA TERMINATED NORMALLY****
TOTAL RUN TIME: 0 days 0 hours 14 minutes 48 seconds 770 msec
