                         Program Version 3.0.3 - RELEASE   -
|  1> ! RI-MP2 RIJK def2-TZVP def2-TZVP/C def2-TZVP/JK TIGHTSCF
|  2> % maxcore 2000
|  3> % mp2 density relaxed end
|  4> *xyz 0 1
|  5>  C        0.5448590780     1.6138090854    -0.3063416464
|  6>  C       -0.0424821491     0.2237815549    -0.0052268514
|  7>  C        0.2464730061    -0.8128301459    -1.1094169890
|  8>  C       -0.3653966978    -0.4702470496    -2.3872611688
|  9>  C       -0.8979768537    -0.1654276315    -3.4248934956
| 10>  C       -1.4826199885     0.1979929996    -4.7154713977
| 11>  O       -0.7882488060     1.2470122598    -5.3780864746
| 12>  C        0.4499543041    -0.2610627108     1.3436791765
| 13>  O        1.0031730072    -1.3123428365     1.5430777326
| 14>  H        1.6342461905     1.5636266594    -0.4096143818
| 15>  H        0.1310396292     2.0005290108    -1.2403931480
| 16>  H        0.3125050587     2.3247602513     0.4927574847
| 17>  H       -1.1323886300     0.3399718880     0.0975345502
| 18>  H        1.3325863097    -0.9157724270    -1.2265105859
| 19>  H       -0.1029672774    -1.7964782632    -0.7763601727
| 20>  H       -1.5504797599    -0.7001452696    -5.3502272733
| 21>  H       -2.5067351680     0.5626918646    -4.5781253119
| 22>  H        0.1396908274     0.9934914957    -5.4204878039
| 23>  H        0.2628021993     0.4542127445     2.1783150270
| 24> *
| 25>
| 26>                          ****END OF INPUT****

CARTESIAN COORDINATES (ANGSTROEM)
---------------------------------
  C      0.544859    1.613809   -0.306342
  C     -0.042482    0.223782   -0.005227
  C      0.246473   -0.812830   -1.109417
  C     -0.365397   -0.470247   -2.387261
  C     -0.897977   -0.165428   -3.424893
  C     -1.482620    0.197993   -4.715471
  O     -0.788249    1.247012   -5.378086
  C      0.449954   -0.261063    1.343679
  O      1.003173   -1.312343    1.543078
  H      1.634246    1.563627   -0.409614
  H      0.131040    2.000529   -1.240393
  H      0.312505    2.324760    0.492757
  H     -1.132389    0.339972    0.097535
  H      1.332586   -0.915772   -1.226511
  H     -0.102967   -1.796478   -0.776360
  H     -1.550480   -0.700145   -5.350227
  H     -2.506735    0.562692   -4.578125
  H      0.139691    0.993491   -5.420488
  H      0.262802    0.454213    2.178315

 Total Charge           Charge          ....    0
 Multiplicity           Mult            ....    1
 Number of Electrons    NEL             ....   68
 Basis Dimension        Dim             ....  339

ORBITAL ENERGIES
----------------

  NO   OCC          E(Eh)            E(eV)
   0   2.0000     -20.567152      -559.6607
   1   2.0000     -20.564338      -559.5841
   2   2.0000     -11.337685      -308.5141
   3   2.0000     -11.307078      -307.6812
   4   2.0000     -11.260059      -306.4018
   5   2.0000     -11.258369      -306.3558
   6   2.0000     -11.236946      -305.7729
   7   2.0000     -11.236548      -305.7620
   8   2.0000     -11.227754      -305.5227
   9   2.0000      -1.403857       -38.2009
  10   2.0000      -1.371223       -37.3129
  11   2.0000      -1.116829       -30.3905
  12   2.0000      -1.051497       -28.6127
  13   2.0000      -0.984273       -26.7834
  14   2.0000      -0.926957       -25.2238
  15   2.0000      -0.893904       -24.3244
  16   2.0000      -0.777283       -21.1509
  17   2.0000      -0.727110       -19.7857
  18   2.0000      -0.697697       -18.9853
  19   2.0000      -0.662784       -18.0353
  20   2.0000      -0.655552       -17.8385
  21   2.0000      -0.643071       -17.4989
  22   2.0000      -0.619492       -16.8572
  23   2.0000      -0.607609       -16.5339
  24   2.0000      -0.578295       -15.7362
  25   2.0000      -0.560256       -15.2454
  26   2.0000      -0.539890       -14.6911
  27   2.0000      -0.538340       -14.6490
  28   2.0000      -0.515579       -14.0296
  29   2.0000      -0.495906       -13.4943
  30   2.0000      -0.477259       -12.9869
  31   2.0000      -0.429012       -11.6740
  32   2.0000      -0.386218       -10.5095
  33   2.0000      -0.376931       -10.2568
  34   0.0000       0.115863         3.1528
  35   0.0000       0.134309         3.6547
  36   0.0000       0.142903         3.8886
  37   0.0000       0.161508         4.3949
  38   0.0000       0.164477         4.4756

MULLIKEN ATOMIC CHARGES
-----------------------
   0 C :   -0.430422
   1 C :    0.024759
   2 C :   -0.401273
   3 C :    0.011872
   4 C :   -0.042333
   5 C :   -0.061939
   6 O :   -0.461536
   7 C :    0.078810
   8 O :   -0.267392
   9 H :    0.133555
  10 H :    0.165460
  11 H :    0.137553
  12 H :    0.113396
  13 H :    0.153705
  14 H :    0.167417
  15 H :    0.133625
  16 H :    0.136301
  17 H :    0.319464
  18 H :    0.088979
Sum of atomic charges:   -0.0000000

LOEWDIN ATOMIC CHARGES
----------------------
   0 C :   -0.280135
   1 C :   -0.272677
   2 C :   -0.224018
   3 C :   -0.072992
   4 C :   -0.095023
   5 C :   -0.335098
   6 O :   -0.043848
   7 C :   -0.272458
   8 O :    0.137754
   9 H :    0.127915
  10 H :    0.134763
  11 H :    0.126260
  12 H :    0.169918
  13 H :    0.162622
  14 H :    0.165336
  15 H :    0.134334
  16 H :    0.144529
  17 H :    0.176936
  18 H :    0.115881

  Mayer bond orders larger than 0.1
B(  0-C ,  1-C ) :   0.9019 B(  0-C ,  9-H ) :   0.9286 B(  0-C , 10-H ) :   0.9308
B(  0-C , 11-H ) :   0.9324 B(  1-C ,  2-C ) :   0.9077 B(  1-C ,  7-C ) :   0.8535
B(  1-C , 12-H ) :   0.9035 B(  2-C ,  3-C ) :   0.9909 B(  2-C ,  4-C ) :  -0.1135
B(  2-C , 13-H ) :   0.9369 B(  2-C , 14-H ) :   0.9337 B(  3-C ,  4-C ) :   2.7198
B(  4-C ,  5-C ) :   0.8669 B(  5-C ,  6-O ) :   0.9476 B(  5-C , 15-H ) :   0.9795
B(  5-C , 16-H ) :   0.9228 B(  6-O , 17-H ) :   0.8430 B(  7-C ,  8-O ) :   1.9892
B(  7-C , 18-H ) :   0.9527

MP2 TOTAL ENERGY:     -422.289392767 Eh
FINAL SINGLE POINT ENERGY      -422.289392767182

DIPOLE MOMENT
-------------
                                X             Y             Z
Electronic contribution:      0.02665      -3.64519      -0.00081
Nuclear contribution   :     -0.14395       3.95039       0.01415
                        -----------------------------------------
Total Dipole Moment    :     -0.11731       0.30520       0.01334
                        -----------------------------------------
Magnitude (a.u.)       :      0.32724
Magnitude (Debye)      :      0.83178

                             ****ORCA TERMINATED NORMALLY****
TOTAL RUN TIME: 0 days 0 hours 14 minutes 18 seconds 198 msec
