                         Program Version 3.0.3 - RELEASE   -
|  1> ! RI-MP2 RIJK def2-TZVP def2-TZVP/C def2-TZVP/JK TIGHTSCF
|  2> % maxcore 2000
|  3> % mp2 density relaxed end
|  4> *xyz 0 1
|  5>  C       -0.1480649811     1.3428904610     0.0862186738
|  6>  N        1.3253957260     1.6170248574    -0.2212807786
|  7>  C        2.3238684004     0.4577774709     0.0014184715
|  8>  C        2.4219558025    -0.8170649093     0.8270244018
|  9>  N        1.7109892053    -1.0722814719     2.0833730121
| 10>  C        1.2852682485    -1.7840899281     0.8379565177
| 11>  C        0.0092686856    -1.1310643538     0.4269850760
| 12>  C        0.0891648450    -0.0742300125    -0.3915864903
| 13>  C        1.3485973974     0.4029344038    -1.0962025163
| 14>  H       -0.4656244642     1.4763317873     1.1236117900
| 15>  H       -0.6989821240     2.0155062047    -0.5781948150
| 16>  H        3.2951282556     0.9013030601    -0.2022788622
| 17>  H        3.4274726526    -1.2287066197     0.7504764115
| 18>  H        2.2639038637    -1.6955730847     2.6691042689
| 19>  H        1.4765734896    -2.8506871636     0.7670125234
| 20>  H       -0.8004515390    -1.1741634638     1.1526125167
| 21>  H        1.5360339761     0.4443029723    -2.1643892711
| 22> *
| 23>
| 24>                          ****END OF INPUT****

CARTESIAN COORDINATES (ANGSTROEM)
---------------------------------
  C     -0.148065    1.342890    0.086219
  N      1.325396    1.617025   -0.221281
  C      2.323868    0.457777    0.001418
  C      2.421956   -0.817065    0.827024
  N      1.710989   -1.072281    2.083373
  C      1.285268   -1.784090    0.837957
  C      0.009269   -1.131064    0.426985
  C      0.089165   -0.074230   -0.391586
  C      1.348597    0.402934   -1.096203
  H     -0.465624    1.476332    1.123612
  H     -0.698982    2.015506   -0.578195
  H      3.295128    0.901303   -0.202279
  H      3.427473   -1.228707    0.750476
  H      2.263904   -1.695573    2.669104
  H      1.476573   -2.850687    0.767013
  H     -0.800452   -1.174163    1.152613
  H      1.536034    0.444303   -2.164389

 Total Charge           Charge          ....    0
 Multiplicity           Mult            ....    1
 Number of Electrons    NEL             ....   64
 Basis Dimension        Dim             ....  327

ORBITAL ENERGIES
----------------

  NO   OCC          E(Eh)            E(eV)
   0   2.0000     -15.572267      -423.7429
   1   2.0000     -15.569778      -423.6752
   2   2.0000     -11.277594      -306.8789
   3   2.0000     -11.273784      -306.7753
   4   2.0000     -11.272399      -306.7376
   5   2.0000     -11.266854      -306.5867
   6   2.0000     -11.262550      -306.4696
   7   2.0000     -11.243180      -305.9425
   8   2.0000     -11.233979      -305.6921
   9   2.0000      -1.300022       -35.3754
  10   2.0000      -1.263170       -34.3726
  11   2.0000      -1.059320       -28.8256
  12   2.0000      -1.002472       -27.2787
  13   2.0000      -0.905431       -24.6380
  14   2.0000      -0.889894       -24.2153
  15   2.0000      -0.837405       -22.7870
  16   2.0000      -0.760357       -20.6904
  17   2.0000      -0.719695       -19.5839
  18   2.0000      -0.705637       -19.2013
  19   2.0000      -0.654251       -17.8031
  20   2.0000      -0.628747       -17.1091
  21   2.0000      -0.624899       -17.0044
  22   2.0000      -0.584968       -15.9178
  23   2.0000      -0.541077       -14.7235
  24   2.0000      -0.522822       -14.2267
  25   2.0000      -0.493494       -13.4286
  26   2.0000      -0.473707       -12.8902
  27   2.0000      -0.454722       -12.3736
  28   2.0000      -0.421547       -11.4709
  29   2.0000      -0.407551       -11.0900
  30   2.0000      -0.365796        -9.9538
  31   2.0000      -0.338079        -9.1996
  32   0.0000       0.113462         3.0875
  33   0.0000       0.133887         3.6433
  34   0.0000       0.164515         4.4767
  35   0.0000       0.174148         4.7388
  36   0.0000       0.180757         4.9187

MULLIKEN ATOMIC CHARGES
-----------------------
   0 C :   -0.110853
   1 N :   -0.213202
   2 C :   -0.148290
   3 C :   -0.014250
   4 N :   -0.365973
   5 C :   -0.063566
   6 C :   -0.199444
   7 C :    0.031113
   8 C :   -0.023438
   9 H :    0.117675
  10 H :    0.127931
  11 H :    0.119745
  12 H :    0.123412
  13 H :    0.217950
  14 H :    0.138231
  15 H :    0.120828
  16 H :    0.142132
Sum of atomic charges:    0.0000000

LOEWDIN ATOMIC CHARGES
----------------------
   0 C :   -0.192806
   1 N :    0.138101
   2 C :   -0.199568
   3 C :   -0.239861
   4 N :    0.017585
   5 C :   -0.230027
   6 C :   -0.123527
   7 C :   -0.144865
   8 C :   -0.171876
   9 H :    0.126973
  10 H :    0.135273
  11 H :    0.153318
  12 H :    0.146268
  13 H :    0.167302
  14 H :    0.135583
  15 H :    0.148204
  16 H :    0.133920

  Mayer bond orders larger than 0.1
B(  0-C ,  1-N ) :   0.8887 B(  0-C ,  7-C ) :   0.9578 B(  0-C ,  9-H ) :   0.9130
B(  0-C , 10-H ) :   0.9148 B(  1-N ,  2-C ) :   0.9108 B(  1-N ,  8-C ) :   0.8596
B(  2-C ,  3-C ) :   0.9035 B(  2-C ,  8-C ) :   0.9141 B(  2-C , 11-H ) :   0.9471
B(  3-C ,  4-N ) :   0.9721 B(  3-C ,  5-C ) :   0.9389 B(  3-C , 12-H ) :   0.9127
B(  4-N ,  5-C ) :   0.8849 B(  4-N , 13-H ) :   0.8651 B(  5-C ,  6-C ) :   0.9677
B(  5-C , 14-H ) :   0.9113 B(  6-C ,  7-C ) :   1.7166 B(  6-C , 15-H ) :   0.9165
B(  7-C ,  8-C ) :   0.9158 B(  8-C , 16-H ) :   0.8910

MP2 TOTAL ENERGY:     -380.056004849 Eh
FINAL SINGLE POINT ENERGY      -380.056004849214

DIPOLE MOMENT
-------------
                                X             Y             Z
Electronic contribution:     -0.25843       0.28944      -0.96816
Nuclear contribution   :      0.62965      -1.11798       0.93748
                        -----------------------------------------
Total Dipole Moment    :      0.37122      -0.82854      -0.03068
                        -----------------------------------------
Magnitude (a.u.)       :      0.90842
Magnitude (Debye)      :      2.30901

                             ****ORCA TERMINATED NORMALLY****
TOTAL RUN TIME: 0 days 0 hours 19 minutes 34 seconds 293 msec
