                         Program Version 3.0.3 - RELEASE   -
|  1> ! RI-MP2 RIJK def2-TZVP def2-TZVP/C def2-TZVP/JK TIGHTSCF
|  2> % maxcore 2000
|  3> % mp2 density relaxed end
|  4> *xyz 0 1
|  5>  C       -0.0083049541     1.6095037707    -0.0410190288
|  6>  C        0.0588508791     0.0755247897     0.0128723073
|  7>  C        0.7266516283    -0.4886626860    -1.2670786156
|  8>  C        0.2733894170    -1.9047600274    -1.6544342727
|  9>  C        0.5899423780    -3.0269822893    -0.6551248705
| 10>  C       -0.0366667687    -2.8355059071     0.7418525551
| 11>  C        0.6480330715    -1.7778559168     1.5744082047
| 12>  C        0.7245793760    -0.4770976539     1.2743411243
| 13>  C        1.5091027780     0.4610154394     2.1578522936
| 14>  H        0.9876321772     2.0599094851    -0.1086219036
| 15>  H       -0.5724780830     1.9279742208    -0.9232914224
| 16>  H       -0.5066546339     2.0290020475     0.8380367009
| 17>  H       -0.9802891410    -0.2862035691     0.0105433990
| 18>  H        0.4896957037     0.1773022478    -2.1067143286
| 19>  H        1.8175791388    -0.4587335525    -1.1489609804
| 20>  H       -0.8135041613    -1.8836639161    -1.8209802314
| 21>  H        0.7196773056    -2.1624061499    -2.6230724859
| 22>  H        0.2273751992    -3.9716940257    -1.0794673633
| 23>  H        1.6767927016    -3.1325085715    -0.5449215751
| 24>  H       -1.1046122525    -2.5995357312     0.6181483571
| 25>  H       -0.0014041684    -3.7885447589     1.2796562970
| 26>  H        1.1512487874    -2.1273325654     2.4739152289
| 27>  H        1.9584225984    -0.0793749645     2.9949904255
| 28>  H        2.3190515957     0.9553063615     1.6061607874
| 29>  H        0.8853359673     1.2623416327     2.5711114576
| 30> *
| 31>
| 32>                          ****END OF INPUT****

CARTESIAN COORDINATES (ANGSTROEM)
---------------------------------
  C     -0.008305    1.609504   -0.041019
  C      0.058851    0.075525    0.012872
  C      0.726652   -0.488663   -1.267079
  C      0.273389   -1.904760   -1.654434
  C      0.589942   -3.026982   -0.655125
  C     -0.036667   -2.835506    0.741853
  C      0.648033   -1.777856    1.574408
  C      0.724579   -0.477098    1.274341
  C      1.509103    0.461015    2.157852
  H      0.987632    2.059909   -0.108622
  H     -0.572478    1.927974   -0.923291
  H     -0.506655    2.029002    0.838037
  H     -0.980289   -0.286204    0.010543
  H      0.489696    0.177302   -2.106714
  H      1.817579   -0.458734   -1.148961
  H     -0.813504   -1.883664   -1.820980
  H      0.719677   -2.162406   -2.623072
  H      0.227375   -3.971694   -1.079467
  H      1.676793   -3.132509   -0.544922
  H     -1.104612   -2.599536    0.618148
  H     -0.001404   -3.788545    1.279656
  H      1.151249   -2.127333    2.473915
  H      1.958423   -0.079375    2.994990
  H      2.319052    0.955306    1.606161
  H      0.885336    1.262342    2.571111

 Total Charge           Charge          ....    0
 Multiplicity           Mult            ....    1
 Number of Electrons    NEL             ....   70
 Basis Dimension        Dim             ....  375

ORBITAL ENERGIES
----------------

  NO   OCC          E(Eh)            E(eV)
   0   2.0000     -11.226039      -305.4760
   1   2.0000     -11.223101      -305.3961
   2   2.0000     -11.216234      -305.2092
   3   2.0000     -11.214911      -305.1732
   4   2.0000     -11.214417      -305.1598
   5   2.0000     -11.213933      -305.1466
   6   2.0000     -11.213911      -305.1460
   7   2.0000     -11.211165      -305.0713
   8   2.0000     -11.206152      -304.9349
   9   2.0000      -1.120058       -30.4783
  10   2.0000      -1.047674       -28.5087
  11   2.0000      -1.035308       -28.1722
  12   2.0000      -0.960108       -26.1259
  13   2.0000      -0.926565       -25.2131
  14   2.0000      -0.848633       -23.0925
  15   2.0000      -0.833684       -22.6857
  16   2.0000      -0.763960       -20.7884
  17   2.0000      -0.687972       -18.7207
  18   2.0000      -0.638719       -17.3804
  19   2.0000      -0.634132       -17.2556
  20   2.0000      -0.601186       -16.3591
  21   2.0000      -0.575064       -15.6483
  22   2.0000      -0.568240       -15.4626
  23   2.0000      -0.567343       -15.4382
  24   2.0000      -0.546986       -14.8842
  25   2.0000      -0.539033       -14.6678
  26   2.0000      -0.525671       -14.3042
  27   2.0000      -0.516345       -14.0505
  28   2.0000      -0.484831       -13.1929
  29   2.0000      -0.474090       -12.9007
  30   2.0000      -0.457382       -12.4460
  31   2.0000      -0.451105       -12.2752
  32   2.0000      -0.444776       -12.1030
  33   2.0000      -0.437319       -11.9001
  34   2.0000      -0.323990        -8.8162
  35   0.0000       0.137198         3.7334
  36   0.0000       0.146879         3.9968
  37   0.0000       0.155915         4.2427
  38   0.0000       0.164130         4.4662
  39   0.0000       0.170586         4.6419

MULLIKEN ATOMIC CHARGES
-----------------------
   0 C :   -0.393656
   1 C :    0.008851
   2 C :   -0.219363
   3 C :   -0.243223
   4 C :   -0.178267
   5 C :   -0.216182
   6 C :   -0.206088
   7 C :   -0.028559
   8 C :   -0.421192
   9 H :    0.124517
  10 H :    0.134234
  11 H :    0.135504
  12 H :    0.086584
  13 H :    0.113685
  14 H :    0.107372
  15 H :    0.105263
  16 H :    0.119176
  17 H :    0.115879
  18 H :    0.103344
  19 H :    0.116874
  20 H :    0.126165
  21 H :    0.109012
  22 H :    0.132019
  23 H :    0.133705
  24 H :    0.134349
Sum of atomic charges:   -0.0000000

LOEWDIN ATOMIC CHARGES
----------------------
   0 C :   -0.291937
   1 C :   -0.236276
   2 C :   -0.235581
   3 C :   -0.271462
   4 C :   -0.263520
   5 C :   -0.256651
   6 C :   -0.160539
   7 C :   -0.173121
   8 C :   -0.273456
   9 H :    0.123572
  10 H :    0.123097
  11 H :    0.122435
  12 H :    0.160130
  13 H :    0.138954
  14 H :    0.139941
  15 H :    0.136970
  16 H :    0.137201
  17 H :    0.135876
  18 H :    0.137490
  19 H :    0.143157
  20 H :    0.139846
  21 H :    0.141168
  22 H :    0.127763
  23 H :    0.127791
  24 H :    0.127152

  Mayer bond orders larger than 0.1
B(  0-C ,  1-C ) :   0.9024 B(  0-C ,  9-H ) :   0.9313 B(  0-C , 10-H ) :   0.9384
B(  0-C , 11-H ) :   0.9499 B(  1-C ,  2-C ) :   0.8876 B(  1-C ,  7-C ) :   0.9029
B(  1-C , 12-H ) :   0.9273 B(  2-C ,  3-C ) :   0.9395 B(  2-C , 13-H ) :   0.9294
B(  2-C , 14-H ) :   0.9192 B(  3-C ,  4-C ) :   0.9361 B(  3-C , 15-H ) :   0.9357
B(  3-C , 16-H ) :   0.9325 B(  4-C ,  5-C ) :   0.9033 B(  4-C , 17-H ) :   0.9332
B(  4-C , 18-H ) :   0.9273 B(  5-C ,  6-C ) :   0.9325 B(  5-C , 19-H ) :   0.9299
B(  5-C , 20-H ) :   0.9363 B(  6-C ,  7-C ) :   1.7612 B(  6-C , 21-H ) :   0.9263
B(  7-C ,  8-C ) :   0.9030 B(  8-C , 22-H ) :   0.9410 B(  8-C , 23-H ) :   0.9349
B(  8-C , 24-H ) :   0.9287

MP2 TOTAL ENERGY:     -351.727908236 Eh
FINAL SINGLE POINT ENERGY      -351.727908236361

DIPOLE MOMENT
-------------
                                X             Y             Z
Electronic contribution:     -0.24132      -2.24614       1.34046
Nuclear contribution   :      0.22818       2.27984      -1.44861
                        -----------------------------------------
Total Dipole Moment    :     -0.01313       0.03369      -0.10815
                        -----------------------------------------
Magnitude (a.u.)       :      0.11404
Magnitude (Debye)      :      0.28986

                             ****ORCA TERMINATED NORMALLY****
TOTAL RUN TIME: 0 days 0 hours 24 minutes 52 seconds 556 msec
