                         Program Version 3.0.3 - RELEASE   -
|  1> ! RI-MP2 RIJK def2-TZVP def2-TZVP/C def2-TZVP/JK TIGHTSCF
|  2> % maxcore 2000
|  3> % mp2 density relaxed end
|  4> *xyz 0 1
|  5>  C        0.0316751075     1.3495830643    -0.0262437653
|  6>  C       -0.0021892954    -0.1378481466     0.0279753769
|  7>  O        0.9897250073    -0.8978841023    -0.6887881327
|  8>  C        0.1607281844    -2.0744359326    -0.4610262637
|  9>  C        0.3550925219    -2.3098058511     1.0631971777
| 10>  O        1.6664878737    -2.4278893328     1.5251519478
| 11>  C       -0.4159901408    -0.9983562976     1.2545197715
| 12>  C       -1.0783645597    -1.1511226380    -0.1187433606
| 13>  O       -2.3663889690    -1.0489141648    -0.5633267368
| 14>  H        0.9339899818     1.7394734938     0.4562330682
| 15>  H        0.0130627447     1.6997178471    -1.0626127760
| 16>  H       -0.8386309398     1.7622592238     0.4916979724
| 17>  H        0.2785857587    -2.8477445734    -1.2167330779
| 18>  H       -0.2150280877    -3.1711575174     1.4218841393
| 19>  H        2.1735591339    -1.7814319430     1.0144515038
| 20>  H       -0.8092954404    -0.5533694419     2.1600279595
| 21>  H       -2.9248700411    -1.6402380274    -0.0458381242
| 22> *
| 23>
| 24>                          ****END OF INPUT****

CARTESIAN COORDINATES (ANGSTROEM)
---------------------------------
  C      0.031675    1.349583   -0.026244
  C     -0.002189   -0.137848    0.027975
  O      0.989725   -0.897884   -0.688788
  C      0.160728   -2.074436   -0.461026
  C      0.355093   -2.309806    1.063197
  O      1.666488   -2.427889    1.525152
  C     -0.415990   -0.998356    1.254520
  C     -1.078365   -1.151123   -0.118743
  O     -2.366389   -1.048914   -0.563327
  H      0.933990    1.739473    0.456233
  H      0.013063    1.699718   -1.062613
  H     -0.838631    1.762259    0.491698
  H      0.278586   -2.847745   -1.216733
  H     -0.215028   -3.171158    1.421884
  H      2.173559   -1.781432    1.014452
  H     -0.809295   -0.553369    2.160028
  H     -2.924870   -1.640238   -0.045838

 Total Charge           Charge          ....    0
 Multiplicity           Mult            ....    1
 Number of Electrons    NEL             ....   68
 Basis Dimension        Dim             ....  327

ORBITAL ENERGIES
----------------

  NO   OCC          E(Eh)            E(eV)
   0   2.0000     -20.593563      -560.3793
   1   2.0000     -20.564950      -559.6007
   2   2.0000     -20.553972      -559.3020
   3   2.0000     -11.305801      -307.6465
   4   2.0000     -11.301534      -307.5304
   5   2.0000     -11.297628      -307.4241
   6   2.0000     -11.293098      -307.3008
   7   2.0000     -11.243551      -305.9526
   8   2.0000     -11.233150      -305.6695
   9   2.0000      -1.426219       -38.8094
  10   2.0000      -1.394295       -37.9407
  11   2.0000      -1.359712       -36.9997
  12   2.0000      -1.150845       -31.3161
  13   2.0000      -1.031186       -28.0600
  14   2.0000      -0.932606       -25.3775
  15   2.0000      -0.885798       -24.1038
  16   2.0000      -0.792256       -21.5584
  17   2.0000      -0.766079       -20.8461
  18   2.0000      -0.715700       -19.4752
  19   2.0000      -0.690009       -18.7761
  20   2.0000      -0.668439       -18.1892
  21   2.0000      -0.651541       -17.7293
  22   2.0000      -0.622255       -16.9324
  23   2.0000      -0.594507       -16.1774
  24   2.0000      -0.575837       -15.6693
  25   2.0000      -0.571947       -15.5635
  26   2.0000      -0.556678       -15.1480
  27   2.0000      -0.545127       -14.8337
  28   2.0000      -0.533145       -14.5076
  29   2.0000      -0.510308       -13.8862
  30   2.0000      -0.461985       -12.5713
  31   2.0000      -0.415056       -11.2942
  32   2.0000      -0.395168       -10.7531
  33   2.0000      -0.378523       -10.3001
  34   0.0000       0.122972         3.3462
  35   0.0000       0.144593         3.9346
  36   0.0000       0.166460         4.5296
  37   0.0000       0.179164         4.8753
  38   0.0000       0.185207         5.0397

MULLIKEN ATOMIC CHARGES
-----------------------
   0 C :   -0.442924
   1 C :    0.163667
   2 O :   -0.326176
   3 C :    0.023769
   4 C :    0.094552
   5 O :   -0.467034
   6 C :   -0.178505
   7 C :    0.063422
   8 O :   -0.434275
   9 H :    0.146255
  10 H :    0.151349
  11 H :    0.144186
  12 H :    0.141723
  13 H :    0.106347
  14 H :    0.328642
  15 H :    0.148110
  16 H :    0.336891
Sum of atomic charges:    0.0000000

LOEWDIN ATOMIC CHARGES
----------------------
   0 C :   -0.260853
   1 C :   -0.272874
   2 O :    0.177459
   3 C :   -0.178780
   4 C :   -0.316874
   5 O :   -0.005291
   6 C :   -0.127097
   7 C :   -0.269628
   8 O :    0.048487
   9 H :    0.135327
  10 H :    0.136634
  11 H :    0.140757
  12 H :    0.130339
  13 H :    0.147478
  14 H :    0.182471
  15 H :    0.140789
  16 H :    0.191658

  Mayer bond orders larger than 0.1
B(  0-C ,  1-C ) :   0.8758 B(  0-C ,  9-H ) :   0.9363 B(  0-C , 10-H ) :   0.9423
B(  0-C , 11-H ) :   0.9334 B(  1-C ,  2-O ) :   0.9415 B(  1-C ,  6-C ) :   0.7928
B(  1-C ,  7-C ) :   0.9134 B(  2-O ,  3-C ) :   0.9010 B(  3-C ,  4-C ) :   0.9155
B(  3-C ,  7-C ) :   0.9187 B(  3-C , 12-H ) :   0.9125 B(  4-C ,  5-O ) :   1.0041
B(  4-C ,  6-C ) :   0.8266 B(  4-C , 13-H ) :   0.9590 B(  5-O , 14-H ) :   0.8181
B(  6-C ,  7-C ) :   0.7809 B(  6-C , 15-H ) :   0.9138 B(  7-C ,  8-O ) :   1.0894
B(  8-O , 16-H ) :   0.8284

MP2 TOTAL ENERGY:     -458.164800837 Eh
FINAL SINGLE POINT ENERGY      -458.164800836545

DIPOLE MOMENT
-------------
                                X             Y             Z
Electronic contribution:     -0.03944      -3.50318      -1.09864
Nuclear contribution   :     -0.81756       3.61447       1.34429
                        -----------------------------------------
Total Dipole Moment    :     -0.85700       0.11129       0.24565
                        -----------------------------------------
Magnitude (a.u.)       :      0.89843
Magnitude (Debye)      :      2.28363

                             ****ORCA TERMINATED NORMALLY****
TOTAL RUN TIME: 0 days 0 hours 17 minutes 17 seconds 753 msec
