                         Program Version 3.0.3 - RELEASE   -
|  1> ! RI-MP2 RIJK def2-TZVP def2-TZVP/C def2-TZVP/JK TIGHTSCF
|  2> % maxcore 2000
|  3> % mp2 density relaxed end
|  4> *xyz 0 1
|  5>  O       -0.4862265556     1.2533320737     1.0213325482
|  6>  C       -0.0411972858     0.2023178374     0.1891704202
|  7>  C        0.6292615838    -0.9826801908     0.9258239136
|  8>  C       -0.7304261266    -1.7554004541     0.9270579725
|  9>  O       -0.7462403029    -3.0922130665     0.4896626603
| 10>  C       -1.5217473818    -1.5910044713     2.2041489446
| 11>  O       -1.5114187596    -0.5991995401     2.8996704796
| 12>  C       -1.2185289482    -0.7448974754    -0.1952066924
| 13>  O       -2.4898822411    -0.1929318736    -0.1343872897
| 14>  H       -0.7324853581     0.8675449091     1.8802746357
| 15>  H        0.5106241151     0.6613684804    -0.6325653502
| 16>  H        1.3551152849    -1.5065559872     0.3000140421
| 17>  H        1.0688757521    -0.7530240879     1.8990090314
| 18>  H       -0.1998937134    -3.6234967897     1.0796175919
| 19>  H       -2.1493514721    -2.4687576298     2.4633858503
| 20>  H       -1.0712235360    -1.2546169501    -1.1530116159
| 21>  H       -2.3799204448     0.6472578759     0.3391453778
| 22> *
| 23>
| 24>                          ****END OF INPUT****

CARTESIAN COORDINATES (ANGSTROEM)
---------------------------------
  O     -0.486227    1.253332    1.021333
  C     -0.041197    0.202318    0.189170
  C      0.629262   -0.982680    0.925824
  C     -0.730426   -1.755400    0.927058
  O     -0.746240   -3.092213    0.489663
  C     -1.521747   -1.591004    2.204149
  O     -1.511419   -0.599200    2.899670
  C     -1.218529   -0.744897   -0.195207
  O     -2.489882   -0.192932   -0.134387
  H     -0.732485    0.867545    1.880275
  H      0.510624    0.661368   -0.632565
  H      1.355115   -1.506556    0.300014
  H      1.068876   -0.753024    1.899009
  H     -0.199894   -3.623497    1.079618
  H     -2.149351   -2.468758    2.463386
  H     -1.071224   -1.254617   -1.153012
  H     -2.379920    0.647258    0.339145

 Total Charge           Charge          ....    0
 Multiplicity           Mult            ....    1
 Number of Electrons    NEL             ....   70
 Basis Dimension        Dim             ....  327

ORBITAL ENERGIES
----------------

  NO   OCC          E(Eh)            E(eV)
   0   2.0000     -20.589944      -560.2809
   1   2.0000     -20.584317      -560.1278
   2   2.0000     -20.565187      -559.6072
   3   2.0000     -20.564888      -559.5990
   4   2.0000     -11.355323      -308.9940
   5   2.0000     -11.313844      -307.8653
   6   2.0000     -11.298768      -307.4551
   7   2.0000     -11.296743      -307.4000
   8   2.0000     -11.251358      -306.1650
   9   2.0000      -1.427925       -38.8558
  10   2.0000      -1.400095       -38.0985
  11   2.0000      -1.389952       -37.8225
  12   2.0000      -1.360637       -37.0248
  13   2.0000      -1.126479       -30.6531
  14   2.0000      -0.956302       -26.0223
  15   2.0000      -0.916110       -24.9286
  16   2.0000      -0.856871       -23.3166
  17   2.0000      -0.774691       -21.0804
  18   2.0000      -0.753845       -20.5132
  19   2.0000      -0.718221       -19.5438
  20   2.0000      -0.684037       -18.6136
  21   2.0000      -0.672184       -18.2911
  22   2.0000      -0.654800       -17.8180
  23   2.0000      -0.641827       -17.4650
  24   2.0000      -0.619639       -16.8612
  25   2.0000      -0.606960       -16.5162
  26   2.0000      -0.563042       -15.3212
  27   2.0000      -0.555875       -15.1261
  28   2.0000      -0.545876       -14.8540
  29   2.0000      -0.531341       -14.4585
  30   2.0000      -0.525523       -14.3002
  31   2.0000      -0.475347       -12.9349
  32   2.0000      -0.442692       -12.0463
  33   2.0000      -0.435476       -11.8499
  34   2.0000      -0.415207       -11.2983
  35   0.0000       0.092142         2.5073
  36   0.0000       0.133590         3.6352
  37   0.0000       0.147087         4.0024
  38   0.0000       0.173270         4.7149
  39   0.0000       0.178247         4.8504

MULLIKEN ATOMIC CHARGES
-----------------------
   0 O :   -0.487067
   1 C :    0.038323
   2 C :   -0.300412
   3 C :    0.226089
   4 O :   -0.457677
   5 C :    0.059791
   6 O :   -0.315461
   7 C :    0.033774
   8 O :   -0.460203
   9 H :    0.344979
  10 H :    0.128598
  11 H :    0.135703
  12 H :    0.150675
  13 H :    0.324398
  14 H :    0.116199
  15 H :    0.122763
  16 H :    0.339527
Sum of atomic charges:   -0.0000000

LOEWDIN ATOMIC CHARGES
----------------------
   0 O :   -0.013279
   1 C :   -0.308955
   2 C :   -0.189646
   3 C :   -0.352018
   4 O :    0.022103
   5 C :   -0.244862
   6 O :    0.126295
   7 C :   -0.282565
   8 O :    0.008266
   9 H :    0.172271
  10 H :    0.134571
  11 H :    0.146690
  12 H :    0.138433
  13 H :    0.181644
  14 H :    0.124650
  15 H :    0.151286
  16 H :    0.185115

  Mayer bond orders larger than 0.1
B(  0-O ,  1-C ) :   0.9444 B(  0-O ,  9-H ) :   0.7881 B(  1-C ,  2-C ) :   0.9316
B(  1-C ,  7-C ) :   0.9063 B(  1-C , 10-H ) :   0.9451 B(  2-C ,  3-C ) :   0.8918
B(  2-C , 11-H ) :   0.9069 B(  2-C , 12-H ) :   0.9173 B(  3-C ,  4-O ) :   0.9985
B(  3-C ,  5-C ) :   0.8670 B(  3-C ,  7-C ) :   0.7624 B(  4-O , 13-H ) :   0.8366
B(  5-C ,  6-O ) :   1.8551 B(  5-C , 14-H ) :   0.9352 B(  7-C ,  8-O ) :   1.0436
B(  7-C , 15-H ) :   0.9448 B(  8-O , 16-H ) :   0.8013

MP2 TOTAL ENERGY:     -495.333980637 Eh
FINAL SINGLE POINT ENERGY      -495.333980636733

DIPOLE MOMENT
-------------
                                X             Y             Z
Electronic contribution:     -2.54810      -0.05782       1.47714
Nuclear contribution   :      3.53137      -0.82047      -1.20243
                        -----------------------------------------
Total Dipole Moment    :      0.98327      -0.87829       0.27472
                        -----------------------------------------
Magnitude (a.u.)       :      1.34673
Magnitude (Debye)      :      3.42312

                             ****ORCA TERMINATED NORMALLY****
TOTAL RUN TIME: 0 days 0 hours 17 minutes 12 seconds 668 msec
