                         Program Version 3.0.3 - RELEASE   -
|  1> ! RI-MP2 RIJK def2-TZVP def2-TZVP/C def2-TZVP/JK TIGHTSCF
|  2> % maxcore 2000
|  3> % mp2 density relaxed end
|  4> *xyz 0 1
|  5>  O        0.1323785290     1.4275695488    -0.0860291652
|  6>  C        0.0241076133     0.0381567521    -0.0283025864
|  7>  C        0.1310070223    -0.6480264421     1.3524516802
|  8>  O       -0.8261968450     0.0999727217     2.0963605926
|  9>  C       -2.0474387354    -0.1636928719     1.2824030779
| 10>  C       -2.6318602728    -1.4115694999     1.8979617930
| 11>  C       -1.7867332089    -2.4105538193     1.6088244114
| 12>  C       -0.7141822644    -1.8665008879     0.7248740741
| 13>  C       -1.3635080185    -0.6544740055    -0.0211888755
| 14>  H       -0.1985074317     1.7473836686     0.7643575184
| 15>  H        0.6842785435    -0.3956741183    -0.7828568844
| 16>  H        1.0471198910    -0.7795795635     1.9251369012
| 17>  H       -2.6535430742     0.7400058489     1.2544023669
| 18>  H       -3.4679908475    -1.4277080622     2.5844339680
| 19>  H       -1.8052801950    -3.4170515710     2.0080367592
| 20>  H       -0.1116736826    -2.5554179719     0.1358809332
| 21>  H       -1.9927449432    -0.7864618565    -0.8999659948
| 22> *
| 23>
| 24>                          ****END OF INPUT****

CARTESIAN COORDINATES (ANGSTROEM)
---------------------------------
  O      0.132379    1.427570   -0.086029
  C      0.024108    0.038157   -0.028303
  C      0.131007   -0.648026    1.352452
  O     -0.826197    0.099973    2.096361
  C     -2.047439   -0.163693    1.282403
  C     -2.631860   -1.411569    1.897962
  C     -1.786733   -2.410554    1.608824
  C     -0.714182   -1.866501    0.724874
  C     -1.363508   -0.654474   -0.021189
  H     -0.198507    1.747384    0.764358
  H      0.684279   -0.395674   -0.782857
  H      1.047120   -0.779580    1.925137
  H     -2.653543    0.740006    1.254402
  H     -3.467991   -1.427708    2.584434
  H     -1.805280   -3.417052    2.008037
  H     -0.111674   -2.555418    0.135881
  H     -1.992745   -0.786462   -0.899966

 Total Charge           Charge          ....    0
 Multiplicity           Mult            ....    1
 Number of Electrons    NEL             ....   66
 Basis Dimension        Dim             ....  327

ORBITAL ENERGIES
----------------

  NO   OCC          E(Eh)            E(eV)
   0   2.0000     -20.563276      -559.5552
   1   2.0000     -20.553624      -559.2926
   2   2.0000     -11.295154      -307.3568
   3   2.0000     -11.291646      -307.2613
   4   2.0000     -11.283968      -307.0524
   5   2.0000     -11.247684      -306.0650
   6   2.0000     -11.243480      -305.9506
   7   2.0000     -11.238388      -305.8121
   8   2.0000     -11.232439      -305.6502
   9   2.0000      -1.403099       -38.1803
  10   2.0000      -1.354876       -36.8681
  11   2.0000      -1.151974       -31.3468
  12   2.0000      -1.064981       -28.9796
  13   2.0000      -0.972026       -26.4502
  14   2.0000      -0.883498       -24.0412
  15   2.0000      -0.820645       -22.3309
  16   2.0000      -0.781939       -21.2777
  17   2.0000      -0.737556       -20.0699
  18   2.0000      -0.721247       -19.6261
  19   2.0000      -0.716374       -19.4935
  20   2.0000      -0.635587       -17.2952
  21   2.0000      -0.632703       -17.2167
  22   2.0000      -0.582628       -15.8541
  23   2.0000      -0.568023       -15.4567
  24   2.0000      -0.561237       -15.2720
  25   2.0000      -0.532538       -14.4911
  26   2.0000      -0.522672       -14.2226
  27   2.0000      -0.513474       -13.9723
  28   2.0000      -0.487776       -13.2730
  29   2.0000      -0.452048       -12.3008
  30   2.0000      -0.437621       -11.9083
  31   2.0000      -0.402605       -10.9554
  32   2.0000      -0.352719        -9.5980
  33   0.0000       0.127959         3.4820
  34   0.0000       0.144382         3.9288
  35   0.0000       0.158197         4.3048
  36   0.0000       0.174814         4.7569
  37   0.0000       0.182183         4.9575

MULLIKEN ATOMIC CHARGES
-----------------------
   0 O :   -0.469756
   1 C :    0.017938
   2 C :    0.049391
   3 O :   -0.337096
   4 C :    0.043927
   5 C :   -0.205293
   6 C :   -0.193857
   7 C :   -0.124648
   8 C :   -0.041065
   9 H :    0.331183
  10 H :    0.112546
  11 H :    0.135237
  12 H :    0.136112
  13 H :    0.136017
  14 H :    0.136180
  15 H :    0.133752
  16 H :    0.139431
Sum of atomic charges:    0.0000000

LOEWDIN ATOMIC CHARGES
----------------------
   0 O :   -0.004801
   1 C :   -0.312776
   2 C :   -0.238025
   3 O :    0.168299
   4 C :   -0.213507
   5 C :   -0.132553
   6 C :   -0.125863
   7 C :   -0.160269
   8 C :   -0.148401
   9 H :    0.182811
  10 H :    0.148355
  11 H :    0.131538
  12 H :    0.138690
  13 H :    0.136817
  14 H :    0.138383
  15 H :    0.149158
  16 H :    0.142144

  Mayer bond orders larger than 0.1
B(  0-O ,  1-C ) :   1.0080 B(  0-O ,  9-H ) :   0.8175 B(  1-C ,  2-C ) :   0.9291
B(  1-C ,  8-C ) :   0.8484 B(  1-C , 10-H ) :   0.9618 B(  2-C ,  3-O ) :   0.9502
B(  2-C ,  7-C ) :   0.8537 B(  2-C , 11-H ) :   0.9126 B(  3-O ,  4-C ) :   0.8221
B(  4-C ,  5-C ) :   0.9682 B(  4-C ,  8-C ) :   0.8973 B(  4-C , 12-H ) :   0.9211
B(  5-C ,  6-C ) :   1.7292 B(  5-C , 13-H ) :   0.9257 B(  6-C ,  7-C ) :   0.9747
B(  6-C , 14-H ) :   0.9194 B(  7-C ,  8-C ) :   0.8823 B(  7-C , 15-H ) :   0.9162
B(  8-C , 16-H ) :   0.8988

MP2 TOTAL ENERGY:     -421.102518097 Eh
FINAL SINGLE POINT ENERGY      -421.102518097272

DIPOLE MOMENT
-------------
                                X             Y             Z
Electronic contribution:      0.39492       1.58936       0.80122
Nuclear contribution   :     -0.67381      -2.30135      -0.76275
                        -----------------------------------------
Total Dipole Moment    :     -0.27889      -0.71199       0.03847
                        -----------------------------------------
Magnitude (a.u.)       :      0.76563
Magnitude (Debye)      :      1.94607

                             ****ORCA TERMINATED NORMALLY****
TOTAL RUN TIME: 0 days 0 hours 17 minutes 49 seconds 684 msec
