                         Program Version 3.0.3 - RELEASE   -
|  1> ! RI-MP2 RIJK def2-TZVP def2-TZVP/C def2-TZVP/JK TIGHTSCF
|  2> % maxcore 2000
|  3> % mp2 density relaxed end
|  4> *xyz 0 1
|  5>  N       -0.3093267999    -0.9725158470    -0.4605948688
|  6>  C       -0.1623864598     0.1641127555    -0.3103364493
|  7>  C        0.0465287176     1.5970709385    -0.1139645352
|  8>  C        1.5221452644     1.9626220817     0.1723227685
|  9>  C        2.4332306221     1.6329690806    -1.0437325374
| 10>  C        2.5746565980     2.9632811218    -1.7437878941
| 11>  C        2.1532727514     3.9741827795    -0.9861759944
| 12>  C        1.6533955134     3.5011482500     0.3586148609
| 13>  H       -0.2952937870     2.1273691237    -1.0111079626
| 14>  H       -0.5906363458     1.9270219277     0.7141657986
| 15>  H        1.8381244671     1.4211444887     1.0669545699
| 16>  H        3.4127817789     1.2587917376    -0.7172406283
| 17>  H        2.0087483093     0.8477653039    -1.6797531820
| 18>  H        3.0039984656     3.0575735777    -2.7348498506
| 19>  H        2.1859052495     5.0226949122    -1.2598786808
| 20>  H        0.7051644586     3.9671450016     0.6545362452
| 21>  H        2.3724286465     3.7465726464     1.1518601605
| 22> *
| 23>
| 24>                          ****END OF INPUT****

CARTESIAN COORDINATES (ANGSTROEM)
---------------------------------
  N     -0.309327   -0.972516   -0.460595
  C     -0.162386    0.164113   -0.310336
  C      0.046529    1.597071   -0.113965
  C      1.522145    1.962622    0.172323
  C      2.433231    1.632969   -1.043733
  C      2.574657    2.963281   -1.743788
  C      2.153273    3.974183   -0.986176
  C      1.653396    3.501148    0.358615
  H     -0.295294    2.127369   -1.011108
  H     -0.590636    1.927022    0.714166
  H      1.838124    1.421144    1.066955
  H      3.412782    1.258792   -0.717241
  H      2.008748    0.847765   -1.679753
  H      3.003998    3.057574   -2.734850
  H      2.185905    5.022695   -1.259879
  H      0.705164    3.967145    0.654536
  H      2.372429    3.746573    1.151860

 Total Charge           Charge          ....    0
 Multiplicity           Mult            ....    1
 Number of Electrons    NEL             ....   58
 Basis Dimension        Dim             ....  302

ORBITAL ENERGIES
----------------

  NO   OCC          E(Eh)            E(eV)
   0   2.0000     -15.565314      -423.5537
   1   2.0000     -11.278687      -306.9087
   2   2.0000     -11.269922      -306.6702
   3   2.0000     -11.257699      -306.3376
   4   2.0000     -11.242416      -305.9217
   5   2.0000     -11.237572      -305.7899
   6   2.0000     -11.236601      -305.7635
   7   2.0000     -11.234896      -305.7171
   8   2.0000      -1.216201       -33.0945
   9   2.0000      -1.157452       -31.4959
  10   2.0000      -1.055785       -28.7294
  11   2.0000      -0.974861       -26.5273
  12   2.0000      -0.945356       -25.7244
  13   2.0000      -0.794582       -21.6217
  14   2.0000      -0.746620       -20.3166
  15   2.0000      -0.704521       -19.1710
  16   2.0000      -0.687930       -18.7195
  17   2.0000      -0.650262       -17.6945
  18   2.0000      -0.608398       -16.5553
  19   2.0000      -0.566406       -15.4127
  20   2.0000      -0.551505       -15.0072
  21   2.0000      -0.549754       -14.9596
  22   2.0000      -0.525330       -14.2950
  23   2.0000      -0.507803       -13.8180
  24   2.0000      -0.500248       -13.6124
  25   2.0000      -0.488285       -13.2869
  26   2.0000      -0.453255       -12.3337
  27   2.0000      -0.450623       -12.2621
  28   2.0000      -0.358601        -9.7580
  29   0.0000       0.122457         3.3322
  30   0.0000       0.148049         4.0286
  31   0.0000       0.157272         4.2796
  32   0.0000       0.162434         4.4201
  33   0.0000       0.166432         4.5288

MULLIKEN ATOMIC CHARGES
-----------------------
   0 N :   -0.056641
   1 C :   -0.191944
   2 C :   -0.212416
   3 C :   -0.006863
   4 C :   -0.206973
   5 C :   -0.188450
   6 C :   -0.200724
   7 C :   -0.173470
   8 H :    0.173392
   9 H :    0.160239
  10 H :    0.123846
  11 H :    0.127045
  12 H :    0.142150
  13 H :    0.132272
  14 H :    0.130750
  15 H :    0.120310
  16 H :    0.127478
Sum of atomic charges:    0.0000000

LOEWDIN ATOMIC CHARGES
----------------------
   0 N :    0.053663
   1 C :   -0.196463
   2 C :   -0.226942
   3 C :   -0.206660
   4 C :   -0.215148
   5 C :   -0.161795
   6 C :   -0.165858
   7 C :   -0.218761
   8 H :    0.170933
   9 H :    0.163921
  10 H :    0.152555
  11 H :    0.145312
  12 H :    0.146732
  13 H :    0.137947
  14 H :    0.137135
  15 H :    0.139345
  16 H :    0.144084

  Mayer bond orders larger than 0.1
B(  0-N ,  1-C ) :   2.8793 B(  1-C ,  2-C ) :   0.9437 B(  2-C ,  3-C ) :   0.8952
B(  2-C ,  8-H ) :   0.9082 B(  2-C ,  9-H ) :   0.9046 B(  3-C ,  4-C ) :   0.9021
B(  3-C ,  7-C ) :   0.8935 B(  3-C , 10-H ) :   0.9316 B(  4-C ,  5-C ) :   0.9434
B(  4-C , 11-H ) :   0.9064 B(  4-C , 12-H ) :   0.9313 B(  5-C ,  6-C ) :   1.7794
B(  5-C , 13-H ) :   0.9286 B(  6-C ,  7-C ) :   0.9500 B(  6-C , 14-H ) :   0.9286
B(  7-C , 15-H ) :   0.9272 B(  7-C , 16-H ) :   0.9093

MP2 TOTAL ENERGY:     -326.162334333 Eh
FINAL SINGLE POINT ENERGY      -326.162334332750

DIPOLE MOMENT
-------------
                                X             Y             Z
Electronic contribution:     -2.80702      -4.66877      -0.47344
Nuclear contribution   :      3.23265       6.18267       0.70285
                        -----------------------------------------
Total Dipole Moment    :      0.42563       1.51391       0.22941
                        -----------------------------------------
Magnitude (a.u.)       :      1.58924
Magnitude (Debye)      :      4.03954

                             ****ORCA TERMINATED NORMALLY****
TOTAL RUN TIME: 0 days 0 hours 12 minutes 45 seconds 568 msec
