                         Program Version 3.0.3 - RELEASE   -
|  1> ! RI-MP2 RIJK def2-TZVP def2-TZVP/C def2-TZVP/JK TIGHTSCF
|  2> % maxcore 2000
|  3> % mp2 density relaxed end
|  4> *xyz 0 1
|  5>  N       -0.0222570964     1.4450103308     0.0699183514
|  6>  C        0.0235820171     0.0456602661    -0.0215291895
|  7>  C       -1.0219803374    -0.8319795155    -0.1353189842
|  8>  O       -0.5787191462    -2.1422376076    -0.0973099180
|  9>  C        0.7585370796    -2.0582019972     0.0237485136
| 10>  C        1.1950304875    -0.7788816768     0.0781750734
| 11>  C        2.6800411306    -0.7266982681     0.2925298522
| 12>  C        3.0916599162    -2.2246869905     0.0603450097
| 13>  C        1.8031800234    -3.1070453609     0.1880801835
| 14>  H        0.7551887088     1.8885002843    -0.4025699995
| 15>  H       -0.8881472551     1.8350842713    -0.2797893848
| 16>  H       -2.0849377379    -0.7007173554    -0.2481549726
| 17>  H        3.2153587537    -0.0609285905    -0.3944481132
| 18>  H        2.9329173723    -0.3926326737     1.3075125246
| 19>  H        3.4907548471    -2.3292997458    -0.9525238002
| 20>  H        3.8767821969    -2.5456168016     0.7490738348
| 21>  H        1.7384355574    -3.6003635624     1.1674199266
| 22>  H        1.7701489922    -3.8989139565    -0.5678888178
| 23> *
| 24>
| 25>                          ****END OF INPUT****

CARTESIAN COORDINATES (ANGSTROEM)
---------------------------------
  N     -0.022257    1.445010    0.069918
  C      0.023582    0.045660   -0.021529
  C     -1.021980   -0.831980   -0.135319
  O     -0.578719   -2.142238   -0.097310
  C      0.758537   -2.058202    0.023749
  C      1.195030   -0.778882    0.078175
  C      2.680041   -0.726698    0.292530
  C      3.091660   -2.224687    0.060345
  C      1.803180   -3.107045    0.188080
  H      0.755189    1.888500   -0.402570
  H     -0.888147    1.835084   -0.279789
  H     -2.084938   -0.700717   -0.248155
  H      3.215359   -0.060929   -0.394448
  H      2.932917   -0.392633    1.307513
  H      3.490755   -2.329300   -0.952524
  H      3.876782   -2.545617    0.749074
  H      1.738436   -3.600364    1.167420
  H      1.770149   -3.898914   -0.567889

 Total Charge           Charge          ....    0
 Multiplicity           Mult            ....    1
 Number of Electrons    NEL             ....   66
 Basis Dimension        Dim             ....  333

ORBITAL ENERGIES
----------------

  NO   OCC          E(Eh)            E(eV)
   0   2.0000     -20.604479      -560.6764
   1   2.0000     -15.562298      -423.4717
   2   2.0000     -11.271102      -306.7023
   3   2.0000     -11.264996      -306.5361
   4   2.0000     -11.257595      -306.3347
   5   2.0000     -11.235760      -305.7406
   6   2.0000     -11.233302      -305.6737
   7   2.0000     -11.231361      -305.6209
   8   2.0000     -11.208215      -304.9910
   9   2.0000      -1.439077       -39.1593
  10   2.0000      -1.209050       -32.8999
  11   2.0000      -1.127612       -30.6839
  12   2.0000      -1.028689       -27.9920
  13   2.0000      -0.961931       -26.1755
  14   2.0000      -0.942355       -25.6428
  15   2.0000      -0.813453       -22.1352
  16   2.0000      -0.779287       -21.2055
  17   2.0000      -0.747337       -20.3361
  18   2.0000      -0.693142       -18.8614
  19   2.0000      -0.657641       -17.8953
  20   2.0000      -0.650145       -17.6913
  21   2.0000      -0.610049       -16.6003
  22   2.0000      -0.607381       -16.5277
  23   2.0000      -0.579297       -15.7635
  24   2.0000      -0.560307       -15.2467
  25   2.0000      -0.548402       -14.9228
  26   2.0000      -0.500536       -13.6203
  27   2.0000      -0.491584       -13.3767
  28   2.0000      -0.485451       -13.2098
  29   2.0000      -0.483939       -13.1686
  30   2.0000      -0.480923       -13.0866
  31   2.0000      -0.341903        -9.3037
  32   2.0000      -0.284860        -7.7514
  33   0.0000       0.126810         3.4507
  34   0.0000       0.144713         3.9379
  35   0.0000       0.156564         4.2603
  36   0.0000       0.170144         4.6299
  37   0.0000       0.179532         4.8853

MULLIKEN ATOMIC CHARGES
-----------------------
   0 N :   -0.525203
   1 C :    0.053035
   2 C :   -0.088117
   3 O :   -0.231934
   4 C :    0.104387
   5 C :   -0.034289
   6 C :   -0.204765
   7 C :   -0.225211
   8 C :   -0.199483
   9 H :    0.248588
  10 H :    0.239966
  11 H :    0.132114
  12 H :    0.118779
  13 H :    0.122235
  14 H :    0.114774
  15 H :    0.125244
  16 H :    0.119487
  17 H :    0.130392
Sum of atomic charges:   -0.0000000

LOEWDIN ATOMIC CHARGES
----------------------
   0 N :   -0.092753
   1 C :   -0.263455
   2 C :   -0.239265
   3 O :    0.342132
   4 C :   -0.246796
   5 C :   -0.140253
   6 C :   -0.211725
   7 C :   -0.215757
   8 C :   -0.214074
   9 H :    0.167718
  10 H :    0.166293
  11 H :    0.127298
  12 H :    0.134000
  13 H :    0.139578
  14 H :    0.136650
  15 H :    0.129977
  16 H :    0.141010
  17 H :    0.139422

  Mayer bond orders larger than 0.1
B(  0-N ,  1-C ) :   0.9747 B(  0-N ,  9-H ) :   0.8786 B(  0-N , 10-H ) :   0.8859
B(  1-C ,  2-C ) :   1.5078 B(  1-C ,  5-C ) :   1.1820 B(  2-C ,  3-O ) :   0.9841
B(  2-C , 11-H ) :   0.9542 B(  3-O ,  4-C ) :   1.0935 B(  4-C ,  5-C ) :   1.5050
B(  4-C ,  8-C ) :   0.9366 B(  5-C ,  6-C ) :   0.8682 B(  6-C ,  7-C ) :   0.9523
B(  6-C , 12-H ) :   0.9296 B(  6-C , 13-H ) :   0.9092 B(  7-C ,  8-C ) :   0.9401
B(  7-C , 14-H ) :   0.9273 B(  7-C , 15-H ) :   0.9407 B(  8-C , 16-H ) :   0.9074
B(  8-C , 17-H ) :   0.9327

MP2 TOTAL ENERGY:     -401.280763559 Eh
FINAL SINGLE POINT ENERGY      -401.280763558595

DIPOLE MOMENT
-------------
                                X             Y             Z
Electronic contribution:     -6.12052      -0.02025      -0.35323
Nuclear contribution   :      6.47323       0.41323      -0.03357
                        -----------------------------------------
Total Dipole Moment    :      0.35271       0.39298      -0.38680
                        -----------------------------------------
Magnitude (a.u.)       :      0.65456
Magnitude (Debye)      :      1.66376

                             ****ORCA TERMINATED NORMALLY****
TOTAL RUN TIME: 0 days 0 hours 18 minutes 6 seconds 677 msec
