                         Program Version 3.0.3 - RELEASE   -
|  1> ! RI-MP2 RIJK def2-TZVP def2-TZVP/C def2-TZVP/JK TIGHTSCF
|  2> % maxcore 2000
|  3> % mp2 density relaxed end
|  4> *xyz 0 1
|  5>  C        0.6904986491    -0.0168534973     0.0565360162
|  6>  N       -0.5181709474    -0.4437324270     0.8042014878
|  7>  H       -0.3619211498    -1.4249307183     1.1152539106
|  8>  C       -0.8254838547     0.4225567006     1.9613218348
|  9>  C       -1.7734675207    -0.6576310157    -0.2386020423
| 10>  C       -1.6683492547    -2.0148632909    -0.7432921176
| 11>  C       -1.8523439132    -3.1393294663     0.2278425883
| 12>  O       -0.5908071928    -3.3351407535     0.9416174159
| 13>  N       -0.7978664670    -2.1770164867    -1.7530276334
| 14>  O       -0.2895041297    -3.3414650239    -1.8671590225
| 15>  H        1.5776558945    -0.1435944845     0.6812433028
| 16>  H        0.7574268145    -0.6323358745    -0.8440470669
| 17>  H        0.5805227417     1.0342637716    -0.2204780466
| 18>  H       -1.0777178063     1.4234001713     1.6031695607
| 19>  H       -1.6758391295     0.0053350020     2.5035667515
| 20>  H        0.0369244401     0.4828632486     2.6298384566
| 21>  H       -2.6410428806    -0.4417625867     0.3896778100
| 22>  H       -1.6257453670     0.1137944089    -0.9959807202
| 23>  H       -2.6096399889    -2.9320642902     0.9910206904
| 24>  H       -2.1085397887    -4.0661042362    -0.2928065145
| 25>  H       -0.0181351991    -3.6099167714     0.2002166683
| 26> *
| 27>
| 28>                          ****END OF INPUT****

CARTESIAN COORDINATES (ANGSTROEM)
---------------------------------
  C      0.690499   -0.016853    0.056536
  N     -0.518171   -0.443732    0.804201
  H     -0.361921   -1.424931    1.115254
  C     -0.825484    0.422557    1.961322
  C     -1.773468   -0.657631   -0.238602
  C     -1.668349   -2.014863   -0.743292
  C     -1.852344   -3.139329    0.227843
  O     -0.590807   -3.335141    0.941617
  N     -0.797866   -2.177016   -1.753028
  O     -0.289504   -3.341465   -1.867159
  H      1.577656   -0.143594    0.681243
  H      0.757427   -0.632336   -0.844047
  H      0.580523    1.034264   -0.220478
  H     -1.077718    1.423400    1.603170
  H     -1.675839    0.005335    2.503567
  H      0.036924    0.482863    2.629838
  H     -2.641043   -0.441763    0.389678
  H     -1.625745    0.113794   -0.995981
  H     -2.609640   -2.932064    0.991021
  H     -2.108540   -4.066104   -0.292807
  H     -0.018135   -3.609917    0.200217

 Total Charge           Charge          ....    0
 Multiplicity           Mult            ....    1
 Number of Electrons    NEL             ....   72
 Basis Dimension        Dim             ....  351

ORBITAL ENERGIES
----------------

  NO   OCC          E(Eh)            E(eV)
   0   2.0000     -20.544473      -559.0435
   1   2.0000     -20.480897      -557.3135
   2   2.0000     -15.683162      -426.7605
   3   2.0000     -15.609754      -424.7630
   4   2.0000     -11.314886      -307.8937
   5   2.0000     -11.303519      -307.5844
   6   2.0000     -11.298832      -307.4568
   7   2.0000     -11.261342      -306.4367
   8   2.0000     -11.197871      -304.7096
   9   2.0000      -1.372930       -37.3593
  10   2.0000      -1.336537       -36.3690
  11   2.0000      -1.316522       -35.8244
  12   2.0000      -1.091599       -29.7039
  13   2.0000      -1.021872       -27.8066
  14   2.0000      -0.968611       -26.3572
  15   2.0000      -0.915072       -24.9004
  16   2.0000      -0.910900       -24.7868
  17   2.0000      -0.768023       -20.8990
  18   2.0000      -0.721056       -19.6209
  19   2.0000      -0.694307       -18.8931
  20   2.0000      -0.690713       -18.7952
  21   2.0000      -0.666433       -18.1346
  22   2.0000      -0.631211       -17.1761
  23   2.0000      -0.610864       -16.6225
  24   2.0000      -0.605388       -16.4734
  25   2.0000      -0.587718       -15.9926
  26   2.0000      -0.582378       -15.8473
  27   2.0000      -0.573779       -15.6133
  28   2.0000      -0.564655       -15.3650
  29   2.0000      -0.544364       -14.8129
  30   2.0000      -0.526231       -14.3195
  31   2.0000      -0.503387       -13.6979
  32   2.0000      -0.479935       -13.0597
  33   2.0000      -0.435899       -11.8614
  34   2.0000      -0.324785        -8.8379
  35   2.0000      -0.282719        -7.6932
  36   0.0000       0.097952         2.6654
  37   0.0000       0.138575         3.7708
  38   0.0000       0.142607         3.8805
  39   0.0000       0.154457         4.2030
  40   0.0000       0.157322         4.2810

MULLIKEN ATOMIC CHARGES
-----------------------
   0 C :   -0.370209
   1 N :   -0.017941
   2 H :    0.263629
   3 C :   -0.339773
   4 C :   -0.193015
   5 C :   -0.107506
   6 C :   -0.096643
   7 O :   -0.523847
   8 N :   -0.086338
   9 O :   -0.464474
  10 H :    0.157693
  11 H :    0.226441
  12 H :    0.151740
  13 H :    0.165886
  14 H :    0.171487
  15 H :    0.167124
  16 H :    0.152361
  17 H :    0.143710
  18 H :    0.104750
  19 H :    0.142695
  20 H :    0.352229
Sum of atomic charges:    0.0000000

LOEWDIN ATOMIC CHARGES
----------------------
   0 C :   -0.276719
   1 N :    0.176816
   2 H :    0.218875
   3 C :   -0.282715
   4 C :   -0.199806
   5 C :   -0.418283
   6 C :   -0.329189
   7 O :   -0.099693
   8 N :   -0.085989
   9 O :   -0.207707
  10 H :    0.124937
  11 H :    0.145135
  12 H :    0.126247
  13 H :    0.129665
  14 H :    0.130063
  15 H :    0.128668
  16 H :    0.136276
  17 H :    0.146989
  18 H :    0.122992
  19 H :    0.133469
  20 H :    0.179966

  Mayer bond orders larger than 0.1
B(  0-C ,  1-N ) :   0.8791 B(  0-C , 10-H ) :   0.9241 B(  0-C , 11-H ) :   0.8951
B(  0-C , 12-H ) :   0.9293 B(  1-N ,  2-H ) :   0.7923 B(  1-N ,  3-C ) :   0.8651
B(  1-N ,  4-C ) :   0.6692 B(  2-H ,  7-O ) :   0.1342 B(  3-C , 13-H ) :   0.9300
B(  3-C , 14-H ) :   0.9282 B(  3-C , 15-H ) :   0.9243 B(  4-C ,  5-C ) :   1.0749
B(  4-C , 16-H ) :   0.9313 B(  4-C , 17-H ) :   0.9137 B(  5-C ,  6-C ) :   0.9811
B(  5-C ,  8-N ) :   1.3896 B(  5-C ,  9-O ) :   0.1544 B(  6-C ,  7-O ) :   0.7940
B(  6-C , 18-H ) :   0.9423 B(  6-C , 19-H ) :   0.9194 B(  7-O , 20-H ) :   0.7911
B(  8-N ,  9-O ) :   1.2133

MP2 TOTAL ENERGY:     -456.696838162 Eh
FINAL SINGLE POINT ENERGY      -456.696838162421

DIPOLE MOMENT
-------------
                                X             Y             Z
Electronic contribution:     -0.51549      -6.26343      -5.18874
Nuclear contribution   :      0.52502       9.02549       7.69760
                        -----------------------------------------
Total Dipole Moment    :      0.00953       2.76206       2.50885
                        -----------------------------------------
Magnitude (a.u.)       :      3.73141
Magnitude (Debye)      :      9.48449

                             ****ORCA TERMINATED NORMALLY****
TOTAL RUN TIME: 0 days 0 hours 22 minutes 16 seconds 983 msec
