                         Program Version 3.0.3 - RELEASE   -
|  1> ! RI-MP2 RIJK def2-TZVP def2-TZVP/C def2-TZVP/JK TIGHTSCF
|  2> % maxcore 2000
|  3> % mp2 density relaxed end
|  4> *xyz 0 1
|  5>  C       -0.0243633272     1.5567010608     0.0842507620
|  6>  C        0.0025653268     0.0529488824    -0.0130957345
|  7>  C        0.6636939005    -0.7108273739    -1.2174721313
|  8>  C       -0.3682743230    -1.8587749527    -0.9543050281
|  9>  N        0.0729428895    -2.6585261188     0.2121463246
| 10>  C        0.5026963183    -1.9574368705     1.1913031002
| 11>  N        0.4434834452    -0.5805977632     1.2454084847
| 12>  C       -1.2701919650    -0.7316059488    -0.4419285915
| 13>  O       -2.4296986427    -0.4466058910    -0.5044393822
| 14>  H        0.9757778529     1.9608051549     0.2809635031
| 15>  H       -0.3889186735     1.9922572429    -0.8490624960
| 16>  H       -0.6906900195     1.8725866904     0.8926682773
| 17>  H        0.4844092164    -0.2021050638    -2.1669815991
| 18>  H        1.7151844966    -0.9837346063    -1.1090056506
| 19>  H       -0.6955356413    -2.5062945960    -1.7658048225
| 20>  H        0.9132901414    -2.4481229643     2.0729077843
| 21>  H        1.1550068544    -0.0986548021     1.7802693696
| 22> *
| 23>
| 24>                          ****END OF INPUT****

CARTESIAN COORDINATES (ANGSTROEM)
---------------------------------
  C     -0.024363    1.556701    0.084251
  C      0.002565    0.052949   -0.013096
  C      0.663694   -0.710827   -1.217472
  C     -0.368274   -1.858775   -0.954305
  N      0.072943   -2.658526    0.212146
  C      0.502696   -1.957437    1.191303
  N      0.443483   -0.580598    1.245408
  C     -1.270192   -0.731606   -0.441929
  O     -2.429699   -0.446606   -0.504439
  H      0.975778    1.960805    0.280964
  H     -0.388919    1.992257   -0.849062
  H     -0.690690    1.872587    0.892668
  H      0.484409   -0.202105   -2.166982
  H      1.715184   -0.983735   -1.109006
  H     -0.695536   -2.506295   -1.765805
  H      0.913290   -2.448123    2.072908
  H      1.155007   -0.098655    1.780269

 Total Charge           Charge          ....    0
 Multiplicity           Mult            ....    1
 Number of Electrons    NEL             ....   66
 Basis Dimension        Dim             ....  327

ORBITAL ENERGIES
----------------

  NO   OCC          E(Eh)            E(eV)
   0   2.0000     -20.558799      -559.4334
   1   2.0000     -15.596405      -424.3997
   2   2.0000     -15.551445      -423.1763
   3   2.0000     -11.333959      -308.4127
   4   2.0000     -11.320730      -308.0527
   5   2.0000     -11.298879      -307.4581
   6   2.0000     -11.274991      -306.8081
   7   2.0000     -11.247995      -306.0735
   8   2.0000     -11.239817      -305.8510
   9   2.0000      -1.401787       -38.1446
  10   2.0000      -1.313484       -35.7417
  11   2.0000      -1.182101       -32.1666
  12   2.0000      -1.126281       -30.6477
  13   2.0000      -1.001036       -27.2396
  14   2.0000      -0.890919       -24.2431
  15   2.0000      -0.869042       -23.6478
  16   2.0000      -0.832349       -22.6494
  17   2.0000      -0.735049       -20.0017
  18   2.0000      -0.687072       -18.6962
  19   2.0000      -0.668176       -18.1820
  20   2.0000      -0.658335       -17.9142
  21   2.0000      -0.631439       -17.1823
  22   2.0000      -0.620583       -16.8869
  23   2.0000      -0.594836       -16.1863
  24   2.0000      -0.567169       -15.4334
  25   2.0000      -0.554746       -15.0954
  26   2.0000      -0.531623       -14.4662
  27   2.0000      -0.517103       -14.0711
  28   2.0000      -0.506974       -13.7955
  29   2.0000      -0.469680       -12.7806
  30   2.0000      -0.449061       -12.2196
  31   2.0000      -0.397261       -10.8100
  32   2.0000      -0.345552        -9.4030
  33   0.0000       0.116965         3.1828
  34   0.0000       0.139068         3.7842
  35   0.0000       0.146677         3.9913
  36   0.0000       0.158769         4.3203
  37   0.0000       0.165877         4.5137

MULLIKEN ATOMIC CHARGES
-----------------------
   0 C :   -0.435811
   1 C :    0.229420
   2 C :   -0.302852
   3 C :    0.110471
   4 N :   -0.293147
   5 C :    0.030691
   6 N :   -0.350869
   7 C :    0.041137
   8 O :   -0.239256
   9 H :    0.137084
  10 H :    0.142395
  11 H :    0.156703
  12 H :    0.134826
  13 H :    0.131337
  14 H :    0.135018
  15 H :    0.139417
  16 H :    0.233437
Sum of atomic charges:    0.0000000

LOEWDIN ATOMIC CHARGES
----------------------
   0 C :   -0.267336
   1 C :   -0.272273
   2 C :   -0.175177
   3 C :   -0.216361
   4 N :    0.088213
   5 C :   -0.324627
   6 N :    0.102985
   7 C :   -0.260681
   8 O :    0.177874
   9 H :    0.129390
  10 H :    0.137445
  11 H :    0.138191
  12 H :    0.144612
  13 H :    0.137132
  14 H :    0.138990
  15 H :    0.136453
  16 H :    0.185168

  Mayer bond orders larger than 0.1
B(  0-C ,  1-C ) :   0.8739 B(  0-C ,  9-H ) :   0.9269 B(  0-C , 10-H ) :   0.9351
B(  0-C , 11-H ) :   0.9413 B(  1-C ,  2-C ) :   0.9431 B(  1-C ,  3-C ) :  -0.1333
B(  1-C ,  6-N ) :   0.8576 B(  1-C ,  7-C ) :   0.8176 B(  2-C ,  3-C ) :   0.9020
B(  2-C , 12-H ) :   0.9233 B(  2-C , 13-H ) :   0.9022 B(  3-C ,  4-N ) :   0.8873
B(  3-C ,  7-C ) :   0.8554 B(  3-C , 14-H ) :   0.9217 B(  4-N ,  5-C ) :   1.8012
B(  5-C ,  6-N ) :   1.1278 B(  5-C , 15-H ) :   0.9174 B(  6-N , 16-H ) :   0.8588
B(  7-C ,  8-O ) :   2.0522

MP2 TOTAL ENERGY:     -417.304504021 Eh
FINAL SINGLE POINT ENERGY      -417.304504021300

DIPOLE MOMENT
-------------
                                X             Y             Z
Electronic contribution:     -3.86883      -4.49274       0.71145
Nuclear contribution   :      5.28817       5.45787      -0.52158
                        -----------------------------------------
Total Dipole Moment    :      1.41933       0.96513       0.18988
                        -----------------------------------------
Magnitude (a.u.)       :      1.72686
Magnitude (Debye)      :      4.38933

                             ****ORCA TERMINATED NORMALLY****
TOTAL RUN TIME: 0 days 0 hours 18 minutes 35 seconds 671 msec
