                         Program Version 3.0.3 - RELEASE   -
|  1> ! RI-MP2 RIJK def2-TZVP def2-TZVP/C def2-TZVP/JK TIGHTSCF
|  2> % maxcore 2000
|  3> % mp2 density relaxed end
|  4> *xyz 0 1
|  5>  C        0.0748078952     1.2700868606     0.3862388472
|  6>  C        0.0267081888    -0.1817217268    -0.1028592403
|  7>  C        0.7353633579    -0.4689685136    -1.4471122701
|  8>  C        0.0745104207     0.3086946040    -2.5977813949
|  9>  C        2.2640648409    -0.1463289962    -1.3648938957
| 10>  C        2.9807545277    -1.3541448322    -1.9912875099
| 11>  C        2.1092252782    -2.5394900558    -1.5563259180
| 12>  O        2.2664987797    -2.8271933388    -0.1654260591
| 13>  C        0.6873381195    -2.0057536582    -1.7482644265
| 14>  H        1.1040180847     1.6321584621     0.4811631379
| 15>  H       -0.4549604227     1.9502793961    -0.2880826287
| 16>  H       -0.3948158184     1.3582435712     1.3711975332
| 17>  H        0.4794558050    -0.8345287593     0.6527006094
| 18>  H       -1.0230180751    -0.4940332717    -0.1886588866
| 19>  H        0.1069343446     1.3902740739    -2.4333483350
| 20>  H        0.5814727022     0.1071857584    -3.5484530334
| 21>  H       -0.9761606236     0.0190726034    -2.7168591128
| 22>  H        2.5181606596     0.7955020062    -1.8594025354
| 23>  H        2.5685038160    -0.0552973732    -0.3182472862
| 24>  H        2.9783891817    -1.2896248851    -3.0865912837
| 25>  H        4.0261580393    -1.4544771207    -1.6771262181
| 26>  H        2.2974698301    -3.4448963205    -2.1514162369
| 27>  H        3.1961715669    -3.0201680242    -0.0067217964
| 28>  H       -0.0137311150    -2.5384863031    -1.1003869565
| 29>  H        0.3754858063    -2.1827429465    -2.7831040532
| 30> *
| 31>
| 32>                          ****END OF INPUT****

CARTESIAN COORDINATES (ANGSTROEM)
---------------------------------
  C      0.074808    1.270087    0.386239
  C      0.026708   -0.181722   -0.102859
  C      0.735363   -0.468969   -1.447112
  C      0.074510    0.308695   -2.597781
  C      2.264065   -0.146329   -1.364894
  C      2.980755   -1.354145   -1.991288
  C      2.109225   -2.539490   -1.556326
  O      2.266499   -2.827193   -0.165426
  C      0.687338   -2.005754   -1.748264
  H      1.104018    1.632158    0.481163
  H     -0.454960    1.950279   -0.288083
  H     -0.394816    1.358244    1.371198
  H      0.479456   -0.834529    0.652701
  H     -1.023018   -0.494033   -0.188659
  H      0.106934    1.390274   -2.433348
  H      0.581473    0.107186   -3.548453
  H     -0.976161    0.019073   -2.716859
  H      2.518161    0.795502   -1.859403
  H      2.568504   -0.055297   -0.318247
  H      2.978389   -1.289625   -3.086591
  H      4.026158   -1.454477   -1.677126
  H      2.297470   -3.444896   -2.151416
  H      3.196172   -3.020168   -0.006722
  H     -0.013731   -2.538486   -1.100387
  H      0.375486   -2.182743   -2.783104

 Total Charge           Charge          ....    0
 Multiplicity           Mult            ....    1
 Number of Electrons    NEL             ....   72
 Basis Dimension        Dim             ....  375

ORBITAL ENERGIES
----------------

  NO   OCC          E(Eh)            E(eV)
   0   2.0000     -20.550020      -559.1945
   1   2.0000     -11.272136      -306.7304
   2   2.0000     -11.226777      -305.4961
   3   2.0000     -11.218159      -305.2616
   4   2.0000     -11.210559      -305.0548
   5   2.0000     -11.208613      -305.0019
   6   2.0000     -11.207482      -304.9711
   7   2.0000     -11.207021      -304.9585
   8   2.0000     -11.204590      -304.8924
   9   2.0000      -1.355794       -36.8930
  10   2.0000      -1.123858       -30.5817
  11   2.0000      -1.032902       -28.1067
  12   2.0000      -0.972630       -26.4666
  13   2.0000      -0.958839       -26.0913
  14   2.0000      -0.891549       -24.2603
  15   2.0000      -0.832572       -22.6554
  16   2.0000      -0.780903       -21.2495
  17   2.0000      -0.720023       -19.5928
  18   2.0000      -0.685367       -18.6498
  19   2.0000      -0.646379       -17.5889
  20   2.0000      -0.632996       -17.2247
  21   2.0000      -0.604152       -16.4398
  22   2.0000      -0.593345       -16.1457
  23   2.0000      -0.562485       -15.3060
  24   2.0000      -0.556351       -15.1391
  25   2.0000      -0.536674       -14.6036
  26   2.0000      -0.527724       -14.3601
  27   2.0000      -0.515579       -14.0296
  28   2.0000      -0.495849       -13.4927
  29   2.0000      -0.493538       -13.4299
  30   2.0000      -0.479880       -13.0582
  31   2.0000      -0.465573       -12.6689
  32   2.0000      -0.439296       -11.9539
  33   2.0000      -0.432389       -11.7659
  34   2.0000      -0.430089       -11.7033
  35   2.0000      -0.422440       -11.4952
  36   0.0000       0.127493         3.4693
  37   0.0000       0.147540         4.0148
  38   0.0000       0.160224         4.3599
  39   0.0000       0.176416         4.8005
  40   0.0000       0.186146         5.0653

MULLIKEN ATOMIC CHARGES
-----------------------
   0 C :   -0.416015
   1 C :   -0.283479
   2 C :    0.208522
   3 C :   -0.473766
   4 C :   -0.240890
   5 C :   -0.277567
   6 C :    0.063319
   7 O :   -0.474653
   8 C :   -0.259499
   9 H :    0.127459
  10 H :    0.125161
  11 H :    0.135469
  12 H :    0.146158
  13 H :    0.107685
  14 H :    0.134025
  15 H :    0.129438
  16 H :    0.132324
  17 H :    0.126036
  18 H :    0.106987
  19 H :    0.107092
  20 H :    0.124364
  21 H :    0.094698
  22 H :    0.309775
  23 H :    0.123747
  24 H :    0.123610
Sum of atomic charges:    0.0000000

LOEWDIN ATOMIC CHARGES
----------------------
   0 C :   -0.318769
   1 C :   -0.259458
   2 C :   -0.275199
   3 C :   -0.277636
   4 C :   -0.214090
   5 C :   -0.250311
   6 C :   -0.338950
   7 O :   -0.023952
   8 C :   -0.190511
   9 H :    0.120395
  10 H :    0.118082
  11 H :    0.121564
  12 H :    0.145373
  13 H :    0.137278
  14 H :    0.122041
  15 H :    0.123775
  16 H :    0.125186
  17 H :    0.135120
  18 H :    0.141442
  19 H :    0.140737
  20 H :    0.130230
  21 H :    0.127825
  22 H :    0.171629
  23 H :    0.145199
  24 H :    0.142999

  Mayer bond orders larger than 0.1
B(  0-C ,  1-C ) :   0.9145 B(  0-C ,  9-H ) :   0.9371 B(  0-C , 10-H ) :   0.9410
B(  0-C , 11-H ) :   0.9424 B(  1-C ,  2-C ) :   0.8871 B(  1-C , 12-H ) :   0.9332
B(  1-C , 13-H ) :   0.9337 B(  2-C ,  3-C ) :   0.8905 B(  2-C ,  4-C ) :   0.8933
B(  2-C ,  8-C ) :   0.8901 B(  3-C , 14-H ) :   0.9404 B(  3-C , 15-H ) :   0.9362
B(  3-C , 16-H ) :   0.9405 B(  4-C ,  5-C ) :   0.9326 B(  4-C , 17-H ) :   0.9311
B(  4-C , 18-H ) :   0.9245 B(  5-C ,  6-C ) :   0.9450 B(  5-C , 19-H ) :   0.9203
B(  5-C , 20-H ) :   0.9312 B(  6-C ,  7-O ) :   0.9922 B(  6-C ,  8-C ) :   0.9114
B(  6-C , 21-H ) :   0.9457 B(  7-O , 22-H ) :   0.8464 B(  8-C , 23-H ) :   0.9185
B(  8-C , 24-H ) :   0.9244

MP2 TOTAL ENERGY:     -388.847517402 Eh
FINAL SINGLE POINT ENERGY      -388.847517401630

DIPOLE MOMENT
-------------
                                X             Y             Z
Electronic contribution:      3.03587      -5.86179       0.79002
Nuclear contribution   :     -2.57389       5.85160      -1.13878
                        -----------------------------------------
Total Dipole Moment    :      0.46198      -0.01019      -0.34877
                        -----------------------------------------
Magnitude (a.u.)       :      0.57894
Magnitude (Debye)      :      1.47154

                             ****ORCA TERMINATED NORMALLY****
TOTAL RUN TIME: 0 days 0 hours 23 minutes 12 seconds 230 msec
