                         Program Version 3.0.3 - RELEASE   -
|  1> ! RI-MP2 RIJK def2-TZVP def2-TZVP/C def2-TZVP/JK TIGHTSCF
|  2> % maxcore 2000
|  3> % mp2 density relaxed end
|  4> *xyz 0 1
|  5>  N        0.1130763772     1.3046174348     0.1460579208
|  6>  C       -0.0569980212    -0.0522430658     0.0434836313
|  7>  N       -1.1636586187    -0.7279068402     0.0183034740
|  8>  C       -0.7145221998    -2.0581193655     0.0173011680
|  9>  C        0.6331464352    -2.0468155184     0.0328353249
| 10>  O        1.2223710961    -3.2389443090    -0.0060696125
| 11>  C        0.1326246666    -4.1132627183    -0.0410374938
| 12>  C       -1.0625258907    -3.4499840089    -0.0297372918
| 13>  O        1.1290848078    -0.7863879360     0.0482024706
| 14>  H        0.9348749695     1.6635771747    -0.3190348269
| 15>  H       -0.7289921238     1.8140087636    -0.0803022768
| 16>  H        0.4023657463    -5.1545134245    -0.0605260895
| 17>  H       -2.0353985444    -3.9146914363    -0.0518480881
| 18> *
| 19>
| 20>                          ****END OF INPUT****

CARTESIAN COORDINATES (ANGSTROEM)
---------------------------------
  N      0.113076    1.304617    0.146058
  C     -0.056998   -0.052243    0.043484
  N     -1.163659   -0.727907    0.018303
  C     -0.714522   -2.058119    0.017301
  C      0.633146   -2.046816    0.032835
  O      1.222371   -3.238944   -0.006070
  C      0.132625   -4.113263   -0.041037
  C     -1.062526   -3.449984   -0.029737
  O      1.129085   -0.786388    0.048202
  H      0.934875    1.663577   -0.319035
  H     -0.728992    1.814009   -0.080302
  H      0.402366   -5.154513   -0.060526
  H     -2.035399   -3.914691   -0.051848

 Total Charge           Charge          ....    0
 Multiplicity           Mult            ....    1
 Number of Electrons    NEL             ....   64
 Basis Dimension        Dim             ....  303

ORBITAL ENERGIES
----------------

  NO   OCC          E(Eh)            E(eV)
   0   2.0000     -20.650953      -561.9410
   1   2.0000     -20.640541      -561.6577
   2   2.0000     -15.596950      -424.4146
   3   2.0000     -15.560634      -423.4264
   4   2.0000     -11.383800      -309.7689
   5   2.0000     -11.336874      -308.4920
   6   2.0000     -11.294115      -307.3285
   7   2.0000     -11.249826      -306.1233
   8   2.0000     -11.248533      -306.0881
   9   2.0000      -1.510484       -41.1024
  10   2.0000      -1.457940       -39.6726
  11   2.0000      -1.263992       -34.3950
  12   2.0000      -1.217790       -33.1378
  13   2.0000      -1.078705       -29.3530
  14   2.0000      -0.992544       -27.0085
  15   2.0000      -0.850754       -23.1502
  16   2.0000      -0.830639       -22.6028
  17   2.0000      -0.806145       -21.9363
  18   2.0000      -0.719565       -19.5804
  19   2.0000      -0.713817       -19.4239
  20   2.0000      -0.701785       -19.0966
  21   2.0000      -0.690184       -18.7809
  22   2.0000      -0.650616       -17.7042
  23   2.0000      -0.621981       -16.9250
  24   2.0000      -0.593912       -16.1612
  25   2.0000      -0.584026       -15.8922
  26   2.0000      -0.549430       -14.9507
  27   2.0000      -0.515021       -14.0144
  28   2.0000      -0.463762       -12.6196
  29   2.0000      -0.456456       -12.4208
  30   2.0000      -0.371834       -10.1181
  31   2.0000      -0.289626        -7.8811
  32   0.0000       0.126841         3.4515
  33   0.0000       0.149685         4.0731
  34   0.0000       0.173978         4.7342
  35   0.0000       0.176370         4.7993
  36   0.0000       0.183793         5.0013

MULLIKEN ATOMIC CHARGES
-----------------------
   0 N :   -0.504237
   1 C :    0.369786
   2 N :   -0.299606
   3 C :    0.059190
   4 C :    0.264570
   5 O :   -0.225133
   6 C :    0.001750
   7 C :   -0.270416
   8 O :   -0.241247
   9 H :    0.268343
  10 H :    0.274965
  11 H :    0.155117
  12 H :    0.146919
Sum of atomic charges:    0.0000000

LOEWDIN ATOMIC CHARGES
----------------------
   0 N :   -0.050731
   1 C :   -0.418965
   2 N :    0.112693
   3 C :   -0.240876
   4 C :   -0.358284
   5 O :    0.348897
   6 C :   -0.214718
   7 C :   -0.153728
   8 O :    0.331623
   9 H :    0.178962
  10 H :    0.185244
  11 H :    0.132757
  12 H :    0.147124

  Mayer bond orders larger than 0.1
B(  0-N ,  1-C ) :   1.0953 B(  0-N ,  9-H ) :   0.8644 B(  0-N , 10-H ) :   0.8654
B(  1-C ,  2-N ) :   1.6651 B(  1-C ,  8-O ) :   1.0136 B(  2-N ,  3-C ) :   1.1673
B(  3-C ,  4-C ) :   1.4290 B(  3-C ,  7-C ) :   1.1466 B(  4-C ,  5-O ) :   1.0894
B(  4-C ,  8-O ) :   1.0382 B(  5-O ,  6-C ) :   0.9664 B(  6-C ,  7-C ) :   1.5929
B(  6-C , 11-H ) :   0.9312 B(  7-C , 12-H ) :   0.9198

MP2 TOTAL ENERGY:     -452.024218506 Eh
FINAL SINGLE POINT ENERGY      -452.024218505681

DIPOLE MOMENT
-------------
                                X             Y             Z
Electronic contribution:      1.79367      -0.54481       0.15030
Nuclear contribution   :     -1.57390       0.89462      -0.56214
                        -----------------------------------------
Total Dipole Moment    :      0.21978       0.34980      -0.41184
                        -----------------------------------------
Magnitude (a.u.)       :      0.58334
Magnitude (Debye)      :      1.48272

                             ****ORCA TERMINATED NORMALLY****
TOTAL RUN TIME: 0 days 0 hours 13 minutes 9 seconds 782 msec
