                         Program Version 3.0.3 - RELEASE   -
|  1> ! RI-MP2 RIJK def2-TZVP def2-TZVP/C def2-TZVP/JK TIGHTSCF
|  2> % maxcore 2000
|  3> % mp2 density relaxed end
|  4> *xyz 0 1
|  5>  C       -0.3278564676     1.4447066455     0.0938557843
|  6>  C        0.1160984406     0.0097823238     0.0257667181
|  7>  N       -0.6192971550    -1.0453139362     0.7642858378
|  8>  C        0.7802444859    -0.7237975312     1.1380043931
|  9>  C        1.7490439639    -1.7555635780     0.5988059167
| 10>  C        1.3396500496    -1.8668449542    -0.8743596782
| 11>  O        1.4886738500    -2.8197860557    -1.5891391689
| 12>  C        0.6180215005    -0.5589707531    -1.2942605036
| 13>  O       -0.3607172305    -0.7436331282    -2.2831536791
| 14>  H        0.4774600604     2.1213276562    -0.2123793948
| 15>  H       -1.1757947198     1.6132815010    -0.5783134727
| 16>  H       -0.6316527152     1.7199103821     1.1095767253
| 17>  H       -1.2590453527    -0.6119035158     1.4259586783
| 18>  H        0.9670928787    -0.2352866141     2.0889907336
| 19>  H        2.7868103767    -1.4031249268     0.6641742657
| 20>  H        1.6889382979    -2.7307207037     1.0882280664
| 21>  H        1.3680601190     0.1196625665    -1.7256764804
| 22>  H       -0.9322654324    -1.4596666983    -1.9806338314
| 23> *
| 24>
| 25>                          ****END OF INPUT****

CARTESIAN COORDINATES (ANGSTROEM)
---------------------------------
  C     -0.327856    1.444707    0.093856
  C      0.116098    0.009782    0.025767
  N     -0.619297   -1.045314    0.764286
  C      0.780244   -0.723798    1.138004
  C      1.749044   -1.755564    0.598806
  C      1.339650   -1.866845   -0.874360
  O      1.488674   -2.819786   -1.589139
  C      0.618022   -0.558971   -1.294261
  O     -0.360717   -0.743633   -2.283154
  H      0.477460    2.121328   -0.212379
  H     -1.175795    1.613282   -0.578313
  H     -0.631653    1.719910    1.109577
  H     -1.259045   -0.611904    1.425959
  H      0.967093   -0.235287    2.088991
  H      2.786810   -1.403125    0.664174
  H      1.688938   -2.730721    1.088228
  H      1.368060    0.119663   -1.725676
  H     -0.932265   -1.459667   -1.980634

 Total Charge           Charge          ....    0
 Multiplicity           Mult            ....    1
 Number of Electrons    NEL             ....   68
 Basis Dimension        Dim             ....  333

ORBITAL ENERGIES
----------------

  NO   OCC          E(Eh)            E(eV)
   0   2.0000     -20.563255      -559.5546
   1   2.0000     -20.552127      -559.2518
   2   2.0000     -15.575596      -423.8335
   3   2.0000     -11.332238      -308.3659
   4   2.0000     -11.296445      -307.3919
   5   2.0000     -11.281597      -306.9879
   6   2.0000     -11.280840      -306.9673
   7   2.0000     -11.247448      -306.0586
   8   2.0000     -11.240673      -305.8743
   9   2.0000      -1.401898       -38.1476
  10   2.0000      -1.368356       -37.2349
  11   2.0000      -1.290147       -35.1067
  12   2.0000      -1.060372       -28.8542
  13   2.0000      -1.023865       -27.8608
  14   2.0000      -0.956102       -26.0169
  15   2.0000      -0.867628       -23.6094
  16   2.0000      -0.792471       -21.5642
  17   2.0000      -0.766936       -20.8694
  18   2.0000      -0.695915       -18.9368
  19   2.0000      -0.683895       -18.6097
  20   2.0000      -0.653029       -17.7698
  21   2.0000      -0.642045       -17.4709
  22   2.0000      -0.609631       -16.5889
  23   2.0000      -0.599257       -16.3066
  24   2.0000      -0.582169       -15.8416
  25   2.0000      -0.575759       -15.6672
  26   2.0000      -0.558061       -15.1856
  27   2.0000      -0.526229       -14.3194
  28   2.0000      -0.512432       -13.9440
  29   2.0000      -0.497249       -13.5308
  30   2.0000      -0.480485       -13.0747
  31   2.0000      -0.460684       -12.5359
  32   2.0000      -0.402369       -10.9490
  33   2.0000      -0.389690       -10.6040
  34   0.0000       0.114224         3.1082
  35   0.0000       0.141241         3.8433
  36   0.0000       0.151216         4.1148
  37   0.0000       0.159486         4.3398
  38   0.0000       0.167078         4.5464

MULLIKEN ATOMIC CHARGES
-----------------------
   0 C :   -0.411407
   1 C :    0.072902
   2 N :   -0.387862
   3 C :   -0.145825
   4 C :   -0.125218
   5 C :    0.064568
   6 O :   -0.238654
   7 C :    0.157896
   8 O :   -0.465081
   9 H :    0.136464
  10 H :    0.158602
  11 H :    0.125717
  12 H :    0.219887
  13 H :    0.138760
  14 H :    0.131735
  15 H :    0.127942
  16 H :    0.112261
  17 H :    0.327312
Sum of atomic charges:    0.0000000

LOEWDIN ATOMIC CHARGES
----------------------
   0 C :   -0.270562
   1 C :   -0.295150
   2 N :    0.026288
   3 C :   -0.224088
   4 C :   -0.204487
   5 C :   -0.291351
   6 O :    0.173136
   7 C :   -0.282711
   8 O :    0.009566
   9 H :    0.133218
  10 H :    0.136474
  11 H :    0.128029
  12 H :    0.170005
  13 H :    0.138178
  14 H :    0.154767
  15 H :    0.151335
  16 H :    0.160364
  17 H :    0.186990

  Mayer bond orders larger than 0.1
B(  0-C ,  1-C ) :   0.9022 B(  0-C ,  9-H ) :   0.9269 B(  0-C , 10-H ) :   0.9417
B(  0-C , 11-H ) :   0.9296 B(  1-C ,  2-N ) :   0.9230 B(  1-C ,  3-C ) :   0.8447
B(  1-C ,  7-C ) :   0.8833 B(  2-N ,  3-C ) :   0.9565 B(  2-N , 12-H ) :   0.8695
B(  3-C ,  4-C ) :   0.8953 B(  3-C , 13-H ) :   0.9093 B(  4-C ,  5-C ) :   0.9022
B(  4-C ,  7-C ) :  -0.1045 B(  4-C , 14-H ) :   0.9014 B(  4-C , 15-H ) :   0.8812
B(  5-C ,  6-O ) :   2.1087 B(  5-C ,  7-C ) :   0.8937 B(  7-C ,  8-O ) :   0.9344
B(  7-C , 16-H ) :   0.9051 B(  8-O , 17-H ) :   0.8310

MP2 TOTAL ENERGY:     -438.375295029 Eh
FINAL SINGLE POINT ENERGY      -438.375295029035

DIPOLE MOMENT
-------------
                                X             Y             Z
Electronic contribution:      1.19693      -5.59844      -3.81581
Nuclear contribution   :     -1.17088       6.72898       5.25182
                        -----------------------------------------
Total Dipole Moment    :      0.02605       1.13054       1.43601
                        -----------------------------------------
Magnitude (a.u.)       :      1.82782
Magnitude (Debye)      :      4.64595

                             ****ORCA TERMINATED NORMALLY****
TOTAL RUN TIME: 0 days 0 hours 19 minutes 26 seconds 87 msec
