                         Program Version 3.0.3 - RELEASE   -
|  1> ! RI-MP2 RIJK def2-TZVP def2-TZVP/C def2-TZVP/JK TIGHTSCF
|  2> % maxcore 2000
|  3> % mp2 density relaxed end
|  4> *xyz 0 1
|  5>  C       -0.1173140798     1.3965863739     0.3625143094
|  6>  C       -0.0132893332    -0.0382015876    -0.0961048041
|  7>  O        1.0119070695    -0.5624906806    -0.4667088844
|  8>  C       -1.2898874296    -0.8355908756    -0.0745867839
|  9>  C       -2.0728656960    -1.4573518278    -1.2663915715
| 10>  C       -2.9058319024    -1.5954586734     0.0284240551
| 11>  C       -1.6484653392    -2.0818162609     0.7846872827
| 12>  O       -2.5511666006    -0.1974491172     0.3806799083
| 13>  H        0.8591509898     1.8783418035     0.3058192408
| 14>  H       -0.8472530586     1.9314390394    -0.2549047163
| 15>  H       -0.5048305901     1.4313443634     1.3866233457
| 16>  H       -2.4528765288    -0.7363527743    -1.9906416493
| 17>  H       -1.6639082790    -2.3598547868    -1.7239327964
| 18>  H       -3.9474223009    -1.8882867471     0.1547871233
| 19>  H       -1.2037534104    -3.0369559895     0.5000137322
| 20>  H       -1.6558696905    -1.9090796494     1.8612063185
| 21> *
| 22>
| 23>                          ****END OF INPUT****

CARTESIAN COORDINATES (ANGSTROEM)
---------------------------------
  C     -0.117314    1.396586    0.362514
  C     -0.013289   -0.038202   -0.096105
  O      1.011907   -0.562491   -0.466709
  C     -1.289887   -0.835591   -0.074587
  C     -2.072866   -1.457352   -1.266392
  C     -2.905832   -1.595459    0.028424
  C     -1.648465   -2.081816    0.784687
  O     -2.551167   -0.197449    0.380680
  H      0.859151    1.878342    0.305819
  H     -0.847253    1.931439   -0.254905
  H     -0.504831    1.431344    1.386623
  H     -2.452877   -0.736353   -1.990642
  H     -1.663908   -2.359855   -1.723933
  H     -3.947422   -1.888287    0.154787
  H     -1.203753   -3.036956    0.500014
  H     -1.655870   -1.909080    1.861206

 Total Charge           Charge          ....    0
 Multiplicity           Mult            ....    1
 Number of Electrons    NEL             ....   60
 Basis Dimension        Dim             ....  296

ORBITAL ENERGIES
----------------

  NO   OCC          E(Eh)            E(eV)
   0   2.0000     -20.561214      -559.4991
   1   2.0000     -20.553204      -559.2811
   2   2.0000     -11.339477      -308.5629
   3   2.0000     -11.317451      -307.9635
   4   2.0000     -11.313871      -307.8661
   5   2.0000     -11.252056      -306.1840
   6   2.0000     -11.252043      -306.1837
   7   2.0000     -11.234637      -305.7100
   8   2.0000      -1.412317       -38.4311
   9   2.0000      -1.392907       -37.9029
  10   2.0000      -1.090740       -29.6805
  11   2.0000      -1.026554       -27.9339
  12   2.0000      -0.939395       -25.5622
  13   2.0000      -0.919203       -25.0128
  14   2.0000      -0.792511       -21.5653
  15   2.0000      -0.752806       -20.4849
  16   2.0000      -0.688320       -18.7301
  17   2.0000      -0.642941       -17.4953
  18   2.0000      -0.642008       -17.4699
  19   2.0000      -0.628549       -17.1037
  20   2.0000      -0.600362       -16.3367
  21   2.0000      -0.572454       -15.5773
  22   2.0000      -0.560254       -15.2453
  23   2.0000      -0.522722       -14.2240
  24   2.0000      -0.515064       -14.0156
  25   2.0000      -0.502901       -13.6846
  26   2.0000      -0.493241       -13.4218
  27   2.0000      -0.470599       -12.8056
  28   2.0000      -0.423665       -11.5285
  29   2.0000      -0.409603       -11.1459
  30   0.0000       0.127912         3.4807
  31   0.0000       0.139802         3.8042
  32   0.0000       0.156127         4.2484
  33   0.0000       0.171621         4.6700
  34   0.0000       0.180146         4.9020

MULLIKEN ATOMIC CHARGES
-----------------------
   0 C :   -0.391937
   1 C :    0.135076
   2 O :   -0.282791
   3 C :    0.075091
   4 C :   -0.137754
   5 C :   -0.048105
   6 C :   -0.137683
   7 O :   -0.318867
   8 H :    0.152414
   9 H :    0.153447
  10 H :    0.153412
  11 H :    0.122427
  12 H :    0.128266
  13 H :    0.146314
  14 H :    0.128264
  15 H :    0.122427
Sum of atomic charges:    0.0000000

LOEWDIN ATOMIC CHARGES
----------------------
   0 C :   -0.269157
   1 C :   -0.323582
   2 O :    0.161297
   3 C :   -0.244658
   4 C :   -0.163832
   5 C :   -0.224728
   6 C :   -0.163815
   7 O :    0.140558
   8 H :    0.133230
   9 H :    0.144366
  10 H :    0.144430
  11 H :    0.135356
  12 H :    0.135190
  13 H :    0.124793
  14 H :    0.135194
  15 H :    0.135359

  Mayer bond orders larger than 0.1
B(  0-C ,  1-C ) :   0.9805 B(  0-C ,  3-C ) :  -0.1102 B(  0-C ,  8-H ) :   0.9352
B(  0-C ,  9-H ) :   0.9031 B(  0-C , 10-H ) :   0.9030 B(  1-C ,  2-O ) :   2.0402
B(  1-C ,  3-C ) :   0.7764 B(  3-C ,  4-C ) :   0.8797 B(  3-C ,  6-C ) :   0.8797
B(  3-C ,  7-O ) :   0.9014 B(  4-C ,  5-C ) :   0.9233 B(  4-C , 11-H ) :   0.9205
B(  4-C , 12-H ) :   0.9177 B(  5-C ,  6-C ) :   0.9234 B(  5-C ,  7-O ) :   0.8835
B(  5-C , 13-H ) :   0.8916 B(  6-C , 14-H ) :   0.9177 B(  6-C , 15-H ) :   0.9205

MP2 TOTAL ENERGY:     -383.050238078 Eh
FINAL SINGLE POINT ENERGY      -383.050238078420

DIPOLE MOMENT
-------------
                                X             Y             Z
Electronic contribution:      1.16110      -0.69911      -0.45339
Nuclear contribution   :     -1.80989       0.44634       0.51026
                        -----------------------------------------
Total Dipole Moment    :     -0.64879      -0.25276       0.05687
                        -----------------------------------------
Magnitude (a.u.)       :      0.69861
Magnitude (Debye)      :      1.77572

                             ****ORCA TERMINATED NORMALLY****
TOTAL RUN TIME: 0 days 0 hours 11 minutes 27 seconds 216 msec
