                         Program Version 3.0.3 - RELEASE   -
|  1> ! RI-MP2 RIJK def2-TZVP def2-TZVP/C def2-TZVP/JK TIGHTSCF
|  2> % maxcore 2000
|  3> % mp2 density relaxed end
|  4> *xyz 0 1
|  5>  O       -0.0853074763     1.4450563803     0.0283327646
|  6>  C        0.0044971438     0.0355867195     0.0135709282
|  7>  C        0.6720434501    -0.5156363428    -1.2776968449
|  8>  C       -0.0407830313    -0.1144104709    -2.4807434051
|  9>  C       -0.6417781118     0.2114408676    -3.4681134278
| 10>  C        0.7024972194    -0.4755184069     1.1990743261
| 11>  C        1.3119471088    -0.8723331199     2.1641268025
| 12>  C        1.9940572371    -1.3219055984     3.2584719015
| 13>  N        2.5768285380    -1.7041836151     4.1876261955
| 14>  H        0.8081316364     1.8083871941     0.0340218765
| 15>  H       -1.0328914744    -0.3165700943     0.0380918773
| 16>  H        1.7113383647    -0.1634386407    -1.3098257491
| 17>  H        0.7195053426    -1.6088945527    -1.2065858775
| 18>  H       -1.1680466972     0.5006554901    -4.3441449479
| 19> *
| 20>
| 21>                          ****END OF INPUT****

CARTESIAN COORDINATES (ANGSTROEM)
---------------------------------
  O     -0.085307    1.445056    0.028333
  C      0.004497    0.035587    0.013571
  C      0.672043   -0.515636   -1.277697
  C     -0.040783   -0.114410   -2.480743
  C     -0.641778    0.211441   -3.468113
  C      0.702497   -0.475518    1.199074
  C      1.311947   -0.872333    2.164127
  C      1.994057   -1.321906    3.258472
  N      2.576829   -1.704184    4.187626
  H      0.808132    1.808387    0.034022
  H     -1.032891   -0.316570    0.038092
  H      1.711338   -0.163439   -1.309826
  H      0.719505   -1.608895   -1.206586
  H     -1.168047    0.500655   -4.344145

 Total Charge           Charge          ....    0
 Multiplicity           Mult            ....    1
 Number of Electrons    NEL             ....   62
 Basis Dimension        Dim             ....  309

ORBITAL ENERGIES
----------------

  NO   OCC          E(Eh)            E(eV)
   0   2.0000     -20.596101      -560.4484
   1   2.0000     -15.604084      -424.6087
   2   2.0000     -11.352656      -308.9215
   3   2.0000     -11.310150      -307.7648
   4   2.0000     -11.302211      -307.5488
   5   2.0000     -11.293391      -307.3088
   6   2.0000     -11.289112      -307.1923
   7   2.0000     -11.251138      -306.1590
   8   2.0000     -11.240279      -305.8635
   9   2.0000      -1.407170       -38.2910
  10   2.0000      -1.243481       -33.8368
  11   2.0000      -1.126779       -30.6612
  12   2.0000      -1.088061       -29.6077
  13   2.0000      -1.020463       -27.7682
  14   2.0000      -0.942260       -25.6402
  15   2.0000      -0.879867       -23.9424
  16   2.0000      -0.771117       -20.9832
  17   2.0000      -0.730814       -19.8864
  18   2.0000      -0.687427       -18.7058
  19   2.0000      -0.672629       -18.3032
  20   2.0000      -0.646727       -17.5983
  21   2.0000      -0.594973       -16.1900
  22   2.0000      -0.587784       -15.9944
  23   2.0000      -0.562603       -15.3092
  24   2.0000      -0.543964       -14.8020
  25   2.0000      -0.538674       -14.6581
  26   2.0000      -0.506865       -13.7925
  27   2.0000      -0.423993       -11.5374
  28   2.0000      -0.419546       -11.4164
  29   2.0000      -0.405214       -11.0264
  30   2.0000      -0.401363       -10.9217
  31   0.0000       0.077813         2.1174
  32   0.0000       0.086369         2.3502
  33   0.0000       0.111691         3.0393
  34   0.0000       0.150268         4.0890
  35   0.0000       0.156813         4.2671

MULLIKEN ATOMIC CHARGES
-----------------------
   0 O :   -0.433465
   1 C :    0.016512
   2 C :   -0.366295
   3 C :   -0.026595
   4 C :   -0.098691
   5 C :   -0.149584
   6 C :    0.327144
   7 C :   -0.212964
   8 N :   -0.032781
   9 H :    0.323439
  10 H :    0.141465
  11 H :    0.151602
  12 H :    0.162125
  13 H :    0.198088
Sum of atomic charges:   -0.0000000

LOEWDIN ATOMIC CHARGES
----------------------
   0 O :    0.020785
   1 C :   -0.323196
   2 C :   -0.221568
   3 C :   -0.112360
   4 C :   -0.085707
   5 C :    0.021013
   6 C :   -0.047407
   7 C :   -0.172633
   8 N :    0.106490
   9 H :    0.184862
  10 H :    0.172536
  11 H :    0.160980
  12 H :    0.167140
  13 H :    0.129066

  Mayer bond orders larger than 0.1
B(  0-O ,  1-C ) :   0.9019 B(  0-O ,  5-C ) :   0.1279 B(  0-O ,  9-H ) :   0.8353
B(  1-C ,  2-C ) :   0.9532 B(  1-C ,  5-C ) :   1.0608 B(  1-C ,  6-C ) :  -0.1052
B(  1-C , 10-H ) :   0.9036 B(  2-C ,  3-C ) :   1.1022 B(  2-C ,  4-C ) :  -0.1104
B(  2-C , 11-H ) :   0.9038 B(  2-C , 12-H ) :   0.9287 B(  3-C ,  4-C ) :   2.6349
B(  4-C , 13-H ) :   0.8844 B(  5-C ,  6-C ) :   2.5664 B(  5-C ,  8-N ) :   0.1109
B(  6-C ,  7-C ) :   0.9482 B(  7-C ,  8-N ) :   2.7541

MP2 TOTAL ENERGY:     -398.782847250 Eh
FINAL SINGLE POINT ENERGY      -398.782847249834

DIPOLE MOMENT
-------------
                                X             Y             Z
Electronic contribution:      2.09698      -1.43788       6.79940
Nuclear contribution   :     -2.32934       1.68958      -8.13148
                        -----------------------------------------
Total Dipole Moment    :     -0.23236       0.25170      -1.33208
                        -----------------------------------------
Magnitude (a.u.)       :      1.37542
Magnitude (Debye)      :      3.49604

                             ****ORCA TERMINATED NORMALLY****
TOTAL RUN TIME: 0 days 0 hours 12 minutes 51 seconds 395 msec
