                         Program Version 3.0.3 - RELEASE   -
|  1> ! RI-MP2 RIJK def2-TZVP def2-TZVP/C def2-TZVP/JK TIGHTSCF
|  2> % maxcore 2000
|  3> % mp2 density relaxed end
|  4> *xyz 0 1
|  5>  O        0.6337287500     0.1757703284     0.7611882485
|  6>  C       -0.1323194247     0.2098814214    -0.4259957460
|  7>  C       -1.4909790673    -0.4312109464    -0.2816345522
|  8>  C       -2.2110849685    -0.6453060652     1.0139456435
|  9>  C       -1.8991253747    -1.8561240738     0.1465513016
| 10>  C       -2.8382468390    -1.8677678865    -1.0669449434
| 11>  N       -2.3697944360    -0.5031105113    -1.4514287824
| 12>  C       -1.1030366512    -2.9489202645     0.5902740278
| 13>  N       -0.4756210446    -3.8588871682     0.9349449299
| 14>  H        0.2932324218     0.8479515767     1.3594390527
| 15>  H       -0.2752556158     1.2366938628    -0.8006378020
| 16>  H        0.4406933280    -0.3276004118    -1.1877671585
| 17>  H       -1.5964088020    -0.5823487946     1.9051468808
| 18>  H       -3.2477159127    -0.3386102956     1.1363912096
| 19>  H       -2.5660344052    -2.6097691238    -1.8217243842
| 20>  H       -3.9048908386    -1.9612104566    -0.8333582554
| 21>  H       -3.1007471396     0.2041099290    -1.4566794904
| 22> *
| 23>
| 24>                          ****END OF INPUT****

CARTESIAN COORDINATES (ANGSTROEM)
---------------------------------
  O      0.633729    0.175770    0.761188
  C     -0.132319    0.209881   -0.425996
  C     -1.490979   -0.431211   -0.281635
  C     -2.211085   -0.645306    1.013946
  C     -1.899125   -1.856124    0.146551
  C     -2.838247   -1.867768   -1.066945
  N     -2.369794   -0.503111   -1.451429
  C     -1.103037   -2.948920    0.590274
  N     -0.475621   -3.858887    0.934945
  H      0.293232    0.847952    1.359439
  H     -0.275256    1.236694   -0.800638
  H      0.440693   -0.327600   -1.187767
  H     -1.596409   -0.582349    1.905147
  H     -3.247716   -0.338610    1.136391
  H     -2.566034   -2.609769   -1.821724
  H     -3.904891   -1.961210   -0.833358
  H     -3.100747    0.204110   -1.456679

 Total Charge           Charge          ....    0
 Multiplicity           Mult            ....    1
 Number of Electrons    NEL             ....   66
 Basis Dimension        Dim             ....  327

ORBITAL ENERGIES
----------------

  NO   OCC          E(Eh)            E(eV)
   0   2.0000     -20.575048      -559.8755
   1   2.0000     -15.576449      -423.8567
   2   2.0000     -15.565359      -423.5549
   3   2.0000     -11.303800      -307.5920
   4   2.0000     -11.298117      -307.4374
   5   2.0000     -11.288666      -307.1802
   6   2.0000     -11.287968      -307.1612
   7   2.0000     -11.271306      -306.7078
   8   2.0000     -11.266586      -306.5794
   9   2.0000      -1.381820       -37.6012
  10   2.0000      -1.297314       -35.3017
  11   2.0000      -1.210958       -32.9519
  12   2.0000      -1.104347       -30.0508
  13   2.0000      -1.005495       -27.3609
  14   2.0000      -0.942774       -25.6542
  15   2.0000      -0.865415       -23.5491
  16   2.0000      -0.817830       -22.2543
  17   2.0000      -0.737552       -20.0698
  18   2.0000      -0.701669       -19.0934
  19   2.0000      -0.683708       -18.6046
  20   2.0000      -0.647632       -17.6230
  21   2.0000      -0.621386       -16.9088
  22   2.0000      -0.591233       -16.0883
  23   2.0000      -0.574205       -15.6249
  24   2.0000      -0.563421       -15.3315
  25   2.0000      -0.543370       -14.7858
  26   2.0000      -0.528028       -14.3684
  27   2.0000      -0.521256       -14.1841
  28   2.0000      -0.488512       -13.2931
  29   2.0000      -0.477991       -13.0068
  30   2.0000      -0.454994       -12.3810
  31   2.0000      -0.392687       -10.6855
  32   2.0000      -0.388362       -10.5679
  33   0.0000       0.116727         3.1763
  34   0.0000       0.133018         3.6196
  35   0.0000       0.144825         3.9409
  36   0.0000       0.155194         4.2230
  37   0.0000       0.169076         4.6008

MULLIKEN ATOMIC CHARGES
-----------------------
   0 O :   -0.461870
   1 C :   -0.015665
   2 C :    0.023918
   3 C :   -0.297380
   4 C :    0.175144
   5 C :   -0.130414
   6 N :   -0.320663
   7 C :   -0.265271
   8 N :   -0.048491
   9 H :    0.320031
  10 H :    0.116376
  11 H :    0.131356
  12 H :    0.157287
  13 H :    0.142624
  14 H :    0.131004
  15 H :    0.130165
  16 H :    0.211849
Sum of atomic charges:   -0.0000000

LOEWDIN ATOMIC CHARGES
----------------------
   0 O :   -0.025182
   1 C :   -0.306245
   2 C :   -0.246351
   3 C :   -0.150773
   4 C :   -0.184987
   5 C :   -0.194593
   6 N :    0.037090
   7 C :   -0.160091
   8 N :    0.070299
   9 H :    0.175691
  10 H :    0.128920
  11 H :    0.143028
  12 H :    0.151250
  13 H :    0.136833
  14 H :    0.137048
  15 H :    0.125781
  16 H :    0.162283

  Mayer bond orders larger than 0.1
B(  0-O ,  1-C ) :   0.9378 B(  0-O ,  9-H ) :   0.8430 B(  1-C ,  2-C ) :   0.8817
B(  1-C , 10-H ) :   0.9305 B(  1-C , 11-H ) :   0.9279 B(  2-C ,  3-C ) :   0.9185
B(  2-C ,  4-C ) :   0.7625 B(  2-C ,  6-N ) :   1.0282 B(  3-C ,  4-C ) :   0.7891
B(  3-C , 12-H ) :   0.9238 B(  3-C , 13-H ) :   0.9092 B(  4-C ,  5-C ) :   0.8864
B(  4-C ,  7-C ) :   0.9850 B(  5-C ,  6-N ) :   0.9906 B(  5-C , 14-H ) :   0.9093
B(  5-C , 15-H ) :   0.9178 B(  6-N , 16-H ) :   0.8720 B(  7-C ,  8-N ) :   2.8709

MP2 TOTAL ENERGY:     -417.267629252 Eh
FINAL SINGLE POINT ENERGY      -417.267629251741

DIPOLE MOMENT
-------------
                                X             Y             Z
Electronic contribution:      1.95287      -4.14744       1.59238
Nuclear contribution   :     -3.39468       5.91163      -1.76440
                        -----------------------------------------
Total Dipole Moment    :     -1.44181       1.76419      -0.17202
                        -----------------------------------------
Magnitude (a.u.)       :      2.28490
Magnitude (Debye)      :      5.80775

                             ****ORCA TERMINATED NORMALLY****
TOTAL RUN TIME: 0 days 0 hours 17 minutes 17 seconds 93 msec
