                         Program Version 3.0.3 - RELEASE   -
|  1> ! RI-MP2 RIJK def2-TZVP def2-TZVP/C def2-TZVP/JK TIGHTSCF
|  2> % maxcore 2000
|  3> % mp2 density relaxed end
|  4> *xyz 0 1
|  5>  C       -0.3282933812     1.5200074706    -0.0622035132
|  6>  C        0.1325939854     0.0762095332    -0.0439316916
|  7>  O        1.3988196505    -0.1096378559    -0.7228250442
|  8>  C        1.9400983933    -0.8539905215     0.3838846364
|  9>  C        0.6971718075    -0.5674363967     1.2573776805
| 10>  C        0.9108277663     0.3285480963     2.4725186505
| 11>  C        1.5671862222    -0.4127265704     3.6315777821
| 12>  O        1.7415622289     0.5101880226     4.6949670542
| 13>  H        0.4038217068     2.1840617707     0.4038124389
| 14>  H       -0.4703226654     1.8444489646    -1.0979946283
| 15>  H       -1.2850959131     1.6282330953     0.4600154722
| 16>  H       -0.6383748112    -0.5571154843    -0.5078670844
| 17>  H        2.1029005883    -1.9099006708     0.1297317056
| 18>  H        2.8872747908    -0.4269040005     0.7389884141
| 19>  H        0.1509369168    -1.4681354945     1.5545359518
| 20>  H        1.5411955926     1.1867570642     2.2133170176
| 21>  H       -0.0466899523     0.7337129769     2.8210926382
| 22>  H        0.9308440332    -1.2599738052     3.9371768793
| 23>  H        2.5333991060    -0.8342115920     3.3078932507
| 24>  H        2.1682422246     0.0525756274     5.4250967297
| 25> *
| 26>
| 27>                          ****END OF INPUT****

CARTESIAN COORDINATES (ANGSTROEM)
---------------------------------
  C     -0.328293    1.520007   -0.062204
  C      0.132594    0.076210   -0.043932
  O      1.398820   -0.109638   -0.722825
  C      1.940098   -0.853991    0.383885
  C      0.697172   -0.567436    1.257378
  C      0.910828    0.328548    2.472519
  C      1.567186   -0.412727    3.631578
  O      1.741562    0.510188    4.694967
  H      0.403822    2.184062    0.403812
  H     -0.470323    1.844449   -1.097995
  H     -1.285096    1.628233    0.460015
  H     -0.638375   -0.557115   -0.507867
  H      2.102901   -1.909901    0.129732
  H      2.887275   -0.426904    0.738988
  H      0.150937   -1.468135    1.554536
  H      1.541196    1.186757    2.213317
  H     -0.046690    0.733713    2.821093
  H      0.930844   -1.259974    3.937177
  H      2.533399   -0.834212    3.307893
  H      2.168242    0.052576    5.425097

 Total Charge           Charge          ....    0
 Multiplicity           Mult            ....    1
 Number of Electrons    NEL             ....   64
 Basis Dimension        Dim             ....  320

ORBITAL ENERGIES
----------------

  NO   OCC          E(Eh)            E(eV)
   0   2.0000     -20.559177      -559.4436
   1   2.0000     -20.541306      -558.9574
   2   2.0000     -11.280639      -306.9618
   3   2.0000     -11.280563      -306.9597
   4   2.0000     -11.274295      -306.7892
   5   2.0000     -11.234300      -305.7008
   6   2.0000     -11.224188      -305.4257
   7   2.0000     -11.214282      -305.1561
   8   2.0000      -1.373063       -37.3630
   9   2.0000      -1.363388       -37.0997
  10   2.0000      -1.072939       -29.1962
  11   2.0000      -1.009755       -27.4768
  12   2.0000      -0.958027       -26.0693
  13   2.0000      -0.873923       -23.7806
  14   2.0000      -0.836106       -22.7516
  15   2.0000      -0.738134       -20.0857
  16   2.0000      -0.693673       -18.8758
  17   2.0000      -0.692620       -18.8472
  18   2.0000      -0.647900       -17.6303
  19   2.0000      -0.634199       -17.2574
  20   2.0000      -0.615917       -16.7600
  21   2.0000      -0.586008       -15.9461
  22   2.0000      -0.563650       -15.3377
  23   2.0000      -0.543486       -14.7890
  24   2.0000      -0.527625       -14.3574
  25   2.0000      -0.525616       -14.3027
  26   2.0000      -0.504167       -13.7191
  27   2.0000      -0.494011       -13.4427
  28   2.0000      -0.450837       -12.2679
  29   2.0000      -0.442951       -12.0533
  30   2.0000      -0.436390       -11.8748
  31   2.0000      -0.406662       -11.0658
  32   0.0000       0.131204         3.5702
  33   0.0000       0.143034         3.8921
  34   0.0000       0.157780         4.2934
  35   0.0000       0.165070         4.4918
  36   0.0000       0.179358         4.8806

MULLIKEN ATOMIC CHARGES
-----------------------
   0 C :   -0.385455
   1 C :    0.094238
   2 O :   -0.328712
   3 C :   -0.038407
   4 C :   -0.094367
   5 C :   -0.228783
   6 C :   -0.071256
   7 O :   -0.462020
   8 H :    0.127426
   9 H :    0.143814
  10 H :    0.125641
  11 H :    0.075632
  12 H :    0.092095
  13 H :    0.094316
  14 H :    0.108342
  15 H :    0.124060
  16 H :    0.118468
  17 H :    0.093131
  18 H :    0.096111
  19 H :    0.315725
Sum of atomic charges:   -0.0000000

LOEWDIN ATOMIC CHARGES
----------------------
   0 C :   -0.296585
   1 C :   -0.284855
   2 O :    0.130197
   3 C :   -0.259369
   4 C :   -0.221607
   5 C :   -0.253805
   6 C :   -0.350046
   7 O :   -0.049651
   8 H :    0.125309
   9 H :    0.130499
  10 H :    0.127732
  11 H :    0.133391
  12 H :    0.115006
  13 H :    0.117372
  14 H :    0.145384
  15 H :    0.145027
  16 H :    0.144197
  17 H :    0.114495
  18 H :    0.114996
  19 H :    0.172311

  Mayer bond orders larger than 0.1
B(  0-C ,  1-C ) :   0.9116 B(  0-C ,  8-H ) :   0.9346 B(  0-C ,  9-H ) :   0.9324
B(  0-C , 10-H ) :   0.9301 B(  1-C ,  2-O ) :   0.9658 B(  1-C ,  4-C ) :   0.9355
B(  1-C , 11-H ) :   0.9248 B(  2-O ,  3-C ) :   0.9585 B(  3-C ,  4-C ) :   0.9511
B(  3-C , 12-H ) :   0.9135 B(  3-C , 13-H ) :   0.9053 B(  4-C ,  5-C ) :   0.8989
B(  4-C , 14-H ) :   0.9196 B(  5-C ,  6-C ) :   0.9299 B(  5-C ,  7-O ) :  -0.1025
B(  5-C , 15-H ) :   0.9262 B(  5-C , 16-H ) :   0.9220 B(  6-C ,  7-O ) :   1.0277
B(  6-C , 17-H ) :   0.9317 B(  6-C , 18-H ) :   0.9334 B(  7-O , 19-H ) :   0.8488

MP2 TOTAL ENERGY:     -385.485974194 Eh
FINAL SINGLE POINT ENERGY      -385.485974193861

DIPOLE MOMENT
-------------
                                X             Y             Z
Electronic contribution:      1.80884      -0.95919      -0.54831
Nuclear contribution   :     -1.94181       0.26348       1.25562
                        -----------------------------------------
Total Dipole Moment    :     -0.13297      -0.69571       0.70731
                        -----------------------------------------
Magnitude (a.u.)       :      1.00099
Magnitude (Debye)      :      2.54432

                             ****ORCA TERMINATED NORMALLY****
TOTAL RUN TIME: 0 days 0 hours 18 minutes 4 seconds 27 msec
