                         Program Version 3.0.3 - RELEASE   -
|  1> ! RI-MP2 RIJK def2-TZVP def2-TZVP/C def2-TZVP/JK TIGHTSCF
|  2> % maxcore 2000
|  3> % mp2 density relaxed end
|  4> *xyz 0 1
|  5>  C        0.2263195388     1.5721903343    -0.0343046382
|  6>  C        0.0428846363     0.0638609185     0.0379886853
|  7>  O        0.6549820899    -0.5227400776    -1.1158298726
|  8>  C        1.1960281010    -1.7949219376    -0.7929644826
|  9>  C        1.4385329014    -1.7859457099     0.7069632555
| 10>  C        1.7274337502    -3.0547977909     1.4569286662
| 11>  O        2.1466895215    -0.6012040409     1.1153214787
| 12>  C        0.7163740754    -0.6166865377     1.2144523943
| 13>  H        1.2894312775     1.8173659240     0.0256769652
| 14>  H       -0.1707273868     1.9551739224    -0.9779840870
| 15>  H       -0.3022421646     2.0648364746     0.7880423510
| 16>  H       -1.0322261171    -0.1873732338     0.0677307514
| 17>  H        0.4977642542    -2.6103242652    -1.0461970359
| 18>  H        2.1131772212    -1.9314103544    -1.3767824635
| 19>  H        2.6662924026    -3.5028227428     1.1134858057
| 20>  H        1.8204296751    -2.8535922886     2.5266550067
| 21>  H        0.9294295653    -3.7888438149     1.3044655639
| 22>  H        0.2974688281    -0.5502348393     2.2156717860
| 23> *
| 24>
| 25>                          ****END OF INPUT****

CARTESIAN COORDINATES (ANGSTROEM)
---------------------------------
  C      0.226320    1.572190   -0.034305
  C      0.042885    0.063861    0.037989
  O      0.654982   -0.522740   -1.115830
  C      1.196028   -1.794922   -0.792964
  C      1.438533   -1.785946    0.706963
  C      1.727434   -3.054798    1.456929
  O      2.146690   -0.601204    1.115321
  C      0.716374   -0.616687    1.214452
  H      1.289431    1.817366    0.025677
  H     -0.170727    1.955174   -0.977984
  H     -0.302242    2.064836    0.788042
  H     -1.032226   -0.187373    0.067731
  H      0.497764   -2.610324   -1.046197
  H      2.113177   -1.931410   -1.376782
  H      2.666292   -3.502823    1.113486
  H      1.820430   -2.853592    2.526655
  H      0.929430   -3.788844    1.304466
  H      0.297469   -0.550235    2.215672

 Total Charge           Charge          ....    0
 Multiplicity           Mult            ....    1
 Number of Electrons    NEL             ....   62
 Basis Dimension        Dim             ....  308

ORBITAL ENERGIES
----------------

  NO   OCC          E(Eh)            E(eV)
   0   2.0000     -20.565274      -559.6095
   1   2.0000     -20.553620      -559.2924
   2   2.0000     -11.293011      -307.2985
   3   2.0000     -11.285945      -307.1062
   4   2.0000     -11.283996      -307.0531
   5   2.0000     -11.279968      -306.9435
   6   2.0000     -11.234148      -305.6967
   7   2.0000     -11.213115      -305.1244
   8   2.0000      -1.426712       -38.8228
   9   2.0000      -1.361675       -37.0531
  10   2.0000      -1.050992       -28.5990
  11   2.0000      -1.026387       -27.9294
  12   2.0000      -0.944466       -25.7002
  13   2.0000      -0.916837       -24.9484
  14   2.0000      -0.792945       -21.5771
  15   2.0000      -0.785824       -21.3834
  16   2.0000      -0.708805       -19.2876
  17   2.0000      -0.654091       -17.7987
  18   2.0000      -0.645525       -17.5656
  19   2.0000      -0.622532       -16.9400
  20   2.0000      -0.582834       -15.8597
  21   2.0000      -0.578011       -15.7285
  22   2.0000      -0.569503       -15.4970
  23   2.0000      -0.534031       -14.5317
  24   2.0000      -0.528392       -14.3783
  25   2.0000      -0.519117       -14.1259
  26   2.0000      -0.511028       -13.9058
  27   2.0000      -0.493650       -13.4329
  28   2.0000      -0.456903       -12.4330
  29   2.0000      -0.418080       -11.3765
  30   2.0000      -0.406909       -11.0725
  31   0.0000       0.134693         3.6652
  32   0.0000       0.151711         4.1283
  33   0.0000       0.172609         4.6969
  34   0.0000       0.179261         4.8779
  35   0.0000       0.194413         5.2902

MULLIKEN ATOMIC CHARGES
-----------------------
   0 C :   -0.405858
   1 C :    0.112452
   2 O :   -0.318206
   3 C :   -0.003922
   4 C :    0.123333
   5 C :   -0.417161
   6 O :   -0.335512
   7 C :    0.002186
   8 H :    0.146759
   9 H :    0.141278
  10 H :    0.120108
  11 H :    0.074323
  12 H :    0.087039
  13 H :    0.114499
  14 H :    0.142784
  15 H :    0.146658
  16 H :    0.135007
  17 H :    0.134232
Sum of atomic charges:    0.0000000

LOEWDIN ATOMIC CHARGES
----------------------
   0 C :   -0.287842
   1 C :   -0.318139
   2 O :    0.177273
   3 C :   -0.264147
   4 C :   -0.328108
   5 C :   -0.266083
   6 O :    0.188716
   7 C :   -0.228755
   8 H :    0.131834
   9 H :    0.128291
  10 H :    0.125010
  11 H :    0.140500
  12 H :    0.126979
  13 H :    0.133417
  14 H :    0.133295
  15 H :    0.135734
  16 H :    0.132809
  17 H :    0.139215

  Mayer bond orders larger than 0.1
B(  0-C ,  1-C ) :   0.9012 B(  0-C ,  8-H ) :   0.9402 B(  0-C ,  9-H ) :   0.9371
B(  0-C , 10-H ) :   0.9293 B(  1-C ,  2-O ) :   0.9540 B(  1-C ,  7-C ) :   0.9190
B(  1-C , 11-H ) :   0.9126 B(  2-O ,  3-C ) :   0.9574 B(  3-C ,  4-C ) :   0.9576
B(  3-C , 12-H ) :   0.9150 B(  3-C , 13-H ) :   0.9095 B(  4-C ,  5-C ) :   0.8861
B(  4-C ,  6-O ) :   0.8874 B(  4-C ,  7-C ) :   0.9476 B(  5-C , 14-H ) :   0.9387
B(  5-C , 15-H ) :   0.9385 B(  5-C , 16-H ) :   0.9296 B(  6-O ,  7-C ) :   0.8859
B(  7-C , 17-H ) :   0.9062

MP2 TOTAL ENERGY:     -384.301134581 Eh
FINAL SINGLE POINT ENERGY      -384.301134580916

DIPOLE MOMENT
-------------
                                X             Y             Z
Electronic contribution:      1.43723       0.53950      -0.94616
Nuclear contribution   :     -2.01665      -1.16972       1.40481
                        -----------------------------------------
Total Dipole Moment    :     -0.57942      -0.63023       0.45864
                        -----------------------------------------
Magnitude (a.u.)       :      0.97122
Magnitude (Debye)      :      2.46864

                             ****ORCA TERMINATED NORMALLY****
TOTAL RUN TIME: 0 days 0 hours 12 minutes 39 seconds 500 msec
