                         Program Version 3.0.3 - RELEASE   -
|  1> ! RI-MP2 RIJK def2-TZVP def2-TZVP/C def2-TZVP/JK TIGHTSCF
|  2> % maxcore 2000
|  3> % mp2 density relaxed end
|  4> *xyz 0 1
|  5>  C        0.1903187498     1.6148617838     0.4424317152
|  6>  C        1.4483742268     1.6786314268    -0.4653013828
|  7>  C        1.3562686024     0.1451474790    -0.6556644518
|  8>  C        2.0387219142    -0.5580165299    -1.8745737395
|  9>  C        3.1870096447    -1.0399106870    -0.9029279125
| 10>  C        2.1791871180    -0.7775042053     0.1944144923
| 11>  C        1.4890753266    -1.4050206300     1.1435223999
| 12>  C        0.0444924902    -0.9187826981     1.1784559475
| 13>  C       -0.0520751205     0.1294395509     0.0309111884
| 14>  H        0.4193437226     1.7188491982     1.5065301158
| 15>  H       -0.6089880738     2.3169236863     0.1940269272
| 16>  H        1.2562284724     2.2119476181    -1.4021194266
| 17>  H        2.3682758171     2.0754118691    -0.0251668397
| 18>  H        1.4598719065    -1.4023147136    -2.2573481395
| 19>  H        2.3360354116     0.0901655347    -2.7042562439
| 20>  H        3.5677564454    -2.0577960757    -1.0131845694
| 21>  H        4.0290173461    -0.3405634477    -0.9132741817
| 22>  H        1.8224666118    -2.2569597035     1.7268723953
| 23>  H       -0.6267985948    -1.7730894381     1.0151701917
| 24>  H       -0.2558129945    -0.4821070582     2.1409313364
| 25>  H       -0.9312112925    -0.0108344499    -0.6018247623
| 26> *
| 27>
| 28>                          ****END OF INPUT****

CARTESIAN COORDINATES (ANGSTROEM)
---------------------------------
  C      0.190319    1.614862    0.442432
  C      1.448374    1.678631   -0.465301
  C      1.356269    0.145147   -0.655664
  C      2.038722   -0.558017   -1.874574
  C      3.187010   -1.039911   -0.902928
  C      2.179187   -0.777504    0.194414
  C      1.489075   -1.405021    1.143522
  C      0.044492   -0.918783    1.178456
  C     -0.052075    0.129440    0.030911
  H      0.419344    1.718849    1.506530
  H     -0.608988    2.316924    0.194027
  H      1.256228    2.211948   -1.402119
  H      2.368276    2.075412   -0.025167
  H      1.459872   -1.402315   -2.257348
  H      2.336035    0.090166   -2.704256
  H      3.567756   -2.057796   -1.013185
  H      4.029017   -0.340563   -0.913274
  H      1.822467   -2.256960    1.726872
  H     -0.626799   -1.773089    1.015170
  H     -0.255813   -0.482107    2.140931
  H     -0.931211   -0.010834   -0.601825

 Total Charge           Charge          ....    0
 Multiplicity           Mult            ....    1
 Number of Electrons    NEL             ....   66
 Basis Dimension        Dim             ....  351

ORBITAL ENERGIES
----------------

  NO   OCC          E(Eh)            E(eV)
   0   2.0000     -11.231646      -305.6286
   1   2.0000     -11.227380      -305.5125
   2   2.0000     -11.222503      -305.3798
   3   2.0000     -11.221724      -305.3586
   4   2.0000     -11.219585      -305.3004
   5   2.0000     -11.219285      -305.2923
   6   2.0000     -11.214690      -305.1672
   7   2.0000     -11.213915      -305.1461
   8   2.0000     -11.213813      -305.1434
   9   2.0000      -1.177496       -32.0413
  10   2.0000      -1.073427       -29.2094
  11   2.0000      -1.033670       -28.1276
  12   2.0000      -0.918223       -24.9861
  13   2.0000      -0.883036       -24.0286
  14   2.0000      -0.852127       -23.1875
  15   2.0000      -0.817266       -22.2389
  16   2.0000      -0.746245       -20.3064
  17   2.0000      -0.675922       -18.3928
  18   2.0000      -0.657835       -17.9006
  19   2.0000      -0.620672       -16.8894
  20   2.0000      -0.600956       -16.3529
  21   2.0000      -0.590753       -16.0752
  22   2.0000      -0.558529       -15.1984
  23   2.0000      -0.543020       -14.7763
  24   2.0000      -0.519672       -14.1410
  25   2.0000      -0.508014       -13.8238
  26   2.0000      -0.475971       -12.9518
  27   2.0000      -0.463676       -12.6173
  28   2.0000      -0.456547       -12.4233
  29   2.0000      -0.430404       -11.7119
  30   2.0000      -0.425828       -11.5874
  31   2.0000      -0.398619       -10.8470
  32   2.0000      -0.322588        -8.7781
  33   0.0000       0.143646         3.9088
  34   0.0000       0.149994         4.0815
  35   0.0000       0.155974         4.2443
  36   0.0000       0.164356         4.4724
  37   0.0000       0.168641         4.5890

MULLIKEN ATOMIC CHARGES
-----------------------
   0 C :   -0.279644
   1 C :   -0.232668
   2 C :    0.109213
   3 C :   -0.201675
   4 C :   -0.206859
   5 C :   -0.093407
   6 C :   -0.239110
   7 C :   -0.206304
   8 C :   -0.023098
   9 H :    0.110329
  10 H :    0.113798
  11 H :    0.109013
  12 H :    0.106461
  13 H :    0.116261
  14 H :    0.112538
  15 H :    0.118874
  16 H :    0.127179
  17 H :    0.120405
  18 H :    0.113364
  19 H :    0.115840
  20 H :    0.109490
Sum of atomic charges:    0.0000000

LOEWDIN ATOMIC CHARGES
----------------------
   0 C :   -0.213568
   1 C :   -0.195811
   2 C :   -0.169356
   3 C :   -0.180498
   4 C :   -0.191755
   5 C :   -0.134765
   6 C :   -0.136859
   7 C :   -0.220097
   8 C :   -0.156388
   9 H :    0.133518
  10 H :    0.125122
  11 H :    0.133889
  12 H :    0.127416
  13 H :    0.136361
  14 H :    0.125698
  15 H :    0.128569
  16 H :    0.139816
  17 H :    0.134681
  18 H :    0.136895
  19 H :    0.136883
  20 H :    0.140250

  Mayer bond orders larger than 0.1
B(  0-C ,  1-C ) :   0.9786 B(  0-C ,  8-C ) :   0.9516 B(  0-C ,  9-H ) :   0.9072
B(  0-C , 10-H ) :   0.9296 B(  1-C ,  2-C ) :   0.9076 B(  1-C , 11-H ) :   0.9150
B(  1-C , 12-H ) :   0.9107 B(  2-C ,  3-C ) :   0.8610 B(  2-C ,  5-C ) :   0.9213
B(  2-C ,  8-C ) :   0.8930 B(  3-C ,  4-C ) :   0.9446 B(  3-C , 13-H ) :   0.9117
B(  3-C , 14-H ) :   0.9139 B(  4-C ,  5-C ) :   0.9316 B(  4-C , 15-H ) :   0.9162
B(  4-C , 16-H ) :   0.9210 B(  5-C ,  6-C ) :   1.7666 B(  6-C ,  7-C ) :   0.9410
B(  6-C , 17-H ) :   0.9251 B(  7-C ,  8-C ) :   0.9501 B(  7-C , 18-H ) :   0.9110
B(  7-C , 19-H ) :   0.9122 B(  8-C , 20-H ) :   0.9080

MP2 TOTAL ENERGY:     -349.272339273 Eh
FINAL SINGLE POINT ENERGY      -349.272339272576

DIPOLE MOMENT
-------------
                                X             Y             Z
Electronic contribution:      0.77389      -1.40571       0.74129
Nuclear contribution   :     -0.84853       1.34820      -0.94670
                        -----------------------------------------
Total Dipole Moment    :     -0.07463      -0.05751      -0.20541
                        -----------------------------------------
Magnitude (a.u.)       :      0.22599
Magnitude (Debye)      :      0.57442

                             ****ORCA TERMINATED NORMALLY****
TOTAL RUN TIME: 0 days 0 hours 23 minutes 8 seconds 486 msec
