                         Program Version 3.0.3 - RELEASE   -
|  1> ! RI-MP2 RIJK def2-TZVP def2-TZVP/C def2-TZVP/JK TIGHTSCF
|  2> % maxcore 2000
|  3> % mp2 density relaxed end
|  4> *xyz 0 1
|  5>  C       -0.0148214665     1.3924123373     0.0056710438
|  6>  O       -0.0047153748    -0.0136066049     0.0145965754
|  7>  C        0.6379489343    -0.5532967625    -1.1135823232
|  8>  H        1.0052835779     1.8101580710     0.0046563051
|  9>  H       -0.5468955976     1.7934353007    -0.8725105077
| 10>  H       -0.5300289536     1.7229196896     0.9110169641
| 11>  H        0.1399379234    -0.2559933348    -2.0509837531
| 12>  H        1.6926527455    -0.2386838236    -1.1747774277
| 13>  H        0.5995943514    -1.6418016127    -1.0240761566
| 14> *
| 15>
| 16>                          ****END OF INPUT****

CARTESIAN COORDINATES (ANGSTROEM)
---------------------------------
  C     -0.014821    1.392412    0.005671
  O     -0.004715   -0.013607    0.014597
  C      0.637949   -0.553297   -1.113582
  H      1.005284    1.810158    0.004656
  H     -0.546896    1.793435   -0.872511
  H     -0.530029    1.722920    0.911017
  H      0.139938   -0.255993   -2.050984
  H      1.692653   -0.238684   -1.174777
  H      0.599594   -1.641802   -1.024076

 Total Charge           Charge          ....    0
 Multiplicity           Mult            ....    1
 Number of Electrons    NEL             ....   26
 Basis Dimension        Dim             ....  129

ORBITAL ENERGIES
----------------

  NO   OCC          E(Eh)            E(eV)
   0   2.0000     -20.554564      -559.3181
   1   2.0000     -11.269432      -306.6568
   2   2.0000     -11.269410      -306.6562
   3   2.0000      -1.374274       -37.3959
   4   2.0000      -0.967763       -26.3342
   5   2.0000      -0.871573       -23.7167
   6   2.0000      -0.657801       -17.8997
   7   2.0000      -0.649949       -17.6860
   8   2.0000      -0.641570       -17.4580
   9   2.0000      -0.547407       -14.8957
  10   2.0000      -0.525397       -14.2968
  11   2.0000      -0.481028       -13.0894
  12   2.0000      -0.423569       -11.5259
  13   0.0000       0.144944         3.9441
  14   0.0000       0.182460         4.9650
  15   0.0000       0.210714         5.7338
  16   0.0000       0.218920         5.9571
  17   0.0000       0.219628         5.9764

MULLIKEN ATOMIC CHARGES
-----------------------
   0 C :   -0.190712
   1 O :   -0.321724
   2 C :   -0.190712
   3 H :    0.107534
   4 H :    0.107520
   5 H :    0.136520
   6 H :    0.107533
   7 H :    0.107521
   8 H :    0.136520
Sum of atomic charges:    0.0000000

LOEWDIN ATOMIC CHARGES
----------------------
   0 C :   -0.365177
   1 O :    0.104976
   2 C :   -0.365177
   3 H :    0.099967
   4 H :    0.099968
   5 H :    0.112754
   6 H :    0.099967
   7 H :    0.099968
   8 H :    0.112754

  Mayer bond orders larger than 0.1
B(  0-C ,  1-O ) :   0.9212 B(  0-C ,  3-H ) :   0.9362 B(  0-C ,  4-H ) :   0.9362
B(  0-C ,  5-H ) :   0.9393 B(  1-O ,  2-C ) :   0.9212 B(  2-C ,  6-H ) :   0.9362
B(  2-C ,  7-H ) :   0.9362 B(  2-C ,  8-H ) :   0.9393

MP2 TOTAL ENERGY:     -154.709817856 Eh
FINAL SINGLE POINT ENERGY      -154.709817855846

DIPOLE MOMENT
-------------
                                X             Y             Z
Electronic contribution:     -0.80881      -1.10772       1.45394
Nuclear contribution   :      1.01538       1.39063      -1.82528
                        -----------------------------------------
Total Dipole Moment    :      0.20657       0.28291      -0.37134
                        -----------------------------------------
Magnitude (a.u.)       :      0.51050
Magnitude (Debye)      :      1.29758

                             ****ORCA TERMINATED NORMALLY****
TOTAL RUN TIME: 0 days 0 hours 8 minutes 41 seconds 649 msec
