                         Program Version 3.0.3 - RELEASE   -
|  1> ! RI-MP2 RIJK def2-TZVP def2-TZVP/C def2-TZVP/JK TIGHTSCF
|  2> % maxcore 2000
|  3> % mp2 density relaxed end
|  4> *xyz 0 1
|  5>  C        0.0628832778     1.5494626608     0.0464714191
|  6>  C       -0.0084012741     0.0171323694     0.0051959972
|  7>  C        0.6450140214    -0.5348549289    -1.2817021201
|  8>  C        0.7118410305    -2.0558914683    -1.3133839220
|  9>  N        2.0376092291    -2.6668248146    -1.0872044740
| 10>  C        1.0042391718    -2.7736428741    -0.0445149186
| 11>  C        1.1676471226    -1.9628198499     1.2110174128
| 12>  O        2.0414024437    -0.8348966963     1.1735367427
| 13>  C        0.6319549131    -0.5901146608     1.2421362799
| 14>  H        1.1049372964     1.8856990355     0.0678343434
| 15>  H       -0.4154333230     1.9884358928    -0.8351420242
| 16>  H       -0.4384141636     1.9495572349     0.9340330626
| 17>  H       -1.0680715973    -0.2806865214     0.0225273193
| 18>  H        0.0878094986    -0.1641181640    -2.1483179645
| 19>  H        1.6631973681    -0.1428298171    -1.3533429772
| 20>  H        0.0496800860    -2.5543576898    -2.0173581128
| 21>  H        2.1032286844    -3.5500933784    -1.5871174952
| 22>  H        0.5388340450    -3.7436510074     0.1180500344
| 23>  H        1.2153274556    -2.5311569125     2.1401804898
| 24>  H        0.2928821838    -0.1852736798     2.1974260474
| 25> *
| 26>
| 27>                          ****END OF INPUT****

CARTESIAN COORDINATES (ANGSTROEM)
---------------------------------
  C      0.062883    1.549463    0.046471
  C     -0.008401    0.017132    0.005196
  C      0.645014   -0.534855   -1.281702
  C      0.711841   -2.055891   -1.313384
  N      2.037609   -2.666825   -1.087204
  C      1.004239   -2.773643   -0.044515
  C      1.167647   -1.962820    1.211017
  O      2.041402   -0.834897    1.173537
  C      0.631955   -0.590115    1.242136
  H      1.104937    1.885699    0.067834
  H     -0.415433    1.988436   -0.835142
  H     -0.438414    1.949557    0.934033
  H     -1.068072   -0.280687    0.022527
  H      0.087809   -0.164118   -2.148318
  H      1.663197   -0.142830   -1.353343
  H      0.049680   -2.554358   -2.017358
  H      2.103229   -3.550093   -1.587117
  H      0.538834   -3.743651    0.118050
  H      1.215327   -2.531157    2.140180
  H      0.292882   -0.185274    2.197426

 Total Charge           Charge          ....    0
 Multiplicity           Mult            ....    1
 Number of Electrons    NEL             ....   68
 Basis Dimension        Dim             ....  345

ORBITAL ENERGIES
----------------

  NO   OCC          E(Eh)            E(eV)
   0   2.0000     -20.560057      -559.4676
   1   2.0000     -15.557407      -423.3386
   2   2.0000     -11.282277      -307.0064
   3   2.0000     -11.279058      -306.9188
   4   2.0000     -11.262256      -306.4616
   5   2.0000     -11.258492      -306.3591
   6   2.0000     -11.235032      -305.7208
   7   2.0000     -11.219982      -305.3112
   8   2.0000     -11.215762      -305.1964
   9   2.0000      -1.407461       -38.2990
  10   2.0000      -1.261520       -34.3277
  11   2.0000      -1.082349       -29.4522
  12   2.0000      -0.967353       -26.3230
  13   2.0000      -0.962324       -26.1862
  14   2.0000      -0.897795       -24.4302
  15   2.0000      -0.828426       -22.5426
  16   2.0000      -0.810161       -22.0456
  17   2.0000      -0.730002       -19.8644
  18   2.0000      -0.724637       -19.7184
  19   2.0000      -0.675444       -18.3798
  20   2.0000      -0.647770       -17.6267
  21   2.0000      -0.614146       -16.7118
  22   2.0000      -0.568180       -15.4610
  23   2.0000      -0.558998       -15.2111
  24   2.0000      -0.547456       -14.8970
  25   2.0000      -0.533051       -14.5050
  26   2.0000      -0.514963       -14.0128
  27   2.0000      -0.501884       -13.6570
  28   2.0000      -0.498061       -13.5529
  29   2.0000      -0.462224       -12.5778
  30   2.0000      -0.442904       -12.0520
  31   2.0000      -0.435680       -11.8555
  32   2.0000      -0.418094       -11.3769
  33   2.0000      -0.375340       -10.2135
  34   0.0000       0.131418         3.5761
  35   0.0000       0.145387         3.9562
  36   0.0000       0.165897         4.5143
  37   0.0000       0.167671         4.5626
  38   0.0000       0.188171         5.1204

MULLIKEN ATOMIC CHARGES
-----------------------
   0 C :   -0.421345
   1 C :   -0.005738
   2 C :   -0.248301
   3 C :   -0.041760
   4 N :   -0.381723
   5 C :   -0.042303
   6 C :    0.025987
   7 O :   -0.320342
   8 C :   -0.015718
   9 H :    0.144286
  10 H :    0.131886
  11 H :    0.130349
  12 H :    0.086140
  13 H :    0.122439
  14 H :    0.137384
  15 H :    0.122195
  16 H :    0.216645
  17 H :    0.123630
  18 H :    0.121530
  19 H :    0.114758
Sum of atomic charges:    0.0000000

LOEWDIN ATOMIC CHARGES
----------------------
   0 C :   -0.288869
   1 C :   -0.260417
   2 C :   -0.218093
   3 C :   -0.244386
   4 N :    0.012861
   5 C :   -0.245452
   6 C :   -0.249167
   7 O :    0.185410
   8 C :   -0.239939
   9 H :    0.129580
  10 H :    0.123783
  11 H :    0.122677
  12 H :    0.157185
  13 H :    0.141274
  14 H :    0.155341
  15 H :    0.135058
  16 H :    0.166391
  17 H :    0.140314
  18 H :    0.138170
  19 H :    0.138276

  Mayer bond orders larger than 0.1
B(  0-C ,  1-C ) :   0.8970 B(  0-C ,  9-H ) :   0.9355 B(  0-C , 10-H ) :   0.9398
B(  0-C , 11-H ) :   0.9388 B(  1-C ,  2-C ) :   0.9430 B(  1-C ,  8-C ) :   0.9096
B(  1-C , 12-H ) :   0.9141 B(  2-C ,  3-C ) :   0.9192 B(  2-C , 13-H ) :   0.9293
B(  2-C , 14-H ) :   0.9066 B(  3-C ,  4-N ) :   0.9841 B(  3-C ,  5-C ) :   0.9295
B(  3-C , 15-H ) :   0.9278 B(  4-N ,  5-C ) :   0.9209 B(  4-N , 16-H ) :   0.8670
B(  5-C ,  6-C ) :   0.9422 B(  5-C , 17-H ) :   0.9076 B(  6-C ,  7-O ) :   0.9026
B(  6-C ,  8-C ) :   0.9746 B(  6-C , 18-H ) :   0.9261 B(  7-O ,  8-C ) :   0.9260
B(  8-C , 19-H ) :   0.9259

MP2 TOTAL ENERGY:     -402.428363983 Eh
FINAL SINGLE POINT ENERGY      -402.428363983148

DIPOLE MOMENT
-------------
                                X             Y             Z
Electronic contribution:      3.64121      -4.68835       2.08487
Nuclear contribution   :     -4.80764       4.19833      -2.25203
                        -----------------------------------------
Total Dipole Moment    :     -1.16643      -0.49001      -0.16716
                        -----------------------------------------
Magnitude (a.u.)       :      1.27617
Magnitude (Debye)      :      3.24378

                             ****ORCA TERMINATED NORMALLY****
TOTAL RUN TIME: 0 days 0 hours 19 minutes 58 seconds 940 msec
