                         Program Version 3.0.3 - RELEASE   -
|  1> ! RI-MP2 RIJK def2-TZVP def2-TZVP/C def2-TZVP/JK TIGHTSCF
|  2> % maxcore 2000
|  3> % mp2 density relaxed end
|  4> *xyz 0 1
|  5>  C        0.1024994278     1.4998581902    -0.1249927854
|  6>  C       -0.0273785028     0.0166403302     0.1280763345
|  7>  O        0.7106415969    -0.7843776616    -0.8652853024
|  8>  C        1.4121675220    -1.4522005456     0.1142710828
|  9>  N        2.2599624324    -2.3725384930     0.0463489863
| 10>  C        0.7951062695    -0.6552518896     1.2553812312
| 11>  C        1.6755751019     0.0755591904     2.2870448389
| 12>  C        0.9350732835    -0.8026629542     3.3146127779
| 13>  O        0.0864810880    -1.3533880960     2.2780945061
| 14>  H        1.1516601740     1.8101260914    -0.1255454634
| 15>  H       -0.3333121968     1.7611990003    -1.0935949436
| 16>  H       -0.4297122256     2.0629628533     0.6488163245
| 17>  H       -1.0715929048    -0.3101506666     0.1541435168
| 18>  H        2.4222140585    -2.6665268845    -0.9186544217
| 19>  H        2.7460083722    -0.1019665714     2.1847441991
| 20>  H        1.4830414007     1.1464307903     2.3696161062
| 21>  H        1.5452984663    -1.5786604103     3.7880617377
| 22>  H        0.3509315363    -0.2797407734     4.0791626245
| 23> *
| 24>
| 25>                          ****END OF INPUT****

CARTESIAN COORDINATES (ANGSTROEM)
---------------------------------
  C      0.102499    1.499858   -0.124993
  C     -0.027379    0.016640    0.128076
  O      0.710642   -0.784378   -0.865285
  C      1.412168   -1.452201    0.114271
  N      2.259962   -2.372538    0.046349
  C      0.795106   -0.655252    1.255381
  C      1.675575    0.075559    2.287045
  C      0.935073   -0.802663    3.314613
  O      0.086481   -1.353388    2.278095
  H      1.151660    1.810126   -0.125545
  H     -0.333312    1.761199   -1.093595
  H     -0.429712    2.062963    0.648816
  H     -1.071593   -0.310151    0.154144
  H      2.422214   -2.666527   -0.918654
  H      2.746008   -0.101967    2.184744
  H      1.483041    1.146431    2.369616
  H      1.545298   -1.578660    3.788062
  H      0.350932   -0.279741    4.079163

 Total Charge           Charge          ....    0
 Multiplicity           Mult            ....    1
 Number of Electrons    NEL             ....   68
 Basis Dimension        Dim             ....  333

ORBITAL ENERGIES
----------------

  NO   OCC          E(Eh)            E(eV)
   0   2.0000     -20.590704      -560.3015
   1   2.0000     -20.568275      -559.6912
   2   2.0000     -15.540188      -422.8700
   3   2.0000     -11.335261      -308.4481
   4   2.0000     -11.312096      -307.8178
   5   2.0000     -11.304993      -307.6245
   6   2.0000     -11.292344      -307.2803
   7   2.0000     -11.248147      -306.0776
   8   2.0000     -11.238269      -305.8089
   9   2.0000      -1.437701       -39.1218
  10   2.0000      -1.395487       -37.9731
  11   2.0000      -1.197737       -32.5921
  12   2.0000      -1.058592       -28.8058
  13   2.0000      -1.021207       -27.7885
  14   2.0000      -0.978285       -26.6205
  15   2.0000      -0.853020       -23.2119
  16   2.0000      -0.835472       -22.7343
  17   2.0000      -0.719766       -19.5858
  18   2.0000      -0.716903       -19.5079
  19   2.0000      -0.696345       -18.9485
  20   2.0000      -0.677448       -18.4343
  21   2.0000      -0.647358       -17.6155
  22   2.0000      -0.619919       -16.8688
  23   2.0000      -0.589494       -16.0410
  24   2.0000      -0.581404       -15.8208
  25   2.0000      -0.556359       -15.1393
  26   2.0000      -0.548728       -14.9317
  27   2.0000      -0.528867       -14.3912
  28   2.0000      -0.512546       -13.9471
  29   2.0000      -0.481343       -13.0980
  30   2.0000      -0.473588       -12.8870
  31   2.0000      -0.447742       -12.1837
  32   2.0000      -0.414759       -11.2862
  33   2.0000      -0.403220       -10.9722
  34   0.0000       0.127014         3.4562
  35   0.0000       0.148931         4.0526
  36   0.0000       0.156224         4.2511
  37   0.0000       0.168291         4.5794
  38   0.0000       0.177629         4.8335

MULLIKEN ATOMIC CHARGES
-----------------------
   0 C :   -0.422300
   1 C :    0.100897
   2 O :   -0.264025
   3 C :    0.041181
   4 N :   -0.354395
   5 C :    0.268697
   6 C :   -0.302412
   7 C :   -0.016928
   8 O :   -0.324835
   9 H :    0.139994
  10 H :    0.152323
  11 H :    0.139342
  12 H :    0.113840
  13 H :    0.230028
  14 H :    0.150288
  15 H :    0.133872
  16 H :    0.110201
  17 H :    0.104230
Sum of atomic charges:    0.0000000

LOEWDIN ATOMIC CHARGES
----------------------
   0 C :   -0.291972
   1 C :   -0.229088
   2 O :    0.229579
   3 C :   -0.370696
   4 N :   -0.042747
   5 C :   -0.259777
   6 C :   -0.194554
   7 C :   -0.252655
   8 O :    0.176578
   9 H :    0.130147
  10 H :    0.133682
  11 H :    0.133211
  12 H :    0.146322
  13 H :    0.174220
  14 H :    0.141904
  15 H :    0.136558
  16 H :    0.122545
  17 H :    0.116742

  Mayer bond orders larger than 0.1
B(  0-C ,  1-C ) :   0.9049 B(  0-C ,  9-H ) :   0.9333 B(  0-C , 10-H ) :   0.9312
B(  0-C , 11-H ) :   0.9287 B(  1-C ,  2-O ) :   0.8882 B(  1-C ,  5-C ) :   0.9117
B(  1-C , 12-H ) :   0.9129 B(  2-O ,  3-C ) :   1.0835 B(  3-C ,  4-N ) :   2.1095
B(  3-C ,  5-C ) :   0.8736 B(  4-N , 13-H ) :   0.8488 B(  5-C ,  6-C ) :   0.9028
B(  5-C ,  8-O ) :   0.9724 B(  6-C ,  7-C ) :   0.9974 B(  6-C , 14-H ) :   0.9143
B(  6-C , 15-H ) :   0.9261 B(  7-C ,  8-O ) :   0.9326 B(  7-C , 16-H ) :   0.9139
B(  7-C , 17-H ) :   0.9163

MP2 TOTAL ENERGY:     -438.340290363 Eh
FINAL SINGLE POINT ENERGY      -438.340290362984

DIPOLE MOMENT
-------------
                                X             Y             Z
Electronic contribution:     -0.09994      -5.87017      -2.24629
Nuclear contribution   :     -0.00669       7.11373       2.54034
                        -----------------------------------------
Total Dipole Moment    :     -0.10663       1.24356       0.29405
                        -----------------------------------------
Magnitude (a.u.)       :      1.28229
Magnitude (Debye)      :      3.25933

                             ****ORCA TERMINATED NORMALLY****
TOTAL RUN TIME: 0 days 0 hours 16 minutes 28 seconds 541 msec
