                         Program Version 3.0.3 - RELEASE   -
|  1> ! RI-MP2 RIJK def2-TZVP def2-TZVP/C def2-TZVP/JK TIGHTSCF
|  2> % maxcore 2000
|  3> % mp2 density relaxed end
|  4> *xyz 0 1
|  5>  C        0.0996521399     1.4135992228     0.0125317676
|  6>  C        0.0793073287    -0.0936941000    -0.0733011841
|  7>  O        1.0911596669    -0.7538111489    -0.1843069557
|  8>  C       -1.2684721618    -0.8226978809    -0.0144837732
|  9>  O       -1.0658289191    -2.1983807522    -0.1832031145
| 10>  C       -2.0048749551    -0.5386442505     1.3115878630
| 11>  C       -3.3297531364    -1.3137131443     1.3943578412
| 12>  C       -3.9559732579    -1.2073689640     2.7641137182
| 13>  O       -5.0658714141    -0.7991813332     2.9895320021
| 14>  H        1.0677833392     1.7874097118    -0.3228973827
| 15>  H       -0.7054696627     1.8589210026    -0.5794657385
| 16>  H       -0.0535676113     1.7241193703     1.0526113694
| 17>  H       -1.8863234817    -0.4318335501    -0.8420321517
| 18>  H       -0.1009279285    -2.3058131911    -0.2367867140
| 19>  H       -1.3504014200    -0.8360634381     2.1412195687
| 20>  H       -2.1945802007     0.5361560403     1.4101664009
| 21>  H       -4.0493135794    -0.9630895681     0.6485411949
| 22>  H       -3.1119504686    -2.3716697230     1.1991242067
| 23>  H       -3.2914671273    -1.5446113233     3.5954628118
| 24> *
| 25>
| 26>                          ****END OF INPUT****

CARTESIAN COORDINATES (ANGSTROEM)
---------------------------------
  C      0.099652    1.413599    0.012532
  C      0.079307   -0.093694   -0.073301
  O      1.091160   -0.753811   -0.184307
  C     -1.268472   -0.822698   -0.014484
  O     -1.065829   -2.198381   -0.183203
  C     -2.004875   -0.538644    1.311588
  C     -3.329753   -1.313713    1.394358
  C     -3.955973   -1.207369    2.764114
  O     -5.065871   -0.799181    2.989532
  H      1.067783    1.787410   -0.322897
  H     -0.705470    1.858921   -0.579466
  H     -0.053568    1.724119    1.052611
  H     -1.886323   -0.431834   -0.842032
  H     -0.100928   -2.305813   -0.236787
  H     -1.350401   -0.836063    2.141220
  H     -2.194580    0.536156    1.410166
  H     -4.049314   -0.963090    0.648541
  H     -3.111950   -2.371670    1.199124
  H     -3.291467   -1.544611    3.595463

 Total Charge           Charge          ....    0
 Multiplicity           Mult            ....    1
 Number of Electrons    NEL             ....   70
 Basis Dimension        Dim             ....  339

ORBITAL ENERGIES
----------------

  NO   OCC          E(Eh)            E(eV)
   0   2.0000     -20.574553      -559.8620
   1   2.0000     -20.564818      -559.5972
   2   2.0000     -20.560137      -559.4698
   3   2.0000     -11.355370      -308.9953
   4   2.0000     -11.335200      -308.4465
   5   2.0000     -11.310596      -307.7770
   6   2.0000     -11.259682      -306.3915
   7   2.0000     -11.257332      -306.3276
   8   2.0000     -11.246168      -306.0238
   9   2.0000      -1.427552       -38.8457
  10   2.0000      -1.398850       -38.0646
  11   2.0000      -1.371562       -37.3221
  12   2.0000      -1.099895       -29.9297
  13   2.0000      -1.044333       -28.4177
  14   2.0000      -0.975288       -26.5389
  15   2.0000      -0.872443       -23.7404
  16   2.0000      -0.801561       -21.8116
  17   2.0000      -0.775663       -21.1069
  18   2.0000      -0.724559       -19.7163
  19   2.0000      -0.690158       -18.7801
  20   2.0000      -0.669831       -18.2270
  21   2.0000      -0.654868       -17.8199
  22   2.0000      -0.640080       -17.4175
  23   2.0000      -0.620125       -16.8745
  24   2.0000      -0.602106       -16.3841
  25   2.0000      -0.591625       -16.0989
  26   2.0000      -0.582574       -15.8526
  27   2.0000      -0.560552       -15.2534
  28   2.0000      -0.539411       -14.6781
  29   2.0000      -0.523639       -14.2489
  30   2.0000      -0.518308       -14.1039
  31   2.0000      -0.499769       -13.5994
  32   2.0000      -0.460852       -12.5404
  33   2.0000      -0.443683       -12.0732
  34   2.0000      -0.419325       -11.4104
  35   0.0000       0.111606         3.0370
  36   0.0000       0.122308         3.3282
  37   0.0000       0.132034         3.5928
  38   0.0000       0.152123         4.1395
  39   0.0000       0.158951         4.3253

MULLIKEN ATOMIC CHARGES
-----------------------
   0 C :   -0.425007
   1 C :    0.239784
   2 O :   -0.317384
   3 C :    0.054938
   4 O :   -0.484096
   5 C :   -0.271150
   6 C :   -0.154698
   7 C :    0.098736
   8 O :   -0.264034
   9 H :    0.165068
  10 H :    0.153070
  11 H :    0.161047
  12 H :    0.108445
  13 H :    0.336968
  14 H :    0.116782
  15 H :    0.132876
  16 H :    0.115997
  17 H :    0.160063
  18 H :    0.072596
Sum of atomic charges:   -0.0000000

LOEWDIN ATOMIC CHARGES
----------------------
   0 C :   -0.272704
   1 C :   -0.326254
   2 O :    0.143412
   3 C :   -0.339560
   4 O :   -0.002988
   5 C :   -0.238738
   6 C :   -0.257712
   7 C :   -0.298246
   8 O :    0.130640
   9 H :    0.139058
  10 H :    0.138021
  11 H :    0.144323
  12 H :    0.151694
  13 H :    0.184066
  14 H :    0.144850
  15 H :    0.143565
  16 H :    0.145450
  17 H :    0.161405
  18 H :    0.109718

  Mayer bond orders larger than 0.1
B(  0-C ,  1-C ) :   0.9148 B(  0-C ,  9-H ) :   0.9278 B(  0-C , 10-H ) :   0.9227
B(  0-C , 11-H ) :   0.9071 B(  1-C ,  2-O ) :   1.8949 B(  1-C ,  3-C ) :   0.9048
B(  3-C ,  4-O ) :   1.0931 B(  3-C ,  5-C ) :   0.8433 B(  3-C , 12-H ) :   0.9328
B(  4-O , 13-H ) :   0.7950 B(  5-C ,  6-C ) :   0.9084 B(  5-C , 14-H ) :   0.9172
B(  5-C , 15-H ) :   0.9139 B(  6-C ,  7-C ) :   0.8748 B(  6-C , 16-H ) :   0.9016
B(  6-C , 17-H ) :   0.9143 B(  7-C ,  8-O ) :   2.0039 B(  7-C , 18-H ) :   0.9392

MP2 TOTAL ENERGY:     -459.454703882 Eh
FINAL SINGLE POINT ENERGY      -459.454703881771

DIPOLE MOMENT
-------------
                                X             Y             Z
Electronic contribution:     -0.57100      -3.49959       0.47368
Nuclear contribution   :      1.23396       4.31770      -0.71439
                        -----------------------------------------
Total Dipole Moment    :      0.66296       0.81812      -0.24071
                        -----------------------------------------
Magnitude (a.u.)       :      1.08017
Magnitude (Debye)      :      2.74558

                             ****ORCA TERMINATED NORMALLY****
TOTAL RUN TIME: 0 days 0 hours 16 minutes 28 seconds 37 msec
