                         Program Version 3.0.3 - RELEASE   -
|  1> ! RI-MP2 RIJK def2-TZVP def2-TZVP/C def2-TZVP/JK TIGHTSCF
|  2> % maxcore 2000
|  3> % mp2 density relaxed end
|  4> *xyz 0 1
|  5>  C        0.1449890149     1.4387885268    -0.3104630003
|  6>  C        0.0603077649    -0.0408574593     0.0841138036
|  7>  O        0.6560928523    -0.2594120708     1.3623189742
|  8>  C       -1.3502502151    -0.5729796748     0.0387685007
|  9>  C       -2.0254743872    -1.1440692682     1.0962297101
| 10>  N       -3.2847403799    -1.4727503131     0.6791325911
| 11>  C       -3.4325404082    -1.1468244854    -0.6520776149
| 12>  C       -2.2492180906    -0.5837197388    -1.0773180213
| 13>  N       -1.9713500018    -0.0418127524    -2.3558534616
| 14>  H        1.1864274694     1.7734272477    -0.3000633705
| 15>  H       -0.2835790262     1.6059951132    -1.3020651685
| 16>  H       -0.4274541181     2.0480917101     0.3996090601
| 17>  H        0.6946980581    -0.6186013310    -0.6038146314
| 18>  H        0.2086100267     0.3290149437     1.9810239513
| 19>  H       -1.6879283617    -1.3586690596     2.0962723609
| 20>  H       -3.9858815241    -1.9139550417     1.2454544684
| 21>  H       -4.3551540817    -1.3314149744    -1.1788059035
| 22>  H       -2.7066313037    -0.2589333372    -3.0181645611
| 23>  H       -1.1000133079    -0.3967241149    -2.7353772673
| 24> *
| 25>
| 26>                          ****END OF INPUT****

CARTESIAN COORDINATES (ANGSTROEM)
---------------------------------
  C      0.144989    1.438789   -0.310463
  C      0.060308   -0.040857    0.084114
  O      0.656093   -0.259412    1.362319
  C     -1.350250   -0.572980    0.038769
  C     -2.025474   -1.144069    1.096230
  N     -3.284740   -1.472750    0.679133
  C     -3.432540   -1.146824   -0.652078
  C     -2.249218   -0.583720   -1.077318
  N     -1.971350   -0.041813   -2.355853
  H      1.186427    1.773427   -0.300063
  H     -0.283579    1.605995   -1.302065
  H     -0.427454    2.048092    0.399609
  H      0.694698   -0.618601   -0.603815
  H      0.208610    0.329015    1.981024
  H     -1.687928   -1.358669    2.096272
  H     -3.985882   -1.913955    1.245454
  H     -4.355154   -1.331415   -1.178806
  H     -2.706631   -0.258933   -3.018165
  H     -1.100013   -0.396724   -2.735377

 Total Charge           Charge          ....    0
 Multiplicity           Mult            ....    1
 Number of Electrons    NEL             ....   68
 Basis Dimension        Dim             ....  339

ORBITAL ENERGIES
----------------

  NO   OCC          E(Eh)            E(eV)
   0   2.0000     -20.546696      -559.1040
   1   2.0000     -15.596157      -424.3930
   2   2.0000     -15.553474      -423.2316
   3   2.0000     -11.278558      -306.9052
   4   2.0000     -11.248500      -306.0872
   5   2.0000     -11.247417      -306.0578
   6   2.0000     -11.239073      -305.8307
   7   2.0000     -11.206698      -304.9498
   8   2.0000     -11.205269      -304.9109
   9   2.0000      -1.353295       -36.8250
  10   2.0000      -1.286156       -34.9981
  11   2.0000      -1.191346       -32.4182
  12   2.0000      -1.048389       -28.5281
  13   2.0000      -0.986648       -26.8481
  14   2.0000      -0.963767       -26.2254
  15   2.0000      -0.852640       -23.2015
  16   2.0000      -0.782416       -21.2906
  17   2.0000      -0.746049       -20.3010
  18   2.0000      -0.734549       -19.9881
  19   2.0000      -0.661977       -18.0133
  20   2.0000      -0.647764       -17.6266
  21   2.0000      -0.618112       -16.8197
  22   2.0000      -0.608187       -16.5496
  23   2.0000      -0.584486       -15.9047
  24   2.0000      -0.579427       -15.7670
  25   2.0000      -0.569517       -15.4973
  26   2.0000      -0.541248       -14.7281
  27   2.0000      -0.522943       -14.2300
  28   2.0000      -0.509209       -13.8563
  29   2.0000      -0.478373       -13.0172
  30   2.0000      -0.461105       -12.5473
  31   2.0000      -0.439448       -11.9580
  32   2.0000      -0.315017        -8.5721
  33   2.0000      -0.283915        -7.7257
  34   0.0000       0.133912         3.6439
  35   0.0000       0.135948         3.6993
  36   0.0000       0.151619         4.1258
  37   0.0000       0.168385         4.5820
  38   0.0000       0.174284         4.7425

MULLIKEN ATOMIC CHARGES
-----------------------
   0 C :   -0.370728
   1 C :    0.065964
   2 O :   -0.475625
   3 C :   -0.040563
   4 C :   -0.148376
   5 N :   -0.251675
   6 C :   -0.144933
   7 C :    0.111172
   8 N :   -0.546907
   9 H :    0.134129
  10 H :    0.142281
  11 H :    0.108407
  12 H :    0.098218
  13 H :    0.309315
  14 H :    0.148385
  15 H :    0.242356
  16 H :    0.134743
  17 H :    0.233235
  18 H :    0.250600
Sum of atomic charges:   -0.0000000

LOEWDIN ATOMIC CHARGES
----------------------
   0 C :   -0.297652
   1 C :   -0.332933
   2 O :   -0.018653
   3 C :   -0.165845
   4 C :   -0.225008
   5 N :    0.172269
   6 C :   -0.240456
   7 C :   -0.258705
   8 N :   -0.107413
   9 H :    0.121435
  10 H :    0.128868
  11 H :    0.121872
  12 H :    0.147185
  13 H :    0.173307
  14 H :    0.134292
  15 H :    0.189007
  16 H :    0.129425
  17 H :    0.163757
  18 H :    0.165249

  Mayer bond orders larger than 0.1
B(  0-C ,  1-C ) :   0.9636 B(  0-C ,  9-H ) :   0.9363 B(  0-C , 10-H ) :   0.9187
B(  0-C , 11-H ) :   0.9205 B(  1-C ,  2-O ) :   0.9186 B(  1-C ,  3-C ) :   0.9051
B(  1-C , 12-H ) :   0.9117 B(  2-O , 13-H ) :   0.8435 B(  3-C ,  4-C ) :   1.4583
B(  3-C ,  7-C ) :   1.2576 B(  4-C ,  5-N ) :   1.1607 B(  4-C , 14-H ) :   0.9030
B(  5-N ,  6-C ) :   1.1049 B(  5-N , 15-H ) :   0.8790 B(  6-C ,  7-C ) :   1.5117
B(  6-C , 16-H ) :   0.9149 B(  7-C ,  8-N ) :   0.9288 B(  8-N , 17-H ) :   0.8898
B(  8-N , 18-H ) :   0.8729

MP2 TOTAL ENERGY:     -418.532012708 Eh
FINAL SINGLE POINT ENERGY      -418.532012708429

DIPOLE MOMENT
-------------
                                X             Y             Z
Electronic contribution:     -2.85198      -3.92221       1.95930
Nuclear contribution   :      1.86597       3.60995      -2.07594
                        -----------------------------------------
Total Dipole Moment    :     -0.98601      -0.31226      -0.11664
                        -----------------------------------------
Magnitude (a.u.)       :      1.04084
Magnitude (Debye)      :      2.64559

                             ****ORCA TERMINATED NORMALLY****
TOTAL RUN TIME: 0 days 0 hours 18 minutes 10 seconds 22 msec
