                         Program Version 3.0.3 - RELEASE   -
|  1> ! RI-MP2 RIJK def2-TZVP def2-TZVP/C def2-TZVP/JK TIGHTSCF
|  2> % maxcore 2000
|  3> % mp2 density relaxed end
|  4> *xyz 0 1
|  5>  C       -0.1616759290     1.4935352711    -0.1853316895
|  6>  C        0.0231078731     0.0006336377    -0.0347973451
|  7>  C       -1.1850346273    -0.8679168333     0.4065471148
|  8>  O       -0.4084366675    -1.5425878324     1.4212184603
|  9>  C        0.7609409789    -0.7607454157     1.1269178425
| 10>  C        1.7028854188    -1.4572276053     0.1082616542
| 11>  C        0.9425404276    -0.7357731079    -0.9924786634
| 12>  N        1.0289609694    -0.6304028818    -2.2510032127
| 13>  O        2.0504522425    -1.4523072649    -2.7595811834
| 14>  H        0.8011194011     2.0049066963    -0.2796172872
| 15>  H       -0.7416642192     1.7183422337    -1.0868133983
| 16>  H       -0.6927232666     1.9128638794     0.6754360900
| 17>  H       -1.9995670320    -0.2830784554     0.8536199348
| 18>  H       -1.5989512022    -1.5561612779    -0.3385521129
| 19>  H        1.1961319127    -0.2913614881     2.0123054143
| 20>  H        2.7515029822    -1.1458236549     0.1679668800
| 21>  H        1.6556405162    -2.5488264973     0.1079560821
| 22>  H        2.0122148113    -1.2642995632    -3.7035796707
| 23> *
| 24>
| 25>                          ****END OF INPUT****

CARTESIAN COORDINATES (ANGSTROEM)
---------------------------------
  C     -0.161676    1.493535   -0.185332
  C      0.023108    0.000634   -0.034797
  C     -1.185035   -0.867917    0.406547
  O     -0.408437   -1.542588    1.421218
  C      0.760941   -0.760745    1.126918
  C      1.702885   -1.457228    0.108262
  C      0.942540   -0.735773   -0.992479
  N      1.028961   -0.630403   -2.251003
  O      2.050452   -1.452307   -2.759581
  H      0.801119    2.004907   -0.279617
  H     -0.741664    1.718342   -1.086813
  H     -0.692723    1.912864    0.675436
  H     -1.999567   -0.283078    0.853620
  H     -1.598951   -1.556161   -0.338552
  H      1.196132   -0.291361    2.012305
  H      2.751503   -1.145824    0.167967
  H      1.655641   -2.548826    0.107956
  H      2.012215   -1.264300   -3.703580

 Total Charge           Charge          ....    0
 Multiplicity           Mult            ....    1
 Number of Electrons    NEL             ....   68
 Basis Dimension        Dim             ....  333

ORBITAL ENERGIES
----------------

  NO   OCC          E(Eh)            E(eV)
   0   2.0000     -20.592944      -560.3625
   1   2.0000     -20.556733      -559.3771
   2   2.0000     -15.616828      -424.9555
   3   2.0000     -11.294066      -307.3271
   4   2.0000     -11.288322      -307.1709
   5   2.0000     -11.279120      -306.9205
   6   2.0000     -11.255461      -306.2767
   7   2.0000     -11.241070      -305.8851
   8   2.0000     -11.230793      -305.6054
   9   2.0000      -1.418656       -38.6036
  10   2.0000      -1.390901       -37.8483
  11   2.0000      -1.180099       -32.1121
  12   2.0000      -1.082503       -29.4564
  13   2.0000      -1.020095       -27.7582
  14   2.0000      -0.932805       -25.3829
  15   2.0000      -0.867787       -23.6137
  16   2.0000      -0.809197       -22.0194
  17   2.0000      -0.710577       -19.3358
  18   2.0000      -0.692890       -18.8545
  19   2.0000      -0.674618       -18.3573
  20   2.0000      -0.667111       -18.1530
  21   2.0000      -0.642859       -17.4931
  22   2.0000      -0.608881       -16.5685
  23   2.0000      -0.590292       -16.0627
  24   2.0000      -0.574949       -15.6452
  25   2.0000      -0.571819       -15.5600
  26   2.0000      -0.552548       -15.0356
  27   2.0000      -0.540942       -14.7198
  28   2.0000      -0.513099       -13.9621
  29   2.0000      -0.470107       -12.7923
  30   2.0000      -0.438283       -11.9263
  31   2.0000      -0.424251       -11.5444
  32   2.0000      -0.416594       -11.3361
  33   2.0000      -0.382112       -10.3978
  34   0.0000       0.134896         3.6707
  35   0.0000       0.139315         3.7910
  36   0.0000       0.149026         4.0552
  37   0.0000       0.166825         4.5395
  38   0.0000       0.183720         4.9993

MULLIKEN ATOMIC CHARGES
-----------------------
   0 C :   -0.400533
   1 C :    0.130480
   2 C :   -0.032873
   3 O :   -0.330601
   4 C :    0.041554
   5 C :   -0.185183
   6 C :   -0.124890
   7 N :   -0.086374
   8 O :   -0.358681
   9 H :    0.135849
  10 H :    0.147260
  11 H :    0.136908
  12 H :    0.097322
  13 H :    0.110285
  14 H :    0.111325
  15 H :    0.133266
  16 H :    0.137731
  17 H :    0.337155
Sum of atomic charges:   -0.0000000

LOEWDIN ATOMIC CHARGES
----------------------
   0 C :   -0.267337
   1 C :   -0.210502
   2 C :   -0.215257
   3 O :    0.138206
   4 C :   -0.205271
   5 C :   -0.184867
   6 C :   -0.245287
   7 N :    0.027468
   8 O :   -0.072352
   9 H :    0.131398
  10 H :    0.135728
  11 H :    0.128984
  12 H :    0.122178
  13 H :    0.122586
  14 H :    0.127200
  15 H :    0.149343
  16 H :    0.148136
  17 H :    0.169646

  Mayer bond orders larger than 0.1
B(  0-C ,  1-C ) :   0.8910 B(  0-C ,  9-H ) :   0.9329 B(  0-C , 10-H ) :   0.9295
B(  0-C , 11-H ) :   0.9364 B(  1-C ,  2-C ) :   0.9441 B(  1-C ,  4-C ) :   0.9358
B(  1-C ,  6-C ) :   0.8905 B(  2-C ,  3-O ) :   0.9484 B(  2-C , 12-H ) :   0.9067
B(  2-C , 13-H ) :   0.9053 B(  3-O ,  4-C ) :   0.9682 B(  4-C ,  5-C ) :   0.9247
B(  4-C , 14-H ) :   0.9225 B(  5-C ,  6-C ) :   0.9836 B(  5-C , 15-H ) :   0.8901
B(  5-C , 16-H ) :   0.8802 B(  6-C ,  7-N ) :   1.8649 B(  7-N ,  8-O ) :   0.8079
B(  8-O , 17-H ) :   0.8431

MP2 TOTAL ENERGY:     -438.280845894 Eh
FINAL SINGLE POINT ENERGY      -438.280845894335

DIPOLE MOMENT
-------------
                                X             Y             Z
Electronic contribution:      1.52243      -3.76432      -1.98438
Nuclear contribution   :     -1.40422       4.33473       1.76868
                        -----------------------------------------
Total Dipole Moment    :      0.11821       0.57041      -0.21570
                        -----------------------------------------
Magnitude (a.u.)       :      0.62118
Magnitude (Debye)      :      1.57892

                             ****ORCA TERMINATED NORMALLY****
TOTAL RUN TIME: 0 days 0 hours 17 minutes 9 seconds 23 msec
