                         Program Version 3.0.3 - RELEASE   -
|  1> ! RI-MP2 RIJK def2-TZVP def2-TZVP/C def2-TZVP/JK TIGHTSCF
|  2> % maxcore 2000
|  3> % mp2 density relaxed end
|  4> *xyz 0 1
|  5>  O        0.3097172168     0.9452927695     0.9884082215
|  6>  C       -0.0369466376     0.3044191107    -0.2175160804
|  7>  C       -1.4242465672    -0.2693650483    -0.1897697188
|  8>  N       -2.0891840451    -0.3287300652     0.9540197100
|  9>  N       -3.2658021538    -0.9145318442     0.6449441605
| 10>  C       -3.3699984294    -1.2279826191    -0.6625374301
| 11>  C       -2.1841144618    -0.8272906611    -1.2609037020
| 12>  C       -1.8083851098    -0.9384390802    -2.6172431457
| 13>  C       -1.4616026031    -1.0198536353    -3.7678326618
| 14>  H       -0.2907169173     0.6119155767     1.6663764193
| 15>  H        0.0416671260     1.0305766202    -1.0373759565
| 16>  H        0.6744715768    -0.5051630986    -0.4545705202
| 17>  H       -3.9484852354    -1.0551558997     1.3700323759
| 18>  H       -4.2482174360    -1.6964110813    -1.0766456016
| 19>  H       -1.1597859130    -1.0925309941    -4.7830848599
| 20> *
| 21>
| 22>                          ****END OF INPUT****

CARTESIAN COORDINATES (ANGSTROEM)
---------------------------------
  O      0.309717    0.945293    0.988408
  C     -0.036947    0.304419   -0.217516
  C     -1.424247   -0.269365   -0.189770
  N     -2.089184   -0.328730    0.954020
  N     -3.265802   -0.914532    0.644944
  C     -3.369998   -1.227983   -0.662537
  C     -2.184114   -0.827291   -1.260904
  C     -1.808385   -0.938439   -2.617243
  C     -1.461603   -1.019854   -3.767833
  H     -0.290717    0.611916    1.666376
  H      0.041667    1.030577   -1.037376
  H      0.674472   -0.505163   -0.454571
  H     -3.948485   -1.055156    1.370032
  H     -4.248217   -1.696411   -1.076646
  H     -1.159786   -1.092531   -4.783085

 Total Charge           Charge          ....    0
 Multiplicity           Mult            ....    1
 Number of Electrons    NEL             ....   64
 Basis Dimension        Dim             ....  315

ORBITAL ENERGIES
----------------

  NO   OCC          E(Eh)            E(eV)
   0   2.0000     -20.546984      -559.1119
   1   2.0000     -15.657369      -426.0587
   2   2.0000     -15.601605      -424.5412
   3   2.0000     -11.304483      -307.6106
   4   2.0000     -11.283881      -307.0500
   5   2.0000     -11.279988      -306.9441
   6   2.0000     -11.257515      -306.3326
   7   2.0000     -11.246239      -306.0257
   8   2.0000     -11.232487      -305.6515
   9   2.0000      -1.396663       -38.0051
  10   2.0000      -1.355786       -36.8928
  11   2.0000      -1.129496       -30.7351
  12   2.0000      -1.103300       -30.0223
  13   2.0000      -1.018357       -27.7109
  14   2.0000      -0.951483       -25.8912
  15   2.0000      -0.867420       -23.6037
  16   2.0000      -0.791616       -21.5410
  17   2.0000      -0.780327       -21.2338
  18   2.0000      -0.721127       -19.6229
  19   2.0000      -0.670331       -18.2406
  20   2.0000      -0.655909       -17.8482
  21   2.0000      -0.647879       -17.6297
  22   2.0000      -0.626812       -17.0564
  23   2.0000      -0.609671       -16.5900
  24   2.0000      -0.582667       -15.8552
  25   2.0000      -0.509439       -13.8625
  26   2.0000      -0.489388       -13.3169
  27   2.0000      -0.465040       -12.6544
  28   2.0000      -0.445687       -12.1278
  29   2.0000      -0.400449       -10.8968
  30   2.0000      -0.374961       -10.2032
  31   2.0000      -0.331640        -9.0244
  32   0.0000       0.118904         3.2356
  33   0.0000       0.122460         3.3323
  34   0.0000       0.154230         4.1968
  35   0.0000       0.157263         4.2793
  36   0.0000       0.162285         4.4160

MULLIKEN ATOMIC CHARGES
-----------------------
   0 O :   -0.479861
   1 C :   -0.014195
   2 C :    0.018901
   3 N :   -0.250391
   4 N :   -0.128201
   5 C :   -0.079968
   6 C :   -0.135526
   7 C :    0.033055
   8 C :   -0.154055
   9 H :    0.334204
  10 H :    0.122329
  11 H :    0.110617
  12 H :    0.261931
  13 H :    0.166741
  14 H :    0.194419
Sum of atomic charges:   -0.0000000

LOEWDIN ATOMIC CHARGES
----------------------
   0 O :   -0.038868
   1 C :   -0.306630
   2 C :   -0.238735
   3 N :    0.039608
   4 N :    0.139394
   5 C :   -0.184038
   6 C :   -0.169376
   7 C :   -0.073931
   8 C :   -0.076586
   9 H :    0.175608
  10 H :    0.137231
  11 H :    0.131228
  12 H :    0.192264
  13 H :    0.144337
  14 H :    0.128494

  Mayer bond orders larger than 0.1
B(  0-O ,  1-C ) :   0.9938 B(  0-O ,  9-H ) :   0.8220 B(  1-C ,  2-C ) :   0.9422
B(  1-C , 10-H ) :   0.9244 B(  1-C , 11-H ) :   0.9236 B(  2-C ,  3-N ) :   1.5063
B(  2-C ,  6-C ) :   1.1820 B(  3-N ,  4-N ) :   1.0752 B(  3-N ,  5-C ) :   0.1029
B(  4-N ,  5-C ) :   1.2309 B(  4-N , 12-H ) :   0.8743 B(  5-C ,  6-C ) :   1.3643
B(  5-C , 13-H ) :   0.8985 B(  6-C ,  7-C ) :   1.1873 B(  6-C ,  8-C ) :  -0.1397
B(  7-C ,  8-C ) :   2.6309 B(  8-C , 14-H ) :   0.8705

MP2 TOTAL ENERGY:     -416.080279713 Eh
FINAL SINGLE POINT ENERGY      -416.080279713380

DIPOLE MOMENT
-------------
                                X             Y             Z
Electronic contribution:     -2.30102      -0.72750       0.58725
Nuclear contribution   :      0.97679      -0.08726      -0.74564
                        -----------------------------------------
Total Dipole Moment    :     -1.32423      -0.81476      -0.15839
                        -----------------------------------------
Magnitude (a.u.)       :      1.56285
Magnitude (Debye)      :      3.97245

                             ****ORCA TERMINATED NORMALLY****
TOTAL RUN TIME: 0 days 0 hours 15 minutes 53 seconds 358 msec
