                         Program Version 3.0.3 - RELEASE   -
|  1> ! RI-MP2 RIJK def2-TZVP def2-TZVP/C def2-TZVP/JK TIGHTSCF
|  2> % maxcore 2000
|  3> % mp2 density relaxed end
|  4> *xyz 0 1
|  5>  C       -0.0903668648     1.4517685441    -0.3914713642
|  6>  C       -0.2157242317    -0.0689209150    -0.3596971459
|  7>  C       -1.3246120751    -0.5766841395     0.5515946997
|  8>  O       -1.9345909880     0.1613960962     1.2919950302
|  9>  C       -1.6455566719    -2.0742933567     0.4735010785
| 10>  C       -2.0135206972    -2.6183395963     1.8594669256
| 11>  C       -2.7769893437    -2.2512347107    -0.5660823686
| 12>  C       -3.0558321633    -3.7027249197    -0.9420125823
| 13>  O       -4.0171481411    -3.6899043039    -1.9865501596
| 14>  H        0.7484771491     1.7599588014    -1.0217871413
| 15>  H       -1.0022938891     1.9108659609    -0.7829129718
| 16>  H        0.0644421427     1.8478278368     0.6149194319
| 17>  H       -0.3730225321    -0.4837122864    -1.3643454376
| 18>  H        0.7176358154    -0.5339708486    -0.0084618967
| 19>  H       -0.7544340939    -2.5936441262     0.0950656334
| 20>  H       -2.2565401272    -3.6834455472     1.8213125179
| 21>  H       -1.1842456386    -2.4903894648     2.5620106112
| 22>  H       -2.8718902665    -2.0737524072     2.2602623498
| 23>  H       -3.6957038624    -1.7928503048    -0.1835949058
| 24>  H       -2.5246654491    -1.7205583470    -1.4923295263
| 25>  H       -2.1193353582    -4.1867593205    -1.2672758469
| 26>  H       -3.4275027193    -4.2621733432    -0.0708339769
| 27>  H       -4.2561829138    -4.5993404918    -2.1874685046
| 28> *
| 29>
| 30>                          ****END OF INPUT****

CARTESIAN COORDINATES (ANGSTROEM)
---------------------------------
  C     -0.090367    1.451769   -0.391471
  C     -0.215724   -0.068921   -0.359697
  C     -1.324612   -0.576684    0.551595
  O     -1.934591    0.161396    1.291995
  C     -1.645557   -2.074293    0.473501
  C     -2.013521   -2.618340    1.859467
  C     -2.776989   -2.251235   -0.566082
  C     -3.055832   -3.702725   -0.942013
  O     -4.017148   -3.689904   -1.986550
  H      0.748477    1.759959   -1.021787
  H     -1.002294    1.910866   -0.782913
  H      0.064442    1.847828    0.614919
  H     -0.373023   -0.483712   -1.364345
  H      0.717636   -0.533971   -0.008462
  H     -0.754434   -2.593644    0.095066
  H     -2.256540   -3.683446    1.821313
  H     -1.184246   -2.490389    2.562011
  H     -2.871890   -2.073752    2.260262
  H     -3.695704   -1.792850   -0.183595
  H     -2.524665   -1.720558   -1.492330
  H     -2.119335   -4.186759   -1.267276
  H     -3.427503   -4.262173   -0.070834
  H     -4.256183   -4.599340   -2.187469

 Total Charge           Charge          ....    0
 Multiplicity           Mult            ....    1
 Number of Electrons    NEL             ....   72
 Basis Dimension        Dim             ....  363

ORBITAL ENERGIES
----------------

  NO   OCC          E(Eh)            E(eV)
   0   2.0000     -20.560485      -559.4792
   1   2.0000     -20.539442      -558.9066
   2   2.0000     -11.322888      -308.1114
   3   2.0000     -11.282440      -307.0108
   4   2.0000     -11.243447      -305.9498
   5   2.0000     -11.238123      -305.8049
   6   2.0000     -11.230556      -305.5990
   7   2.0000     -11.218452      -305.2696
   8   2.0000     -11.215626      -305.1927
   9   2.0000      -1.384588       -37.6766
  10   2.0000      -1.364736       -37.1364
  11   2.0000      -1.096674       -29.8420
  12   2.0000      -1.046699       -28.4821
  13   2.0000      -0.982932       -26.7469
  14   2.0000      -0.916102       -24.9284
  15   2.0000      -0.862811       -23.4783
  16   2.0000      -0.803938       -21.8763
  17   2.0000      -0.728173       -19.8146
  18   2.0000      -0.699249       -19.0275
  19   2.0000      -0.672887       -18.3102
  20   2.0000      -0.652733       -17.7618
  21   2.0000      -0.628770       -17.1097
  22   2.0000      -0.617728       -16.8092
  23   2.0000      -0.595073       -16.1928
  24   2.0000      -0.571385       -15.5482
  25   2.0000      -0.564792       -15.3688
  26   2.0000      -0.537497       -14.6260
  27   2.0000      -0.528466       -14.3803
  28   2.0000      -0.521052       -14.1785
  29   2.0000      -0.507626       -13.8132
  30   2.0000      -0.492676       -13.4064
  31   2.0000      -0.489457       -13.3188
  32   2.0000      -0.482090       -13.1183
  33   2.0000      -0.472450       -12.8560
  34   2.0000      -0.449127       -12.2214
  35   2.0000      -0.398167       -10.8347
  36   0.0000       0.124924         3.3994
  37   0.0000       0.134321         3.6551
  38   0.0000       0.146899         3.9973
  39   0.0000       0.156698         4.2640
  40   0.0000       0.166939         4.5427

MULLIKEN ATOMIC CHARGES
-----------------------
   0 C :   -0.369683
   1 C :   -0.247689
   2 C :    0.187674
   3 O :   -0.298416
   4 C :   -0.041632
   5 C :   -0.411886
   6 C :   -0.199086
   7 C :   -0.088619
   8 O :   -0.462990
   9 H :    0.131890
  10 H :    0.130483
  11 H :    0.137600
  12 H :    0.133792
  13 H :    0.132751
  14 H :    0.094839
  15 H :    0.129398
  16 H :    0.132406
  17 H :    0.149033
  18 H :    0.131177
  19 H :    0.119217
  20 H :    0.091469
  21 H :    0.102201
  22 H :    0.316071
Sum of atomic charges:    0.0000000

LOEWDIN ATOMIC CHARGES
----------------------
   0 C :   -0.311775
   1 C :   -0.270518
   2 C :   -0.303534
   3 O :    0.159013
   4 C :   -0.253398
   5 C :   -0.286470
   6 C :   -0.238286
   7 C :   -0.350686
   8 O :   -0.049199
   9 H :    0.120838
  10 H :    0.126460
  11 H :    0.127798
  12 H :    0.148582
  13 H :    0.152358
  14 H :    0.155342
  15 H :    0.120219
  16 H :    0.126338
  17 H :    0.132616
  18 H :    0.148100
  19 H :    0.144602
  20 H :    0.114540
  21 H :    0.114675
  22 H :    0.172389

  Mayer bond orders larger than 0.1
B(  0-C ,  1-C ) :   0.9392 B(  0-C ,  9-H ) :   0.9390 B(  0-C , 10-H ) :   0.9367
B(  0-C , 11-H ) :   0.9348 B(  1-C ,  2-C ) :   0.9278 B(  1-C , 12-H ) :   0.9123
B(  1-C , 13-H ) :   0.9060 B(  2-C ,  3-O ) :   1.9769 B(  2-C ,  4-C ) :   0.8729
B(  4-C ,  5-C ) :   0.8980 B(  4-C ,  6-C ) :   0.8879 B(  4-C , 14-H ) :   0.9252
B(  5-C , 15-H ) :   0.9408 B(  5-C , 16-H ) :   0.9387 B(  5-C , 17-H ) :   0.9291
B(  6-C ,  7-C ) :   0.9217 B(  6-C ,  8-O ) :  -0.1006 B(  6-C , 18-H ) :   0.9224
B(  6-C , 19-H ) :   0.9201 B(  7-C ,  8-O ) :   1.0296 B(  7-C , 20-H ) :   0.9291
B(  7-C , 21-H ) :   0.9378 B(  8-O , 22-H ) :   0.8486

MP2 TOTAL ENERGY:     -424.743326003 Eh
FINAL SINGLE POINT ENERGY      -424.743326003302

DIPOLE MOMENT
-------------
                                X             Y             Z
Electronic contribution:     -3.21147       0.41796       0.13365
Nuclear contribution   :      3.86935      -1.54437      -0.50360
                        -----------------------------------------
Total Dipole Moment    :      0.65788      -1.12641      -0.36995
                        -----------------------------------------
Magnitude (a.u.)       :      1.35590
Magnitude (Debye)      :      3.44643

                             ****ORCA TERMINATED NORMALLY****
TOTAL RUN TIME: 0 days 0 hours 18 minutes 12 seconds 635 msec
