                         Program Version 3.0.3 - RELEASE   -
|  1> ! RI-MP2 RIJK def2-TZVP def2-TZVP/C def2-TZVP/JK TIGHTSCF
|  2> % maxcore 2000
|  3> % mp2 density relaxed end
|  4> *xyz 0 1
|  5>  O        0.4631265428     0.7926751950     0.6436509684
|  6>  C        0.1600644855    -0.4524443522     0.0634014920
|  7>  C       -1.3292884463    -0.8296761710    -0.1155881005
|  8>  C       -2.2990825143    -1.2458324020     0.9108271450
|  9>  N       -2.4115964716     0.0794633404     0.2582928840
| 10>  C       -1.0897372461    -1.2912198778    -1.5599536841
| 11>  C        0.2990064493    -0.6399134237    -1.4571796048
| 12>  C        0.9887427742     0.2437832264    -2.4010873668
| 13>  O        1.4674454690    -1.0781307884    -2.1156987911
| 14>  H        0.1164237225     1.4805809991     0.0638250299
| 15>  H        0.7300478689    -1.2006955445     0.6233182551
| 16>  H       -3.0928598521    -1.9441483601     0.6590405444
| 17>  H       -1.9641923566    -1.2892117312     1.9446328656
| 18>  H       -2.0294721019     0.7856144554     0.8883902547
| 19>  H       -1.0315338965    -2.3781797624    -1.6684418579
| 20>  H       -1.7723249737    -0.8847174465    -2.3091667887
| 21>  H        0.5777077711     0.3889672122    -3.3992121635
| 22>  H        1.6175401260     1.0515290913    -2.0279725216
| 23> *
| 24>
| 25>                          ****END OF INPUT****

CARTESIAN COORDINATES (ANGSTROEM)
---------------------------------
  O      0.463127    0.792675    0.643651
  C      0.160064   -0.452444    0.063401
  C     -1.329288   -0.829676   -0.115588
  C     -2.299083   -1.245832    0.910827
  N     -2.411596    0.079463    0.258293
  C     -1.089737   -1.291220   -1.559954
  C      0.299006   -0.639913   -1.457180
  C      0.988743    0.243783   -2.401087
  O      1.467445   -1.078131   -2.115699
  H      0.116424    1.480581    0.063825
  H      0.730048   -1.200696    0.623318
  H     -3.092860   -1.944148    0.659041
  H     -1.964192   -1.289212    1.944633
  H     -2.029472    0.785614    0.888390
  H     -1.031534   -2.378180   -1.668442
  H     -1.772325   -0.884717   -2.309167
  H      0.577708    0.388967   -3.399212
  H      1.617540    1.051529   -2.027973

 Total Charge           Charge          ....    0
 Multiplicity           Mult            ....    1
 Number of Electrons    NEL             ....   68
 Basis Dimension        Dim             ....  333

ORBITAL ENERGIES
----------------

  NO   OCC          E(Eh)            E(eV)
   0   2.0000     -20.578401      -559.9667
   1   2.0000     -20.577415      -559.9399
   2   2.0000     -15.565691      -423.5640
   3   2.0000     -11.300175      -307.4934
   4   2.0000     -11.296571      -307.3953
   5   2.0000     -11.292477      -307.2839
   6   2.0000     -11.272661      -306.7447
   7   2.0000     -11.262188      -306.4597
   8   2.0000     -11.238177      -305.8063
   9   2.0000      -1.424834       -38.7717
  10   2.0000      -1.384497       -37.6741
  11   2.0000      -1.271050       -34.5870
  12   2.0000      -1.104274       -30.0488
  13   2.0000      -0.925261       -25.1776
  14   2.0000      -0.918762       -25.0008
  15   2.0000      -0.892878       -24.2964
  16   2.0000      -0.814403       -22.1610
  17   2.0000      -0.770745       -20.9730
  18   2.0000      -0.723648       -19.6915
  19   2.0000      -0.698897       -19.0179
  20   2.0000      -0.658910       -17.9299
  21   2.0000      -0.649380       -17.6705
  22   2.0000      -0.619191       -16.8490
  23   2.0000      -0.603362       -16.4183
  24   2.0000      -0.587717       -15.9926
  25   2.0000      -0.564924       -15.3724
  26   2.0000      -0.544081       -14.8052
  27   2.0000      -0.500655       -13.6235
  28   2.0000      -0.492477       -13.4010
  29   2.0000      -0.469808       -12.7841
  30   2.0000      -0.449863       -12.2414
  31   2.0000      -0.443966       -12.0809
  32   2.0000      -0.421875       -11.4798
  33   2.0000      -0.392958       -10.6929
  34   0.0000       0.128891         3.5073
  35   0.0000       0.148653         4.0451
  36   0.0000       0.161320         4.3897
  37   0.0000       0.170823         4.6483
  38   0.0000       0.181476         4.9382

MULLIKEN ATOMIC CHARGES
-----------------------
   0 O :   -0.461470
   1 C :    0.139090
   2 C :   -0.009807
   3 C :   -0.201629
   4 N :   -0.385914
   5 C :   -0.130334
   6 C :    0.045008
   7 C :   -0.100713
   8 O :   -0.324488
   9 H :    0.321165
  10 H :    0.119582
  11 H :    0.126644
  12 H :    0.133845
  13 H :    0.221182
  14 H :    0.128541
  15 H :    0.131301
  16 H :    0.123502
  17 H :    0.124494
Sum of atomic charges:    0.0000000

LOEWDIN ATOMIC CHARGES
----------------------
   0 O :   -0.001601
   1 C :   -0.257680
   2 C :   -0.277127
   3 C :   -0.239238
   4 N :    0.002101
   5 C :   -0.153437
   6 C :   -0.299395
   7 C :   -0.236785
   8 O :    0.177000
   9 H :    0.177976
  10 H :    0.152907
  11 H :    0.128398
  12 H :    0.126608
  13 H :    0.166074
  14 H :    0.146608
  15 H :    0.141550
  16 H :    0.123261
  17 H :    0.122781

  Mayer bond orders larger than 0.1
B(  0-O ,  1-C ) :   0.9630 B(  0-O ,  9-H ) :   0.8353 B(  1-C ,  2-C ) :   0.9100
B(  1-C ,  6-C ) :   0.9161 B(  1-C , 10-H ) :   0.9040 B(  2-C ,  3-C ) :   0.9090
B(  2-C ,  4-N ) :   0.8882 B(  2-C ,  5-C ) :   0.8748 B(  3-C ,  4-N ) :   0.9688
B(  3-C , 11-H ) :   0.9164 B(  3-C , 12-H ) :   0.9237 B(  4-N , 13-H ) :   0.8645
B(  5-C ,  6-C ) :   0.9184 B(  5-C , 14-H ) :   0.9042 B(  5-C , 15-H ) :   0.9071
B(  6-C ,  7-C ) :   0.9690 B(  6-C ,  8-O ) :   0.9180 B(  7-C ,  8-O ) :   0.9011
B(  7-C , 16-H ) :   0.9142 B(  7-C , 17-H ) :   0.9132

MP2 TOTAL ENERGY:     -438.294520519 Eh
FINAL SINGLE POINT ENERGY      -438.294520518763

DIPOLE MOMENT
-------------
                                X             Y             Z
Electronic contribution:      2.83879       0.12947      -0.44844
Nuclear contribution   :     -3.13736       0.12752       0.40974
                        -----------------------------------------
Total Dipole Moment    :     -0.29858       0.25699      -0.03869
                        -----------------------------------------
Magnitude (a.u.)       :      0.39584
Magnitude (Debye)      :      1.00615

                             ****ORCA TERMINATED NORMALLY****
TOTAL RUN TIME: 0 days 0 hours 17 minutes 24 seconds 39 msec
