                         Program Version 3.0.3 - RELEASE   -
|  1> ! RI-MP2 RIJK def2-TZVP def2-TZVP/C def2-TZVP/JK TIGHTSCF
|  2> % maxcore 2000
|  3> % mp2 density relaxed end
|  4> *xyz 0 1
|  5>  C       -0.2617472896     1.5162096977     0.0653887962
|  6>  C       -0.0288073583     0.0179156820    -0.0001936641
|  7>  C        1.1703342189    -0.4728363071    -0.8426878914
|  8>  O        1.7794170172    -1.1237580385     0.2885797654
|  9>  C        0.7003567742    -0.7307330185     1.1734005717
| 10>  C        1.2122837610     0.0030736227     2.3945476829
| 11>  C       -0.2223497201    -1.9185825533     1.4663866961
| 12>  O       -0.9939646981    -2.1148138264     0.2887405470
| 13>  C       -1.2966652723    -0.8186992502    -0.2061265159
| 14>  H        0.6651623726     2.0591649622     0.2734480863
| 15>  H       -0.6534748483     1.8905670302    -0.8877679011
| 16>  H       -0.9872682933     1.7761649654     0.8437732574
| 17>  H        0.9257877776    -1.1831283357    -1.6420556641
| 18>  H        1.8107795574     0.3211457446    -1.2484231159
| 19>  H        1.8444689753     0.8468102501     2.1063828971
| 20>  H        0.3872086486     0.3763394824     3.0096479866
| 21>  H        1.8177343092    -0.6709317127     3.0104370366
| 22>  H        0.3354660282    -2.8361770775     1.6688456020
| 23>  H       -0.8738353545    -1.6922962333     2.3277546052
| 24>  H       -2.1389123768    -0.3716845226     0.3505935277
| 25>  H       -1.5919012491    -0.9205858615    -1.2548902257
| 26> *
| 27>
| 28>                          ****END OF INPUT****

CARTESIAN COORDINATES (ANGSTROEM)
---------------------------------
  C     -0.261747    1.516210    0.065389
  C     -0.028807    0.017916   -0.000194
  C      1.170334   -0.472836   -0.842688
  O      1.779417   -1.123758    0.288580
  C      0.700357   -0.730733    1.173401
  C      1.212284    0.003074    2.394548
  C     -0.222350   -1.918583    1.466387
  O     -0.993965   -2.114814    0.288741
  C     -1.296665   -0.818699   -0.206127
  H      0.665162    2.059165    0.273448
  H     -0.653475    1.890567   -0.887768
  H     -0.987268    1.776165    0.843773
  H      0.925788   -1.183128   -1.642056
  H      1.810780    0.321146   -1.248423
  H      1.844469    0.846810    2.106383
  H      0.387209    0.376339    3.009648
  H      1.817734   -0.670932    3.010437
  H      0.335466   -2.836177    1.668846
  H     -0.873835   -1.692296    2.327755
  H     -2.138912   -0.371685    0.350594
  H     -1.591901   -0.920586   -1.254890

 Total Charge           Charge          ....    0
 Multiplicity           Mult            ....    1
 Number of Electrons    NEL             ....   70
 Basis Dimension        Dim             ....  351

ORBITAL ENERGIES
----------------

  NO   OCC          E(Eh)            E(eV)
   0   2.0000     -20.554994      -559.3298
   1   2.0000     -20.543618      -559.0203
   2   2.0000     -11.287087      -307.1372
   3   2.0000     -11.276798      -306.8573
   4   2.0000     -11.274022      -306.7817
   5   2.0000     -11.271127      -306.7030
   6   2.0000     -11.241687      -305.9019
   7   2.0000     -11.229657      -305.5745
   8   2.0000     -11.223278      -305.4009
   9   2.0000      -1.396041       -37.9882
  10   2.0000      -1.361119       -37.0379
  11   2.0000      -1.078355       -29.3435
  12   2.0000      -1.037766       -28.2391
  13   2.0000      -0.945922       -25.7399
  14   2.0000      -0.927925       -25.2501
  15   2.0000      -0.901091       -24.5199
  16   2.0000      -0.817448       -22.2439
  17   2.0000      -0.713079       -19.4039
  18   2.0000      -0.691591       -18.8191
  19   2.0000      -0.682019       -18.5587
  20   2.0000      -0.633515       -17.2388
  21   2.0000      -0.614982       -16.7345
  22   2.0000      -0.607181       -16.5222
  23   2.0000      -0.593230       -16.1426
  24   2.0000      -0.575305       -15.6548
  25   2.0000      -0.566412       -15.4129
  26   2.0000      -0.562756       -15.3134
  27   2.0000      -0.539886       -14.6910
  28   2.0000      -0.533270       -14.5110
  29   2.0000      -0.506203       -13.7745
  30   2.0000      -0.477495       -12.9933
  31   2.0000      -0.448183       -12.1957
  32   2.0000      -0.428105       -11.6493
  33   2.0000      -0.424230       -11.5439
  34   2.0000      -0.404353       -11.0030
  35   0.0000       0.125527         3.4158
  36   0.0000       0.157129         4.2757
  37   0.0000       0.168588         4.5875
  38   0.0000       0.181589         4.9413
  39   0.0000       0.183379         4.9900

MULLIKEN ATOMIC CHARGES
-----------------------
   0 C :   -0.423498
   1 C :    0.059286
   2 C :   -0.053129
   3 O :   -0.330495
   4 C :    0.139326
   5 C :   -0.411394
   6 C :   -0.041182
   7 O :   -0.326648
   8 C :   -0.040708
   9 H :    0.139744
  10 H :    0.143266
  11 H :    0.132801
  12 H :    0.093722
  13 H :    0.091778
  14 H :    0.134542
  15 H :    0.129356
  16 H :    0.145987
  17 H :    0.124027
  18 H :    0.086505
  19 H :    0.086247
  20 H :    0.120466
Sum of atomic charges:    0.0000000

LOEWDIN ATOMIC CHARGES
----------------------
   0 C :   -0.271424
   1 C :   -0.250506
   2 C :   -0.225906
   3 O :    0.160974
   4 C :   -0.306107
   5 C :   -0.268509
   6 C :   -0.265998
   7 O :    0.157328
   8 C :   -0.270762
   9 H :    0.129418
  10 H :    0.131318
  11 H :    0.128482
  12 H :    0.122622
  13 H :    0.118121
  14 H :    0.129799
  15 H :    0.129990
  16 H :    0.135044
  17 H :    0.135785
  18 H :    0.124912
  19 H :    0.124163
  20 H :    0.131257

  Mayer bond orders larger than 0.1
B(  0-C ,  1-C ) :   0.8937 B(  0-C ,  9-H ) :   0.9413 B(  0-C , 10-H ) :   0.9307
B(  0-C , 11-H ) :   0.9321 B(  1-C ,  2-C ) :   0.9798 B(  1-C ,  4-C ) :   0.8928
B(  1-C ,  8-C ) :   0.9533 B(  2-C ,  3-O ) :   0.9684 B(  2-C , 12-H ) :   0.8963
B(  2-C , 13-H ) :   0.9058 B(  3-O ,  4-C ) :   0.9509 B(  4-C ,  5-C ) :   0.8864
B(  4-C ,  6-C ) :   0.9563 B(  5-C , 14-H ) :   0.9413 B(  5-C , 15-H ) :   0.9299
B(  5-C , 16-H ) :   0.9317 B(  6-C ,  7-O ) :   0.9281 B(  6-C , 17-H ) :   0.9109
B(  6-C , 18-H ) :   0.9127 B(  7-O ,  8-C ) :   0.9451 B(  8-C , 19-H ) :   0.9205
B(  8-C , 20-H ) :   0.9140

MP2 TOTAL ENERGY:     -423.521160682 Eh
FINAL SINGLE POINT ENERGY      -423.521160682321

DIPOLE MOMENT
-------------
                                X             Y             Z
Electronic contribution:      0.77368      -5.77241      -1.99766
Nuclear contribution   :     -1.13294       6.71408       2.17933
                        -----------------------------------------
Total Dipole Moment    :     -0.35927       0.94167       0.18167
                        -----------------------------------------
Magnitude (a.u.)       :      1.02412
Magnitude (Debye)      :      2.60310

                             ****ORCA TERMINATED NORMALLY****
TOTAL RUN TIME: 0 days 0 hours 20 minutes 14 seconds 361 msec
