                         Program Version 3.0.3 - RELEASE   -
|  1> ! RI-MP2 RIJK def2-TZVP def2-TZVP/C def2-TZVP/JK TIGHTSCF
|  2> % maxcore 2000
|  3> % mp2 density relaxed end
|  4> *xyz 0 1
|  5>  C       -0.2743296324     1.4510853715     0.5532315767
|  6>  C        0.3925464083     0.0936851551     0.4972081110
|  7>  C        0.6121332139    -0.6702713774    -0.7720707436
|  8>  C        0.1786125881    -0.1723367181    -2.1339982991
|  9>  N        1.7484708599    -0.1099224985    -0.0246095689
| 10>  C        2.5117836353     1.0043309231    -0.5608699661
| 11>  C        3.8429897412     0.5565804807    -1.1788349191
| 12>  C        4.5031502653    -0.6742471300    -0.5950924823
| 13>  O        4.3390854054     1.2005845384    -2.0742461613
| 14>  H        0.1143518241     2.0351658964     1.3948823066
| 15>  H       -0.1324186131     2.0421662391    -0.3531543194
| 16>  H       -1.3517163664     1.3308892207     0.7090230547
| 17>  H        0.2066824790    -0.4982034184     1.3942864600
| 18>  H        0.5737292520    -1.7573725923    -0.6961696886
| 19>  H        0.0809329773     0.9126990527    -2.1946475354
| 20>  H        0.8873105497    -0.4864035156    -2.9085259255
| 21>  H       -0.7956560177    -0.6040934145    -2.3860518026
| 22>  H        2.0094585569     1.6270103124    -1.3114225073
| 23>  H        2.7751638221     1.6679045434     0.2759967002
| 24>  H        4.5530976320    -0.6044888906     0.4961324252
| 25>  H        3.8963028123    -1.5590515946    -0.8112916416
| 26>  H        5.5004447770    -0.7896808636    -1.0213346137
| 27> *
| 28>
| 29>                          ****END OF INPUT****

CARTESIAN COORDINATES (ANGSTROEM)
---------------------------------
  C     -0.274330    1.451085    0.553232
  C      0.392546    0.093685    0.497208
  C      0.612133   -0.670271   -0.772071
  C      0.178613   -0.172337   -2.133998
  N      1.748471   -0.109922   -0.024610
  C      2.511784    1.004331   -0.560870
  C      3.842990    0.556580   -1.178835
  C      4.503150   -0.674247   -0.595092
  O      4.339085    1.200585   -2.074246
  H      0.114352    2.035166    1.394882
  H     -0.132419    2.042166   -0.353154
  H     -1.351716    1.330889    0.709023
  H      0.206682   -0.498203    1.394286
  H      0.573729   -1.757373   -0.696170
  H      0.080933    0.912699   -2.194648
  H      0.887311   -0.486404   -2.908526
  H     -0.795656   -0.604093   -2.386052
  H      2.009459    1.627010   -1.311423
  H      2.775164    1.667905    0.275997
  H      4.553098   -0.604489    0.496132
  H      3.896303   -1.559052   -0.811292
  H      5.500445   -0.789681   -1.021335

 Total Charge           Charge          ....    0
 Multiplicity           Mult            ....    1
 Number of Electrons    NEL             ....   70
 Basis Dimension        Dim             ....  357

ORBITAL ENERGIES
----------------

  NO   OCC          E(Eh)            E(eV)
   0   2.0000     -20.537946      -558.8659
   1   2.0000     -15.561370      -423.4464
   2   2.0000     -11.323796      -308.1362
   3   2.0000     -11.266217      -306.5693
   4   2.0000     -11.265225      -306.5424
   5   2.0000     -11.263202      -306.4873
   6   2.0000     -11.230782      -305.6051
   7   2.0000     -11.229313      -305.5652
   8   2.0000     -11.222809      -305.3882
   9   2.0000      -1.382616       -37.6229
  10   2.0000      -1.277691       -34.7677
  11   2.0000      -1.052524       -28.6406
  12   2.0000      -0.999861       -27.2076
  13   2.0000      -0.991948       -26.9923
  14   2.0000      -0.960402       -26.1339
  15   2.0000      -0.818860       -22.2823
  16   2.0000      -0.776818       -21.1383
  17   2.0000      -0.725410       -19.7394
  18   2.0000      -0.691877       -18.8269
  19   2.0000      -0.648287       -17.6408
  20   2.0000      -0.636798       -17.3281
  21   2.0000      -0.625658       -17.0250
  22   2.0000      -0.595828       -16.2133
  23   2.0000      -0.585376       -15.9289
  24   2.0000      -0.581591       -15.8259
  25   2.0000      -0.554255       -15.0820
  26   2.0000      -0.551692       -15.0123
  27   2.0000      -0.549035       -14.9400
  28   2.0000      -0.534249       -14.5377
  29   2.0000      -0.501963       -13.6591
  30   2.0000      -0.488441       -13.2912
  31   2.0000      -0.460453       -12.5296
  32   2.0000      -0.450063       -12.2468
  33   2.0000      -0.403824       -10.9886
  34   2.0000      -0.365139        -9.9359
  35   0.0000       0.124051         3.3756
  36   0.0000       0.145897         3.9701
  37   0.0000       0.150584         4.0976
  38   0.0000       0.162628         4.4253
  39   0.0000       0.169284         4.6065

MULLIKEN ATOMIC CHARGES
-----------------------
   0 C :   -0.393612
   1 C :   -0.048847
   2 C :   -0.060862
   3 C :   -0.393047
   4 N :   -0.225597
   5 C :   -0.120943
   6 C :    0.168899
   7 C :   -0.374813
   8 O :   -0.286198
   9 H :    0.139402
  10 H :    0.126390
  11 H :    0.143497
  12 H :    0.113720
  13 H :    0.118665
  14 H :    0.124061
  15 H :    0.145133
  16 H :    0.142696
  17 H :    0.114537
  18 H :    0.137924
  19 H :    0.140890
  20 H :    0.142427
  21 H :    0.145677
Sum of atomic charges:   -0.0000000

LOEWDIN ATOMIC CHARGES
----------------------
   0 C :   -0.297333
   1 C :   -0.261179
   2 C :   -0.260491
   3 C :   -0.297512
   4 N :    0.124620
   5 C :   -0.267841
   6 C :   -0.347116
   7 C :   -0.283423
   8 O :    0.143049
   9 H :    0.128586
  10 H :    0.123241
  11 H :    0.132078
  12 H :    0.141349
  13 H :    0.141453
  14 H :    0.122390
  15 H :    0.130671
  16 H :    0.132713
  17 H :    0.134723
  18 H :    0.151510
  19 H :    0.138182
  20 H :    0.140466
  21 H :    0.129865

  Mayer bond orders larger than 0.1
B(  0-C ,  1-C ) :   0.9048 B(  0-C ,  9-H ) :   0.9366 B(  0-C , 10-H ) :   0.9379
B(  0-C , 11-H ) :   0.9306 B(  1-C ,  2-C ) :   0.9425 B(  1-C ,  4-N ) :   0.9058
B(  1-C , 12-H ) :   0.9181 B(  2-C ,  3-C ) :   0.9104 B(  2-C ,  4-N ) :   0.8649
B(  2-C , 13-H ) :   0.9195 B(  3-C , 14-H ) :   0.9382 B(  3-C , 15-H ) :   0.9336
B(  3-C , 16-H ) :   0.9307 B(  4-N ,  5-C ) :   0.8914 B(  5-C ,  6-C ) :   0.8940
B(  5-C , 17-H ) :   0.9061 B(  5-C , 18-H ) :   0.8998 B(  6-C ,  7-C ) :   0.9451
B(  6-C ,  8-O ) :   2.0422 B(  7-C , 19-H ) :   0.9112 B(  7-C , 20-H ) :   0.9030
B(  7-C , 21-H ) :   0.9321

MP2 TOTAL ENERGY:     -403.640584500 Eh
FINAL SINGLE POINT ENERGY      -403.640584499689

DIPOLE MOMENT
-------------
                                X             Y             Z
Electronic contribution:      6.12533       0.43610      -1.20813
Nuclear contribution   :     -7.11020      -0.72256       1.78793
                        -----------------------------------------
Total Dipole Moment    :     -0.98487      -0.28645       0.57980
                        -----------------------------------------
Magnitude (a.u.)       :      1.17821
Magnitude (Debye)      :      2.99478

                             ****ORCA TERMINATED NORMALLY****
TOTAL RUN TIME: 0 days 0 hours 24 minutes 9 seconds 293 msec
