                         Program Version 3.0.3 - RELEASE   -
|  1> ! RI-MP2 RIJK def2-TZVP def2-TZVP/C def2-TZVP/JK TIGHTSCF
|  2> % maxcore 2000
|  3> % mp2 density relaxed end
|  4> *xyz 0 1
|  5>  O       -0.1608568798     0.0150649113     0.2620711137
|  6>  C       -0.1383694367     1.2132035279     0.1097840431
|  7>  C       -1.3027613944     2.1108827274    -0.0766397695
|  8>  C       -0.9062947933     3.3876612800    -0.1017340754
|  9>  C        0.5840943342     3.5468399838     0.0642555018
| 10>  C        1.1275451412     2.1010182273     0.0857213042
| 11>  C        2.0995194090     1.8098417655     1.2510952490
| 12>  C        2.8130384022     0.5442891209     1.1373055843
| 13>  C        3.4435730857    -0.4732147918     1.0367905456
| 14>  H       -2.3156219832     1.7364187461    -0.1498243809
| 15>  H       -1.5618183954     4.2452496535    -0.2124153523
| 16>  H        1.0180224732     4.1525682225    -0.7395778993
| 17>  H        0.8064399760     4.0811413644     0.9980866879
| 18>  H        1.6469392311     1.8839165692    -0.8542977674
| 19>  H        2.8333578837     2.6247361083     1.2999711958
| 20>  H        1.5459506792     1.8416345897     2.1988619886
| 21>  H        3.9722482373    -1.3898489360     0.9517140507
| 22> *
| 23>
| 24>                          ****END OF INPUT****

CARTESIAN COORDINATES (ANGSTROEM)
---------------------------------
  O     -0.160857    0.015065    0.262071
  C     -0.138369    1.213204    0.109784
  C     -1.302761    2.110883   -0.076640
  C     -0.906295    3.387661   -0.101734
  C      0.584094    3.546840    0.064256
  C      1.127545    2.101018    0.085721
  C      2.099519    1.809842    1.251095
  C      2.813038    0.544289    1.137306
  C      3.443573   -0.473215    1.036791
  H     -2.315622    1.736419   -0.149824
  H     -1.561818    4.245250   -0.212415
  H      1.018022    4.152568   -0.739578
  H      0.806440    4.081141    0.998087
  H      1.646939    1.883917   -0.854298
  H      2.833358    2.624736    1.299971
  H      1.545951    1.841635    2.198862
  H      3.972248   -1.389849    0.951714

 Total Charge           Charge          ....    0
 Multiplicity           Mult            ....    1
 Number of Electrons    NEL             ....   64
 Basis Dimension        Dim             ....  327

ORBITAL ENERGIES
----------------

  NO   OCC          E(Eh)            E(eV)
   0   2.0000     -20.538000      -558.8674
   1   2.0000     -11.327518      -308.2374
   2   2.0000     -11.272327      -306.7356
   3   2.0000     -11.263334      -306.4909
   4   2.0000     -11.255352      -306.2737
   5   2.0000     -11.254700      -306.2559
   6   2.0000     -11.242744      -305.9306
   7   2.0000     -11.227108      -305.5051
   8   2.0000     -11.213633      -305.1385
   9   2.0000      -1.382058       -37.6077
  10   2.0000      -1.159955       -31.5640
  11   2.0000      -1.077144       -29.3106
  12   2.0000      -1.004335       -27.3293
  13   2.0000      -0.954819       -25.9819
  14   2.0000      -0.910187       -24.7674
  15   2.0000      -0.790784       -21.5183
  16   2.0000      -0.738758       -20.1026
  17   2.0000      -0.716120       -19.4866
  18   2.0000      -0.687499       -18.7078
  19   2.0000      -0.660232       -17.9658
  20   2.0000      -0.630420       -17.1546
  21   2.0000      -0.604037       -16.4367
  22   2.0000      -0.600791       -16.3484
  23   2.0000      -0.565868       -15.3980
  24   2.0000      -0.546249       -14.8642
  25   2.0000      -0.539381       -14.6773
  26   2.0000      -0.523325       -14.2404
  27   2.0000      -0.499759       -13.5991
  28   2.0000      -0.411117       -11.1871
  29   2.0000      -0.385782       -10.4977
  30   2.0000      -0.380777       -10.3615
  31   2.0000      -0.372014       -10.1230
  32   0.0000       0.091329         2.4852
  33   0.0000       0.127080         3.4580
  34   0.0000       0.157686         4.2909
  35   0.0000       0.158632         4.3166
  36   0.0000       0.173280         4.7152

MULLIKEN ATOMIC CHARGES
-----------------------
   0 O :   -0.271822
   1 C :    0.155320
   2 C :   -0.199479
   3 C :   -0.124593
   4 C :   -0.184531
   5 C :   -0.009774
   6 C :   -0.361949
   7 C :   -0.025762
   8 C :   -0.148255
   9 H :    0.144671
  10 H :    0.142658
  11 H :    0.137099
  12 H :    0.132918
  13 H :    0.126571
  14 H :    0.147294
  15 H :    0.150604
  16 H :    0.189030
Sum of atomic charges:   -0.0000000

LOEWDIN ATOMIC CHARGES
----------------------
   0 O :    0.159438
   1 C :   -0.300793
   2 C :   -0.122960
   3 C :   -0.107744
   4 C :   -0.213811
   5 C :   -0.184409
   6 C :   -0.223767
   7 C :   -0.108830
   8 C :   -0.099517
   9 H :    0.146458
  10 H :    0.141205
  11 H :    0.145114
  12 H :    0.149603
  13 H :    0.171644
  14 H :    0.160710
  15 H :    0.161814
  16 H :    0.125843

  Mayer bond orders larger than 0.1
B(  0-O ,  1-C ) :   2.0125 B(  1-C ,  2-C ) :   1.0111 B(  1-C ,  5-C ) :   0.8560
B(  2-C ,  3-C ) :   1.6927 B(  2-C ,  9-H ) :   0.9201 B(  3-C ,  4-C ) :   0.9390
B(  3-C , 10-H ) :   0.9202 B(  4-C ,  5-C ) :   0.9080 B(  4-C , 11-H ) :   0.9135
B(  4-C , 12-H ) :   0.9064 B(  5-C ,  6-C ) :   0.8895 B(  5-C , 13-H ) :   0.9049
B(  6-C ,  7-C ) :   1.1498 B(  6-C , 14-H ) :   0.9173 B(  6-C , 15-H ) :   0.9122
B(  7-C ,  8-C ) :   2.6193 B(  8-C , 16-H ) :   0.8911

MP2 TOTAL ENERGY:     -383.994264026 Eh
FINAL SINGLE POINT ENERGY      -383.994264025908

DIPOLE MOMENT
-------------
                                X             Y             Z
Electronic contribution:     -1.40054      -4.58122      -0.31831
Nuclear contribution   :      1.30784       6.06012       0.16158
                        -----------------------------------------
Total Dipole Moment    :     -0.09271       1.47890      -0.15673
                        -----------------------------------------
Magnitude (a.u.)       :      1.49007
Magnitude (Debye)      :      3.78746

                             ****ORCA TERMINATED NORMALLY****
TOTAL RUN TIME: 0 days 0 hours 16 minutes 30 seconds 825 msec
