                         Program Version 3.0.3 - RELEASE   -
|  1> ! RI-MP2 RIJK def2-TZVP def2-TZVP/C def2-TZVP/JK TIGHTSCF
|  2> % maxcore 2000
|  3> % mp2 density relaxed end
|  4> *xyz 0 1
|  5>  C       -0.5632325677     1.7058946424    -0.4519343851
|  6>  N       -0.6919621800     0.2666450419    -0.4035680559
|  7>  C        0.1934488538    -0.5038686921    -0.8337062028
|  8>  C        1.5254364897    -0.2775905842    -1.4855529390
|  9>  O       -0.1390456911    -1.8840147611    -0.7667545851
| 10>  C        0.5112271350    -2.6544110603     0.1310240681
| 11>  O        1.3682129149    -2.2983854098     0.8887467522
| 12>  C       -0.0347861692    -4.0887508278     0.0287631365
| 13>  O        0.3988722839    -4.9764895138     0.7048190092
| 14>  H        0.3514397757     2.0867846360    -0.9234047752
| 15>  H       -1.4273535667     2.1152019050    -0.9857598678
| 16>  H       -0.6113168292     2.0924319354     0.5715399844
| 17>  H        2.3119567729    -0.7031370387    -0.8564961647
| 18>  H        1.5531588985    -0.7888089521    -2.4529672181
| 19>  H        1.7294742145     0.7815070082    -1.6399952455
| 20>  H       -0.8481074551    -4.2197751589    -0.7119775412
| 21> *
| 22>
| 23>                          ****END OF INPUT****

CARTESIAN COORDINATES (ANGSTROEM)
---------------------------------
  C     -0.563233    1.705895   -0.451934
  N     -0.691962    0.266645   -0.403568
  C      0.193449   -0.503869   -0.833706
  C      1.525436   -0.277591   -1.485553
  O     -0.139046   -1.884015   -0.766755
  C      0.511227   -2.654411    0.131024
  O      1.368213   -2.298385    0.888747
  C     -0.034786   -4.088751    0.028763
  O      0.398872   -4.976490    0.704819
  H      0.351440    2.086785   -0.923405
  H     -1.427354    2.115202   -0.985760
  H     -0.611317    2.092432    0.571540
  H      2.311957   -0.703137   -0.856496
  H      1.553159   -0.788809   -2.452967
  H      1.729474    0.781507   -1.639995
  H     -0.848107   -4.219775   -0.711978

 Total Charge           Charge          ....    0
 Multiplicity           Mult            ....    1
 Number of Electrons    NEL             ....   68
 Basis Dimension        Dim             ....  321

ORBITAL ENERGIES
----------------

  NO   OCC          E(Eh)            E(eV)
   0   2.0000     -20.634608      -561.4962
   1   2.0000     -20.598834      -560.5228
   2   2.0000     -20.577779      -559.9498
   3   2.0000     -15.573545      -423.7777
   4   2.0000     -11.411577      -310.5248
   5   2.0000     -11.363841      -309.2258
   6   2.0000     -11.360530      -309.1357
   7   2.0000     -11.265421      -306.5477
   8   2.0000     -11.254882      -306.2609
   9   2.0000      -1.497490       -40.7488
  10   2.0000      -1.433441       -39.0059
  11   2.0000      -1.398057       -38.0431
  12   2.0000      -1.250402       -34.0252
  13   2.0000      -1.042074       -28.3563
  14   2.0000      -0.982982       -26.7483
  15   2.0000      -0.946296       -25.7500
  16   2.0000      -0.826948       -22.5024
  17   2.0000      -0.759368       -20.6634
  18   2.0000      -0.739026       -20.1099
  19   2.0000      -0.699481       -19.0339
  20   2.0000      -0.694212       -18.8905
  21   2.0000      -0.674321       -18.3492
  22   2.0000      -0.652428       -17.7535
  23   2.0000      -0.624307       -16.9882
  24   2.0000      -0.610557       -16.6141
  25   2.0000      -0.588864       -16.0238
  26   2.0000      -0.573724       -15.6118
  27   2.0000      -0.566547       -15.4165
  28   2.0000      -0.549523       -14.9533
  29   2.0000      -0.520345       -14.1593
  30   2.0000      -0.497484       -13.5372
  31   2.0000      -0.454157       -12.3582
  32   2.0000      -0.428862       -11.6699
  33   2.0000      -0.423478       -11.5234
  34   0.0000       0.057441         1.5631
  35   0.0000       0.131516         3.5787
  36   0.0000       0.149800         4.0763
  37   0.0000       0.160809         4.3758
  38   0.0000       0.173992         4.7346

MULLIKEN ATOMIC CHARGES
-----------------------
   0 C :   -0.257799
   1 N :   -0.171407
   2 C :    0.156242
   3 C :   -0.415267
   4 O :   -0.221022
   5 C :    0.352556
   6 O :   -0.287773
   7 C :    0.061217
   8 O :   -0.207432
   9 H :    0.096299
  10 H :    0.149944
  11 H :    0.153491
  12 H :    0.182824
  13 H :    0.156180
  14 H :    0.137395
  15 H :    0.114553
Sum of atomic charges:   -0.0000000

LOEWDIN ATOMIC CHARGES
----------------------
   0 C :   -0.320947
   1 N :    0.121134
   2 C :   -0.341239
   3 C :   -0.275856
   4 O :    0.300798
   5 C :   -0.478599
   6 O :    0.167373
   7 C :   -0.254258
   8 O :    0.186092
   9 H :    0.103544
  10 H :    0.124555
  11 H :    0.126688
  12 H :    0.147416
  13 H :    0.141794
  14 H :    0.131130
  15 H :    0.120376

  Mayer bond orders larger than 0.1
B(  0-C ,  1-N ) :   0.8628 B(  0-C ,  9-H ) :   0.9259 B(  0-C , 10-H ) :   0.9318
B(  0-C , 11-H ) :   0.9297 B(  1-N ,  2-C ) :   1.9751 B(  2-C ,  3-C ) :   0.9424
B(  2-C ,  4-O ) :   0.8576 B(  3-C , 12-H ) :   0.9095 B(  3-C , 13-H ) :   0.9160
B(  3-C , 14-H ) :   0.9282 B(  4-O ,  5-C ) :   1.0702 B(  5-C ,  6-O ) :   1.9225
B(  5-C ,  7-C ) :   0.8269 B(  7-C ,  8-O ) :   2.0151 B(  7-C , 15-H ) :   0.9283

MP2 TOTAL ENERGY:     -474.284406633 Eh
FINAL SINGLE POINT ENERGY      -474.284406633479

DIPOLE MOMENT
-------------
                                X             Y             Z
Electronic contribution:     -0.90559     -10.80843       3.74970
Nuclear contribution   :      0.88952      11.97555      -4.97554
                        -----------------------------------------
Total Dipole Moment    :     -0.01607       1.16712      -1.22584
                        -----------------------------------------
Magnitude (a.u.)       :      1.69266
Magnitude (Debye)      :      4.30241

                             ****ORCA TERMINATED NORMALLY****
TOTAL RUN TIME: 0 days 0 hours 13 minutes 11 seconds 348 msec
