                         Program Version 3.0.3 - RELEASE   -
|  1> ! RI-MP2 RIJK def2-TZVP def2-TZVP/C def2-TZVP/JK TIGHTSCF
|  2> % maxcore 2000
|  3> % mp2 density relaxed end
|  4> *xyz 0 1
|  5>  C       -0.0365768486     1.3752506133    -0.0216297571
|  6>  O        0.0317732400    -0.0564605695     0.0476910086
|  7>  C        0.6543141098    -0.5764288840     1.0908463926
|  8>  N        1.1753090857     0.1789613830     2.0026814102
|  9>  C        1.8078738959    -0.4148546504     3.0598431265
| 10>  N        2.3560318208     0.1982066751     4.0135668664
| 11>  O        1.8346835906    -1.8572241934     3.0577680906
| 12>  C        1.2536229703    -2.4945257343     2.0474706948
| 13>  N        0.6558869085    -1.9643665838     1.0474085457
| 14>  H        0.9669699732     1.8052994163    -0.0526581568
| 15>  H       -0.5804811936     1.5910054957    -0.9407533209
| 16>  H       -0.5644917521     1.7757218963     0.8466665956
| 17>  H        2.7606747696    -0.4557177069     4.6808661085
| 18>  H        1.3322927199    -3.5747589473     2.1456118852
| 19> *
| 20>
| 21>                          ****END OF INPUT****

CARTESIAN COORDINATES (ANGSTROEM)
---------------------------------
  C     -0.036577    1.375251   -0.021630
  O      0.031773   -0.056461    0.047691
  C      0.654314   -0.576429    1.090846
  N      1.175309    0.178961    2.002681
  C      1.807874   -0.414855    3.059843
  N      2.356032    0.198207    4.013567
  O      1.834684   -1.857224    3.057768
  C      1.253623   -2.494526    2.047471
  N      0.655887   -1.964367    1.047409
  H      0.966970    1.805299   -0.052658
  H     -0.580481    1.591005   -0.940753
  H     -0.564492    1.775722    0.846667
  H      2.760675   -0.455718    4.680866
  H      1.332293   -3.574759    2.145612

 Total Charge           Charge          ....    0
 Multiplicity           Mult            ....    1
 Number of Electrons    NEL             ....   66
 Basis Dimension        Dim             ....  309

ORBITAL ENERGIES
----------------

  NO   OCC          E(Eh)            E(eV)
   0   2.0000     -20.656798      -562.1000
   1   2.0000     -20.620766      -561.1196
   2   2.0000     -15.591940      -424.2783
   3   2.0000     -15.568597      -423.6431
   4   2.0000     -15.540006      -422.8651
   5   2.0000     -11.409069      -310.4565
   6   2.0000     -11.399684      -310.2012
   7   2.0000     -11.387764      -309.8768
   8   2.0000     -11.293539      -307.3128
   9   2.0000      -1.503477       -40.9117
  10   2.0000      -1.465028       -39.8655
  11   2.0000      -1.289956       -35.1015
  12   2.0000      -1.264771       -34.4162
  13   2.0000      -1.178178       -32.0599
  14   2.0000      -1.004882       -27.3442
  15   2.0000      -0.934249       -25.4222
  16   2.0000      -0.888179       -24.1686
  17   2.0000      -0.804312       -21.8865
  18   2.0000      -0.759809       -20.6754
  19   2.0000      -0.712269       -19.3818
  20   2.0000      -0.703670       -19.1478
  21   2.0000      -0.673520       -18.3274
  22   2.0000      -0.665687       -18.1143
  23   2.0000      -0.649800       -17.6820
  24   2.0000      -0.609605       -16.5882
  25   2.0000      -0.554924       -15.1002
  26   2.0000      -0.542151       -14.7527
  27   2.0000      -0.518408       -14.1066
  28   2.0000      -0.514140       -13.9904
  29   2.0000      -0.467945       -12.7334
  30   2.0000      -0.462672       -12.5899
  31   2.0000      -0.442037       -12.0284
  32   2.0000      -0.371072       -10.0974
  33   0.0000       0.083093         2.2611
  34   0.0000       0.142596         3.8802
  35   0.0000       0.155143         4.2217
  36   0.0000       0.158608         4.3159
  37   0.0000       0.168822         4.5939

MULLIKEN ATOMIC CHARGES
-----------------------
   0 C :   -0.214333
   1 O :   -0.213544
   2 C :    0.347657
   3 N :   -0.285312
   4 C :    0.198494
   5 N :   -0.347350
   6 O :   -0.209772
   7 C :    0.152533
   8 N :   -0.267710
   9 H :    0.147018
  10 H :    0.151914
  11 H :    0.147025
  12 H :    0.231741
  13 H :    0.161639
Sum of atomic charges:   -0.0000000

LOEWDIN ATOMIC CHARGES
----------------------
   0 C :   -0.296332
   1 O :    0.277866
   2 C :   -0.425282
   3 N :    0.137912
   4 C :   -0.432675
   5 N :   -0.043589
   6 O :    0.288294
   7 C :   -0.291731
   8 N :    0.119118
   9 H :    0.117438
  10 H :    0.117169
  11 H :    0.117439
  12 H :    0.171671
  13 H :    0.142701

  Mayer bond orders larger than 0.1
B(  0-C ,  1-O ) :   0.8279 B(  0-C ,  9-H ) :   0.9340 B(  0-C , 10-H ) :   0.9311
B(  0-C , 11-H ) :   0.9340 B(  1-O ,  2-C ) :   1.2151 B(  2-C ,  3-N ) :   1.5331
B(  2-C ,  8-N ) :   1.1165 B(  3-N ,  4-C ) :   1.1795 B(  4-C ,  5-N ) :   2.0053
B(  4-C ,  6-O ) :   0.8867 B(  5-N , 12-H ) :   0.8482 B(  6-O ,  7-C ) :   1.1426
B(  7-C ,  8-N ) :   1.6764 B(  7-C , 13-H ) :   0.9237

MP2 TOTAL ENERGY:     -469.275859365 Eh
FINAL SINGLE POINT ENERGY      -469.275859365078

DIPOLE MOMENT
-------------
                                X             Y             Z
Electronic contribution:      1.22397      -4.46746       1.93727
Nuclear contribution   :     -1.36918       3.90543      -2.20326
                        -----------------------------------------
Total Dipole Moment    :     -0.14521      -0.56203      -0.26599
                        -----------------------------------------
Magnitude (a.u.)       :      0.63852
Magnitude (Debye)      :      1.62300

                             ****ORCA TERMINATED NORMALLY****
TOTAL RUN TIME: 0 days 0 hours 12 minutes 58 seconds 224 msec
