                         Program Version 3.0.3 - RELEASE   -
|  1> ! RI-MP2 RIJK def2-TZVP def2-TZVP/C def2-TZVP/JK TIGHTSCF
|  2> % maxcore 2000
|  3> % mp2 density relaxed end
|  4> *xyz 0 1
|  5>  C        0.4976236474     1.6357505953     0.0328643840
|  6>  C        0.0712531028     0.1725376034     0.0262018299
|  7>  C        0.8291645279    -0.7805696316    -0.9688457854
|  8>  O        1.6976113475    -0.2538308692    -1.9432819670
|  9>  C        1.3855150209    -1.5862355327     0.2294864132
| 10>  O        1.2789124300    -2.9818403511     0.1870387851
| 11>  C        2.6569750990    -1.0010812187     0.9199703276
| 12>  C        1.7553370039    -0.3380672560     2.0047278654
| 13>  C        0.4921083469    -0.7552450119     1.2158941982
| 14>  H        1.5766934820     1.7674730756     0.1719366823
| 15>  H        0.2305833971     2.1135954728    -0.9148966721
| 16>  H        0.0021373599     2.1860798166     0.8394482903
| 17>  H       -1.0087540151     0.1301510883    -0.1406367226
| 18>  H        0.1227118039    -1.4111846358    -1.5168176980
| 19>  H        2.3153919350     0.3446437267    -1.5112998324
| 20>  H        1.8633128302    -3.3039045967    -0.5092732069
| 21>  H        3.3186998387    -1.7833961707     1.2971615044
| 22>  H        3.2564878852    -0.3152376343     0.3116697208
| 23>  H        1.8254840908    -0.8542434638     2.9650979795
| 24>  H        1.8997192609     0.7297720108     2.1849555478
| 25>  H       -0.3278490750    -1.2083114870     1.7724272461
| 26> *
| 27>
| 28>                          ****END OF INPUT****

CARTESIAN COORDINATES (ANGSTROEM)
---------------------------------
  C      0.497624    1.635751    0.032864
  C      0.071253    0.172538    0.026202
  C      0.829165   -0.780570   -0.968846
  O      1.697611   -0.253831   -1.943282
  C      1.385515   -1.586236    0.229486
  O      1.278912   -2.981840    0.187039
  C      2.656975   -1.001081    0.919970
  C      1.755337   -0.338067    2.004728
  C      0.492108   -0.755245    1.215894
  H      1.576693    1.767473    0.171937
  H      0.230583    2.113595   -0.914897
  H      0.002137    2.186080    0.839448
  H     -1.008754    0.130151   -0.140637
  H      0.122712   -1.411185   -1.516818
  H      2.315392    0.344644   -1.511300
  H      1.863313   -3.303905   -0.509273
  H      3.318700   -1.783396    1.297162
  H      3.256488   -0.315238    0.311670
  H      1.825484   -0.854243    2.965098
  H      1.899719    0.729772    2.184956
  H     -0.327849   -1.208311    1.772427

 Total Charge           Charge          ....    0
 Multiplicity           Mult            ....    1
 Number of Electrons    NEL             ....   70
 Basis Dimension        Dim             ....  351

ORBITAL ENERGIES
----------------

  NO   OCC          E(Eh)            E(eV)
   0   2.0000     -20.559855      -559.4621
   1   2.0000     -20.559117      -559.4420
   2   2.0000     -11.279986      -306.9440
   3   2.0000     -11.274821      -306.8035
   4   2.0000     -11.231415      -305.6223
   5   2.0000     -11.227221      -305.5082
   6   2.0000     -11.225561      -305.4630
   7   2.0000     -11.224996      -305.4477
   8   2.0000     -11.221740      -305.3591
   9   2.0000      -1.374665       -37.4065
  10   2.0000      -1.360499       -37.0211
  11   2.0000      -1.154872       -31.4257
  12   2.0000      -1.034492       -28.1500
  13   2.0000      -0.964807       -26.2537
  14   2.0000      -0.903316       -24.5805
  15   2.0000      -0.841046       -22.8860
  16   2.0000      -0.808141       -21.9906
  17   2.0000      -0.723847       -19.6969
  18   2.0000      -0.718797       -19.5595
  19   2.0000      -0.663118       -18.0444
  20   2.0000      -0.641004       -17.4426
  21   2.0000      -0.633053       -17.2263
  22   2.0000      -0.615925       -16.7602
  23   2.0000      -0.582686       -15.8557
  24   2.0000      -0.571750       -15.5581
  25   2.0000      -0.551238       -15.0000
  26   2.0000      -0.540849       -14.7173
  27   2.0000      -0.528141       -14.3714
  28   2.0000      -0.511067       -13.9068
  29   2.0000      -0.505376       -13.7520
  30   2.0000      -0.466497       -12.6940
  31   2.0000      -0.458918       -12.4878
  32   2.0000      -0.421063       -11.4577
  33   2.0000      -0.404427       -11.0050
  34   2.0000      -0.384211       -10.4549
  35   0.0000       0.125504         3.4151
  36   0.0000       0.146519         3.9870
  37   0.0000       0.148479         4.0403
  38   0.0000       0.170544         4.6408
  39   0.0000       0.177564         4.8318

MULLIKEN ATOMIC CHARGES
-----------------------
   0 C :   -0.464628
   1 C :    0.005936
   2 C :   -0.144655
   3 O :   -0.437796
   4 C :    0.400766
   5 O :   -0.467088
   6 C :   -0.346780
   7 C :   -0.247742
   8 C :   -0.131631
   9 H :    0.115132
  10 H :    0.153428
  11 H :    0.141771
  12 H :    0.103542
  13 H :    0.101095
  14 H :    0.316388
  15 H :    0.321656
  16 H :    0.116673
  17 H :    0.104636
  18 H :    0.124123
  19 H :    0.121625
  20 H :    0.113550
Sum of atomic charges:    0.0000000

LOEWDIN ATOMIC CHARGES
----------------------
   0 C :   -0.303162
   1 C :   -0.214482
   2 C :   -0.283237
   3 O :   -0.006839
   4 C :   -0.314205
   5 O :    0.011693
   6 C :   -0.205776
   7 C :   -0.221372
   8 C :   -0.140327
   9 H :    0.117531
  10 H :    0.129731
  11 H :    0.128276
  12 H :    0.148803
  13 H :    0.146959
  14 H :    0.169249
  15 H :    0.182968
  16 H :    0.134735
  17 H :    0.121185
  18 H :    0.136112
  19 H :    0.125308
  20 H :    0.136849

  Mayer bond orders larger than 0.1
B(  0-C ,  1-C ) :   0.8909 B(  0-C ,  9-H ) :   0.9341 B(  0-C , 10-H ) :   0.9378
B(  0-C , 11-H ) :   0.9394 B(  1-C ,  2-C ) :   0.8937 B(  1-C ,  8-C ) :   0.9279
B(  1-C , 12-H ) :   0.9051 B(  2-C ,  3-O ) :   1.0219 B(  2-C ,  4-C ) :   0.8840
B(  2-C , 13-H ) :   0.9255 B(  3-O , 14-H ) :   0.8345 B(  4-C ,  5-O ) :   0.9855
B(  4-C ,  6-C ) :   0.8490 B(  4-C ,  8-C ) :   0.8620 B(  5-O , 15-H ) :   0.8366
B(  6-C ,  7-C ) :   0.9505 B(  6-C , 16-H ) :   0.9053 B(  6-C , 17-H ) :   0.9227
B(  7-C ,  8-C ) :   0.9152 B(  7-C , 18-H ) :   0.9127 B(  7-C , 19-H ) :   0.9375
B(  8-C , 20-H ) :   0.8762

MP2 TOTAL ENERGY:     -423.497980222 Eh
FINAL SINGLE POINT ENERGY      -423.497980221876

DIPOLE MOMENT
-------------
                                X             Y             Z
Electronic contribution:     -0.20955      -5.52861      -2.71158
Nuclear contribution   :      0.52240       5.95445       2.99269
                        -----------------------------------------
Total Dipole Moment    :      0.31284       0.42584       0.28111
                        -----------------------------------------
Magnitude (a.u.)       :      0.59852
Magnitude (Debye)      :      1.52133

                             ****ORCA TERMINATED NORMALLY****
TOTAL RUN TIME: 0 days 0 hours 24 minutes 18 seconds 793 msec
