                         Program Version 3.0.3 - RELEASE   -
|  1> ! RI-MP2 RIJK def2-TZVP def2-TZVP/C def2-TZVP/JK TIGHTSCF
|  2> % maxcore 2000
|  3> % mp2 density relaxed end
|  4> *xyz 0 1
|  5>  N       -0.1904167440     1.4124468136     0.1167690635
|  6>  C        0.0908594995     0.0524984079     0.0364829655
|  7>  O        1.2266383759    -0.3856514479     0.0163624839
|  8>  N       -1.0304492336    -0.7432338229     0.0248539786
|  9>  C       -1.0106640518    -2.1369668063     0.0068350581
| 10>  C        0.0456428273    -3.0106396060    -0.0551525998
| 11>  N       -0.5522295609    -4.2596068498    -0.0511942314
| 12>  C       -1.8944066098    -4.0791971927     0.0134983557
| 13>  N       -2.2098654812    -2.8010864328     0.0492511729
| 14>  H        0.6184203635     1.9785683722    -0.0904224555
| 15>  H       -1.0402805357     1.7453390539    -0.3138553266
| 16>  H       -1.9440834235    -0.3427776046     0.1675544543
| 17>  H        1.1062714234    -2.8558296185    -0.0944216043
| 18>  H       -0.0680512638    -5.1402888604    -0.0857754941
| 19>  H       -2.5940527152    -4.9005351056     0.0320611992
| 20> *
| 21>
| 22>                          ****END OF INPUT****

CARTESIAN COORDINATES (ANGSTROEM)
---------------------------------
  N     -0.190417    1.412447    0.116769
  C      0.090859    0.052498    0.036483
  O      1.226638   -0.385651    0.016362
  N     -1.030449   -0.743234    0.024854
  C     -1.010664   -2.136967    0.006835
  C      0.045643   -3.010640   -0.055153
  N     -0.552230   -4.259607   -0.051194
  C     -1.894407   -4.079197    0.013498
  N     -2.209865   -2.801086    0.049251
  H      0.618420    1.978568   -0.090422
  H     -1.040281    1.745339   -0.313855
  H     -1.944083   -0.342778    0.167554
  H      1.106271   -2.855830   -0.094422
  H     -0.068051   -5.140289   -0.085775
  H     -2.594053   -4.900535    0.032061

 Total Charge           Charge          ....    0
 Multiplicity           Mult            ....    1
 Number of Electrons    NEL             ....   66
 Basis Dimension        Dim             ....  315

ORBITAL ENERGIES
----------------

  NO   OCC          E(Eh)            E(eV)
   0   2.0000     -20.512637      -558.1772
   1   2.0000     -15.618130      -424.9909
   2   2.0000     -15.592943      -424.3055
   3   2.0000     -15.580887      -423.9775
   4   2.0000     -15.547092      -423.0579
   5   2.0000     -11.380125      -309.6690
   6   2.0000     -11.300294      -307.4966
   7   2.0000     -11.287488      -307.1482
   8   2.0000     -11.245398      -306.0028
   9   2.0000      -1.395980       -37.9866
  10   2.0000      -1.345100       -36.6020
  11   2.0000      -1.252016       -34.0691
  12   2.0000      -1.201066       -32.6827
  13   2.0000      -1.156534       -31.4709
  14   2.0000      -0.999855       -27.2074
  15   2.0000      -0.871969       -23.7275
  16   2.0000      -0.826070       -22.4785
  17   2.0000      -0.772561       -21.0224
  18   2.0000      -0.764206       -20.7951
  19   2.0000      -0.734866       -19.9967
  20   2.0000      -0.691842       -18.8260
  21   2.0000      -0.630482       -17.1563
  22   2.0000      -0.623019       -16.9532
  23   2.0000      -0.609611       -16.5884
  24   2.0000      -0.599942       -16.3253
  25   2.0000      -0.589925       -16.0527
  26   2.0000      -0.588265       -16.0075
  27   2.0000      -0.474657       -12.9161
  28   2.0000      -0.451193       -12.2776
  29   2.0000      -0.446293       -12.1442
  30   2.0000      -0.426269       -11.5994
  31   2.0000      -0.386889       -10.5278
  32   2.0000      -0.295649        -8.0450
  33   0.0000       0.124147         3.3782
  34   0.0000       0.129940         3.5358
  35   0.0000       0.160632         4.3710
  36   0.0000       0.174483         4.7479
  37   0.0000       0.185057         5.0357

MULLIKEN ATOMIC CHARGES
-----------------------
   0 N :   -0.531150
   1 C :    0.418804
   2 O :   -0.406459
   3 N :   -0.351351
   4 C :    0.196540
   5 C :   -0.152007
   6 N :   -0.242853
   7 C :    0.052039
   8 N :   -0.331084
   9 H :    0.265893
  10 H :    0.248202
  11 H :    0.244562
  12 H :    0.184684
  13 H :    0.252410
  14 H :    0.151770
Sum of atomic charges:   -0.0000000

LOEWDIN ATOMIC CHARGES
----------------------
   0 N :   -0.069385
   1 C :   -0.554440
   2 O :    0.062713
   3 N :    0.147720
   4 C :   -0.320039
   5 C :   -0.220341
   6 N :    0.176809
   7 C :   -0.323497
   8 N :    0.092654
   9 H :    0.176230
  10 H :    0.165279
  11 H :    0.198126
  12 H :    0.143397
  13 H :    0.194636
  14 H :    0.130138

  Mayer bond orders larger than 0.1
B(  0-N ,  1-C ) :   1.0832 B(  0-N ,  9-H ) :   0.8698 B(  0-N , 10-H ) :   0.8729
B(  1-C ,  2-O ) :   1.8993 B(  1-C ,  3-N ) :   1.0872 B(  3-N ,  4-C ) :   0.9790
B(  3-N , 11-H ) :   0.8596 B(  4-C ,  5-C ) :   1.5514 B(  4-C ,  8-N ) :   1.3012
B(  5-C ,  6-N ) :   1.1017 B(  5-C , 12-H ) :   0.8793 B(  6-N ,  7-C ) :   1.1911
B(  6-N , 13-H ) :   0.8684 B(  7-C ,  8-N ) :   1.5179 B(  7-C , 14-H ) :   0.9271

MP2 TOTAL ENERGY:     -449.474332810 Eh
FINAL SINGLE POINT ENERGY      -449.474332810351

DIPOLE MOMENT
-------------
                                X             Y             Z
Electronic contribution:      0.08741      -1.05759       0.08995
Nuclear contribution   :     -0.38694       0.71225      -0.44318
                        -----------------------------------------
Total Dipole Moment    :     -0.29953      -0.34534      -0.35323
                        -----------------------------------------
Magnitude (a.u.)       :      0.57771
Magnitude (Debye)      :      1.46842

                             ****ORCA TERMINATED NORMALLY****
TOTAL RUN TIME: 0 days 0 hours 13 minutes 1 seconds 22 msec
