                         Program Version 3.0.3 - RELEASE   -
|  1> ! RI-MP2 RIJK def2-TZVP def2-TZVP/C def2-TZVP/JK TIGHTSCF
|  2> % maxcore 2000
|  3> % mp2 density relaxed end
|  4> *xyz 0 1
|  5>  C       -0.0080432085     1.5254997923     0.1215639611
|  6>  C        0.0267211744     0.0414732055     0.0281461066
|  7>  C        0.0081743835    -0.7432687986    -1.0895939586
|  8>  O        0.0568138131    -2.0736564659    -0.6707259115
|  9>  C        0.1004751232    -1.9804233155     0.6691511916
| 10>  N        0.2110331570    -3.1408367552     1.3641248839
| 11>  N        0.0822815788    -0.7658858992     1.1487960851
| 12>  C       -0.0518165294    -0.4682181329    -2.4628238534
| 13>  N       -0.1030396023    -0.2101008954    -3.5932145889
| 14>  H        0.8856982042     1.8953861400     0.6344844763
| 15>  H       -0.0602472265     1.9815546868    -0.8691134123
| 16>  H       -0.8744292416     1.8500078229     0.7069338839
| 17>  H       -0.1028699088    -3.9800830298     0.9034451212
| 18>  H        0.0013240529    -3.0708307050     2.3469438651
| 19> *
| 20>
| 21>                          ****END OF INPUT****

CARTESIAN COORDINATES (ANGSTROEM)
---------------------------------
  C     -0.008043    1.525500    0.121564
  C      0.026721    0.041473    0.028146
  C      0.008174   -0.743269   -1.089594
  O      0.056814   -2.073656   -0.670726
  C      0.100475   -1.980423    0.669151
  N      0.211033   -3.140837    1.364125
  N      0.082282   -0.765886    1.148796
  C     -0.051817   -0.468218   -2.462824
  N     -0.103040   -0.210101   -3.593215
  H      0.885698    1.895386    0.634484
  H     -0.060247    1.981555   -0.869113
  H     -0.874429    1.850008    0.706934
  H     -0.102870   -3.980083    0.903445
  H      0.001324   -3.070831    2.346944

 Total Charge           Charge          ....    0
 Multiplicity           Mult            ....    1
 Number of Electrons    NEL             ....   64
 Basis Dimension        Dim             ....  309

ORBITAL ENERGIES
----------------

  NO   OCC          E(Eh)            E(eV)
   0   2.0000     -20.656695      -562.0972
   1   2.0000     -15.616281      -424.9406
   2   2.0000     -15.575034      -423.8182
   3   2.0000     -15.569176      -423.6588
   4   2.0000     -11.406237      -310.3795
   5   2.0000     -11.317339      -307.9604
   6   2.0000     -11.311446      -307.8001
   7   2.0000     -11.281377      -306.9819
   8   2.0000     -11.246921      -306.0443
   9   2.0000      -1.513408       -41.1819
  10   2.0000      -1.281334       -34.8669
  11   2.0000      -1.243792       -33.8453
  12   2.0000      -1.218247       -33.1502
  13   2.0000      -1.074744       -29.2453
  14   2.0000      -0.992537       -27.0083
  15   2.0000      -0.868568       -23.6350
  16   2.0000      -0.852648       -23.2017
  17   2.0000      -0.779823       -21.2201
  18   2.0000      -0.735323       -20.0092
  19   2.0000      -0.701684       -19.0938
  20   2.0000      -0.693087       -18.8598
  21   2.0000      -0.643913       -17.5218
  22   2.0000      -0.594001       -16.1636
  23   2.0000      -0.581622       -15.8267
  24   2.0000      -0.564418       -15.3586
  25   2.0000      -0.557360       -15.1665
  26   2.0000      -0.537405       -14.6235
  27   2.0000      -0.495498       -13.4832
  28   2.0000      -0.491607       -13.3773
  29   2.0000      -0.462831       -12.5943
  30   2.0000      -0.453673       -12.3451
  31   2.0000      -0.330449        -8.9920
  32   0.0000       0.102857         2.7989
  33   0.0000       0.114631         3.1193
  34   0.0000       0.140979         3.8362
  35   0.0000       0.165260         4.4969
  36   0.0000       0.171782         4.6744

MULLIKEN ATOMIC CHARGES
-----------------------
   0 C :   -0.414023
   1 C :    0.056916
   2 C :    0.242308
   3 O :   -0.226431
   4 C :    0.386928
   5 N :   -0.501652
   6 N :   -0.316335
   7 C :   -0.197904
   8 N :   -0.048447
   9 H :    0.155425
  10 H :    0.151744
  11 H :    0.154106
  12 H :    0.275659
  13 H :    0.281706
Sum of atomic charges:   -0.0000000

LOEWDIN ATOMIC CHARGES
----------------------
   0 C :   -0.255747
   1 C :   -0.232589
   2 C :   -0.229216
   3 O :    0.360832
   4 C :   -0.445965
   5 N :   -0.022099
   6 N :    0.120256
   7 C :   -0.168054
   8 N :    0.084234
   9 H :    0.140124
  10 H :    0.138663
  11 H :    0.139677
  12 H :    0.182334
  13 H :    0.187549

  Mayer bond orders larger than 0.1
B(  0-C ,  1-C ) :   0.8781 B(  0-C ,  9-H ) :   0.9317 B(  0-C , 10-H ) :   0.9428
B(  0-C , 11-H ) :   0.9336 B(  1-C ,  2-C ) :   1.5308 B(  1-C ,  6-N ) :   1.2233
B(  2-C ,  3-O ) :   0.9574 B(  2-C ,  7-C ) :   0.9342 B(  3-O ,  4-C ) :   1.1258
B(  4-C ,  5-N ) :   1.1349 B(  4-C ,  6-N ) :   1.5929 B(  5-N , 12-H ) :   0.8618
B(  5-N , 13-H ) :   0.8607 B(  7-C ,  8-N ) :   2.8307

MP2 TOTAL ENERGY:     -432.199357220 Eh
FINAL SINGLE POINT ENERGY      -432.199357220041

DIPOLE MOMENT
-------------
                                X             Y             Z
Electronic contribution:      0.04988      -3.80554      -4.05107
Nuclear contribution   :     -0.30539       2.98862       5.58406
                        -----------------------------------------
Total Dipole Moment    :     -0.25551      -0.81692       1.53299
                        -----------------------------------------
Magnitude (a.u.)       :      1.75576
Magnitude (Debye)      :      4.46279

                             ****ORCA TERMINATED NORMALLY****
TOTAL RUN TIME: 0 days 0 hours 14 minutes 49 seconds 263 msec
