                         Program Version 3.0.3 - RELEASE   -
|  1> ! RI-MP2 RIJK def2-TZVP def2-TZVP/C def2-TZVP/JK TIGHTSCF
|  2> % maxcore 2000
|  3> % mp2 density relaxed end
|  4> *xyz 0 1
|  5>  O        0.1136010262     1.2901514120     0.2104909111
|  6>  C       -0.0202481575    -0.0690401980    -0.1451160852
|  7>  C       -1.4846018781    -0.5399965468    -0.0533093702
|  8>  N       -1.9318118860    -0.3447529639     1.3266336805
|  9>  C       -3.2813917068    -0.8173318878     1.6189344265
| 10>  C       -3.7453054799    -0.3107339449     2.9759923969
| 11>  O       -4.4769179106    -0.9177443693     3.7108873112
| 12>  C       -2.3245793202     0.3144298744    -1.0010835368
| 13>  O       -2.5546468197     0.0081522933    -2.1403268650
| 14>  H       -0.4022368969     1.4112869238     1.0178285306
| 15>  H        0.3350223379    -0.1767700879    -1.1736881576
| 16>  H        0.5997353876    -0.7238239123     0.4926146896
| 17>  H       -1.5470067028    -1.5825276285    -0.4047282814
| 18>  H       -1.2752364273    -0.8063506004     1.9500851687
| 19>  H       -3.9719866251    -0.3894716079     0.8774635334
| 20>  H       -3.4099603640    -1.9094163932     1.5790793346
| 21>  H       -3.3486580708     0.6977108917     3.2318801171
| 22>  H       -2.6841860961     1.2702946556    -0.5615694941
| 23> *
| 24>
| 25>                          ****END OF INPUT****

CARTESIAN COORDINATES (ANGSTROEM)
---------------------------------
  O      0.113601    1.290151    0.210491
  C     -0.020248   -0.069040   -0.145116
  C     -1.484602   -0.539997   -0.053309
  N     -1.931812   -0.344753    1.326634
  C     -3.281392   -0.817332    1.618934
  C     -3.745305   -0.310734    2.975992
  O     -4.476918   -0.917744    3.710887
  C     -2.324579    0.314430   -1.001084
  O     -2.554647    0.008152   -2.140327
  H     -0.402237    1.411287    1.017829
  H      0.335022   -0.176770   -1.173688
  H      0.599735   -0.723824    0.492615
  H     -1.547007   -1.582528   -0.404728
  H     -1.275236   -0.806351    1.950085
  H     -3.971987   -0.389472    0.877464
  H     -3.409960   -1.909416    1.579079
  H     -3.348658    0.697711    3.231880
  H     -2.684186    1.270295   -0.561569

 Total Charge           Charge          ....    0
 Multiplicity           Mult            ....    1
 Number of Electrons    NEL             ....   70
 Basis Dimension        Dim             ....  333

ORBITAL ENERGIES
----------------

  NO   OCC          E(Eh)            E(eV)
   0   2.0000     -20.576548      -559.9163
   1   2.0000     -20.574233      -559.8533
   2   2.0000     -20.573365      -559.8297
   3   2.0000     -15.596643      -424.4062
   4   2.0000     -11.349290      -308.8299
   5   2.0000     -11.345125      -308.7166
   6   2.0000     -11.304820      -307.6198
   7   2.0000     -11.295057      -307.3541
   8   2.0000     -11.294383      -307.3358
   9   2.0000      -1.415913       -38.5289
  10   2.0000      -1.413425       -38.4613
  11   2.0000      -1.384389       -37.6712
  12   2.0000      -1.258715       -34.2514
  13   2.0000      -1.060065       -28.8458
  14   2.0000      -0.969366       -26.3778
  15   2.0000      -0.911006       -24.7897
  16   2.0000      -0.821952       -22.3665
  17   2.0000      -0.800967       -21.7954
  18   2.0000      -0.728400       -19.8208
  19   2.0000      -0.715482       -19.4693
  20   2.0000      -0.688260       -18.7285
  21   2.0000      -0.679612       -18.4932
  22   2.0000      -0.649832       -17.6828
  23   2.0000      -0.640468       -17.4280
  24   2.0000      -0.634223       -17.2581
  25   2.0000      -0.618933       -16.8420
  26   2.0000      -0.602310       -16.3897
  27   2.0000      -0.576281       -15.6814
  28   2.0000      -0.543940       -14.8014
  29   2.0000      -0.529807       -14.4168
  30   2.0000      -0.507742       -13.8164
  31   2.0000      -0.480518       -13.0756
  32   2.0000      -0.440986       -11.9998
  33   2.0000      -0.431650       -11.7458
  34   2.0000      -0.424308       -11.5460
  35   0.0000       0.098107         2.6696
  36   0.0000       0.113069         3.0768
  37   0.0000       0.127630         3.4730
  38   0.0000       0.134756         3.6669
  39   0.0000       0.157217         4.2781

MULLIKEN ATOMIC CHARGES
-----------------------
   0 O :   -0.475041
   1 C :   -0.016138
   2 C :    0.041890
   3 N :   -0.438568
   4 C :   -0.105470
   5 C :    0.078569
   6 O :   -0.250544
   7 C :    0.057661
   8 O :   -0.246099
   9 H :    0.326932
  10 H :    0.134098
  11 H :    0.111308
  12 H :    0.102118
  13 H :    0.222517
  14 H :    0.148006
  15 H :    0.130812
  16 H :    0.085457
  17 H :    0.092493
Sum of atomic charges:   -0.0000000

LOEWDIN ATOMIC CHARGES
----------------------
   0 O :   -0.034935
   1 C :   -0.325411
   2 C :   -0.321902
   3 N :   -0.008178
   4 C :   -0.301765
   5 C :   -0.297786
   6 O :    0.142585
   7 C :   -0.277423
   8 O :    0.147916
   9 H :    0.173060
  10 H :    0.138794
  11 H :    0.120308
  12 H :    0.148880
  13 H :    0.179605
  14 H :    0.154014
  15 H :    0.133914
  16 H :    0.111840
  17 H :    0.116484

  Mayer bond orders larger than 0.1
B(  0-O ,  1-C ) :   0.9122 B(  0-O ,  9-H ) :   0.8237 B(  1-C ,  2-C ) :   0.9157
B(  1-C , 10-H ) :   0.9299 B(  1-C , 11-H ) :   0.9262 B(  2-C ,  3-N ) :   0.8611
B(  2-C ,  7-C ) :   0.8411 B(  2-C , 12-H ) :   0.9010 B(  3-N ,  4-C ) :   0.8955
B(  3-N , 13-H ) :   0.8701 B(  4-C ,  5-C ) :   0.8832 B(  4-C , 14-H ) :   0.9100
B(  4-C , 15-H ) :   0.8940 B(  5-C ,  6-O ) :   2.0095 B(  5-C , 16-H ) :   0.9324
B(  7-C ,  8-O ) :   2.0168 B(  7-C , 17-H ) :   0.9354

MP2 TOTAL ENERGY:     -475.461340608 Eh
FINAL SINGLE POINT ENERGY      -475.461340607781

DIPOLE MOMENT
-------------
                                X             Y             Z
Electronic contribution:     -3.03119       0.55174       0.05396
Nuclear contribution   :      3.54593      -0.89934       0.46095
                        -----------------------------------------
Total Dipole Moment    :      0.51473      -0.34760       0.51490
                        -----------------------------------------
Magnitude (a.u.)       :      0.80678
Magnitude (Debye)      :      2.05068

                             ****ORCA TERMINATED NORMALLY****
TOTAL RUN TIME: 0 days 0 hours 13 minutes 54 seconds 750 msec
