                         Program Version 3.0.3 - RELEASE   -
|  1> ! RI-MP2 RIJK def2-TZVP def2-TZVP/C def2-TZVP/JK TIGHTSCF
|  2> % maxcore 2000
|  3> % mp2 density relaxed end
|  4> *xyz 0 1
|  5>  O        0.0095303819    -0.0592359085    -0.0608652361
|  6>  C       -0.0581459682     1.1489716327    -0.0113736603
|  7>  C        1.1844807251     1.9553197035    -0.0008849453
|  8>  N        2.1491791625     2.5928010090     0.0077531231
|  9>  C       -1.3015155981     1.9271205570     0.0415869278
| 10>  C       -2.5270912424     1.3908905339     0.0432491715
| 11>  C       -3.5507000662     2.4772452852     0.1043736081
| 12>  O       -2.8135423680     3.6934466592     0.1381388145
| 13>  C       -1.4123046432     3.4344984676     0.1023178050
| 14>  H       -2.7525409144     0.3330569772     0.0062576701
| 15>  H       -4.2212565492     2.4584716166    -0.7697890830
| 16>  H       -4.1887272511     2.3896561131     0.9984662204
| 17>  H       -0.9288441784     3.8552671780     0.9958963210
| 18>  H       -0.9613668803     3.9240972155    -0.7730221271
| 19> *
| 20>
| 21>                          ****END OF INPUT****

CARTESIAN COORDINATES (ANGSTROEM)
---------------------------------
  O      0.009530   -0.059236   -0.060865
  C     -0.058146    1.148972   -0.011374
  C      1.184481    1.955320   -0.000885
  N      2.149179    2.592801    0.007753
  C     -1.301516    1.927121    0.041587
  C     -2.527091    1.390891    0.043249
  C     -3.550700    2.477245    0.104374
  O     -2.813542    3.693447    0.138139
  C     -1.412305    3.434498    0.102318
  H     -2.752541    0.333057    0.006258
  H     -4.221257    2.458472   -0.769789
  H     -4.188727    2.389656    0.998466
  H     -0.928844    3.855267    0.995896
  H     -0.961367    3.924097   -0.773022

 Total Charge           Charge          ....    0
 Multiplicity           Mult            ....    1
 Number of Electrons    NEL             ....   64
 Basis Dimension        Dim             ....  309

ORBITAL ENERGIES
----------------

  NO   OCC          E(Eh)            E(eV)
   0   2.0000     -20.599494      -560.5407
   1   2.0000     -20.581353      -560.0471
   2   2.0000     -15.614923      -424.9036
   3   2.0000     -11.406701      -310.3921
   4   2.0000     -11.313404      -307.8534
   5   2.0000     -11.310725      -307.7805
   6   2.0000     -11.302340      -307.5523
   7   2.0000     -11.291833      -307.2664
   8   2.0000     -11.276274      -306.8430
   9   2.0000      -1.441470       -39.2244
  10   2.0000      -1.407634       -38.3037
  11   2.0000      -1.251071       -34.0434
  12   2.0000      -1.132642       -30.8208
  13   2.0000      -1.039970       -28.2990
  14   2.0000      -0.962214       -26.1832
  15   2.0000      -0.874764       -23.8035
  16   2.0000      -0.806990       -21.9593
  17   2.0000      -0.759013       -20.6538
  18   2.0000      -0.702311       -19.1109
  19   2.0000      -0.698977       -19.0201
  20   2.0000      -0.638139       -17.3646
  21   2.0000      -0.613448       -16.6928
  22   2.0000      -0.611286       -16.6339
  23   2.0000      -0.601503       -16.3677
  24   2.0000      -0.594794       -16.1852
  25   2.0000      -0.564872       -15.3709
  26   2.0000      -0.527581       -14.3562
  27   2.0000      -0.505149       -13.7458
  28   2.0000      -0.494815       -13.4646
  29   2.0000      -0.484730       -13.1902
  30   2.0000      -0.468031       -12.7358
  31   2.0000      -0.389174       -10.5900
  32   0.0000       0.021538         0.5861
  33   0.0000       0.126638         3.4460
  34   0.0000       0.146052         3.9743
  35   0.0000       0.149034         4.0554
  36   0.0000       0.161282         4.3887

MULLIKEN ATOMIC CHARGES
-----------------------
   0 O :   -0.240136
   1 C :    0.346143
   2 C :   -0.160287
   3 N :   -0.035721
   4 C :   -0.095321
   5 C :   -0.154742
   6 C :    0.010809
   7 O :   -0.321798
   8 C :   -0.025336
   9 H :    0.171738
  10 H :    0.123400
  11 H :    0.123395
  12 H :    0.128933
  13 H :    0.128922
Sum of atomic charges:   -0.0000000

LOEWDIN ATOMIC CHARGES
----------------------
   0 O :    0.206656
   1 C :   -0.299106
   2 C :   -0.126853
   3 N :    0.103221
   4 C :   -0.146431
   5 C :   -0.063960
   6 C :   -0.279421
   7 O :    0.156458
   8 C :   -0.247490
   9 H :    0.155849
  10 H :    0.135120
  11 H :    0.135116
  12 H :    0.135422
  13 H :    0.135418

  Mayer bond orders larger than 0.1
B(  0-O ,  1-C ) :   1.9621 B(  1-C ,  2-C ) :   0.9072 B(  1-C ,  4-C ) :   0.9186
B(  2-C ,  3-N ) :   2.7866 B(  4-C ,  5-C ) :   1.6699 B(  4-C ,  8-C ) :   0.9626
B(  5-C ,  6-C ) :   0.9844 B(  5-C ,  9-H ) :   0.9008 B(  6-C ,  7-O ) :   0.9396
B(  6-C , 10-H ) :   0.9094 B(  6-C , 11-H ) :   0.9094 B(  7-O ,  8-C ) :   0.9503
B(  8-C , 12-H ) :   0.9113 B(  8-C , 13-H ) :   0.9114

MP2 TOTAL ENERGY:     -435.965658461 Eh
FINAL SINGLE POINT ENERGY      -435.965658461356

DIPOLE MOMENT
-------------
                                X             Y             Z
Electronic contribution:      6.26971      -2.59193      -0.21453
Nuclear contribution   :     -7.66953       2.41270       0.23258
                        -----------------------------------------
Total Dipole Moment    :     -1.39982      -0.17923       0.01806
                        -----------------------------------------
Magnitude (a.u.)       :      1.41136
Magnitude (Debye)      :      3.58740

                             ****ORCA TERMINATED NORMALLY****
TOTAL RUN TIME: 0 days 0 hours 14 minutes 37 seconds 26 msec
