                         Program Version 3.0.3 - RELEASE   -
|  1> ! RI-MP2 RIJK def2-TZVP def2-TZVP/C def2-TZVP/JK TIGHTSCF
|  2> % maxcore 2000
|  3> % mp2 density relaxed end
|  4> *xyz 0 1
|  5>  C       -0.1875487165     1.4976915891    -0.1617301695
|  6>  C       -0.0961606353     0.0468582064    -0.0745660221
|  7>  C       -0.0316149625    -1.1546872942     0.0050764542
|  8>  C        0.0653115043    -2.5900656894     0.0642905151
|  9>  C       -0.3192642985    -3.2797800744     1.3650977664
| 10>  C       -1.2274677507    -3.3798833456     0.1724544409
| 11>  C        1.2101383363    -3.1853386668    -0.7800296060
| 12>  C        2.5819844494    -2.6885674329    -0.3282193911
| 13>  O        1.1607371487    -4.6071436656    -0.8059021411
| 14>  H        0.8037581081     1.9556381862    -0.2537433855
| 15>  H       -0.7789769207     1.8129954222    -1.0288497169
| 16>  H       -0.6615394562     1.9194081242     0.7318337946
| 17>  H        0.2367247727    -4.1680779722     1.6461584427
| 18>  H       -0.6127166731    -2.6492213879     2.1955001380
| 19>  H       -2.1536262201    -2.8181868826     0.1805604657
| 20>  H       -1.2509935606    -4.3261231352    -0.3539683305
| 21>  H        1.0391645432    -2.8774285307    -1.8184852383
| 22>  H        2.7789452291    -2.9941063851     0.7073907413
| 23>  H        3.3645706776    -3.1042413653    -0.9691086277
| 24>  H        2.6341184405    -1.5979984965    -0.3666134056
| 25>  H        1.6306196043    -4.9340373038    -0.0317333646
| 26> *
| 27>
| 28>                          ****END OF INPUT****

CARTESIAN COORDINATES (ANGSTROEM)
---------------------------------
  C     -0.187549    1.497692   -0.161730
  C     -0.096161    0.046858   -0.074566
  C     -0.031615   -1.154687    0.005076
  C      0.065312   -2.590066    0.064291
  C     -0.319264   -3.279780    1.365098
  C     -1.227468   -3.379883    0.172454
  C      1.210138   -3.185339   -0.780030
  C      2.581984   -2.688567   -0.328219
  O      1.160737   -4.607144   -0.805902
  H      0.803758    1.955638   -0.253743
  H     -0.778977    1.812995   -1.028850
  H     -0.661539    1.919408    0.731834
  H      0.236725   -4.168078    1.646158
  H     -0.612717   -2.649221    2.195500
  H     -2.153626   -2.818187    0.180560
  H     -1.250994   -4.326123   -0.353968
  H      1.039165   -2.877429   -1.818485
  H      2.778945   -2.994106    0.707391
  H      3.364571   -3.104241   -0.969109
  H      2.634118   -1.597998   -0.366613
  H      1.630620   -4.934037   -0.031733

 Total Charge           Charge          ....    0
 Multiplicity           Mult            ....    1
 Number of Electrons    NEL             ....   68
 Basis Dimension        Dim             ....  351

ORBITAL ENERGIES
----------------

  NO   OCC          E(Eh)            E(eV)
   0   2.0000     -20.557152      -559.3886
   1   2.0000     -11.285965      -307.1067
   2   2.0000     -11.254224      -306.2430
   3   2.0000     -11.245276      -305.9995
   4   2.0000     -11.231377      -305.6213
   5   2.0000     -11.225464      -305.4604
   6   2.0000     -11.220631      -305.3289
   7   2.0000     -11.216820      -305.2252
   8   2.0000     -11.215767      -305.1965
   9   2.0000      -1.365506       -37.1573
  10   2.0000      -1.157493       -31.4970
  11   2.0000      -1.049876       -28.5686
  12   2.0000      -1.016289       -27.6546
  13   2.0000      -0.956955       -26.0401
  14   2.0000      -0.881665       -23.9913
  15   2.0000      -0.826140       -22.4804
  16   2.0000      -0.803181       -21.8557
  17   2.0000      -0.701755       -19.0957
  18   2.0000      -0.667341       -18.1593
  19   2.0000      -0.642521       -17.4839
  20   2.0000      -0.628942       -17.1144
  21   2.0000      -0.613770       -16.7015
  22   2.0000      -0.585413       -15.9299
  23   2.0000      -0.583778       -15.8854
  24   2.0000      -0.576788       -15.6952
  25   2.0000      -0.540778       -14.7153
  26   2.0000      -0.528305       -14.3759
  27   2.0000      -0.519610       -14.1393
  28   2.0000      -0.496529       -13.5112
  29   2.0000      -0.464288       -12.6339
  30   2.0000      -0.442128       -12.0309
  31   2.0000      -0.438393       -11.9293
  32   2.0000      -0.361224        -9.8294
  33   2.0000      -0.341950        -9.3049
  34   0.0000       0.129690         3.5290
  35   0.0000       0.138920         3.7802
  36   0.0000       0.169149         4.6028
  37   0.0000       0.175958         4.7881
  38   0.0000       0.183126         4.9831

MULLIKEN ATOMIC CHARGES
-----------------------
   0 C :   -0.488956
   1 C :    0.085726
   2 C :   -0.042631
   3 C :   -0.025256
   4 C :   -0.329574
   5 C :   -0.229744
   6 C :    0.081603
   7 C :   -0.421767
   8 O :   -0.476134
   9 H :    0.160002
  10 H :    0.162945
  11 H :    0.162551
  12 H :    0.115785
  13 H :    0.137643
  14 H :    0.136913
  15 H :    0.144465
  16 H :    0.099670
  17 H :    0.118529
  18 H :    0.146280
  19 H :    0.147802
  20 H :    0.314146
Sum of atomic charges:   -0.0000000

LOEWDIN ATOMIC CHARGES
----------------------
   0 C :   -0.297456
   1 C :   -0.098085
   2 C :   -0.047080
   3 C :   -0.227840
   4 C :   -0.194787
   5 C :   -0.184942
   6 C :   -0.316506
   7 C :   -0.295293
   8 O :   -0.008222
   9 H :    0.139778
  10 H :    0.139852
  11 H :    0.140854
  12 H :    0.128640
  13 H :    0.136949
  14 H :    0.136428
  15 H :    0.140628
  16 H :    0.151558
  17 H :    0.123213
  18 H :    0.125240
  19 H :    0.134049
  20 H :    0.173023

  Mayer bond orders larger than 0.1
B(  0-C ,  1-C ) :   0.8227 B(  0-C ,  9-H ) :   0.9487 B(  0-C , 10-H ) :   0.9508
B(  0-C , 11-H ) :   0.9513 B(  1-C ,  2-C ) :   2.6467 B(  1-C ,  3-C ) :  -0.1828
B(  2-C ,  3-C ) :   1.1628 B(  3-C ,  4-C ) :   0.8209 B(  3-C ,  5-C ) :   0.8209
B(  3-C ,  6-C ) :   0.9334 B(  4-C ,  5-C ) :   0.9228 B(  4-C , 12-H ) :   0.9296
B(  4-C , 13-H ) :   0.9252 B(  5-C , 14-H ) :   0.9300 B(  5-C , 15-H ) :   0.9142
B(  6-C ,  7-C ) :   0.9568 B(  6-C ,  8-O ) :   0.9177 B(  6-C , 16-H ) :   0.9176
B(  7-C , 17-H ) :   0.9187 B(  7-C , 18-H ) :   0.9405 B(  7-C , 19-H ) :   0.9288
B(  8-O , 20-H ) :   0.8430

MP2 TOTAL ENERGY:     -386.373684334 Eh
FINAL SINGLE POINT ENERGY      -386.373684333522

DIPOLE MOMENT
-------------
                                X             Y             Z
Electronic contribution:     -1.83715      -2.13422      -1.00286
Nuclear contribution   :      2.10795       2.55240       1.41342
                        -----------------------------------------
Total Dipole Moment    :      0.27080       0.41818       0.41056
                        -----------------------------------------
Magnitude (a.u.)       :      0.64557
Magnitude (Debye)      :      1.64092

                             ****ORCA TERMINATED NORMALLY****
TOTAL RUN TIME: 0 days 0 hours 19 minutes 21 seconds 210 msec
