                         Program Version 3.0.3 - RELEASE   -
|  1> ! RI-MP2 RIJK def2-TZVP def2-TZVP/C def2-TZVP/JK TIGHTSCF
|  2> % maxcore 2000
|  3> % mp2 density relaxed end
|  4> *xyz 0 1
|  5>  C       -0.7294085300     1.1189606372    -0.1015165410
|  6>  C        0.0641806605    -0.1743690094    -0.1786283651
|  7>  C        1.3977378673    -0.2163334739    -0.9686372671
|  8>  O        1.9933747871     1.0711594185    -0.9873058390
|  9>  C        1.9772109414    -1.1629254606     0.1159151753
| 10>  C        0.8259096312    -0.7309722102     1.0930653562
| 11>  C        1.2813077296     0.3535341521     2.0824740247
| 12>  C        0.1475369957    -1.8126392255     1.7877616044
| 13>  C       -0.4220304561    -2.7086684491     2.3545440918
| 14>  H       -0.1032516542     1.9619152873     0.1963128316
| 15>  H       -1.1646875289     1.3593121349    -1.0773936078
| 16>  H       -1.5520593858     1.0239147780     0.6151966091
| 17>  H       -0.5751954408    -0.9789275239    -0.5539428755
| 18>  H        1.3379534048    -0.6258643485    -1.9856263850
| 19>  H        2.8929561330     0.9763195630    -1.3162750143
| 20>  H        1.9045220060    -2.2156378301    -0.1653392131
| 21>  H        2.9952544821    -0.9465677157     0.4522419930
| 22>  H        1.8113031873     1.1491096701     1.5546129571
| 23>  H        0.4275028120     0.7872468785     2.6109403418
| 24>  H        1.9534548646    -0.0809233557     2.8290350268
| 25>  H       -0.9221224868    -3.4997932472     2.8557081561
| 26> *
| 27>
| 28>                          ****END OF INPUT****

CARTESIAN COORDINATES (ANGSTROEM)
---------------------------------
  C     -0.729409    1.118961   -0.101517
  C      0.064181   -0.174369   -0.178628
  C      1.397738   -0.216333   -0.968637
  O      1.993375    1.071159   -0.987306
  C      1.977211   -1.162925    0.115915
  C      0.825910   -0.730972    1.093065
  C      1.281308    0.353534    2.082474
  C      0.147537   -1.812639    1.787762
  C     -0.422030   -2.708668    2.354544
  H     -0.103252    1.961915    0.196313
  H     -1.164688    1.359312   -1.077394
  H     -1.552059    1.023915    0.615197
  H     -0.575195   -0.978928   -0.553943
  H      1.337953   -0.625864   -1.985626
  H      2.892956    0.976320   -1.316275
  H      1.904522   -2.215638   -0.165339
  H      2.995254   -0.946568    0.452242
  H      1.811303    1.149110    1.554613
  H      0.427503    0.787247    2.610940
  H      1.953455   -0.080923    2.829035
  H     -0.922122   -3.499793    2.855708

 Total Charge           Charge          ....    0
 Multiplicity           Mult            ....    1
 Number of Electrons    NEL             ....   68
 Basis Dimension        Dim             ....  351

ORBITAL ENERGIES
----------------

  NO   OCC          E(Eh)            E(eV)
   0   2.0000     -20.560340      -559.4753
   1   2.0000     -11.282004      -306.9989
   2   2.0000     -11.256884      -306.3154
   3   2.0000     -11.232453      -305.6506
   4   2.0000     -11.228536      -305.5440
   5   2.0000     -11.225967      -305.4741
   6   2.0000     -11.215148      -305.1797
   7   2.0000     -11.214083      -305.1507
   8   2.0000     -11.208741      -305.0053
   9   2.0000      -1.367815       -37.2201
  10   2.0000      -1.147607       -31.2280
  11   2.0000      -1.028431       -27.9850
  12   2.0000      -0.986287       -26.8382
  13   2.0000      -0.970565       -26.4104
  14   2.0000      -0.862024       -23.4569
  15   2.0000      -0.855704       -23.2849
  16   2.0000      -0.760015       -20.6810
  17   2.0000      -0.719052       -19.5664
  18   2.0000      -0.691416       -18.8144
  19   2.0000      -0.658128       -17.9086
  20   2.0000      -0.619194       -16.8491
  21   2.0000      -0.600416       -16.3382
  22   2.0000      -0.587033       -15.9740
  23   2.0000      -0.562726       -15.3126
  24   2.0000      -0.541196       -14.7267
  25   2.0000      -0.535481       -14.5712
  26   2.0000      -0.529062       -14.3965
  27   2.0000      -0.513412       -13.9707
  28   2.0000      -0.477405       -12.9908
  29   2.0000      -0.466975       -12.7070
  30   2.0000      -0.437013       -11.8917
  31   2.0000      -0.422873       -11.5070
  32   2.0000      -0.374425       -10.1886
  33   2.0000      -0.370240       -10.0747
  34   0.0000       0.129233         3.5166
  35   0.0000       0.149618         4.0713
  36   0.0000       0.163454         4.4478
  37   0.0000       0.164108         4.4656
  38   0.0000       0.172554         4.6954

MULLIKEN ATOMIC CHARGES
-----------------------
   0 C :   -0.438836
   1 C :   -0.064709
   2 C :    0.021548
   3 O :   -0.467056
   4 C :   -0.272048
   5 C :    0.087983
   6 C :   -0.459636
   7 C :   -0.060610
   8 C :   -0.158117
   9 H :    0.150779
  10 H :    0.133003
  11 H :    0.137916
  12 H :    0.113840
  13 H :    0.099014
  14 H :    0.315519
  15 H :    0.125421
  16 H :    0.119397
  17 H :    0.157081
  18 H :    0.136031
  19 H :    0.136084
  20 H :    0.187397
Sum of atomic charges:   -0.0000000

LOEWDIN ATOMIC CHARGES
----------------------
   0 C :   -0.292177
   1 C :   -0.184316
   2 C :   -0.300306
   3 O :   -0.015690
   4 C :   -0.171102
   5 C :   -0.239484
   6 C :   -0.251461
   7 C :   -0.073389
   8 C :   -0.104183
   9 H :    0.128977
  10 H :    0.127992
  11 H :    0.127946
  12 H :    0.161309
  13 H :    0.121513
  14 H :    0.175350
  15 H :    0.142058
  16 H :    0.131410
  17 H :    0.131021
  18 H :    0.129553
  19 H :    0.129595
  20 H :    0.125384

  Mayer bond orders larger than 0.1
B(  0-C ,  1-C ) :   0.9102 B(  0-C ,  9-H ) :   0.9321 B(  0-C , 10-H ) :   0.9331
B(  0-C , 11-H ) :   0.9387 B(  1-C ,  2-C ) :   0.8866 B(  1-C ,  5-C ) :   0.8563
B(  1-C , 12-H ) :   0.9246 B(  2-C ,  3-O ) :   1.0474 B(  2-C ,  4-C ) :   0.9260
B(  2-C , 13-H ) :   0.9501 B(  3-O , 14-H ) :   0.8436 B(  4-C ,  5-C ) :   0.8568
B(  4-C , 15-H ) :   0.9073 B(  4-C , 16-H ) :   0.9165 B(  5-C ,  6-C ) :   0.8849
B(  5-C ,  7-C ) :   1.2049 B(  5-C ,  8-C ) :  -0.1078 B(  6-C , 17-H ) :   0.9315
B(  6-C , 18-H ) :   0.9363 B(  6-C , 19-H ) :   0.9342 B(  7-C ,  8-C ) :   2.5733
B(  8-C , 20-H ) :   0.8836

MP2 TOTAL ENERGY:     -386.371203720 Eh
FINAL SINGLE POINT ENERGY      -386.371203720390

DIPOLE MOMENT
-------------
                                X             Y             Z
Electronic contribution:      0.59383      -3.58117      -0.12217
Nuclear contribution   :     -0.19344       3.35249      -0.23115
                        -----------------------------------------
Total Dipole Moment    :      0.40039      -0.22868      -0.35332
                        -----------------------------------------
Magnitude (a.u.)       :      0.58090
Magnitude (Debye)      :      1.47653

                             ****ORCA TERMINATED NORMALLY****
TOTAL RUN TIME: 0 days 0 hours 20 minutes 26 seconds 826 msec
