                         Program Version 3.0.3 - RELEASE   -
|  1> ! RI-MP2 RIJK def2-TZVP def2-TZVP/C def2-TZVP/JK TIGHTSCF
|  2> % maxcore 2000
|  3> % mp2 density relaxed end
|  4> *xyz 0 1
|  5>  C       -0.1806954714     1.4585575605     0.4693560184
|  6>  C       -0.3783614245    -0.0583662254     0.4827324756
|  7>  C       -1.1168802711    -0.5662463083    -0.7725741103
|  8>  C       -1.3225396271    -2.0103839583    -0.7750639287
|  9>  C       -1.4776984792    -3.2044078807    -0.7447641894
| 10>  C       -1.6893414055    -4.6461085698    -0.7148670666
| 11>  C       -2.6711941563    -5.1095183916     0.3858521433
| 12>  C       -2.9094497688    -6.6189299310     0.3194589450
| 13>  O       -2.2423813554    -4.7069392936     1.6775568120
| 14>  H        0.3448782612     1.7971345027     1.3673483125
| 15>  H        0.4067897371     1.7759546389    -0.3996603316
| 16>  H       -1.1413324745     1.9842848913     0.4282035783
| 17>  H        0.5910441421    -0.5647545474     0.5511159304
| 18>  H       -0.9455141666    -0.3586592312     1.3706118092
| 19>  H       -2.0869437537    -0.0562323557    -0.8506879466
| 20>  H       -0.5523363327    -0.2713810127    -1.6680282599
| 21>  H       -2.0651272624    -4.9902391783    -1.6877609378
| 22>  H       -0.7306721219    -5.1660956352    -0.5648322086
| 23>  H       -3.6215205223    -4.5844802359     0.2379960949
| 24>  H       -1.9670954263    -7.1678087171     0.4428193833
| 25>  H       -3.5887176947    -6.9260005886     1.1186999939
| 26>  H       -3.3446099852    -6.9144129181    -0.6409010407
| 27>  H       -1.3855756109    -5.1152931047     1.8453602635
| 28> *
| 29>
| 30>                          ****END OF INPUT****

CARTESIAN COORDINATES (ANGSTROEM)
---------------------------------
  C     -0.180695    1.458558    0.469356
  C     -0.378361   -0.058366    0.482732
  C     -1.116880   -0.566246   -0.772574
  C     -1.322540   -2.010384   -0.775064
  C     -1.477698   -3.204408   -0.744764
  C     -1.689341   -4.646109   -0.714867
  C     -2.671194   -5.109518    0.385852
  C     -2.909450   -6.618930    0.319459
  O     -2.242381   -4.706939    1.677557
  H      0.344878    1.797135    1.367348
  H      0.406790    1.775955   -0.399660
  H     -1.141332    1.984285    0.428204
  H      0.591044   -0.564755    0.551116
  H     -0.945514   -0.358659    1.370612
  H     -2.086944   -0.056232   -0.850688
  H     -0.552336   -0.271381   -1.668028
  H     -2.065127   -4.990239   -1.687761
  H     -0.730672   -5.166096   -0.564832
  H     -3.621521   -4.584480    0.237996
  H     -1.967095   -7.167809    0.442819
  H     -3.588718   -6.926001    1.118700
  H     -3.344610   -6.914413   -0.640901
  H     -1.385576   -5.115293    1.845360

 Total Charge           Charge          ....    0
 Multiplicity           Mult            ....    1
 Number of Electrons    NEL             ....   70
 Basis Dimension        Dim             ....  363

ORBITAL ENERGIES
----------------

  NO   OCC          E(Eh)            E(eV)
   0   2.0000     -20.552075      -559.2504
   1   2.0000     -11.285460      -307.0930
   2   2.0000     -11.247940      -306.0720
   3   2.0000     -11.241090      -305.8856
   4   2.0000     -11.222788      -305.3876
   5   2.0000     -11.221069      -305.3408
   6   2.0000     -11.214123      -305.1518
   7   2.0000     -11.213097      -305.1239
   8   2.0000     -11.209246      -305.0191
   9   2.0000      -1.360485       -37.0207
  10   2.0000      -1.086037       -29.5526
  11   2.0000      -1.063870       -28.9494
  12   2.0000      -1.009231       -27.4626
  13   2.0000      -0.963241       -26.2111
  14   2.0000      -0.910957       -24.7884
  15   2.0000      -0.826017       -22.4771
  16   2.0000      -0.812117       -22.0988
  17   2.0000      -0.689012       -18.7490
  18   2.0000      -0.649340       -17.6695
  19   2.0000      -0.644777       -17.5453
  20   2.0000      -0.635664       -17.2973
  21   2.0000      -0.617425       -16.8010
  22   2.0000      -0.601249       -16.3608
  23   2.0000      -0.572170       -15.5695
  24   2.0000      -0.562152       -15.2969
  25   2.0000      -0.549362       -14.9489
  26   2.0000      -0.535062       -14.5598
  27   2.0000      -0.526174       -14.3179
  28   2.0000      -0.505372       -13.7519
  29   2.0000      -0.487706       -13.2712
  30   2.0000      -0.479359       -13.0440
  31   2.0000      -0.475681       -12.9439
  32   2.0000      -0.447484       -12.1767
  33   2.0000      -0.358840        -9.7645
  34   2.0000      -0.357884        -9.7385
  35   0.0000       0.125086         3.4038
  36   0.0000       0.138100         3.7579
  37   0.0000       0.166323         4.5259
  38   0.0000       0.176544         4.8040
  39   0.0000       0.184527         5.0212

MULLIKEN ATOMIC CHARGES
-----------------------
   0 C :   -0.395586
   1 C :   -0.153317
   2 C :   -0.407562
   3 C :    0.135373
   4 C :    0.088239
   5 C :   -0.524088
   6 C :    0.138844
   7 C :   -0.389571
   8 O :   -0.462184
   9 H :    0.135733
  10 H :    0.121709
  11 H :    0.123100
  12 H :    0.109626
  13 H :    0.120923
  14 H :    0.137466
  15 H :    0.138232
  16 H :    0.144037
  17 H :    0.144524
  18 H :    0.096960
  19 H :    0.112891
  20 H :    0.149568
  21 H :    0.126673
  22 H :    0.308412
Sum of atomic charges:   -0.0000000

LOEWDIN ATOMIC CHARGES
----------------------
   0 C :   -0.321512
   1 C :   -0.279789
   2 C :   -0.256275
   3 C :   -0.078695
   4 C :   -0.083835
   5 C :   -0.248434
   6 C :   -0.364937
   7 C :   -0.305049
   8 O :   -0.013927
   9 H :    0.122001
  10 H :    0.120061
  11 H :    0.120535
  12 H :    0.136948
  13 H :    0.139616
  14 H :    0.153692
  15 H :    0.153107
  16 H :    0.158805
  17 H :    0.152532
  18 H :    0.147129
  19 H :    0.120467
  20 H :    0.127539
  21 H :    0.125462
  22 H :    0.174558

  Mayer bond orders larger than 0.1
B(  0-C ,  1-C ) :   0.9153 B(  0-C ,  9-H ) :   0.9426 B(  0-C , 10-H ) :   0.9382
B(  0-C , 11-H ) :   0.9384 B(  1-C ,  2-C ) :   0.9481 B(  1-C , 12-H ) :   0.9315
B(  1-C , 13-H ) :   0.9314 B(  2-C ,  3-C ) :   1.0113 B(  2-C , 14-H ) :   0.9270
B(  2-C , 15-H ) :   0.9341 B(  3-C ,  4-C ) :   2.6530 B(  3-C ,  5-C ) :  -0.1513
B(  4-C ,  5-C ) :   1.0232 B(  5-C ,  6-C ) :   0.9367 B(  5-C , 16-H ) :   0.9306
B(  5-C , 17-H ) :   0.9334 B(  6-C ,  7-C ) :   0.9349 B(  6-C ,  8-O ) :   0.9129
B(  6-C , 18-H ) :   0.9263 B(  7-C , 19-H ) :   0.9182 B(  7-C , 20-H ) :   0.9433
B(  7-C , 21-H ) :   0.9356 B(  8-O , 22-H ) :   0.8439

MP2 TOTAL ENERGY:     -387.589524749 Eh
FINAL SINGLE POINT ENERGY      -387.589524748572

DIPOLE MOMENT
-------------
                                X             Y             Z
Electronic contribution:     -1.37735      -3.64047      -0.49697
Nuclear contribution   :      1.66979       3.29369       0.20926
                        -----------------------------------------
Total Dipole Moment    :      0.29244      -0.34677      -0.28771
                        -----------------------------------------
Magnitude (a.u.)       :      0.53717
Magnitude (Debye)      :      1.36538

                             ****ORCA TERMINATED NORMALLY****
TOTAL RUN TIME: 0 days 0 hours 16 minutes 52 seconds 161 msec
