                         Program Version 3.0.3 - RELEASE   -
|  1> ! RI-MP2 RIJK def2-TZVP def2-TZVP/C def2-TZVP/JK TIGHTSCF
|  2> % maxcore 2000
|  3> % mp2 density relaxed end
|  4> *xyz 0 1
|  5>  C       -0.0041817828     1.4994267819     0.0960903812
|  6>  C       -0.0026855210     0.0134912092    -0.0506732403
|  7>  C       -0.0530441104    -0.7827814000    -1.1897021826
|  8>  C       -0.0263276926    -2.1287407643    -0.7802280113
|  9>  C        0.0399911552    -2.1443189724     0.6069809525
| 10>  N        0.0527793774    -0.8234685197     1.0223631120
| 11>  C        0.0908602708    -3.2416324176     1.5467777793
| 12>  O        0.0832384849    -4.4195134595     1.2534901264
| 13>  H        0.8992356993     1.8614418288     0.6014422607
| 14>  H       -0.0464598490     1.9710144898    -0.8876529910
| 15>  H       -0.8673355369     1.8526498200     0.6730485810
| 16>  H       -0.1033148233    -0.4104243726    -2.2018217548
| 17>  H       -0.0511167066    -3.0114095035    -1.3996191726
| 18>  H        0.0971121476    -0.5287053875     1.9842268482
| 19>  H        0.1404283673    -2.9187691626     2.6163096112
| 20> *
| 21>
| 22>                          ****END OF INPUT****

CARTESIAN COORDINATES (ANGSTROEM)
---------------------------------
  C     -0.004182    1.499427    0.096090
  C     -0.002686    0.013491   -0.050673
  C     -0.053044   -0.782781   -1.189702
  C     -0.026328   -2.128741   -0.780228
  C      0.039991   -2.144319    0.606981
  N      0.052779   -0.823469    1.022363
  C      0.090860   -3.241632    1.546778
  O      0.083238   -4.419513    1.253490
  H      0.899236    1.861442    0.601442
  H     -0.046460    1.971014   -0.887653
  H     -0.867336    1.852650    0.673049
  H     -0.103315   -0.410424   -2.201822
  H     -0.051117   -3.011410   -1.399619
  H      0.097112   -0.528705    1.984227
  H      0.140428   -2.918769    2.616310

 Total Charge           Charge          ....    0
 Multiplicity           Mult            ....    1
 Number of Electrons    NEL             ....   58
 Basis Dimension        Dim             ....  290

ORBITAL ENERGIES
----------------

  NO   OCC          E(Eh)            E(eV)
   0   2.0000     -20.538370      -558.8775
   1   2.0000     -15.623545      -425.1383
   2   2.0000     -11.329370      -308.2878
   3   2.0000     -11.287603      -307.1513
   4   2.0000     -11.258830      -306.3684
   5   2.0000     -11.249827      -306.1234
   6   2.0000     -11.236125      -305.7505
   7   2.0000     -11.222748      -305.3865
   8   2.0000      -1.376751       -37.4633
   9   2.0000      -1.313789       -35.7500
  10   2.0000      -1.064629       -28.9700
  11   2.0000      -1.057489       -28.7757
  12   2.0000      -0.964480       -26.2448
  13   2.0000      -0.854656       -23.2564
  14   2.0000      -0.808966       -22.0131
  15   2.0000      -0.767341       -20.8804
  16   2.0000      -0.710979       -19.3467
  17   2.0000      -0.638590       -17.3769
  18   2.0000      -0.623920       -16.9777
  19   2.0000      -0.621604       -16.9147
  20   2.0000      -0.600408       -16.3379
  21   2.0000      -0.577993       -15.7280
  22   2.0000      -0.567433       -15.4406
  23   2.0000      -0.552281       -15.0283
  24   2.0000      -0.535594       -14.5743
  25   2.0000      -0.513824       -13.9819
  26   2.0000      -0.422670       -11.5014
  27   2.0000      -0.367419        -9.9980
  28   2.0000      -0.306466        -8.3394
  29   0.0000       0.087588         2.3834
  30   0.0000       0.116103         3.1593
  31   0.0000       0.148380         4.0376
  32   0.0000       0.175281         4.7696
  33   0.0000       0.179562         4.8861

MULLIKEN ATOMIC CHARGES
-----------------------
   0 C :   -0.448997
   1 C :    0.151669
   2 C :   -0.165447
   3 C :   -0.195847
   4 C :    0.153201
   5 N :   -0.279484
   6 C :    0.048639
   7 O :   -0.290816
   8 H :    0.148509
   9 H :    0.153318
  10 H :    0.148769
  11 H :    0.134779
  12 H :    0.146737
  13 H :    0.245808
  14 H :    0.049164
Sum of atomic charges:   -0.0000000

LOEWDIN ATOMIC CHARGES
----------------------
   0 C :   -0.277076
   1 C :   -0.241877
   2 C :   -0.156971
   3 C :   -0.129344
   4 C :   -0.238518
   5 N :    0.234603
   6 C :   -0.304580
   7 O :    0.112576
   8 H :    0.132108
   9 H :    0.139689
  10 H :    0.132163
  11 H :    0.142581
  12 H :    0.149176
  13 H :    0.196801
  14 H :    0.108668

  Mayer bond orders larger than 0.1
B(  0-C ,  1-C ) :   0.8553 B(  0-C ,  8-H ) :   0.9354 B(  0-C ,  9-H ) :   0.9515
B(  0-C , 10-H ) :   0.9350 B(  1-C ,  2-C ) :   1.3892 B(  1-C ,  5-N ) :   1.1672
B(  2-C ,  3-C ) :   1.3172 B(  2-C , 11-H ) :   0.9363 B(  3-C ,  4-C ) :   1.3598
B(  3-C , 12-H ) :   0.9458 B(  4-C ,  5-N ) :   1.0759 B(  4-C ,  6-C ) :   0.8686
B(  4-C ,  7-O ) :  -0.1427 B(  4-C , 14-H ) :  -0.1234 B(  5-N , 13-H ) :   0.8686
B(  6-C ,  7-O ) :   2.0086 B(  6-C , 14-H ) :   0.9926

MP2 TOTAL ENERGY:     -362.092469783 Eh
FINAL SINGLE POINT ENERGY      -362.092469782971

DIPOLE MOMENT
-------------
                                X             Y             Z
Electronic contribution:      0.10302      -6.89858       1.36883
Nuclear contribution   :     -0.09570       8.77485      -1.00117
                        -----------------------------------------
Total Dipole Moment    :      0.00732       1.87627       0.36766
                        -----------------------------------------
Magnitude (a.u.)       :      1.91197
Magnitude (Debye)      :      4.85983

                             ****ORCA TERMINATED NORMALLY****
TOTAL RUN TIME: 0 days 0 hours 11 minutes 46 seconds 233 msec
