                         Program Version 3.0.3 - RELEASE   -
|  1> ! RI-MP2 RIJK def2-TZVP def2-TZVP/C def2-TZVP/JK TIGHTSCF
|  2> % maxcore 2000
|  3> % mp2 density relaxed end
|  4> *xyz 0 1
|  5>  C       -0.5816907576     1.3447960816     0.1325231124
|  6>  C       -0.0038267995    -0.0539985921    -0.0235187632
|  7>  C        0.8194572279    -0.3053806692    -1.3174065375
|  8>  C        2.0703043289    -0.4080709179    -0.3703257347
|  9>  N        1.2013691487    -0.3530134897     0.8096140353
| 10>  C        2.8549188033    -1.7041875176    -0.5135553805
| 11>  O        3.4974585002    -1.9839249073    -1.4930897889
| 12>  C        3.0119779148     0.7712584889    -0.5526317187
| 13>  O        3.0227109778     1.7232542639     0.1854745163
| 14>  H        0.1839210991     2.1088140124    -0.0346361044
| 15>  H       -1.3979563946     1.5070425310    -0.5797342543
| 16>  H       -0.9865356035     1.4833770959     1.1410157493
| 17>  H       -0.7900566478    -0.7988889766     0.1433052548
| 18>  H        0.5988195961    -1.2297860908    -1.8528091948
| 19>  H        0.8458669451     0.5208656144    -2.0312891326
| 20>  H        1.4605125906     0.4108961089     1.4303174347
| 21>  H        2.7680343122    -2.3743216712     0.3690362690
| 22>  H        3.6888833782     0.6858746256    -1.4266001621
| 23> *
| 24>
| 25>                          ****END OF INPUT****

CARTESIAN COORDINATES (ANGSTROEM)
---------------------------------
  C     -0.581691    1.344796    0.132523
  C     -0.003827   -0.053999   -0.023519
  C      0.819457   -0.305381   -1.317407
  C      2.070304   -0.408071   -0.370326
  N      1.201369   -0.353013    0.809614
  C      2.854919   -1.704188   -0.513555
  O      3.497459   -1.983925   -1.493090
  C      3.011978    0.771258   -0.552632
  O      3.022711    1.723254    0.185475
  H      0.183921    2.108814   -0.034636
  H     -1.397956    1.507043   -0.579734
  H     -0.986536    1.483377    1.141016
  H     -0.790057   -0.798889    0.143305
  H      0.598820   -1.229786   -1.852809
  H      0.845867    0.520866   -2.031289
  H      1.460513    0.410896    1.430317
  H      2.768034   -2.374322    0.369036
  H      3.688883    0.685875   -1.426600

 Total Charge           Charge          ....    0
 Multiplicity           Mult            ....    1
 Number of Electrons    NEL             ....   68
 Basis Dimension        Dim             ....  333

ORBITAL ENERGIES
----------------

  NO   OCC          E(Eh)            E(eV)
   0   2.0000     -20.577342      -559.9379
   1   2.0000     -20.574125      -559.8504
   2   2.0000     -15.561179      -423.4412
   3   2.0000     -11.349604      -308.8384
   4   2.0000     -11.345576      -308.7288
   5   2.0000     -11.294979      -307.3520
   6   2.0000     -11.278049      -306.8913
   7   2.0000     -11.258999      -306.3729
   8   2.0000     -11.229436      -305.5685
   9   2.0000      -1.419362       -38.6228
  10   2.0000      -1.412141       -38.4263
  11   2.0000      -1.262678       -34.3592
  12   2.0000      -1.038849       -28.2685
  13   2.0000      -1.016064       -27.6485
  14   2.0000      -0.940778       -25.5999
  15   2.0000      -0.866523       -23.5793
  16   2.0000      -0.809270       -22.0214
  17   2.0000      -0.753193       -20.4954
  18   2.0000      -0.710153       -19.3243
  19   2.0000      -0.705611       -19.2007
  20   2.0000      -0.674642       -18.3579
  21   2.0000      -0.659048       -17.9336
  22   2.0000      -0.616953       -16.7881
  23   2.0000      -0.608081       -16.5467
  24   2.0000      -0.576753       -15.6942
  25   2.0000      -0.564694       -15.3661
  26   2.0000      -0.551864       -15.0170
  27   2.0000      -0.533265       -14.5109
  28   2.0000      -0.524854       -14.2820
  29   2.0000      -0.494297       -13.4505
  30   2.0000      -0.492685       -13.4066
  31   2.0000      -0.440418       -11.9844
  32   2.0000      -0.434389       -11.8203
  33   2.0000      -0.391590       -10.6557
  34   0.0000       0.090188         2.4541
  35   0.0000       0.134707         3.6656
  36   0.0000       0.141097         3.8394
  37   0.0000       0.165706         4.5091
  38   0.0000       0.166956         4.5431

MULLIKEN ATOMIC CHARGES
-----------------------
   0 C :   -0.443681
   1 C :    0.037641
   2 C :   -0.286170
   3 C :    0.212738
   4 N :   -0.339901
   5 C :    0.046302
   6 O :   -0.266277
   7 C :    0.053433
   8 O :   -0.272735
   9 H :    0.148215
  10 H :    0.131300
  11 H :    0.142074
  12 H :    0.099193
  13 H :    0.148353
  14 H :    0.138029
  15 H :    0.221085
  16 H :    0.111423
  17 H :    0.118978
Sum of atomic charges:    0.0000000

LOEWDIN ATOMIC CHARGES
----------------------
   0 C :   -0.301430
   1 C :   -0.282014
   2 C :   -0.153143
   3 C :   -0.315454
   4 N :    0.053420
   5 C :   -0.250991
   6 O :    0.143733
   7 C :   -0.250999
   8 O :    0.139069
   9 H :    0.127822
  10 H :    0.128454
  11 H :    0.128202
  12 H :    0.138280
  13 H :    0.139560
  14 H :    0.139655
  15 H :    0.166633
  16 H :    0.120649
  17 H :    0.128553

  Mayer bond orders larger than 0.1
B(  0-C ,  1-C ) :   0.9227 B(  0-C ,  9-H ) :   0.9276 B(  0-C , 10-H ) :   0.9318
B(  0-C , 11-H ) :   0.9370 B(  1-C ,  2-C ) :   0.8998 B(  1-C ,  4-N ) :   0.9792
B(  1-C , 12-H ) :   0.9152 B(  2-C ,  3-C ) :   0.8586 B(  2-C , 13-H ) :   0.9155
B(  2-C , 14-H ) :   0.9230 B(  3-C ,  4-N ) :   1.0326 B(  3-C ,  5-C ) :   0.8025
B(  3-C ,  7-C ) :   0.8552 B(  4-N , 15-H ) :   0.8667 B(  5-C ,  6-O ) :   1.9777
B(  5-C , 16-H ) :   0.9338 B(  7-C ,  8-O ) :   1.9384 B(  7-C , 17-H ) :   0.9242

MP2 TOTAL ENERGY:     -438.355603045 Eh
FINAL SINGLE POINT ENERGY      -438.355603045197

DIPOLE MOMENT
-------------
                                X             Y             Z
Electronic contribution:      8.08530      -2.76775      -0.37761
Nuclear contribution   :     -8.97109       2.90215       0.26775
                        -----------------------------------------
Total Dipole Moment    :     -0.88578       0.13440      -0.10986
                        -----------------------------------------
Magnitude (a.u.)       :      0.90263
Magnitude (Debye)      :      2.29431

                             ****ORCA TERMINATED NORMALLY****
TOTAL RUN TIME: 0 days 0 hours 17 minutes 37 seconds 161 msec
