                         Program Version 3.0.3 - RELEASE   -
|  1> ! RI-MP2 RIJK def2-TZVP def2-TZVP/C def2-TZVP/JK TIGHTSCF
|  2> % maxcore 2000
|  3> % mp2 density relaxed end
|  4> *xyz 0 1
|  5>  C        0.0150317734     1.5591422224     0.0678106136
|  6>  C        0.0090370711     0.0443845692    -0.0017823958
|  7>  C        0.3152620453    -0.6544200580    -1.3535630496
|  8>  N       -0.7872892049    -1.6425511167    -1.1189618816
|  9>  C       -0.4720102678    -2.6338197603    -0.0607818163
| 10>  C        0.1785845413    -2.0390538163     1.1851793692
| 11>  C        0.8288210756    -0.6697372174     1.0913666561
| 12>  C       -1.3097342166    -1.9191832436     0.9807456166
| 13>  C       -1.3589917156    -0.7597391712    -0.0276628169
| 14>  H        1.0308562003     1.9570168074    -0.0411559455
| 15>  H       -0.5985174568     1.9970025221    -0.7271010265
| 16>  H       -0.3760490989     1.9125282175     1.0289521109
| 17>  H        0.0728625991    -0.0430473589    -2.2297205883
| 18>  H        1.3136103319    -1.0861728025    -1.4826700870
| 19>  H       -0.3930737524    -3.6889037651    -0.2993904628
| 20>  H        0.5396916529    -2.7636259656     1.9078875595
| 21>  H        1.8929850335    -0.7021717480     0.8307270687
| 22>  H        0.7381263421    -0.1519483957     2.0557691595
| 23>  H       -2.0879908209    -2.2767489423     1.6405433555
| 24>  H       -2.2879319327    -0.2309993870    -0.2461973894
| 25> *
| 26>
| 27>                          ****END OF INPUT****

CARTESIAN COORDINATES (ANGSTROEM)
---------------------------------
  C      0.015032    1.559142    0.067811
  C      0.009037    0.044385   -0.001782
  C      0.315262   -0.654420   -1.353563
  N     -0.787289   -1.642551   -1.118962
  C     -0.472010   -2.633820   -0.060782
  C      0.178585   -2.039054    1.185179
  C      0.828821   -0.669737    1.091367
  C     -1.309734   -1.919183    0.980746
  C     -1.358992   -0.759739   -0.027663
  H      1.030856    1.957017   -0.041156
  H     -0.598517    1.997003   -0.727101
  H     -0.376049    1.912528    1.028952
  H      0.072863   -0.043047   -2.229721
  H      1.313610   -1.086173   -1.482670
  H     -0.393074   -3.688904   -0.299390
  H      0.539692   -2.763626    1.907888
  H      1.892985   -0.702172    0.830727
  H      0.738126   -0.151948    2.055769
  H     -2.087991   -2.276749    1.640543
  H     -2.287932   -0.230999   -0.246197

 Total Charge           Charge          ....    0
 Multiplicity           Mult            ....    1
 Number of Electrons    NEL             ....   66
 Basis Dimension        Dim             ....  345

ORBITAL ENERGIES
----------------

  NO   OCC          E(Eh)            E(eV)
   0   2.0000     -15.542498      -422.9329
   1   2.0000     -11.256987      -306.3182
   2   2.0000     -11.255186      -306.2692
   3   2.0000     -11.239935      -305.8542
   4   2.0000     -11.235154      -305.7241
   5   2.0000     -11.233330      -305.6744
   6   2.0000     -11.227599      -305.5185
   7   2.0000     -11.223233      -305.3997
   8   2.0000     -11.217000      -305.2301
   9   2.0000      -1.289396       -35.0862
  10   2.0000      -1.101418       -29.9711
  11   2.0000      -1.064347       -28.9624
  12   2.0000      -0.953084       -25.9347
  13   2.0000      -0.916455       -24.9380
  14   2.0000      -0.875517       -23.8240
  15   2.0000      -0.780291       -21.2328
  16   2.0000      -0.765924       -20.8419
  17   2.0000      -0.714101       -19.4317
  18   2.0000      -0.676297       -18.4030
  19   2.0000      -0.621945       -16.9240
  20   2.0000      -0.614060       -16.7094
  21   2.0000      -0.592118       -16.1123
  22   2.0000      -0.580114       -15.7857
  23   2.0000      -0.556870       -15.1532
  24   2.0000      -0.545114       -14.8333
  25   2.0000      -0.529634       -14.4121
  26   2.0000      -0.490401       -13.3445
  27   2.0000      -0.478670       -13.0253
  28   2.0000      -0.444273       -12.0893
  29   2.0000      -0.434178       -11.8146
  30   2.0000      -0.421850       -11.4791
  31   2.0000      -0.376302       -10.2397
  32   2.0000      -0.337448        -9.1824
  33   0.0000       0.135419         3.6849
  34   0.0000       0.161052         4.3825
  35   0.0000       0.167365         4.5542
  36   0.0000       0.176190         4.7944
  37   0.0000       0.190809         5.1922

MULLIKEN ATOMIC CHARGES
-----------------------
   0 C :   -0.412500
   1 C :    0.095633
   2 C :   -0.192790
   3 N :   -0.186003
   4 C :   -0.029450
   5 C :   -0.156752
   6 C :   -0.193863
   7 C :   -0.267318
   8 C :   -0.014252
   9 H :    0.134084
  10 H :    0.133521
  11 H :    0.130644
  12 H :    0.112138
  13 H :    0.107248
  14 H :    0.126939
  15 H :    0.125786
  16 H :    0.113835
  17 H :    0.105885
  18 H :    0.141165
  19 H :    0.126048
Sum of atomic charges:    0.0000000

LOEWDIN ATOMIC CHARGES
----------------------
   0 C :   -0.279432
   1 C :   -0.250266
   2 C :   -0.210661
   3 N :    0.122637
   4 C :   -0.190806
   5 C :   -0.184581
   6 C :   -0.193250
   7 C :   -0.149091
   8 C :   -0.130291
   9 H :    0.128319
  10 H :    0.126566
  11 H :    0.126794
  12 H :    0.129167
  13 H :    0.123564
  14 H :    0.131669
  15 H :    0.149844
  16 H :    0.139261
  17 H :    0.142282
  18 H :    0.134307
  19 H :    0.133969

  Mayer bond orders larger than 0.1
B(  0-C ,  1-C ) :   0.8694 B(  0-C ,  9-H ) :   0.9374 B(  0-C , 10-H ) :   0.9412
B(  0-C , 11-H ) :   0.9388 B(  1-C ,  2-C ) :   0.9456 B(  1-C ,  6-C ) :   0.9362
B(  1-C ,  8-C ) :   0.9159 B(  2-C ,  3-N ) :   0.9166 B(  2-C , 12-H ) :   0.9155
B(  2-C , 13-H ) :   0.9203 B(  3-N ,  4-C ) :   0.9536 B(  3-N ,  8-C ) :   0.9696
B(  4-C ,  5-C ) :   0.8505 B(  4-C ,  7-C ) :   0.8534 B(  4-C , 14-H ) :   0.9326
B(  5-C ,  6-C ) :   0.9502 B(  5-C ,  7-C ) :   0.8791 B(  5-C , 15-H ) :   0.9305
B(  6-C , 16-H ) :   0.9169 B(  6-C , 17-H ) :   0.9130 B(  7-C ,  8-C ) :   0.9573
B(  7-C , 18-H ) :   0.9156 B(  8-C , 19-H ) :   0.8879

MP2 TOTAL ENERGY:     -365.299975240 Eh
FINAL SINGLE POINT ENERGY      -365.299975240152

DIPOLE MOMENT
-------------
                                X             Y             Z
Electronic contribution:     -2.34777      -4.59995      -0.92530
Nuclear contribution   :      2.63878       4.86210       1.48153
                        -----------------------------------------
Total Dipole Moment    :      0.29102       0.26215       0.55623
                        -----------------------------------------
Magnitude (a.u.)       :      0.68030
Magnitude (Debye)      :      1.72918

                             ****ORCA TERMINATED NORMALLY****
TOTAL RUN TIME: 0 days 0 hours 22 minutes 13 seconds 673 msec
