                         Program Version 3.0.3 - RELEASE   -
|  1> ! RI-MP2 RIJK def2-TZVP def2-TZVP/C def2-TZVP/JK TIGHTSCF
|  2> % maxcore 2000
|  3> % mp2 density relaxed end
|  4> *xyz 0 1
|  5>  O        0.0166771536     0.0328910832     0.1035523272
|  6>  C        0.0077565680     1.2345741487     0.0312741894
|  7>  C       -1.1852731007     2.1363021549    -0.0213900450
|  8>  C       -1.0389115742     3.5394578290     0.5928134542
|  9>  C       -0.8667837733     3.3287504102    -0.8952980639
| 10>  C        0.6737057527     3.4710633748    -0.7121030155
| 11>  C        0.4609920913     3.8755919014     0.7611078928
| 12>  O        1.2879490729     2.8072693919     1.2625236402
| 13>  C        1.2204342697     2.1689438986    -0.0541171099
| 14>  H       -2.1777747905     1.7044166256    -0.0173068665
| 15>  H       -1.8728438618     3.9606140710     1.1404452587
| 16>  H       -1.4702426539     3.6536276769    -1.7312251977
| 17>  H        1.2817219191     4.0291489406    -1.4175108805
| 18>  H        0.6974396740     4.8487377617     1.1936751821
| 19>  H        2.1601524433     1.7043190016    -0.3514003756
| 20> *
| 21>
| 22>                          ****END OF INPUT****

CARTESIAN COORDINATES (ANGSTROEM)
---------------------------------
  O      0.016677    0.032891    0.103552
  C      0.007757    1.234574    0.031274
  C     -1.185273    2.136302   -0.021390
  C     -1.038912    3.539458    0.592813
  C     -0.866784    3.328750   -0.895298
  C      0.673706    3.471063   -0.712103
  C      0.460992    3.875592    0.761108
  O      1.287949    2.807269    1.262524
  C      1.220434    2.168944   -0.054117
  H     -2.177775    1.704417   -0.017307
  H     -1.872844    3.960614    1.140445
  H     -1.470243    3.653628   -1.731225
  H      1.281722    4.029149   -1.417511
  H      0.697440    4.848738    1.193675
  H      2.160152    1.704319   -0.351400

 Total Charge           Charge          ....    0
 Multiplicity           Mult            ....    1
 Number of Electrons    NEL             ....   64
 Basis Dimension        Dim             ....  315

ORBITAL ENERGIES
----------------

  NO   OCC          E(Eh)            E(eV)
   0   2.0000     -20.568664      -559.7018
   1   2.0000     -20.550362      -559.2038
   2   2.0000     -11.334039      -308.4149
   3   2.0000     -11.307918      -307.7041
   4   2.0000     -11.303115      -307.5734
   5   2.0000     -11.268284      -306.6256
   6   2.0000     -11.266313      -306.5720
   7   2.0000     -11.261579      -306.4431
   8   2.0000     -11.260019      -306.4007
   9   2.0000      -1.411094       -38.3978
  10   2.0000      -1.386091       -37.7175
  11   2.0000      -1.218474       -33.1564
  12   2.0000      -1.011798       -27.5324
  13   2.0000      -1.006449       -27.3869
  14   2.0000      -0.884269       -24.0622
  15   2.0000      -0.848389       -23.0859
  16   2.0000      -0.775523       -21.1031
  17   2.0000      -0.744139       -20.2490
  18   2.0000      -0.712836       -19.3973
  19   2.0000      -0.659903       -17.9569
  20   2.0000      -0.653023       -17.7697
  21   2.0000      -0.639733       -17.4080
  22   2.0000      -0.614615       -16.7245
  23   2.0000      -0.584663       -15.9095
  24   2.0000      -0.567624       -15.4458
  25   2.0000      -0.521298       -14.1852
  26   2.0000      -0.508912       -13.8482
  27   2.0000      -0.477130       -12.9834
  28   2.0000      -0.468702       -12.7540
  29   2.0000      -0.430097       -11.7035
  30   2.0000      -0.418349       -11.3839
  31   2.0000      -0.379022       -10.3137
  32   0.0000       0.127086         3.4582
  33   0.0000       0.139946         3.8081
  34   0.0000       0.157868         4.2958
  35   0.0000       0.163572         4.4510
  36   0.0000       0.179491         4.8842

MULLIKEN ATOMIC CHARGES
-----------------------
   0 O :   -0.260456
   1 C :    0.086224
   2 C :   -0.111341
   3 C :   -0.149439
   4 C :   -0.172010
   5 C :   -0.114306
   6 C :    0.054094
   7 O :   -0.321999
   8 C :    0.121087
   9 H :    0.149935
  10 H :    0.152331
  11 H :    0.151935
  12 H :    0.152247
  13 H :    0.124553
  14 H :    0.137146
Sum of atomic charges:    0.0000000

LOEWDIN ATOMIC CHARGES
----------------------
   0 O :    0.162252
   1 C :   -0.288853
   2 C :   -0.127864
   3 C :   -0.121817
   4 C :   -0.122749
   5 C :   -0.125904
   6 C :   -0.214730
   7 O :    0.164837
   8 C :   -0.185569
   9 H :    0.159498
  10 H :    0.142016
  11 H :    0.139880
  12 H :    0.142471
  13 H :    0.136532
  14 H :    0.140000

  Mayer bond orders larger than 0.1
B(  0-O ,  1-C ) :   2.0351 B(  1-C ,  2-C ) :   0.9660 B(  1-C ,  8-C ) :   0.8587
B(  2-C ,  3-C ) :   0.8015 B(  2-C ,  4-C ) :   0.8311 B(  2-C ,  8-C ) :  -0.1301
B(  2-C ,  9-H ) :   0.9241 B(  3-C ,  4-C ) :   0.8522 B(  3-C ,  6-C ) :   0.8922
B(  3-C , 10-H ) :   0.9147 B(  4-C ,  5-C ) :   0.9426 B(  4-C , 11-H ) :   0.9146
B(  5-C ,  6-C ) :   0.9703 B(  5-C ,  8-C ) :   0.9067 B(  5-C , 12-H ) :   0.9120
B(  6-C ,  7-O ) :   0.9656 B(  6-C , 13-H ) :   0.9326 B(  7-O ,  8-C ) :   0.8523
B(  8-C , 14-H ) :   0.9075

MP2 TOTAL ENERGY:     -419.877364777 Eh
FINAL SINGLE POINT ENERGY      -419.877364776641

DIPOLE MOMENT
-------------
                                X             Y             Z
Electronic contribution:      1.31301      -3.23674       1.16027
Nuclear contribution   :     -1.77426       4.68336      -1.88171
                        -----------------------------------------
Total Dipole Moment    :     -0.46125       1.44661      -0.72144
                        -----------------------------------------
Magnitude (a.u.)       :      1.68105
Magnitude (Debye)      :      4.27288

                             ****ORCA TERMINATED NORMALLY****
TOTAL RUN TIME: 0 days 0 hours 18 minutes 5 seconds 941 msec
