                         Program Version 3.0.3 - RELEASE   -
|  1> ! RI-MP2 RIJK def2-TZVP def2-TZVP/C def2-TZVP/JK TIGHTSCF
|  2> % maxcore 2000
|  3> % mp2 density relaxed end
|  4> *xyz 0 1
|  5>  C       -0.5084962815     1.3989663886    -0.3603159339
|  6>  C        0.0410240984     0.0183077203    -0.0466026725
|  7>  O        0.6959530398    -0.4742154533    -1.1998098450
|  8>  C        1.2460735384    -1.7608712933    -0.9992604935
|  9>  C        1.9024017415    -2.2233189899    -2.2149724120
| 10>  C        2.4475467636    -2.6282763268    -3.2068485679
| 11>  C        3.1145082801    -3.1058035990    -4.4190953160
| 12>  C        2.4701162787    -4.2717113685    -5.0272651297
| 13>  C        1.9523855954    -5.2289312474    -5.5339131354
| 14>  H        0.3010801358     2.0786863767    -0.6402440203
| 15>  H       -1.2169275173     1.3490585591    -1.1918165083
| 16>  H       -1.0237234175     1.8111283934     0.5124374995
| 17>  H        0.7462595405     0.0639864184     0.8012002817
| 18>  H       -0.7726920687    -0.6656065543     0.2502210640
| 19>  H        1.9714422981    -1.7437547956    -0.1666833483
| 20>  H        0.4572014539    -2.4774863770    -0.7101426586
| 21>  H        3.1539887261    -2.2891939251    -5.1532973114
| 22>  H        4.1620809770    -3.3479100072    -4.1924536316
| 23>  H        1.4895668178    -6.0744702392    -5.9791245209
| 24> *
| 25>
| 26>                          ****END OF INPUT****

CARTESIAN COORDINATES (ANGSTROEM)
---------------------------------
  C     -0.508496    1.398966   -0.360316
  C      0.041024    0.018308   -0.046603
  O      0.695953   -0.474215   -1.199810
  C      1.246074   -1.760871   -0.999260
  C      1.902402   -2.223319   -2.214972
  C      2.447547   -2.628276   -3.206849
  C      3.114508   -3.105804   -4.419095
  C      2.470116   -4.271711   -5.027265
  C      1.952386   -5.228931   -5.533913
  H      0.301080    2.078686   -0.640244
  H     -1.216928    1.349059   -1.191817
  H     -1.023723    1.811128    0.512437
  H      0.746260    0.063986    0.801200
  H     -0.772692   -0.665607    0.250221
  H      1.971442   -1.743755   -0.166683
  H      0.457201   -2.477486   -0.710143
  H      3.153989   -2.289194   -5.153297
  H      4.162081   -3.347910   -4.192454
  H      1.489567   -6.074470   -5.979125

 Total Charge           Charge          ....    0
 Multiplicity           Mult            ....    1
 Number of Electrons    NEL             ....   66
 Basis Dimension        Dim             ....  339

ORBITAL ENERGIES
----------------

  NO   OCC          E(Eh)            E(eV)
   0   2.0000     -20.561869      -559.5169
   1   2.0000     -11.304484      -307.6107
   2   2.0000     -11.284448      -307.0654
   3   2.0000     -11.279840      -306.9401
   4   2.0000     -11.240039      -305.8570
   5   2.0000     -11.232899      -305.6627
   6   2.0000     -11.225766      -305.4686
   7   2.0000     -11.225482      -305.4609
   8   2.0000     -11.216858      -305.2262
   9   2.0000      -1.384174       -37.6653
  10   2.0000      -1.100291       -29.9404
  11   2.0000      -1.052771       -28.6474
  12   2.0000      -1.014301       -27.6005
  13   2.0000      -0.976709       -26.5776
  14   2.0000      -0.917296       -24.9609
  15   2.0000      -0.838282       -22.8108
  16   2.0000      -0.734074       -19.9752
  17   2.0000      -0.692044       -18.8315
  18   2.0000      -0.682324       -18.5670
  19   2.0000      -0.670500       -18.2452
  20   2.0000      -0.650620       -17.7043
  21   2.0000      -0.638262       -17.3680
  22   2.0000      -0.620529       -16.8855
  23   2.0000      -0.598774       -16.2935
  24   2.0000      -0.545432       -14.8420
  25   2.0000      -0.533954       -14.5296
  26   2.0000      -0.512658       -13.9501
  27   2.0000      -0.487280       -13.2596
  28   2.0000      -0.435198       -11.8423
  29   2.0000      -0.401707       -10.9310
  30   2.0000      -0.399862       -10.8808
  31   2.0000      -0.379301       -10.3213
  32   2.0000      -0.373471       -10.1627
  33   0.0000       0.132836         3.6147
  34   0.0000       0.141574         3.8524
  35   0.0000       0.160951         4.3797
  36   0.0000       0.166588         4.5331
  37   0.0000       0.167840         4.5671

MULLIKEN ATOMIC CHARGES
-----------------------
   0 C :   -0.365353
   1 C :   -0.045035
   2 O :   -0.276020
   3 C :   -0.231800
   4 C :    0.022490
   5 C :    0.113179
   6 C :   -0.434724
   7 C :   -0.005673
   8 C :   -0.142386
   9 H :    0.131302
  10 H :    0.132320
  11 H :    0.122475
  12 H :    0.090744
  13 H :    0.091809
  14 H :    0.124374
  15 H :    0.127250
  16 H :    0.178173
  17 H :    0.174448
  18 H :    0.192426
Sum of atomic charges:    0.0000000

LOEWDIN ATOMIC CHARGES
----------------------
   0 C :   -0.315551
   1 C :   -0.353647
   2 O :    0.163300
   3 C :   -0.314674
   4 C :   -0.064013
   5 C :   -0.052379
   6 C :   -0.231052
   7 C :   -0.095299
   8 C :   -0.095931
   9 H :    0.124815
  10 H :    0.125117
  11 H :    0.124476
  12 H :    0.115984
  13 H :    0.116267
  14 H :    0.136292
  15 H :    0.137417
  16 H :    0.176856
  17 H :    0.174625
  18 H :    0.127399

  Mayer bond orders larger than 0.1
B(  0-C ,  1-C ) :   0.9516 B(  0-C ,  9-H ) :   0.9363 B(  0-C , 10-H ) :   0.9362
B(  0-C , 11-H ) :   0.9330 B(  1-C ,  2-O ) :   0.9162 B(  1-C , 12-H ) :   0.9238
B(  1-C , 13-H ) :   0.9238 B(  2-O ,  3-C ) :   1.0457 B(  3-C ,  4-C ) :   1.0396
B(  3-C , 14-H ) :   0.9352 B(  3-C , 15-H ) :   0.9357 B(  4-C ,  5-C ) :   2.6656
B(  5-C ,  6-C ) :   0.9881 B(  6-C ,  7-C ) :   1.0788 B(  6-C , 16-H ) :   0.9253
B(  6-C , 17-H ) :   0.9292 B(  7-C ,  8-C ) :   2.6183 B(  8-C , 18-H ) :   0.9055

MP2 TOTAL ENERGY:     -385.114462743 Eh
FINAL SINGLE POINT ENERGY      -385.114462742674

DIPOLE MOMENT
-------------
                                X             Y             Z
Electronic contribution:      4.59814      -7.33625      -6.97646
Nuclear contribution   :     -4.57030       7.30082       7.43118
                        -----------------------------------------
Total Dipole Moment    :      0.02784      -0.03543       0.45472
                        -----------------------------------------
Magnitude (a.u.)       :      0.45695
Magnitude (Debye)      :      1.16148

                             ****ORCA TERMINATED NORMALLY****
TOTAL RUN TIME: 0 days 0 hours 12 minutes 31 seconds 540 msec
