                         Program Version 3.0.3 - RELEASE   -
|  1> ! RI-MP2 RIJK def2-TZVP def2-TZVP/C def2-TZVP/JK TIGHTSCF
|  2> % maxcore 2000
|  3> % mp2 density relaxed end
|  4> *xyz 0 1
|  5>  C        0.0270951915     1.6998950269     0.3211905634
|  6>  C        0.0698943955     0.2057543492    -0.0174092386
|  7>  C        0.7911689127    -0.0096711805    -1.3627913584
|  8>  N        0.9220262840    -1.3157743053    -1.7491763902
|  9>  O        1.1766956129     0.9089475600    -2.0594509924
| 10>  C        0.6623255266    -0.6453280301     1.1133760156
| 11>  C        2.1442255546    -0.4481830912     1.3859817246
| 12>  C       -0.2283791358    -0.9151159234     2.2999490849
| 13>  C        0.0935042592    -2.0348390778     1.3386096981
| 14>  H        1.0327939487     2.1121352952     0.4326122071
| 15>  H       -0.4588435285     2.2594381664    -0.4800624715
| 16>  H       -0.5227169270     1.8622807303     1.2526972173
| 17>  H       -0.9618278739    -0.1409912723    -0.1715367344
| 18>  H        0.7744163029    -2.0660368181    -1.0964288042
| 19>  H        1.4658035851    -1.4978412862    -2.5773148461
| 20>  H        2.3663097957     0.5881155755     1.6597117001
| 21>  H        2.4757819084    -1.0853279527     2.2114938780
| 22>  H        2.7498349220    -0.6973150549     0.5077448646
| 23>  H        0.2257300775    -0.9416650417     3.2847117328
| 24>  H       -1.2369029486    -0.5156634733     2.2876278656
| 25>  H       -0.7094502530    -2.3848089040     0.6962222127
| 26>  H        0.7671672495    -2.8176646021     1.6722889310
| 27> *
| 28>
| 29>                          ****END OF INPUT****

CARTESIAN COORDINATES (ANGSTROEM)
---------------------------------
  C      0.027095    1.699895    0.321191
  C      0.069894    0.205754   -0.017409
  C      0.791169   -0.009671   -1.362791
  N      0.922026   -1.315774   -1.749176
  O      1.176696    0.908948   -2.059451
  C      0.662326   -0.645328    1.113376
  C      2.144226   -0.448183    1.385982
  C     -0.228379   -0.915116    2.299949
  C      0.093504   -2.034839    1.338610
  H      1.032794    2.112135    0.432612
  H     -0.458844    2.259438   -0.480062
  H     -0.522717    1.862281    1.252697
  H     -0.961828   -0.140991   -0.171537
  H      0.774416   -2.066037   -1.096429
  H      1.465804   -1.497841   -2.577315
  H      2.366310    0.588116    1.659712
  H      2.475782   -1.085328    2.211494
  H      2.749835   -0.697315    0.507745
  H      0.225730   -0.941665    3.284712
  H     -1.236903   -0.515663    2.287628
  H     -0.709450   -2.384809    0.696222
  H      0.767167   -2.817665    1.672289

 Total Charge           Charge          ....    0
 Multiplicity           Mult            ....    1
 Number of Electrons    NEL             ....   70
 Basis Dimension        Dim             ....  357

ORBITAL ENERGIES
----------------

  NO   OCC          E(Eh)            E(eV)
   0   2.0000     -20.513531      -558.2016
   1   2.0000     -15.574492      -423.8035
   2   2.0000     -11.343670      -308.6769
   3   2.0000     -11.253081      -306.2119
   4   2.0000     -11.246319      -306.0279
   5   2.0000     -11.236994      -305.7741
   6   2.0000     -11.233998      -305.6926
   7   2.0000     -11.224212      -305.4263
   8   2.0000     -11.210263      -305.0468
   9   2.0000      -1.377584       -37.4860
  10   2.0000      -1.205972       -32.8162
  11   2.0000      -1.166973       -31.7549
  12   2.0000      -1.042218       -28.3602
  13   2.0000      -0.968380       -26.3510
  14   2.0000      -0.891316       -24.2539
  15   2.0000      -0.837314       -22.7845
  16   2.0000      -0.797035       -21.6884
  17   2.0000      -0.748118       -20.3573
  18   2.0000      -0.710638       -19.3375
  19   2.0000      -0.678628       -18.4664
  20   2.0000      -0.656305       -17.8590
  21   2.0000      -0.637802       -17.3555
  22   2.0000      -0.600234       -16.3332
  23   2.0000      -0.583798       -15.8859
  24   2.0000      -0.565138       -15.3782
  25   2.0000      -0.546476       -14.8704
  26   2.0000      -0.537340       -14.6218
  27   2.0000      -0.528431       -14.3793
  28   2.0000      -0.518976       -14.1221
  29   2.0000      -0.511612       -13.9217
  30   2.0000      -0.470816       -12.8115
  31   2.0000      -0.441021       -12.0008
  32   2.0000      -0.417954       -11.3731
  33   2.0000      -0.408842       -11.1252
  34   2.0000      -0.397542       -10.8177
  35   0.0000       0.126704         3.4478
  36   0.0000       0.142682         3.8826
  37   0.0000       0.153574         4.1790
  38   0.0000       0.164235         4.4691
  39   0.0000       0.181628         4.9423

MULLIKEN ATOMIC CHARGES
-----------------------
   0 C :   -0.400244
   1 C :   -0.019801
   2 C :    0.215155
   3 N :   -0.467064
   4 O :   -0.336177
   5 C :    0.051509
   6 C :   -0.422949
   7 C :   -0.277694
   8 C :   -0.338780
   9 H :    0.131176
  10 H :    0.148677
  11 H :    0.130528
  12 H :    0.107213
  13 H :    0.266006
  14 H :    0.254427
  15 H :    0.143926
  16 H :    0.129067
  17 H :    0.139897
  18 H :    0.135851
  19 H :    0.132046
  20 H :    0.140471
  21 H :    0.136757
Sum of atomic charges:    0.0000000

LOEWDIN ATOMIC CHARGES
----------------------
   0 C :   -0.276651
   1 C :   -0.211787
   2 C :   -0.449254
   3 N :   -0.018816
   4 O :    0.091716
   5 C :   -0.260563
   6 C :   -0.259615
   7 C :   -0.205828
   8 C :   -0.227112
   9 H :    0.127717
  10 H :    0.130798
  11 H :    0.123519
  12 H :    0.169398
  13 H :    0.170506
  14 H :    0.171498
  15 H :    0.129962
  16 H :    0.129167
  17 H :    0.129495
  18 H :    0.135328
  19 H :    0.135650
  20 H :    0.131719
  21 H :    0.133151

  Mayer bond orders larger than 0.1
B(  0-C ,  1-C ) :   0.9393 B(  0-C ,  9-H ) :   0.9297 B(  0-C , 10-H ) :   0.9336
B(  0-C , 11-H ) :   0.9391 B(  1-C ,  2-C ) :   0.8955 B(  1-C ,  5-C ) :   0.8657
B(  1-C , 12-H ) :   0.9049 B(  2-C ,  3-N ) :   1.1637 B(  2-C ,  4-O ) :   2.0138
B(  3-N , 13-H ) :   0.8645 B(  3-N , 14-H ) :   0.8608 B(  5-C ,  6-C ) :   0.9295
B(  5-C ,  7-C ) :   0.8574 B(  5-C ,  8-C ) :   0.8754 B(  6-C , 15-H ) :   0.9370
B(  6-C , 16-H ) :   0.9290 B(  6-C , 17-H ) :   0.9310 B(  7-C ,  8-C ) :   0.9050
B(  7-C , 18-H ) :   0.9317 B(  7-C , 19-H ) :   0.9250 B(  8-C , 20-H ) :   0.9219
B(  8-C , 21-H ) :   0.9293

MP2 TOTAL ENERGY:     -403.692673267 Eh
FINAL SINGLE POINT ENERGY      -403.692673266626

DIPOLE MOMENT
-------------
                                X             Y             Z
Electronic contribution:      0.28226       0.47710      -7.01398
Nuclear contribution   :     -0.42921      -1.62336       7.76278
                        -----------------------------------------
Total Dipole Moment    :     -0.14694      -1.14626       0.74880
                        -----------------------------------------
Magnitude (a.u.)       :      1.37702
Magnitude (Debye)      :      3.50012

                             ****ORCA TERMINATED NORMALLY****
TOTAL RUN TIME: 0 days 0 hours 22 minutes 46 seconds 488 msec
