                         Program Version 3.0.3 - RELEASE   -
|  1> ! RI-MP2 RIJK def2-TZVP def2-TZVP/C def2-TZVP/JK TIGHTSCF
|  2> % maxcore 2000
|  3> % mp2 density relaxed end
|  4> *xyz 0 1
|  5>  C       -0.0679345443     1.4502434593     0.0095899282
|  6>  O       -0.0312364568     0.0172376563     0.0045814789
|  7>  C       -1.1707663095    -0.6636017859     0.0118729973
|  8>  C       -1.2352196026    -2.0107945466     0.0091481770
|  9>  C       -2.5257830935    -2.6795199680     0.0173979565
| 10>  O       -2.6831376594    -3.8787321339     0.0156686467
| 11>  N       -3.6697815447    -1.8039081676     0.0283559212
| 12>  C       -3.4884110580    -0.5572493696     0.0300293478
| 13>  O       -2.2846173279     0.1089194975     0.0223403685
| 14>  H        0.9766520223     1.7594646927     0.0023191833
| 15>  H       -0.5774432348     1.8344070739    -0.8779524346
| 16>  H       -0.5632716461     1.8285234625     0.9076250567
| 17>  H       -0.3259369477    -2.5945817377     0.0007726797
| 18>  H       -4.2977688070     0.1669287371     0.0380403427
| 19> *
| 20>
| 21>                          ****END OF INPUT****

CARTESIAN COORDINATES (ANGSTROEM)
---------------------------------
  C     -0.067935    1.450243    0.009590
  O     -0.031236    0.017238    0.004581
  C     -1.170766   -0.663602    0.011873
  C     -1.235220   -2.010795    0.009148
  C     -2.525783   -2.679520    0.017398
  O     -2.683138   -3.878732    0.015669
  N     -3.669782   -1.803908    0.028356
  C     -3.488411   -0.557249    0.030029
  O     -2.284617    0.108919    0.022340
  H      0.976652    1.759465    0.002319
  H     -0.577443    1.834407   -0.877952
  H     -0.563272    1.828523    0.907625
  H     -0.325937   -2.594582    0.000773
  H     -4.297769    0.166929    0.038040

 Total Charge           Charge          ....    0
 Multiplicity           Mult            ....    1
 Number of Electrons    NEL             ....   66
 Basis Dimension        Dim             ....  309

ORBITAL ENERGIES
----------------

  NO   OCC          E(Eh)            E(eV)
   0   2.0000     -20.673131      -562.5445
   1   2.0000     -20.634314      -561.4882
   2   2.0000     -20.524905      -558.5111
   3   2.0000     -15.584939      -424.0878
   4   2.0000     -11.412976      -310.5629
   5   2.0000     -11.385768      -309.8225
   6   2.0000     -11.357236      -309.0461
   7   2.0000     -11.318039      -307.9795
   8   2.0000     -11.237790      -305.7958
   9   2.0000      -1.532478       -41.7008
  10   2.0000      -1.446529       -39.3620
  11   2.0000      -1.383217       -37.6392
  12   2.0000      -1.250845       -34.0372
  13   2.0000      -1.099103       -29.9081
  14   2.0000      -0.990619       -26.9561
  15   2.0000      -0.948708       -25.8157
  16   2.0000      -0.869790       -23.6682
  17   2.0000      -0.777213       -21.1490
  18   2.0000      -0.767445       -20.8832
  19   2.0000      -0.726655       -19.7733
  20   2.0000      -0.698125       -18.9970
  21   2.0000      -0.688521       -18.7356
  22   2.0000      -0.658154       -17.9093
  23   2.0000      -0.647478       -17.6188
  24   2.0000      -0.620373       -16.8812
  25   2.0000      -0.586941       -15.9715
  26   2.0000      -0.559109       -15.2141
  27   2.0000      -0.552587       -15.0366
  28   2.0000      -0.546604       -14.8738
  29   2.0000      -0.480869       -13.0851
  30   2.0000      -0.448252       -12.1976
  31   2.0000      -0.424139       -11.5414
  32   2.0000      -0.362635        -9.8678
  33   0.0000       0.102452         2.7879
  34   0.0000       0.123054         3.3485
  35   0.0000       0.128431         3.4948
  36   0.0000       0.162392         4.4189
  37   0.0000       0.172335         4.6895

MULLIKEN ATOMIC CHARGES
-----------------------
   0 C :   -0.224066
   1 O :   -0.247474
   2 C :    0.391146
   3 C :   -0.331577
   4 C :    0.261231
   5 O :   -0.294206
   6 N :   -0.198334
   7 C :    0.104606
   8 O :   -0.222094
   9 H :    0.160650
  10 H :    0.144217
  11 H :    0.144206
  12 H :    0.153030
  13 H :    0.158665
Sum of atomic charges:    0.0000000

LOEWDIN ATOMIC CHARGES
----------------------
   0 C :   -0.299499
   1 O :    0.260369
   2 C :   -0.361832
   3 C :   -0.144018
   4 C :   -0.421238
   5 O :    0.130060
   6 N :    0.146766
   7 C :   -0.284976
   8 O :    0.319488
   9 H :    0.121747
  10 H :    0.114310
  11 H :    0.114313
  12 H :    0.163941
  13 H :    0.140568

  Mayer bond orders larger than 0.1
B(  0-C ,  1-O ) :   0.8282 B(  0-C ,  9-H ) :   0.9345 B(  0-C , 10-H ) :   0.9343
B(  0-C , 11-H ) :   0.9343 B(  1-O ,  2-C ) :   1.1551 B(  2-C ,  3-C ) :   1.4760
B(  2-C ,  8-O ) :   0.9836 B(  3-C ,  4-C ) :   1.0673 B(  3-C , 12-H ) :   0.9319
B(  4-C ,  5-O ) :   1.9802 B(  4-C ,  6-N ) :   0.9912 B(  6-N ,  7-C ) :   1.8034
B(  7-C ,  8-O ) :   0.9841 B(  7-C , 13-H ) :   0.9256

MP2 TOTAL ENERGY:     -473.095272990 Eh
FINAL SINGLE POINT ENERGY      -473.095272990271

DIPOLE MOMENT
-------------
                                X             Y             Z
Electronic contribution:     -3.46660      -5.23597       0.01117
Nuclear contribution   :      4.29733       7.81194      -0.01064
                        -----------------------------------------
Total Dipole Moment    :      0.83072       2.57597       0.00053
                        -----------------------------------------
Magnitude (a.u.)       :      2.70661
Magnitude (Debye)      :      6.87964

                             ****ORCA TERMINATED NORMALLY****
TOTAL RUN TIME: 0 days 0 hours 12 minutes 59 seconds 375 msec
