                         Program Version 3.0.3 - RELEASE   -
|  1> ! RI-MP2 RIJK def2-TZVP def2-TZVP/C def2-TZVP/JK TIGHTSCF
|  2> % maxcore 2000
|  3> % mp2 density relaxed end
|  4> *xyz 0 1
|  5>  C       -0.0268243089     1.4961192625     0.0107291985
|  6>  C        0.0022831891    -0.0055844811    -0.0146454133
|  7>  N       -0.0346588704    -0.6156930933    -1.1636269870
|  8>  C       -0.0074623394    -2.0095669404    -1.1874445156
|  9>  O       -0.0369069785    -2.6885243104    -2.1862522924
| 10>  N        0.0590994561    -2.6253111694     0.0797011387
| 11>  N        0.0977466328    -2.0258302068     1.2634831909
| 12>  C        0.0702595436    -0.7260767713     1.2318670141
| 13>  H        0.8683209382     1.8891146748     0.5060603651
| 14>  H       -0.0786239671     1.8842004627    -1.0062823880
| 15>  H       -0.8908662422     1.8537562651     0.5822173035
| 16>  H        0.0800465173    -3.6365203307     0.0955736157
| 17>  H        0.1009487592    -0.2157283115     2.1873051296
| 18> *
| 19>
| 20>                          ****END OF INPUT****

CARTESIAN COORDINATES (ANGSTROEM)
---------------------------------
  C     -0.026824    1.496119    0.010729
  C      0.002283   -0.005584   -0.014645
  N     -0.034659   -0.615693   -1.163627
  C     -0.007462   -2.009567   -1.187445
  O     -0.036907   -2.688524   -2.186252
  N      0.059099   -2.625311    0.079701
  N      0.097747   -2.025830    1.263483
  C      0.070260   -0.726077    1.231867
  H      0.868321    1.889115    0.506060
  H     -0.078624    1.884200   -1.006282
  H     -0.890866    1.853756    0.582217
  H      0.080047   -3.636520    0.095574
  H      0.100949   -0.215728    2.187305

 Total Charge           Charge          ....    0
 Multiplicity           Mult            ....    1
 Number of Electrons    NEL             ....   58
 Basis Dimension        Dim             ....  278

ORBITAL ENERGIES
----------------

  NO   OCC          E(Eh)            E(eV)
   0   2.0000     -20.525146      -558.5176
   1   2.0000     -15.669892      -426.3994
   2   2.0000     -15.656421      -426.0329
   3   2.0000     -15.587012      -424.1442
   4   2.0000     -11.389094      -309.9130
   5   2.0000     -11.338159      -308.5270
   6   2.0000     -11.297176      -307.4118
   7   2.0000     -11.256172      -306.2960
   8   2.0000      -1.430039       -38.9133
   9   2.0000      -1.368412       -37.2364
  10   2.0000      -1.258806       -34.2539
  11   2.0000      -1.149338       -31.2751
  12   2.0000      -1.039646       -28.2902
  13   2.0000      -0.931590       -25.3499
  14   2.0000      -0.880513       -23.9600
  15   2.0000      -0.783532       -21.3210
  16   2.0000      -0.773044       -21.0356
  17   2.0000      -0.659883       -17.9563
  18   2.0000      -0.659375       -17.9425
  19   2.0000      -0.644907       -17.5488
  20   2.0000      -0.603722       -16.4281
  21   2.0000      -0.594951       -16.1894
  22   2.0000      -0.586861       -15.9693
  23   2.0000      -0.538648       -14.6573
  24   2.0000      -0.534122       -14.5342
  25   2.0000      -0.474321       -12.9069
  26   2.0000      -0.465404       -12.6643
  27   2.0000      -0.422177       -11.4880
  28   2.0000      -0.370454       -10.0806
  29   0.0000       0.053613         1.4589
  30   0.0000       0.123055         3.3485
  31   0.0000       0.129271         3.5176
  32   0.0000       0.148806         4.0492
  33   0.0000       0.174569         4.7503

MULLIKEN ATOMIC CHARGES
-----------------------
   0 C :   -0.409122
   1 C :    0.154813
   2 N :   -0.205863
   3 C :    0.260479
   4 O :   -0.319530
   5 N :   -0.132530
   6 N :   -0.131422
   7 C :   -0.112523
   8 H :    0.151523
   9 H :    0.165644
  10 H :    0.151509
  11 H :    0.272038
  12 H :    0.154985
Sum of atomic charges:    0.0000000

LOEWDIN ATOMIC CHARGES
----------------------
   0 C :   -0.257315
   1 C :   -0.247170
   2 N :    0.185379
   3 C :   -0.519279
   4 O :    0.097723
   5 N :    0.119277
   6 N :    0.078615
   7 C :   -0.224930
   8 H :    0.139409
   9 H :    0.139817
  10 H :    0.139395
  11 H :    0.200308
  12 H :    0.148773

  Mayer bond orders larger than 0.1
B(  0-C ,  1-C ) :   0.8888 B(  0-C ,  8-H ) :   0.9228 B(  0-C ,  9-H ) :   0.9388
B(  0-C , 10-H ) :   0.9228 B(  1-C ,  2-N ) :   1.6372 B(  1-C ,  7-C ) :   1.0937
B(  2-N ,  3-C ) :   1.1153 B(  3-C ,  4-O ) :   1.9973 B(  3-C ,  5-N ) :   1.0320
B(  5-N ,  6-N ) :   1.0306 B(  5-N , 11-H ) :   0.8581 B(  6-N ,  7-C ) :   1.6330
B(  7-C , 12-H ) :   0.9234

MP2 TOTAL ENERGY:     -394.158116578 Eh
FINAL SINGLE POINT ENERGY      -394.158116578448

DIPOLE MOMENT
-------------
                                X             Y             Z
Electronic contribution:      0.04545      -6.32769      -1.91409
Nuclear contribution   :      0.00442       7.11962       3.44508
                        -----------------------------------------
Total Dipole Moment    :      0.04988       0.79193       1.53098
                        -----------------------------------------
Magnitude (a.u.)       :      1.72440
Magnitude (Debye)      :      4.38308

                             ****ORCA TERMINATED NORMALLY****
TOTAL RUN TIME: 0 days 0 hours 13 minutes 46 seconds 72 msec
