                         Program Version 3.0.3 - RELEASE   -
|  1> ! RI-MP2 RIJK def2-TZVP def2-TZVP/C def2-TZVP/JK TIGHTSCF
|  2> % maxcore 2000
|  3> % mp2 density relaxed end
|  4> *xyz 0 1
|  5>  O        0.0810025255     1.2819105726     0.4675441518
|  6>  C       -0.0070540812    -0.0284867623    -0.0600670999
|  7>  C       -1.4417205494    -0.4497462880    -0.0218087545
|  8>  C       -2.5965945705     0.3062992537    -0.1105673821
|  9>  C       -3.6942525352    -0.5796889090    -0.0628896243
| 10>  C       -3.1864010531    -1.8642030541     0.0521721318
| 11>  N       -1.8073780440    -1.7600354401     0.0779742580
| 12>  C       -3.8360895427    -3.1118054573     0.1409971486
| 13>  N       -4.3548681989    -4.1468854999     0.2138806784
| 14>  H        0.9417017026     1.6411012582     0.2327566020
| 15>  H        0.3663424395    -0.0610442833    -1.0973068306
| 16>  H        0.6031693455    -0.7439945745     0.5182959214
| 17>  H       -2.6261830042     1.3805956727    -0.1895244029
| 18>  H       -4.7424044688    -0.3288546250    -0.1023472296
| 19>  H       -1.1810817152    -2.5419575136     0.1743457018
| 20> *
| 21>
| 22>                          ****END OF INPUT****

CARTESIAN COORDINATES (ANGSTROEM)
---------------------------------
  O      0.081003    1.281911    0.467544
  C     -0.007054   -0.028487   -0.060067
  C     -1.441721   -0.449746   -0.021809
  C     -2.596595    0.306299   -0.110567
  C     -3.694253   -0.579689   -0.062890
  C     -3.186401   -1.864203    0.052172
  N     -1.807378   -1.760035    0.077974
  C     -3.836090   -3.111805    0.140997
  N     -4.354868   -4.146885    0.213881
  H      0.941702    1.641101    0.232757
  H      0.366342   -0.061044   -1.097307
  H      0.603169   -0.743995    0.518296
  H     -2.626183    1.380596   -0.189524
  H     -4.742404   -0.328855   -0.102347
  H     -1.181082   -2.541958    0.174346

 Total Charge           Charge          ....    0
 Multiplicity           Mult            ....    1
 Number of Electrons    NEL             ....   64
 Basis Dimension        Dim             ....  315

ORBITAL ENERGIES
----------------

  NO   OCC          E(Eh)            E(eV)
   0   2.0000     -20.583280      -560.0995
   1   2.0000     -15.635918      -425.4750
   2   2.0000     -15.570722      -423.7009
   3   2.0000     -11.316424      -307.9356
   4   2.0000     -11.296130      -307.3833
   5   2.0000     -11.290837      -307.2393
   6   2.0000     -11.277094      -306.8653
   7   2.0000     -11.249907      -306.1255
   8   2.0000     -11.228899      -305.5539
   9   2.0000      -1.390053       -37.8253
  10   2.0000      -1.326943       -36.1080
  11   2.0000      -1.214424       -33.0462
  12   2.0000      -1.075480       -29.2653
  13   2.0000      -1.056746       -28.7555
  14   2.0000      -0.954472       -25.9725
  15   2.0000      -0.840286       -22.8653
  16   2.0000      -0.812334       -22.1047
  17   2.0000      -0.769124       -20.9289
  18   2.0000      -0.728544       -19.8247
  19   2.0000      -0.670055       -18.2331
  20   2.0000      -0.628998       -17.1159
  21   2.0000      -0.624181       -16.9848
  22   2.0000      -0.605185       -16.4679
  23   2.0000      -0.582489       -15.8503
  24   2.0000      -0.580497       -15.7961
  25   2.0000      -0.554507       -15.0889
  26   2.0000      -0.533009       -14.5039
  27   2.0000      -0.493865       -13.4387
  28   2.0000      -0.474952       -12.9241
  29   2.0000      -0.465530       -12.6677
  30   2.0000      -0.377020       -10.2592
  31   2.0000      -0.314473        -8.5572
  32   0.0000       0.101165         2.7528
  33   0.0000       0.112861         3.0711
  34   0.0000       0.126179         3.4335
  35   0.0000       0.165110         4.4929
  36   0.0000       0.174848         4.7579

MULLIKEN ATOMIC CHARGES
-----------------------
   0 O :   -0.452943
   1 C :   -0.138681
   2 C :    0.131800
   3 C :   -0.128205
   4 C :   -0.243022
   5 C :    0.309306
   6 N :   -0.312467
   7 C :   -0.221473
   8 N :   -0.048662
   9 H :    0.322290
  10 H :    0.127968
  11 H :    0.103128
  12 H :    0.148236
  13 H :    0.147543
  14 H :    0.255183
Sum of atomic charges:   -0.0000000

LOEWDIN ATOMIC CHARGES
----------------------
   0 O :   -0.028403
   1 C :   -0.317403
   2 C :   -0.221659
   3 C :   -0.141058
   4 C :   -0.131627
   5 C :   -0.227495
   6 N :    0.244635
   7 C :   -0.172491
   8 N :    0.068577
   9 H :    0.176690
  10 H :    0.127410
  11 H :    0.123023
  12 H :    0.149487
  13 H :    0.148261
  14 H :    0.202053

  Mayer bond orders larger than 0.1
B(  0-O ,  1-C ) :   1.1018 B(  0-O ,  2-C ) :  -0.1334 B(  0-O ,  9-H ) :   0.8429
B(  1-C ,  2-C ) :   0.8725 B(  1-C , 10-H ) :   0.9346 B(  1-C , 11-H ) :   0.9430
B(  2-C ,  3-C ) :   1.4156 B(  2-C ,  6-N ) :   1.1688 B(  3-C ,  4-C ) :   1.3017
B(  3-C , 12-H ) :   0.9389 B(  4-C ,  5-C ) :   1.3823 B(  4-C , 13-H ) :   0.9388
B(  5-C ,  6-N ) :   1.0853 B(  5-C ,  7-C ) :   0.8914 B(  6-N , 14-H ) :   0.8671
B(  7-C ,  8-N ) :   2.8617

MP2 TOTAL ENERGY:     -416.145235341 Eh
FINAL SINGLE POINT ENERGY      -416.145235341095

DIPOLE MOMENT
-------------
                                X             Y             Z
Electronic contribution:     -4.29650      -4.53897       0.51968
Nuclear contribution   :      6.19559       5.47005      -0.90601
                        -----------------------------------------
Total Dipole Moment    :      1.89909       0.93108      -0.38633
                        -----------------------------------------
Magnitude (a.u.)       :      2.15004
Magnitude (Debye)      :      5.46498

                             ****ORCA TERMINATED NORMALLY****
TOTAL RUN TIME: 0 days 0 hours 14 minutes 19 seconds 909 msec
