                         Program Version 3.0.3 - RELEASE   -
|  1> ! RI-MP2 RIJK def2-TZVP def2-TZVP/C def2-TZVP/JK TIGHTSCF
|  2> % maxcore 2000
|  3> % mp2 density relaxed end
|  4> *xyz 0 1
|  5>  C       -0.2010517514     1.6991329058    -0.2022635323
|  6>  C       -0.0270737650     0.2251669734     0.1829740999
|  7>  C       -1.3484365925    -0.5119513169     0.2673094050
|  8>  C       -1.9854428635    -1.1245896066    -0.9555328994
|  9>  C       -1.4652299419    -2.0184971982     0.1462557017
| 10>  C       -0.2861450552    -2.9521536201    -0.0154715082
| 11>  C        0.3577368234    -3.1026508627    -1.3765626923
| 12>  C        0.4879346657    -3.3062209175     1.1885555659
| 13>  O       -0.4818340154    -4.2106436579     0.6607511774
| 14>  H        0.7633369022     2.2144814706    -0.2504482097
| 15>  H       -0.6857523786     1.7952967957    -1.1793861262
| 16>  H       -0.8244003540     2.2262487259     0.5284086475
| 17>  H        0.6313208619    -0.2642030383    -0.5435692352
| 18>  H        0.4897518888     0.1597839906     1.1495625572
| 19>  H       -2.0412051507    -0.0666820505     0.9789307077
| 20>  H       -3.0581866514    -1.0469357818    -1.0947336226
| 21>  H       -1.4187988431    -1.0830832222    -1.8802755579
| 22>  H       -2.2182846596    -2.4716088881     0.7838950142
| 23>  H        0.7946595193    -2.1635473823    -1.7297903526
| 24>  H        1.1493144537    -3.8545283911    -1.3327286409
| 25>  H       -0.3833414938    -3.4251661137    -2.1149939768
| 26>  H        1.5265555961    -3.6240708236     1.0953683867
| 27>  H        0.2299866447    -2.8499907206     2.1438885608
| 28> *
| 29>
| 30>                          ****END OF INPUT****

CARTESIAN COORDINATES (ANGSTROEM)
---------------------------------
  C     -0.201052    1.699133   -0.202264
  C     -0.027074    0.225167    0.182974
  C     -1.348437   -0.511951    0.267309
  C     -1.985443   -1.124590   -0.955533
  C     -1.465230   -2.018497    0.146256
  C     -0.286145   -2.952154   -0.015472
  C      0.357737   -3.102651   -1.376563
  C      0.487935   -3.306221    1.188556
  O     -0.481834   -4.210644    0.660751
  H      0.763337    2.214481   -0.250448
  H     -0.685752    1.795297   -1.179386
  H     -0.824400    2.226249    0.528409
  H      0.631321   -0.264203   -0.543569
  H      0.489752    0.159784    1.149563
  H     -2.041205   -0.066682    0.978931
  H     -3.058187   -1.046936   -1.094734
  H     -1.418799   -1.083083   -1.880276
  H     -2.218285   -2.471609    0.783895
  H      0.794660   -2.163547   -1.729790
  H      1.149314   -3.854528   -1.332729
  H     -0.383341   -3.425166   -2.114994
  H      1.526556   -3.624071    1.095368
  H      0.229987   -2.849991    2.143889

 Total Charge           Charge          ....    0
 Multiplicity           Mult            ....    1
 Number of Electrons    NEL             ....   70
 Basis Dimension        Dim             ....  363

ORBITAL ENERGIES
----------------

  NO   OCC          E(Eh)            E(eV)
   0   2.0000     -20.557551      -559.3994
   1   2.0000     -11.291371      -307.2538
   2   2.0000     -11.274156      -306.7854
   3   2.0000     -11.232387      -305.6488
   4   2.0000     -11.231686      -305.6297
   5   2.0000     -11.227012      -305.5025
   6   2.0000     -11.225422      -305.4593
   7   2.0000     -11.222155      -305.3704
   8   2.0000     -11.215801      -305.1975
   9   2.0000      -1.402591       -38.1664
  10   2.0000      -1.152632       -31.3647
  11   2.0000      -1.030702       -28.0468
  12   2.0000      -1.003252       -27.2999
  13   2.0000      -0.906831       -24.6761
  14   2.0000      -0.878139       -23.8954
  15   2.0000      -0.861883       -23.4530
  16   2.0000      -0.784975       -21.3602
  17   2.0000      -0.741911       -20.1884
  18   2.0000      -0.676019       -18.3954
  19   2.0000      -0.671543       -18.2736
  20   2.0000      -0.639283       -17.3958
  21   2.0000      -0.602155       -16.3855
  22   2.0000      -0.584897       -15.9158
  23   2.0000      -0.580650       -15.8003
  24   2.0000      -0.559261       -15.2183
  25   2.0000      -0.549133       -14.9427
  26   2.0000      -0.526719       -14.3328
  27   2.0000      -0.519809       -14.1447
  28   2.0000      -0.500972       -13.6321
  29   2.0000      -0.493176       -13.4200
  30   2.0000      -0.473111       -12.8740
  31   2.0000      -0.458342       -12.4721
  32   2.0000      -0.440038       -11.9740
  33   2.0000      -0.406925       -11.0730
  34   2.0000      -0.382784       -10.4161
  35   0.0000       0.134627         3.6634
  36   0.0000       0.150812         4.1038
  37   0.0000       0.156564         4.2603
  38   0.0000       0.164796         4.4843
  39   0.0000       0.188367         5.1257

MULLIKEN ATOMIC CHARGES
-----------------------
   0 C :   -0.389232
   1 C :   -0.188679
   2 C :   -0.117195
   3 C :   -0.276424
   4 C :   -0.138356
   5 C :    0.233037
   6 C :   -0.435346
   7 C :   -0.093330
   8 O :   -0.341189
   9 H :    0.133318
  10 H :    0.128304
  11 H :    0.123178
  12 H :    0.092382
  13 H :    0.111145
  14 H :    0.113058
  15 H :    0.134256
  16 H :    0.130687
  17 H :    0.137336
  18 H :    0.130585
  19 H :    0.142176
  20 H :    0.147607
  21 H :    0.110192
  22 H :    0.112490
Sum of atomic charges:   -0.0000000

LOEWDIN ATOMIC CHARGES
----------------------
   0 C :   -0.313646
   1 C :   -0.274373
   2 C :   -0.206859
   3 C :   -0.201861
   4 C :   -0.168269
   5 C :   -0.324088
   6 C :   -0.267976
   7 C :   -0.250483
   8 O :    0.159540
   9 H :    0.119932
  10 H :    0.121961
  11 H :    0.121098
  12 H :    0.138195
  13 H :    0.138505
  14 H :    0.149583
  15 H :    0.131366
  16 H :    0.136745
  17 H :    0.161026
  18 H :    0.123647
  19 H :    0.133119
  20 H :    0.132796
  21 H :    0.118544
  22 H :    0.121497

  Mayer bond orders larger than 0.1
B(  0-C ,  1-C ) :   0.9207 B(  0-C ,  9-H ) :   0.9416 B(  0-C , 10-H ) :   0.9394
B(  0-C , 11-H ) :   0.9390 B(  1-C ,  2-C ) :   0.9265 B(  1-C , 12-H ) :   0.9275
B(  1-C , 13-H ) :   0.9348 B(  2-C ,  3-C ) :   0.9050 B(  2-C ,  4-C ) :   0.8624
B(  2-C , 14-H ) :   0.9255 B(  3-C ,  4-C ) :   0.8778 B(  3-C , 15-H ) :   0.9281
B(  3-C , 16-H ) :   0.9205 B(  4-C ,  5-C ) :   0.8719 B(  4-C , 17-H ) :   0.9347
B(  5-C ,  6-C ) :   0.8929 B(  5-C ,  7-C ) :   0.9827 B(  5-C ,  8-O ) :   0.8590
B(  6-C , 18-H ) :   0.9335 B(  6-C , 19-H ) :   0.9338 B(  6-C , 20-H ) :   0.9395
B(  7-C ,  8-O ) :   0.8962 B(  7-C , 21-H ) :   0.9123 B(  7-C , 22-H ) :   0.9037

MP2 TOTAL ENERGY:     -387.580983280 Eh
FINAL SINGLE POINT ENERGY      -387.580983280006

DIPOLE MOMENT
-------------
                                X             Y             Z
Electronic contribution:     -1.87802      -8.06667       2.90768
Nuclear contribution   :      2.18408       8.79572      -3.00558
                        -----------------------------------------
Total Dipole Moment    :      0.30606       0.72905      -0.09789
                        -----------------------------------------
Magnitude (a.u.)       :      0.79673
Magnitude (Debye)      :      2.02512

                             ****ORCA TERMINATED NORMALLY****
TOTAL RUN TIME: 0 days 0 hours 31 minutes 24 seconds 755 msec
