                         Program Version 3.0.3 - RELEASE   -
|  1> ! RI-MP2 RIJK def2-TZVP def2-TZVP/C def2-TZVP/JK TIGHTSCF
|  2> % maxcore 2000
|  3> % mp2 density relaxed end
|  4> *xyz 0 1
|  5>  O        0.1698503350     1.4295412004    -0.1590999170
|  6>  C        0.0131520535     0.0507656111    -0.0094308054
|  7>  C        0.2307415926    -0.6497347853     1.3919311690
|  8>  C       -0.3858442865     0.2532519386     2.4182620772
|  9>  C       -1.6881269191     0.5066705093     2.2322618691
| 10>  C       -2.3108263168    -0.3679668708     1.1742358834
| 11>  O       -2.0698826592    -1.7486153602     1.6395560662
| 12>  C       -0.8636396305    -1.7278481425     0.8925372065
| 13>  C       -1.3590160799    -0.6261226537    -0.0678025830
| 14>  H       -0.3381587390     1.8475404048     0.5477597710
| 15>  H        0.6684108986    -0.4174038370    -0.7507535379
| 16>  H        1.2334722239    -0.9990732883     1.6344392238
| 17>  H        0.2075923670     0.6897847429     3.2143030406
| 18>  H       -2.2888876509     1.1540645921     2.8604430263
| 19>  H       -3.3676599262    -0.1907272949     0.9748948753
| 20>  H       -0.4879523712    -2.7174597104     0.6316404833
| 21>  H       -1.8707431212    -0.8096546261    -1.0124478983
| 22> *
| 23>
| 24>                          ****END OF INPUT****

CARTESIAN COORDINATES (ANGSTROEM)
---------------------------------
  O      0.169850    1.429541   -0.159100
  C      0.013152    0.050766   -0.009431
  C      0.230742   -0.649735    1.391931
  C     -0.385844    0.253252    2.418262
  C     -1.688127    0.506671    2.232262
  C     -2.310826   -0.367967    1.174236
  O     -2.069883   -1.748615    1.639556
  C     -0.863640   -1.727848    0.892537
  C     -1.359016   -0.626123   -0.067803
  H     -0.338159    1.847540    0.547760
  H      0.668411   -0.417404   -0.750754
  H      1.233472   -0.999073    1.634439
  H      0.207592    0.689785    3.214303
  H     -2.288888    1.154065    2.860443
  H     -3.367660   -0.190727    0.974895
  H     -0.487952   -2.717460    0.631640
  H     -1.870743   -0.809655   -1.012448

 Total Charge           Charge          ....    0
 Multiplicity           Mult            ....    1
 Number of Electrons    NEL             ....   66
 Basis Dimension        Dim             ....  327

ORBITAL ENERGIES
----------------

  NO   OCC          E(Eh)            E(eV)
   0   2.0000     -20.557392      -559.3951
   1   2.0000     -20.554954      -559.3287
   2   2.0000     -11.301208      -307.5215
   3   2.0000     -11.295477      -307.3655
   4   2.0000     -11.290880      -307.2405
   5   2.0000     -11.245514      -306.0060
   6   2.0000     -11.244505      -305.9785
   7   2.0000     -11.240123      -305.8593
   8   2.0000     -11.237092      -305.7768
   9   2.0000      -1.395518       -37.9740
  10   2.0000      -1.368641       -37.2426
  11   2.0000      -1.142256       -31.0824
  12   2.0000      -1.053500       -28.6672
  13   2.0000      -0.981503       -26.7080
  14   2.0000      -0.873634       -23.7728
  15   2.0000      -0.839568       -22.8458
  16   2.0000      -0.805262       -21.9123
  17   2.0000      -0.737989       -20.0817
  18   2.0000      -0.708176       -19.2705
  19   2.0000      -0.656188       -17.8558
  20   2.0000      -0.652463       -17.7544
  21   2.0000      -0.635397       -17.2900
  22   2.0000      -0.605792       -16.4844
  23   2.0000      -0.578485       -15.7414
  24   2.0000      -0.565699       -15.3935
  25   2.0000      -0.552234       -15.0271
  26   2.0000      -0.534556       -14.5460
  27   2.0000      -0.526059       -14.3148
  28   2.0000      -0.449466       -12.2306
  29   2.0000      -0.442513       -12.0414
  30   2.0000      -0.423544       -11.5252
  31   2.0000      -0.398140       -10.8339
  32   2.0000      -0.361666        -9.8414
  33   0.0000       0.118888         3.2351
  34   0.0000       0.137819         3.7503
  35   0.0000       0.156114         4.2481
  36   0.0000       0.166372         4.5272
  37   0.0000       0.179766         4.8917

MULLIKEN ATOMIC CHARGES
-----------------------
   0 O :   -0.455089
   1 C :   -0.008491
   2 C :    0.108612
   3 C :   -0.287992
   4 C :   -0.264302
   5 C :    0.149490
   6 O :   -0.301363
   7 C :   -0.069551
   8 C :   -0.094178
   9 H :    0.327775
  10 H :    0.107613
  11 H :    0.135773
  12 H :    0.132543
  13 H :    0.133449
  14 H :    0.132144
  15 H :    0.125501
  16 H :    0.128066
Sum of atomic charges:   -0.0000000

LOEWDIN ATOMIC CHARGES
----------------------
   0 O :   -0.001328
   1 C :   -0.302080
   2 C :   -0.164735
   3 C :   -0.131821
   4 C :   -0.153962
   5 C :   -0.199659
   6 O :    0.171595
   7 C :   -0.221400
   8 C :   -0.153445
   9 H :    0.176904
  10 H :    0.151791
  11 H :    0.140445
  12 H :    0.142032
  13 H :    0.140431
  14 H :    0.137605
  15 H :    0.130523
  16 H :    0.137104

  Mayer bond orders larger than 0.1
B(  0-O ,  1-C ) :   0.9985 B(  0-O ,  9-H ) :   0.8235 B(  1-C ,  2-C ) :   0.8420
B(  1-C ,  8-C ) :   0.9346 B(  1-C , 10-H ) :   0.9387 B(  2-C ,  3-C ) :   0.8659
B(  2-C ,  7-C ) :   0.7935 B(  2-C , 11-H ) :   0.9106 B(  3-C ,  4-C ) :   1.7305
B(  3-C , 12-H ) :   0.9316 B(  4-C ,  5-C ) :   0.9256 B(  4-C , 13-H ) :   0.9355
B(  5-C ,  6-O ) :   0.8962 B(  5-C ,  8-C ) :   0.9246 B(  5-C , 14-H ) :   0.9156
B(  6-O ,  7-C ) :   1.0047 B(  7-C ,  8-C ) :   0.9084 B(  7-C , 15-H ) :   0.9182
B(  8-C , 16-H ) :   0.9289

MP2 TOTAL ENERGY:     -421.077305396 Eh
FINAL SINGLE POINT ENERGY      -421.077305395645

DIPOLE MOMENT
-------------
                                X             Y             Z
Electronic contribution:     -1.00473      -0.80737       0.25094
Nuclear contribution   :      0.98047       0.90677      -0.16758
                        -----------------------------------------
Total Dipole Moment    :     -0.02426       0.09940       0.08336
                        -----------------------------------------
Magnitude (a.u.)       :      0.13198
Magnitude (Debye)      :      0.33546

                             ****ORCA TERMINATED NORMALLY****
TOTAL RUN TIME: 0 days 0 hours 19 minutes 28 seconds 297 msec
