                         Program Version 3.0.3 - RELEASE   -
|  1> ! RI-MP2 RIJK def2-TZVP def2-TZVP/C def2-TZVP/JK TIGHTSCF
|  2> % maxcore 2000
|  3> % mp2 density relaxed end
|  4> *xyz 0 1
|  5>  C       -0.0162933496     1.4856839335    -0.1264018769
|  6>  O        1.3801546101     1.5683927766     0.2067333170
|  7>  C        1.4357728212     0.1695410995     0.5351986825
|  8>  C       -0.0078225657    -0.0626800079     0.0079104908
|  9>  C       -0.9943342053    -0.6985506560     0.9089002962
| 10>  N       -1.7849185535    -1.7031012194     0.6599429762
| 11>  C       -2.4531992389    -1.8377473724     1.8516994387
| 12>  N       -2.1150999290    -0.9892832811     2.7823291066
| 13>  O       -1.1297664522    -0.2165311455     2.1540472629
| 14>  H       -0.6491601703     1.9962417351     0.6092648476
| 15>  H       -0.2296771509     1.8735552922    -1.1277477935
| 16>  H        2.2288410632    -0.3549772607    -0.0075599582
| 17>  H        1.5523297318     0.0007015792     1.6123791002
| 18>  H       -0.0434706780    -0.5827294327    -0.9479664952
| 19>  H       -3.2103020229    -2.5880246604     2.0278215151
| 20> *
| 21>
| 22>                          ****END OF INPUT****

CARTESIAN COORDINATES (ANGSTROEM)
---------------------------------
  C     -0.016293    1.485684   -0.126402
  O      1.380155    1.568393    0.206733
  C      1.435773    0.169541    0.535199
  C     -0.007823   -0.062680    0.007910
  C     -0.994334   -0.698551    0.908900
  N     -1.784919   -1.703101    0.659943
  C     -2.453199   -1.837747    1.851699
  N     -2.115100   -0.989283    2.782329
  O     -1.129766   -0.216531    2.154047
  H     -0.649160    1.996242    0.609265
  H     -0.229677    1.873555   -1.127748
  H      2.228841   -0.354977   -0.007560
  H      1.552330    0.000702    1.612379
  H     -0.043471   -0.582729   -0.947966
  H     -3.210302   -2.588025    2.027822

 Total Charge           Charge          ....    0
 Multiplicity           Mult            ....    1
 Number of Electrons    NEL             ....   66
 Basis Dimension        Dim             ....  315

ORBITAL ENERGIES
----------------

  NO   OCC          E(Eh)            E(eV)
   0   2.0000     -20.666085      -562.3528
   1   2.0000     -20.567572      -559.6721
   2   2.0000     -15.637709      -425.5237
   3   2.0000     -15.584098      -424.0649
   4   2.0000     -11.371151      -309.4248
   5   2.0000     -11.320184      -308.0379
   6   2.0000     -11.304908      -307.6222
   7   2.0000     -11.304871      -307.6212
   8   2.0000     -11.274988      -306.8080
   9   2.0000      -1.529697       -41.6252
  10   2.0000      -1.400799       -38.1177
  11   2.0000      -1.262589       -34.3568
  12   2.0000      -1.180058       -32.1110
  13   2.0000      -1.054875       -28.7046
  14   2.0000      -0.956915       -26.0390
  15   2.0000      -0.876127       -23.8406
  16   2.0000      -0.864821       -23.5330
  17   2.0000      -0.797966       -21.7137
  18   2.0000      -0.737479       -20.0678
  19   2.0000      -0.706362       -19.2211
  20   2.0000      -0.695225       -18.9180
  21   2.0000      -0.658257       -17.9121
  22   2.0000      -0.619481       -16.8569
  23   2.0000      -0.606806       -16.5120
  24   2.0000      -0.587710       -15.9924
  25   2.0000      -0.585550       -15.9336
  26   2.0000      -0.526086       -14.3155
  27   2.0000      -0.507118       -13.7994
  28   2.0000      -0.496385       -13.5073
  29   2.0000      -0.478111       -13.0101
  30   2.0000      -0.477326       -12.9887
  31   2.0000      -0.435455       -11.8493
  32   2.0000      -0.404329       -11.0024
  33   0.0000       0.103132         2.8064
  34   0.0000       0.138422         3.7666
  35   0.0000       0.157825         4.2946
  36   0.0000       0.166622         4.5340
  37   0.0000       0.172031         4.6812

MULLIKEN ATOMIC CHARGES
-----------------------
   0 C :   -0.032789
   1 O :   -0.321765
   2 C :   -0.032850
   3 C :   -0.037299
   4 C :    0.131873
   5 N :   -0.281261
   6 C :    0.036816
   7 N :   -0.129935
   8 O :   -0.098345
   9 H :    0.117213
  10 H :    0.112909
  11 H :    0.112931
  12 H :    0.117115
  13 H :    0.146523
  14 H :    0.158864
Sum of atomic charges:    0.0000000

LOEWDIN ATOMIC CHARGES
----------------------
   0 C :   -0.237801
   1 O :    0.119175
   2 C :   -0.237760
   3 C :   -0.197112
   4 C :   -0.354644
   5 N :    0.114131
   6 C :   -0.332609
   7 N :    0.034367
   8 O :    0.294206
   9 H :    0.124152
  10 H :    0.121009
  11 H :    0.121011
  12 H :    0.124135
  13 H :    0.167888
  14 H :    0.139850

  Mayer bond orders larger than 0.1
B(  0-C ,  1-O ) :   0.9521 B(  0-C ,  3-C ) :   0.9199 B(  0-C ,  9-H ) :   0.9071
B(  0-C , 10-H ) :   0.9145 B(  1-O ,  2-C ) :   0.9521 B(  2-C ,  3-C ) :   0.9197
B(  2-C , 11-H ) :   0.9145 B(  2-C , 12-H ) :   0.9071 B(  3-C ,  4-C ) :   0.9249
B(  3-C , 13-H ) :   0.9207 B(  4-C ,  5-N ) :   1.6341 B(  4-C ,  8-O ) :   1.1780
B(  5-N ,  6-C ) :   1.1961 B(  6-C ,  7-N ) :   1.5941 B(  6-C , 14-H ) :   0.9267
B(  7-N ,  8-O ) :   0.8875

MP2 TOTAL ENERGY:     -453.176070622 Eh
FINAL SINGLE POINT ENERGY      -453.176070621842

DIPOLE MOMENT
-------------
                                X             Y             Z
Electronic contribution:     -3.13301      -1.90967       3.06705
Nuclear contribution   :      3.04351       1.54566      -3.59328
                        -----------------------------------------
Total Dipole Moment    :     -0.08951      -0.36401      -0.52622
                        -----------------------------------------
Magnitude (a.u.)       :      0.64608
Magnitude (Debye)      :      1.64221

                             ****ORCA TERMINATED NORMALLY****
TOTAL RUN TIME: 0 days 0 hours 14 minutes 46 seconds 828 msec
