                         Program Version 3.0.3 - RELEASE   -
|  1> ! RI-MP2 RIJK def2-TZVP def2-TZVP/C def2-TZVP/JK TIGHTSCF
|  2> % maxcore 2000
|  3> % mp2 density relaxed end
|  4> *xyz 0 1
|  5>  C       -0.0153943218     1.3878974411    -0.1044922072
|  6>  N       -0.0207986989    -0.0557153200    -0.0839327293
|  7>  C       -1.2534693249    -0.8359139119    -0.0289450977
|  8>  C       -0.7823256531    -2.2866343091    -0.0224736754
|  9>  C        0.0510400972    -2.7193993059    -1.2114925829
| 10>  C        0.7210349092    -2.2545448988     0.0590741166
| 11>  O        1.5092531523    -3.0938445789     0.8225942387
| 12>  C        1.1070683899    -0.8016400033     0.0968590791
| 13>  O        2.2405370695    -0.3994710985     0.2943705824
| 14>  H        1.0241665854     1.7172193616    -0.0579721580
| 15>  H       -0.4788287872     1.7740695423    -1.0199961087
| 16>  H       -0.5584472973     1.7988043165     0.7564594339
| 17>  H       -1.8203179478    -0.5906898330     0.8807205836
| 18>  H       -1.8950385460    -0.6089625730    -0.8910670129
| 19>  H       -1.3689398998    -3.0257923159     0.5073888150
| 20>  H        0.1068704698    -3.7885669797    -1.3852231993
| 21>  H        0.0781876147    -2.1012406324    -2.1045120900
| 22>  H        2.3493771788    -2.6209147610     0.9226843220
| 23> *
| 24>
| 25>                          ****END OF INPUT****

CARTESIAN COORDINATES (ANGSTROEM)
---------------------------------
  C     -0.015394    1.387897   -0.104492
  N     -0.020799   -0.055715   -0.083933
  C     -1.253469   -0.835914   -0.028945
  C     -0.782326   -2.286634   -0.022474
  C      0.051040   -2.719399   -1.211493
  C      0.721035   -2.254545    0.059074
  O      1.509253   -3.093845    0.822594
  C      1.107068   -0.801640    0.096859
  O      2.240537   -0.399471    0.294371
  H      1.024167    1.717219   -0.057972
  H     -0.478829    1.774070   -1.019996
  H     -0.558447    1.798804    0.756459
  H     -1.820318   -0.590690    0.880721
  H     -1.895039   -0.608963   -0.891067
  H     -1.368940   -3.025792    0.507389
  H      0.106870   -3.788567   -1.385223
  H      0.078188   -2.101241   -2.104512
  H      2.349377   -2.620915    0.922684

 Total Charge           Charge          ....    0
 Multiplicity           Mult            ....    1
 Number of Electrons    NEL             ....   68
 Basis Dimension        Dim             ....  333

ORBITAL ENERGIES
----------------

  NO   OCC          E(Eh)            E(eV)
   0   2.0000     -20.568651      -559.7014
   1   2.0000     -20.526626      -558.5579
   2   2.0000     -15.593252      -424.3140
   3   2.0000     -11.351492      -308.8898
   4   2.0000     -11.302938      -307.5686
   5   2.0000     -11.284743      -307.0735
   6   2.0000     -11.266049      -306.5648
   7   2.0000     -11.252870      -306.2062
   8   2.0000     -11.242772      -305.9314
   9   2.0000      -1.404594       -38.2209
  10   2.0000      -1.369739       -37.2725
  11   2.0000      -1.275430       -34.7062
  12   2.0000      -1.151150       -31.3244
  13   2.0000      -0.989735       -26.9321
  14   2.0000      -0.969167       -26.3724
  15   2.0000      -0.854301       -23.2467
  16   2.0000      -0.813642       -22.1403
  17   2.0000      -0.768341       -20.9076
  18   2.0000      -0.714739       -19.4490
  19   2.0000      -0.679514       -18.4905
  20   2.0000      -0.668218       -18.1831
  21   2.0000      -0.641690       -17.4613
  22   2.0000      -0.623027       -16.9534
  23   2.0000      -0.606926       -16.5153
  24   2.0000      -0.582741       -15.8572
  25   2.0000      -0.577450       -15.7132
  26   2.0000      -0.563046       -15.3213
  27   2.0000      -0.547701       -14.9037
  28   2.0000      -0.524842       -14.2817
  29   2.0000      -0.515141       -14.0177
  30   2.0000      -0.463413       -12.6101
  31   2.0000      -0.416292       -11.3279
  32   2.0000      -0.397103       -10.8057
  33   2.0000      -0.380535       -10.3549
  34   0.0000       0.128952         3.5090
  35   0.0000       0.155726         4.2375
  36   0.0000       0.157748         4.2925
  37   0.0000       0.175076         4.7640
  38   0.0000       0.181927         4.9505

MULLIKEN ATOMIC CHARGES
-----------------------
   0 C :   -0.333682
   1 N :   -0.102919
   2 C :   -0.157124
   3 C :   -0.141910
   4 C :   -0.300103
   5 C :    0.229638
   6 O :   -0.461286
   7 C :    0.177180
   8 O :   -0.388166
   9 H :    0.178732
  10 H :    0.138440
  11 H :    0.136128
  12 H :    0.125245
  13 H :    0.129751
  14 H :    0.150123
  15 H :    0.143248
  16 H :    0.132349
  17 H :    0.344358
Sum of atomic charges:   -0.0000000

LOEWDIN ATOMIC CHARGES
----------------------
   0 C :   -0.288002
   1 N :    0.185268
   2 C :   -0.217006
   3 C :   -0.170260
   4 C :   -0.174781
   5 C :   -0.317218
   6 O :    0.038169
   7 C :   -0.406043
   8 O :    0.072937
   9 H :    0.137390
  10 H :    0.118748
  11 H :    0.119047
  12 H :    0.135328
  13 H :    0.135112
  14 H :    0.151769
  15 H :    0.144913
  16 H :    0.136361
  17 H :    0.198269

  Mayer bond orders larger than 0.1
B(  0-C ,  1-N ) :   0.8767 B(  0-C ,  9-H ) :   0.9239 B(  0-C , 10-H ) :   0.9301
B(  0-C , 11-H ) :   0.9330 B(  1-N ,  2-C ) :   0.9208 B(  1-N ,  7-C ) :   1.1767
B(  2-C ,  3-C ) :   0.9238 B(  2-C , 12-H ) :   0.9184 B(  2-C , 13-H ) :   0.9186
B(  3-C ,  4-C ) :   0.8705 B(  3-C ,  5-C ) :   0.8570 B(  3-C , 14-H ) :   0.9047
B(  4-C ,  5-C ) :   0.8591 B(  4-C , 15-H ) :   0.9220 B(  4-C , 16-H ) :   0.9003
B(  5-C ,  6-O ) :   1.0824 B(  5-C ,  7-C ) :   0.9270 B(  6-O , 17-H ) :   0.8064
B(  7-C ,  8-O ) :   1.8836

MP2 TOTAL ENERGY:     -438.393805945 Eh
FINAL SINGLE POINT ENERGY      -438.393805944642

DIPOLE MOMENT
-------------
                                X             Y             Z
Electronic contribution:      4.68748      -2.82251       1.85596
Nuclear contribution   :     -6.02036       3.25737      -2.20981
                        -----------------------------------------
Total Dipole Moment    :     -1.33288       0.43486      -0.35385
                        -----------------------------------------
Magnitude (a.u.)       :      1.44599
Magnitude (Debye)      :      3.67541

                             ****ORCA TERMINATED NORMALLY****
TOTAL RUN TIME: 0 days 0 hours 18 minutes 28 seconds 146 msec
