                         Program Version 3.0.3 - RELEASE   -
|  1> ! RI-MP2 RIJK def2-TZVP def2-TZVP/C def2-TZVP/JK TIGHTSCF
|  2> % maxcore 2000
|  3> % mp2 density relaxed end
|  4> *xyz 0 1
|  5>  C        0.0141038427     1.4709219335    -0.0515173595
|  6>  C        1.2758297707     2.3726354105    -0.0107954885
|  7>  C        2.0417017993     2.4852204408     1.2861345472
|  8>  C        2.9313651090     1.5756474304     1.7258743608
|  9>  C        3.0651017145     0.3621687998     1.0102942775
| 10>  C        2.8619639079    -0.5711737630     0.2690760761
| 11>  C        2.0361425067    -1.4294507124    -0.5698559249
| 12>  C        0.8202505032    -0.5815716602    -1.0389663416
| 13>  O        0.2167788997     0.0732206641     0.0589786876
| 14>  H       -0.6500998677     1.7261901533     0.7802782778
| 15>  H       -0.5234178707     1.7015672051    -0.9856827494
| 16>  H        1.9609596902     2.0360724488    -0.7987368039
| 17>  H        0.9326014642     3.3724005614    -0.3042408078
| 18>  H        1.8889747932     3.3860187851     1.8758041449
| 19>  H        3.4896040577     1.7420484716     2.6420048123
| 20>  H        2.5576676378    -1.8255491925    -1.4493916850
| 21>  H        1.6829524779    -2.2943572657     0.0050128159
| 22>  H        1.1603415577     0.1382560991    -1.7939007656
| 23>  H        0.0830287659    -1.2440765996    -1.5148965838
| 24> *
| 25>
| 26>                          ****END OF INPUT****

CARTESIAN COORDINATES (ANGSTROEM)
---------------------------------
  C      0.014104    1.470922   -0.051517
  C      1.275830    2.372635   -0.010795
  C      2.041702    2.485220    1.286135
  C      2.931365    1.575647    1.725874
  C      3.065102    0.362169    1.010294
  C      2.861964   -0.571174    0.269076
  C      2.036143   -1.429451   -0.569856
  C      0.820251   -0.581572   -1.038966
  O      0.216779    0.073221    0.058979
  H     -0.650100    1.726190    0.780278
  H     -0.523418    1.701567   -0.985683
  H      1.960960    2.036072   -0.798737
  H      0.932601    3.372401   -0.304241
  H      1.888975    3.386019    1.875804
  H      3.489604    1.742048    2.642005
  H      2.557668   -1.825549   -1.449392
  H      1.682952   -2.294357    0.005013
  H      1.160342    0.138256   -1.793901
  H      0.083029   -1.244077   -1.514897

 Total Charge           Charge          ....    0
 Multiplicity           Mult            ....    1
 Number of Electrons    NEL             ....   66
 Basis Dimension        Dim             ....  339

ORBITAL ENERGIES
----------------

  NO   OCC          E(Eh)            E(eV)
   0   2.0000     -20.551887      -559.2453
   1   2.0000     -11.284996      -307.0803
   2   2.0000     -11.282528      -307.0132
   3   2.0000     -11.250778      -306.1492
   4   2.0000     -11.246412      -306.0304
   5   2.0000     -11.243718      -305.9571
   6   2.0000     -11.233941      -305.6911
   7   2.0000     -11.218200      -305.2627
   8   2.0000     -11.214395      -305.1592
   9   2.0000      -1.372860       -37.3574
  10   2.0000      -1.105276       -30.0761
  11   2.0000      -1.076210       -29.2852
  12   2.0000      -0.998507       -27.1707
  13   2.0000      -0.974431       -26.5156
  14   2.0000      -0.874926       -23.8080
  15   2.0000      -0.846699       -23.0399
  16   2.0000      -0.772156       -21.0114
  17   2.0000      -0.687856       -18.7175
  18   2.0000      -0.682265       -18.5654
  19   2.0000      -0.649306       -17.6685
  20   2.0000      -0.640697       -17.4342
  21   2.0000      -0.615112       -16.7380
  22   2.0000      -0.601980       -16.3807
  23   2.0000      -0.577713       -15.7204
  24   2.0000      -0.558721       -15.2036
  25   2.0000      -0.524804       -14.2806
  26   2.0000      -0.519742       -14.1429
  27   2.0000      -0.498152       -13.5554
  28   2.0000      -0.469901       -12.7866
  29   2.0000      -0.438111       -11.9216
  30   2.0000      -0.418584       -11.3903
  31   2.0000      -0.366225        -9.9655
  32   2.0000      -0.315907        -8.5963
  33   0.0000       0.108156         2.9431
  34   0.0000       0.142003         3.8641
  35   0.0000       0.148522         4.0415
  36   0.0000       0.162537         4.4228
  37   0.0000       0.177282         4.8241

MULLIKEN ATOMIC CHARGES
-----------------------
   0 C :   -0.063013
   1 C :   -0.222348
   2 C :   -0.118015
   3 C :   -0.208320
   4 C :   -0.103513
   5 C :   -0.033908
   6 C :   -0.133738
   7 C :   -0.066848
   8 O :   -0.306115
   9 H :    0.122416
  10 H :    0.109719
  11 H :    0.135997
  12 H :    0.126814
  13 H :    0.127944
  14 H :    0.138075
  15 H :    0.135781
  16 H :    0.136949
  17 H :    0.105737
  18 H :    0.116385
Sum of atomic charges:    0.0000000

LOEWDIN ATOMIC CHARGES
----------------------
   0 C :   -0.316668
   1 C :   -0.258588
   2 C :   -0.144901
   3 C :   -0.162714
   4 C :   -0.062735
   5 C :   -0.069313
   6 C :   -0.251338
   7 C :   -0.301352
   8 O :    0.166332
   9 H :    0.132105
  10 H :    0.121318
  11 H :    0.149964
  12 H :    0.147164
  13 H :    0.142309
  14 H :    0.152309
  15 H :    0.150645
  16 H :    0.156091
  17 H :    0.125371
  18 H :    0.124001

  Mayer bond orders larger than 0.1
B(  0-C ,  1-C ) :   0.8867 B(  0-C ,  8-O ) :   0.9442 B(  0-C ,  9-H ) :   0.9327
B(  0-C , 10-H ) :   0.9464 B(  1-C ,  2-C ) :   0.9277 B(  1-C , 11-H ) :   0.9271
B(  1-C , 12-H ) :   0.9244 B(  2-C ,  3-C ) :   1.7297 B(  2-C , 13-H ) :   0.9217
B(  3-C ,  4-C ) :   1.1071 B(  3-C , 14-H ) :   0.9244 B(  4-C ,  5-C ) :   2.4844
B(  5-C ,  6-C ) :   0.9123 B(  6-C ,  7-C ) :   0.9196 B(  6-C , 15-H ) :   0.9299
B(  6-C , 16-H ) :   0.9106 B(  7-C ,  8-O ) :   0.9207 B(  7-C , 17-H ) :   0.9333
B(  7-C , 18-H ) :   0.9220

MP2 TOTAL ENERGY:     -385.159155754 Eh
FINAL SINGLE POINT ENERGY      -385.159155754041

DIPOLE MOMENT
-------------
                                X             Y             Z
Electronic contribution:      2.99864      -1.84084       3.27589
Nuclear contribution   :     -3.33482       2.18035      -3.82100
                        -----------------------------------------
Total Dipole Moment    :     -0.33618       0.33952      -0.54511
                        -----------------------------------------
Magnitude (a.u.)       :      0.72487
Magnitude (Debye)      :      1.84246

                             ****ORCA TERMINATED NORMALLY****
TOTAL RUN TIME: 0 days 0 hours 20 minutes 19 seconds 638 msec
