                         Program Version 3.0.3 - RELEASE   -
|  1> ! RI-MP2 RIJK def2-TZVP def2-TZVP/C def2-TZVP/JK TIGHTSCF
|  2> % maxcore 2000
|  3> % mp2 density relaxed end
|  4> *xyz 0 1
|  5>  C       -0.1678479428     1.5842057995    -0.0134220622
|  6>  C        0.0078781266     0.0625151973     0.0082175372
|  7>  C       -1.2941603339    -0.5717371648    -0.2096385661
|  8>  N       -2.3354213000    -1.0449746032    -0.3836975865
|  9>  C        1.2053370862    -0.6648824756    -0.7234273222
| 10>  C        2.1682838951    -0.1262679425     0.3637190777
| 11>  C        0.9080066354    -0.6735784781     1.0788472646
| 12>  N        1.0385353015    -1.8789687424     0.1688800799
| 13>  H        0.7731261236     2.1115730744     0.1441704846
| 14>  H       -0.5812594994     1.9040351828    -0.9745659890
| 15>  H       -0.8682815136     1.8956587273     0.7672120081
| 16>  H        1.3603046581    -0.7507040213    -1.7996185021
| 17>  H        3.0590481716    -0.7354890263     0.5077322370
| 18>  H        2.3773542306     0.9400123805     0.4033593184
| 19>  H        0.7092209193    -0.7697451810     2.1469316450
| 20>  H        0.1199011118    -2.3059686766     0.0152676455
| 21> *
| 22>
| 23>                          ****END OF INPUT****

CARTESIAN COORDINATES (ANGSTROEM)
---------------------------------
  C     -0.167848    1.584206   -0.013422
  C      0.007878    0.062515    0.008218
  C     -1.294160   -0.571737   -0.209639
  N     -2.335421   -1.044975   -0.383698
  C      1.205337   -0.664882   -0.723427
  C      2.168284   -0.126268    0.363719
  C      0.908007   -0.673578    1.078847
  N      1.038535   -1.878969    0.168880
  H      0.773126    2.111573    0.144170
  H     -0.581259    1.904035   -0.974566
  H     -0.868282    1.895659    0.767212
  H      1.360305   -0.750704   -1.799619
  H      3.059048   -0.735489    0.507732
  H      2.377354    0.940012    0.403359
  H      0.709221   -0.769745    2.146932
  H      0.119901   -2.305969    0.015268

 Total Charge           Charge          ....    0
 Multiplicity           Mult            ....    1
 Number of Electrons    NEL             ....   58
 Basis Dimension        Dim             ....  296

ORBITAL ENERGIES
----------------

  NO   OCC          E(Eh)            E(eV)
   0   2.0000     -15.573472      -423.7757
   1   2.0000     -15.570344      -423.6906
   2   2.0000     -11.303778      -307.5914
   3   2.0000     -11.303677      -307.5887
   4   2.0000     -11.300376      -307.4989
   5   2.0000     -11.274528      -306.7955
   6   2.0000     -11.252458      -306.1950
   7   2.0000     -11.247995      -306.0735
   8   2.0000      -1.312155       -35.7056
   9   2.0000      -1.219760       -33.1913
  10   2.0000      -1.074213       -29.2308
  11   2.0000      -1.000912       -27.2362
  12   2.0000      -0.917383       -24.9633
  13   2.0000      -0.895001       -24.3542
  14   2.0000      -0.791647       -21.5418
  15   2.0000      -0.715471       -19.4689
  16   2.0000      -0.707623       -19.2554
  17   2.0000      -0.619809       -16.8659
  18   2.0000      -0.609725       -16.5915
  19   2.0000      -0.575304       -15.6548
  20   2.0000      -0.567606       -15.4453
  21   2.0000      -0.537367       -14.6225
  22   2.0000      -0.518466       -14.1082
  23   2.0000      -0.516416       -14.0524
  24   2.0000      -0.505296       -13.7498
  25   2.0000      -0.476126       -12.9561
  26   2.0000      -0.462901       -12.5962
  27   2.0000      -0.432668       -11.7735
  28   2.0000      -0.410445       -11.1688
  29   0.0000       0.127456         3.4683
  30   0.0000       0.148494         4.0407
  31   0.0000       0.155253         4.2247
  32   0.0000       0.166267         4.5244
  33   0.0000       0.183006         4.9798

MULLIKEN ATOMIC CHARGES
-----------------------
   0 C :   -0.402397
   1 C :    0.149289
   2 C :   -0.271155
   3 N :   -0.031495
   4 C :   -0.056591
   5 C :   -0.200331
   6 C :   -0.056583
   7 N :   -0.345204
   8 H :    0.137268
   9 H :    0.151752
  10 H :    0.151747
  11 H :    0.150071
  12 H :    0.132089
  13 H :    0.121958
  14 H :    0.150072
  15 H :    0.219510
Sum of atomic charges:    0.0000000

LOEWDIN ATOMIC CHARGES
----------------------
   0 C :   -0.248936
   1 C :   -0.224701
   2 C :   -0.172911
   3 N :    0.065380
   4 C :   -0.170041
   5 C :   -0.192962
   6 C :   -0.170041
   7 N :    0.023841
   8 H :    0.127494
   9 H :    0.136787
  10 H :    0.136786
  11 H :    0.129387
  12 H :    0.139308
  13 H :    0.125955
  14 H :    0.129387
  15 H :    0.165267

  Mayer bond orders larger than 0.1
B(  0-C ,  1-C ) :   0.9261 B(  0-C ,  8-H ) :   0.9282 B(  0-C ,  9-H ) :   0.9285
B(  0-C , 10-H ) :   0.9285 B(  1-C ,  2-C ) :   0.9097 B(  1-C ,  4-C ) :   0.8809
B(  1-C ,  6-C ) :   0.8809 B(  2-C ,  3-N ) :   2.8799 B(  4-C ,  5-C ) :   0.8970
B(  4-C ,  7-N ) :   0.9156 B(  4-C , 11-H ) :   0.8842 B(  5-C ,  6-C ) :   0.8970
B(  5-C , 12-H ) :   0.9091 B(  5-C , 13-H ) :   0.9323 B(  6-C ,  7-N ) :   0.9156
B(  6-C , 14-H ) :   0.8842 B(  7-N , 15-H ) :   0.8751

MP2 TOTAL ENERGY:     -342.125313094 Eh
FINAL SINGLE POINT ENERGY      -342.125313094499

DIPOLE MOMENT
-------------
                                X             Y             Z
Electronic contribution:     -3.92290      -4.05423      -0.66676
Nuclear contribution   :      4.92791       5.14328       0.83780
                        -----------------------------------------
Total Dipole Moment    :      1.00500       1.08905       0.17105
                        -----------------------------------------
Magnitude (a.u.)       :      1.49175
Magnitude (Debye)      :      3.79172

                             ****ORCA TERMINATED NORMALLY****
TOTAL RUN TIME: 0 days 0 hours 12 minutes 12 seconds 175 msec
