                         Program Version 3.0.3 - RELEASE   -
|  1> ! RI-MP2 RIJK def2-TZVP def2-TZVP/C def2-TZVP/JK TIGHTSCF
|  2> % maxcore 2000
|  3> % mp2 density relaxed end
|  4> *xyz 0 1
|  5>  C        0.0322949258     1.5129176188    -0.0562425295
|  6>  C       -0.0284742902    -0.0214613623    -0.0330057870
|  7>  C       -1.4297348521    -0.5449495906     0.0174803756
|  8>  N       -2.3542196767    -0.1955230065     0.8985629188
|  9>  C       -3.4648097740    -0.9213401026     0.5758328153
| 10>  O       -4.6277021014    -0.8363083133     1.2535641901
| 11>  C       -4.6382813576     0.0635331872     2.3542083548
| 12>  C       -3.2377128445    -1.7297935378    -0.5108512387
| 13>  N       -1.9195424396    -1.4660852208    -0.8510896525
| 14>  H        1.0693086620     1.8608075243    -0.0305692664
| 15>  H       -0.4420483878     1.9119311782    -0.9580765398
| 16>  H       -0.4953299569     1.9222432261     0.8083532131
| 17>  H        0.4775029989    -0.4351898401    -0.9137584824
| 18>  H        0.5244751195    -0.3896788594     0.8407753992
| 19>  H       -4.4279918598     1.0893273646     2.0334662578
| 20>  H       -5.6425219503     0.0035032189     2.7777861656
| 21>  H       -3.8964677860    -0.2193268664     3.1086626700
| 22>  H       -3.8552705414    -2.4272413657    -1.0471787876
| 23>  H       -1.4133765280    -1.8879905324    -1.6111688366
| 24> *
| 25>
| 26>                          ****END OF INPUT****

CARTESIAN COORDINATES (ANGSTROEM)
---------------------------------
  C      0.032295    1.512918   -0.056243
  C     -0.028474   -0.021461   -0.033006
  C     -1.429735   -0.544950    0.017480
  N     -2.354220   -0.195523    0.898563
  C     -3.464810   -0.921340    0.575833
  O     -4.627702   -0.836308    1.253564
  C     -4.638281    0.063533    2.354208
  C     -3.237713   -1.729794   -0.510851
  N     -1.919542   -1.466085   -0.851090
  H      1.069309    1.860808   -0.030569
  H     -0.442048    1.911931   -0.958077
  H     -0.495330    1.922243    0.808353
  H      0.477503   -0.435190   -0.913758
  H      0.524475   -0.389679    0.840775
  H     -4.427992    1.089327    2.033466
  H     -5.642522    0.003503    2.777786
  H     -3.896468   -0.219327    3.108663
  H     -3.855271   -2.427241   -1.047179
  H     -1.413377   -1.887991   -1.611169

 Total Charge           Charge          ....    0
 Multiplicity           Mult            ....    1
 Number of Electrons    NEL             ....   68
 Basis Dimension        Dim             ....  339

ORBITAL ENERGIES
----------------

  NO   OCC          E(Eh)            E(eV)
   0   2.0000     -20.567362      -559.6664
   1   2.0000     -15.611307      -424.8053
   2   2.0000     -15.532994      -422.6743
   3   2.0000     -11.299092      -307.4639
   4   2.0000     -11.296337      -307.3890
   5   2.0000     -11.264080      -306.5112
   6   2.0000     -11.243926      -305.9628
   7   2.0000     -11.234282      -305.7003
   8   2.0000     -11.220549      -305.3267
   9   2.0000      -1.402215       -38.1562
  10   2.0000      -1.329061       -36.1656
  11   2.0000      -1.158900       -31.5353
  12   2.0000      -1.066782       -29.0286
  13   2.0000      -0.987860       -26.8811
  14   2.0000      -0.923915       -25.1410
  15   2.0000      -0.867580       -23.6081
  16   2.0000      -0.811493       -22.0818
  17   2.0000      -0.777607       -21.1598
  18   2.0000      -0.716020       -19.4839
  19   2.0000      -0.651621       -17.7315
  20   2.0000      -0.648038       -17.6340
  21   2.0000      -0.635731       -17.2991
  22   2.0000      -0.610047       -16.6002
  23   2.0000      -0.605209       -16.4686
  24   2.0000      -0.578838       -15.7510
  25   2.0000      -0.558602       -15.2003
  26   2.0000      -0.523788       -14.2530
  27   2.0000      -0.515412       -14.0251
  28   2.0000      -0.503656       -13.7052
  29   2.0000      -0.494349       -13.4519
  30   2.0000      -0.478651       -13.0248
  31   2.0000      -0.434782       -11.8310
  32   2.0000      -0.387362       -10.5406
  33   2.0000      -0.286259        -7.7895
  34   0.0000       0.123211         3.3527
  35   0.0000       0.147447         4.0122
  36   0.0000       0.167452         4.5566
  37   0.0000       0.177931         4.8418
  38   0.0000       0.184042         5.0080

MULLIKEN ATOMIC CHARGES
-----------------------
   0 C :   -0.376742
   1 C :   -0.205920
   2 C :    0.199428
   3 N :   -0.344564
   4 C :    0.227368
   5 O :   -0.301530
   6 C :   -0.193611
   7 C :   -0.146392
   8 N :   -0.264696
   9 H :    0.127338
  10 H :    0.121181
  11 H :    0.146847
  12 H :    0.100535
  13 H :    0.126959
  14 H :    0.125545
  15 H :    0.136890
  16 H :    0.125127
  17 H :    0.150888
  18 H :    0.245351
Sum of atomic charges:    0.0000000

LOEWDIN ATOMIC CHARGES
----------------------
   0 C :   -0.306745
   1 C :   -0.262412
   2 C :   -0.326831
   3 N :    0.119147
   4 C :   -0.386115
   5 O :    0.215012
   6 C :   -0.327182
   7 C :   -0.233597
   8 N :    0.197138
   9 H :    0.119092
  10 H :    0.121604
  11 H :    0.128511
  12 H :    0.138517
  13 H :    0.148012
  14 H :    0.108564
  15 H :    0.111160
  16 H :    0.108605
  17 H :    0.134272
  18 H :    0.193250

  Mayer bond orders larger than 0.1
B(  0-C ,  1-C ) :   0.9258 B(  0-C ,  9-H ) :   0.9362 B(  0-C , 10-H ) :   0.9351
B(  0-C , 11-H ) :   0.9347 B(  1-C ,  2-C ) :   0.9153 B(  1-C , 12-H ) :   0.9384
B(  1-C , 13-H ) :   0.9288 B(  2-C ,  3-N ) :   1.4816 B(  2-C ,  8-N ) :   1.1948
B(  3-N ,  4-C ) :   1.2483 B(  4-C ,  5-O ) :   1.0797 B(  4-C ,  7-C ) :   1.4910
B(  5-O ,  6-C ) :   0.8603 B(  6-C , 14-H ) :   0.9369 B(  6-C , 15-H ) :   0.9360
B(  6-C , 16-H ) :   0.9366 B(  7-C ,  8-N ) :   1.0927 B(  7-C , 17-H ) :   0.9043
B(  8-N , 18-H ) :   0.8661

MP2 TOTAL ENERGY:     -418.535400135 Eh
FINAL SINGLE POINT ENERGY      -418.535400135443

DIPOLE MOMENT
-------------
                                X             Y             Z
Electronic contribution:     -5.00446      -5.71945      -1.42131
Nuclear contribution   :      5.70545       5.41431       0.69342
                        -----------------------------------------
Total Dipole Moment    :      0.70099      -0.30513      -0.72789
                        -----------------------------------------
Magnitude (a.u.)       :      1.05561
Magnitude (Debye)      :      2.68316

                             ****ORCA TERMINATED NORMALLY****
TOTAL RUN TIME: 0 days 0 hours 16 minutes 23 seconds 316 msec
