                         Program Version 3.0.3 - RELEASE   -
|  1> ! RI-MP2 RIJK def2-TZVP def2-TZVP/C def2-TZVP/JK TIGHTSCF
|  2> % maxcore 2000
|  3> % mp2 density relaxed end
|  4> *xyz 0 1
|  5>  N        0.1636442560     1.4238954877    -0.0498405289
|  6>  C        0.0599840851     0.0062463393     0.0056012442
|  7>  C       -0.4444460219    -0.6781586389     1.2573490280
|  8>  C       -0.9701032949     0.0701261268     2.3570683122
|  9>  C       -1.4488106453     0.6941374077     3.2678259959
| 10>  C       -1.2997954590    -0.7074774370    -0.0377138596
| 11>  O       -2.3984760148     0.1359471892    -0.1020142673
| 12>  C       -1.4280317286    -1.9703106808    -0.7214794383
| 13>  N       -1.5057570686    -2.9867840389    -1.2699016385
| 14>  H        0.1346669246     1.7414414191    -1.0139752620
| 15>  H       -0.6176071563     1.8556475632     0.4331703653
| 16>  H        0.8679462031    -0.5130301729    -0.4996006720
| 17>  H        0.0428345948    -1.6131462712     1.5151835378
| 18>  H       -1.8435731271     1.2448792139     4.0859966401
| 19>  H       -2.9884119871    -0.0642131172     0.6359796332
| 20> *
| 21>
| 22>                          ****END OF INPUT****

CARTESIAN COORDINATES (ANGSTROEM)
---------------------------------
  N      0.163644    1.423895   -0.049841
  C      0.059984    0.006246    0.005601
  C     -0.444446   -0.678159    1.257349
  C     -0.970103    0.070126    2.357068
  C     -1.448811    0.694137    3.267826
  C     -1.299795   -0.707477   -0.037714
  O     -2.398476    0.135947   -0.102014
  C     -1.428032   -1.970311   -0.721479
  N     -1.505757   -2.986784   -1.269902
  H      0.134667    1.741441   -1.013975
  H     -0.617607    1.855648    0.433170
  H      0.867946   -0.513030   -0.499601
  H      0.042835   -1.613146    1.515184
  H     -1.843573    1.244879    4.085997
  H     -2.988412   -0.064213    0.635980

 Total Charge           Charge          ....    0
 Multiplicity           Mult            ....    1
 Number of Electrons    NEL             ....   64
 Basis Dimension        Dim             ....  315

ORBITAL ENERGIES
----------------

  NO   OCC          E(Eh)            E(eV)
   0   2.0000     -20.604312      -560.6718
   1   2.0000     -15.582016      -424.0082
   2   2.0000     -15.569197      -423.6594
   3   2.0000     -11.351633      -308.8936
   4   2.0000     -11.309979      -307.7602
   5   2.0000     -11.295657      -307.3705
   6   2.0000     -11.282876      -307.0227
   7   2.0000     -11.262977      -306.4812
   8   2.0000     -11.251984      -306.1820
   9   2.0000      -1.422362       -38.7044
  10   2.0000      -1.242541       -33.8113
  11   2.0000      -1.223550       -33.2945
  12   2.0000      -1.138788       -30.9880
  13   2.0000      -1.053189       -28.6587
  14   2.0000      -0.932673       -25.3793
  15   2.0000      -0.870457       -23.6863
  16   2.0000      -0.787615       -21.4321
  17   2.0000      -0.753657       -20.5080
  18   2.0000      -0.724043       -19.7022
  19   2.0000      -0.690743       -18.7961
  20   2.0000      -0.675093       -18.3702
  21   2.0000      -0.634095       -17.2546
  22   2.0000      -0.591690       -16.1007
  23   2.0000      -0.574469       -15.6321
  24   2.0000      -0.566991       -15.4286
  25   2.0000      -0.531321       -14.4580
  26   2.0000      -0.503937       -13.7128
  27   2.0000      -0.482532       -13.1303
  28   2.0000      -0.473313       -12.8795
  29   2.0000      -0.428967       -11.6728
  30   2.0000      -0.392493       -10.6803
  31   2.0000      -0.381235       -10.3739
  32   0.0000       0.116105         3.1594
  33   0.0000       0.128154         3.4872
  34   0.0000       0.135565         3.6889
  35   0.0000       0.151983         4.1357
  36   0.0000       0.152213         4.1419

MULLIKEN ATOMIC CHARGES
-----------------------
   0 N :   -0.500086
   1 C :    0.017380
   2 C :   -0.287007
   3 C :   -0.039827
   4 C :   -0.116362
   5 C :    0.266543
   6 O :   -0.435155
   7 C :   -0.217573
   8 N :   -0.055646
   9 H :    0.240418
  10 H :    0.253488
  11 H :    0.156424
  12 H :    0.170467
  13 H :    0.200420
  14 H :    0.346517
Sum of atomic charges:   -0.0000000

LOEWDIN ATOMIC CHARGES
----------------------
   0 N :   -0.104717
   1 C :   -0.229121
   2 C :   -0.148094
   3 C :   -0.098886
   4 C :   -0.079129
   5 C :   -0.323948
   6 O :    0.068044
   7 C :   -0.156640
   8 N :    0.073548
   9 H :    0.168112
  10 H :    0.169000
  11 H :    0.157713
  12 H :    0.176348
  13 H :    0.131175
  14 H :    0.196595

  Mayer bond orders larger than 0.1
B(  0-N ,  1-C ) :   1.0614 B(  0-N ,  9-H ) :   0.8842 B(  0-N , 10-H ) :   0.8766
B(  1-C ,  2-C ) :   0.8588 B(  1-C ,  5-C ) :   0.8252 B(  1-C , 11-H ) :   0.9283
B(  2-C ,  3-C ) :   1.1921 B(  2-C ,  4-C ) :  -0.1244 B(  2-C ,  5-C ) :   0.7849
B(  2-C , 12-H ) :   0.9101 B(  3-C ,  4-C ) :   2.5376 B(  4-C , 13-H ) :   0.8977
B(  5-C ,  6-O ) :   1.0905 B(  5-C ,  7-C ) :   0.9211 B(  6-O , 14-H ) :   0.8213
B(  7-C ,  8-N ) :   2.8376

MP2 TOTAL ENERGY:     -416.046603798 Eh
FINAL SINGLE POINT ENERGY      -416.046603798009

DIPOLE MOMENT
-------------
                                X             Y             Z
Electronic contribution:     -1.85260      -3.70052      -1.25671
Nuclear contribution   :      1.75424       4.70811       2.11157
                        -----------------------------------------
Total Dipole Moment    :     -0.09836       1.00759       0.85486
                        -----------------------------------------
Magnitude (a.u.)       :      1.32503
Magnitude (Debye)      :      3.36796

                             ****ORCA TERMINATED NORMALLY****
TOTAL RUN TIME: 0 days 0 hours 15 minutes 16 seconds 107 msec
