                         Program Version 3.0.3 - RELEASE   -
|  1> ! RI-MP2 RIJK def2-TZVP def2-TZVP/C def2-TZVP/JK TIGHTSCF
|  2> % maxcore 2000
|  3> % mp2 density relaxed end
|  4> *xyz 0 1
|  5>  C        0.2086854566     1.5941507558    -0.2823352759
|  6>  C        0.0267970562     0.1114546924     0.0537086856
|  7>  N        0.4784934777    -0.7226680351    -1.0667512795
|  8>  C        1.4597632619    -1.4079763912    -0.6270355091
|  9>  N        2.1858018005    -2.3357647993    -1.3285373316
| 10>  O        1.8406913996    -1.2799898995     0.6686403827
| 11>  C        0.8224276534    -0.4373333433     1.2983688088
| 12>  C        1.5547683157     0.5887047493     2.1543985380
| 13>  C       -0.0582817717    -1.3523811640     2.1494859736
| 14>  H        1.2587066210     1.8342255878    -0.4756650739
| 15>  H       -0.3550519661     1.8237508983    -1.1904129142
| 16>  H       -0.1561363946     2.2420549846     0.5214356030
| 17>  H       -1.0437107153    -0.0628050194     0.2244750025
| 18>  H        2.1266552705    -2.2269169056    -2.3290253550
| 19>  H        3.1154608212    -2.5041574715    -0.9765288216
| 20>  H        2.2315858462     1.2004034956     1.5541628563
| 21>  H        0.8427922803     1.2510989973     2.6554142836
| 22>  H        2.1443113937     0.0822553442     2.9245396239
| 23>  H        0.5346545692    -1.8677738790     2.9108480618
| 24>  H       -0.8363580727    -0.7685919488     2.6522862823
| 25>  H       -0.5468436031    -2.1030429586     1.5213619489
| 26> *
| 27>
| 28>                          ****END OF INPUT****

CARTESIAN COORDINATES (ANGSTROEM)
---------------------------------
  C      0.208685    1.594151   -0.282335
  C      0.026797    0.111455    0.053709
  N      0.478493   -0.722668   -1.066751
  C      1.459763   -1.407976   -0.627036
  N      2.185802   -2.335765   -1.328537
  O      1.840691   -1.279990    0.668640
  C      0.822428   -0.437333    1.298369
  C      1.554768    0.588705    2.154399
  C     -0.058282   -1.352381    2.149486
  H      1.258707    1.834226   -0.475665
  H     -0.355052    1.823751   -1.190413
  H     -0.156136    2.242055    0.521436
  H     -1.043711   -0.062805    0.224475
  H      2.126655   -2.226917   -2.329025
  H      3.115461   -2.504157   -0.976529
  H      2.231586    1.200403    1.554163
  H      0.842792    1.251099    2.655414
  H      2.144311    0.082255    2.924540
  H      0.534655   -1.867774    2.910848
  H     -0.836358   -0.768592    2.652286
  H     -0.546844   -2.103043    1.521362

 Total Charge           Charge          ....    0
 Multiplicity           Mult            ....    1
 Number of Electrons    NEL             ....   70
 Basis Dimension        Dim             ....  351

ORBITAL ENERGIES
----------------

  NO   OCC          E(Eh)            E(eV)
   0   2.0000     -20.584907      -560.1438
   1   2.0000     -15.575206      -423.8229
   2   2.0000     -15.514192      -422.1626
   3   2.0000     -11.354702      -308.9771
   4   2.0000     -11.296378      -307.3901
   5   2.0000     -11.254115      -306.2400
   6   2.0000     -11.220952      -305.3376
   7   2.0000     -11.218699      -305.2763
   8   2.0000     -11.208939      -305.0107
   9   2.0000      -1.436483       -39.0887
  10   2.0000      -1.233311       -33.5601
  11   2.0000      -1.182111       -32.1669
  12   2.0000      -1.071801       -29.1652
  13   2.0000      -0.985795       -26.8249
  14   2.0000      -0.945727       -25.7345
  15   2.0000      -0.866967       -23.5914
  16   2.0000      -0.803135       -21.8544
  17   2.0000      -0.763352       -20.7719
  18   2.0000      -0.706986       -19.2381
  19   2.0000      -0.679062       -18.4782
  20   2.0000      -0.656018       -17.8512
  21   2.0000      -0.618969       -16.8430
  22   2.0000      -0.605068       -16.4647
  23   2.0000      -0.586644       -15.9634
  24   2.0000      -0.565708       -15.3937
  25   2.0000      -0.547861       -14.9081
  26   2.0000      -0.539318       -14.6756
  27   2.0000      -0.530911       -14.4468
  28   2.0000      -0.523733       -14.2515
  29   2.0000      -0.507855       -13.8194
  30   2.0000      -0.498041       -13.5524
  31   2.0000      -0.473161       -12.8754
  32   2.0000      -0.441898       -12.0247
  33   2.0000      -0.409289       -11.1373
  34   2.0000      -0.349415        -9.5081
  35   0.0000       0.129361         3.5201
  36   0.0000       0.145165         3.9501
  37   0.0000       0.169791         4.6203
  38   0.0000       0.181768         4.9462
  39   0.0000       0.193971         5.2782

MULLIKEN ATOMIC CHARGES
-----------------------
   0 C :   -0.416881
   1 C :    0.060006
   2 N :   -0.334540
   3 C :    0.282661
   4 N :   -0.510464
   5 O :   -0.298219
   6 C :    0.192272
   7 C :   -0.380724
   8 C :   -0.437544
   9 H :    0.123053
  10 H :    0.144648
  11 H :    0.118288
  12 H :    0.101049
  13 H :    0.267448
  14 H :    0.262736
  15 H :    0.135413
  16 H :    0.131364
  17 H :    0.141224
  18 H :    0.135313
  19 H :    0.130821
  20 H :    0.152073
Sum of atomic charges:   -0.0000000

LOEWDIN ATOMIC CHARGES
----------------------
   0 C :   -0.294050
   1 C :   -0.270533
   2 N :    0.063998
   3 C :   -0.505109
   4 N :   -0.046231
   5 O :    0.259448
   6 C :   -0.319649
   7 C :   -0.269768
   8 C :   -0.271171
   9 H :    0.122332
  10 H :    0.129179
  11 H :    0.120828
  12 H :    0.148078
  13 H :    0.178570
  14 H :    0.174455
  15 H :    0.128751
  16 H :    0.130758
  17 H :    0.130217
  18 H :    0.127247
  19 H :    0.129058
  20 H :    0.133594

  Mayer bond orders larger than 0.1
B(  0-C ,  1-C ) :   0.8884 B(  0-C ,  9-H ) :   0.9392 B(  0-C , 10-H ) :   0.9352
B(  0-C , 11-H ) :   0.9344 B(  1-C ,  2-N ) :   0.9228 B(  1-C ,  6-C ) :   0.8742
B(  1-C , 12-H ) :   0.9238 B(  2-N ,  3-C ) :   1.8049 B(  3-C ,  4-N ) :   1.1111
B(  3-C ,  5-O ) :   1.1028 B(  4-N , 13-H ) :   0.8690 B(  4-N , 14-H ) :   0.8666
B(  5-O ,  6-C ) :   0.7955 B(  6-C ,  7-C ) :   0.9094 B(  6-C ,  8-C ) :   0.9239
B(  7-C , 15-H ) :   0.9364 B(  7-C , 16-H ) :   0.9347 B(  7-C , 17-H ) :   0.9323
B(  8-C , 18-H ) :   0.9345 B(  8-C , 19-H ) :   0.9334 B(  8-C , 20-H ) :   0.9289

MP2 TOTAL ENERGY:     -419.750255664 Eh
FINAL SINGLE POINT ENERGY      -419.750255664446

DIPOLE MOMENT
-------------
                                X             Y             Z
Electronic contribution:      2.65730      -5.39705      -5.07348
Nuclear contribution   :     -2.16717       5.55972       5.47791
                        -----------------------------------------
Total Dipole Moment    :      0.49012       0.16267       0.40444
                        -----------------------------------------
Magnitude (a.u.)       :      0.65594
Magnitude (Debye)      :      1.66726

                             ****ORCA TERMINATED NORMALLY****
TOTAL RUN TIME: 0 days 0 hours 19 minutes 50 seconds 51 msec
