                         Program Version 3.0.3 - RELEASE   -
|  1> ! RI-MP2 RIJK def2-TZVP def2-TZVP/C def2-TZVP/JK TIGHTSCF
|  2> % maxcore 2000
|  3> % mp2 density relaxed end
|  4> *xyz 0 1
|  5>  O       -0.0228017631     1.3491738228    -0.1639192843
|  6>  C       -0.0154536708    -0.0587768708    -0.0573935083
|  7>  C        0.4349777605    -0.5492726230     1.3417062676
|  8>  O        1.4353428142    -0.2147010021     1.9203832847
|  9>  C       -0.7500513366    -1.3764313245     1.7903898916
| 10>  C       -1.8846239527    -0.3413657686     1.4497460933
| 11>  C       -1.4380273368    -0.6397828398    -0.0183193292
| 12>  O       -2.2519419735    -0.4205562736    -1.1184978906
| 13>  C       -1.1522918305    -2.0854152776     0.4520610064
| 14>  H        0.7856410415     1.6728546338     0.2523834018
| 15>  H        0.5813742648    -0.5175678252    -0.8609078422
| 16>  H       -0.6896108876    -1.8910415166     2.7455280894
| 17>  H       -2.8737377727    -0.7502787012     1.6634989715
| 18>  H       -1.7892562748     0.6789151831     1.8258392731
| 19>  H       -2.1434152728     0.5015804279    -1.3809687903
| 20>  H       -0.3959575066    -2.6688058797    -0.0804384474
| 21>  H       -2.0714319926    -2.6626834848     0.5664032328
| 22> *
| 23>
| 24>                          ****END OF INPUT****

CARTESIAN COORDINATES (ANGSTROEM)
---------------------------------
  O     -0.022802    1.349174   -0.163919
  C     -0.015454   -0.058777   -0.057394
  C      0.434978   -0.549273    1.341706
  O      1.435343   -0.214701    1.920383
  C     -0.750051   -1.376431    1.790390
  C     -1.884624   -0.341366    1.449746
  C     -1.438027   -0.639783   -0.018319
  O     -2.251942   -0.420556   -1.118498
  C     -1.152292   -2.085415    0.452061
  H      0.785641    1.672855    0.252383
  H      0.581374   -0.517568   -0.860908
  H     -0.689611   -1.891042    2.745528
  H     -2.873738   -0.750279    1.663499
  H     -1.789256    0.678915    1.825839
  H     -2.143415    0.501580   -1.380969
  H     -0.395958   -2.668806   -0.080438
  H     -2.071432   -2.662683    0.566403

 Total Charge           Charge          ....    0
 Multiplicity           Mult            ....    1
 Number of Electrons    NEL             ....   68
 Basis Dimension        Dim             ....  327

ORBITAL ENERGIES
----------------

  NO   OCC          E(Eh)            E(eV)
   0   2.0000     -20.580267      -560.0175
   1   2.0000     -20.574959      -559.8731
   2   2.0000     -20.562931      -559.5458
   3   2.0000     -11.341869      -308.6280
   4   2.0000     -11.309954      -307.7595
   5   2.0000     -11.301071      -307.5178
   6   2.0000     -11.261901      -306.4519
   7   2.0000     -11.251760      -306.1760
   8   2.0000     -11.248852      -306.0968
   9   2.0000      -1.414013       -38.4772
  10   2.0000      -1.393046       -37.9067
  11   2.0000      -1.375335       -37.4248
  12   2.0000      -1.200393       -32.6644
  13   2.0000      -0.978531       -26.6272
  14   2.0000      -0.932435       -25.3728
  15   2.0000      -0.923463       -25.1287
  16   2.0000      -0.783553       -21.3216
  17   2.0000      -0.767733       -20.8911
  18   2.0000      -0.729261       -19.8442
  19   2.0000      -0.702910       -19.1272
  20   2.0000      -0.677695       -18.4410
  21   2.0000      -0.654781       -17.8175
  22   2.0000      -0.635480       -17.2923
  23   2.0000      -0.599130       -16.3031
  24   2.0000      -0.591419       -16.0933
  25   2.0000      -0.560510       -15.2522
  26   2.0000      -0.557842       -15.1797
  27   2.0000      -0.547752       -14.9051
  28   2.0000      -0.531417       -14.4606
  29   2.0000      -0.490700       -13.3526
  30   2.0000      -0.472534       -12.8583
  31   2.0000      -0.467240       -12.7142
  32   2.0000      -0.430272       -11.7083
  33   2.0000      -0.402566       -10.9544
  34   0.0000       0.128902         3.5076
  35   0.0000       0.138029         3.7560
  36   0.0000       0.151456         4.1213
  37   0.0000       0.163807         4.4574
  38   0.0000       0.169712         4.6181

MULLIKEN ATOMIC CHARGES
-----------------------
   0 O :   -0.489533
   1 C :    0.038035
   2 C :    0.044436
   3 O :   -0.264803
   4 C :   -0.010219
   5 C :   -0.290807
   6 C :    0.240078
   7 O :   -0.458451
   8 C :   -0.284190
   9 H :    0.338037
  10 H :    0.113232
  11 H :    0.146235
  12 H :    0.134293
  13 H :    0.135756
  14 H :    0.336574
  15 H :    0.133971
  16 H :    0.137355
Sum of atomic charges:   -0.0000000

LOEWDIN ATOMIC CHARGES
----------------------
   0 O :   -0.011023
   1 C :   -0.282037
   2 C :   -0.290261
   3 O :    0.155556
   4 C :   -0.161997
   5 C :   -0.160866
   6 C :   -0.353270
   7 O :    0.033235
   8 C :   -0.157579
   9 H :    0.188199
  10 H :    0.145226
  11 H :    0.142091
  12 H :    0.144867
  13 H :    0.134252
  14 H :    0.191774
  15 H :    0.133371
  16 H :    0.148463

  Mayer bond orders larger than 0.1
B(  0-O ,  1-C ) :   0.9760 B(  0-O ,  9-H ) :   0.8267 B(  1-C ,  2-C ) :   0.8720
B(  1-C ,  4-C ) :  -0.1264 B(  1-C ,  6-C ) :   0.8572 B(  1-C , 10-H ) :   0.9250
B(  2-C ,  3-O ) :   2.0349 B(  2-C ,  4-C ) :   0.8358 B(  4-C ,  5-C ) :   0.8804
B(  4-C ,  8-C ) :   0.8736 B(  4-C , 11-H ) :   0.9064 B(  5-C ,  6-C ) :   0.8763
B(  5-C , 12-H ) :   0.9166 B(  5-C , 13-H ) :   0.9086 B(  6-C ,  7-O ) :   1.0124
B(  6-C ,  8-C ) :   0.8740 B(  7-O , 14-H ) :   0.8265 B(  8-C , 15-H ) :   0.9223
B(  8-C , 16-H ) :   0.9102

MP2 TOTAL ENERGY:     -458.240702608 Eh
FINAL SINGLE POINT ENERGY      -458.240702607939

DIPOLE MOMENT
-------------
                                X             Y             Z
Electronic contribution:      3.08438       1.88713      -0.04926
Nuclear contribution   :     -3.37442      -2.04136       0.05671
                        -----------------------------------------
Total Dipole Moment    :     -0.29004      -0.15424       0.00746
                        -----------------------------------------
Magnitude (a.u.)       :      0.32858
Magnitude (Debye)      :      0.83519

                             ****ORCA TERMINATED NORMALLY****
TOTAL RUN TIME: 0 days 0 hours 18 minutes 29 seconds 156 msec
