                         Program Version 3.0.3 - RELEASE   -
|  1> ! RI-MP2 RIJK def2-TZVP def2-TZVP/C def2-TZVP/JK TIGHTSCF
|  2> % maxcore 2000
|  3> % mp2 density relaxed end
|  4> *xyz 0 1
|  5>  O        0.1279863281     1.4035794803    -0.0380132504
|  6>  C        0.0747639889    -0.0084031159     0.0154750862
|  7>  C       -1.3663786160    -0.5404090558    -0.1135807528
|  8>  C       -1.4212245238    -2.0290212221    -0.0725264405
|  9>  N       -1.5096653389    -2.8100279291    -1.1464553348
| 10>  N       -1.4851179806    -4.0137021454    -0.5899699003
| 11>  N       -1.3896725503    -4.0148464550     0.7304473556
| 12>  N       -1.3455283893    -2.7556156764     1.0770461057
| 13>  H       -0.2707945157     1.7479262188     0.7675206923
| 14>  H        0.6726868014    -0.3667793892    -0.8285345872
| 15>  H        0.5306925422    -0.4035368679     0.9349039119
| 16>  H       -1.9686292213    -0.1453623926     0.7123525353
| 17>  H       -1.7977762115    -0.1819945114    -1.0511761247
| 18>  H       -1.5472122233    -4.8663041482    -1.1262552563
| 19> *
| 20>
| 21>                          ****END OF INPUT****

CARTESIAN COORDINATES (ANGSTROEM)
---------------------------------
  O      0.127986    1.403579   -0.038013
  C      0.074764   -0.008403    0.015475
  C     -1.366379   -0.540409   -0.113581
  C     -1.421225   -2.029021   -0.072526
  N     -1.509665   -2.810028   -1.146455
  N     -1.485118   -4.013702   -0.589970
  N     -1.389673   -4.014846    0.730447
  N     -1.345528   -2.755616    1.077046
  H     -0.270795    1.747926    0.767521
  H      0.672687   -0.366779   -0.828535
  H      0.530693   -0.403537    0.934904
  H     -1.968629   -0.145362    0.712353
  H     -1.797776   -0.181995   -1.051176
  H     -1.547212   -4.866304   -1.126255

 Total Charge           Charge          ....    0
 Multiplicity           Mult            ....    1
 Number of Electrons    NEL             ....   60
 Basis Dimension        Dim             ....  284

ORBITAL ENERGIES
----------------

  NO   OCC          E(Eh)            E(eV)
   0   2.0000     -20.564025      -559.5756
   1   2.0000     -15.705067      -427.3566
   2   2.0000     -15.676879      -426.5896
   3   2.0000     -15.628900      -425.2840
   4   2.0000     -15.611775      -424.8180
   5   2.0000     -11.309925      -307.7587
   6   2.0000     -11.287133      -307.1385
   7   2.0000     -11.247778      -306.0676
   8   2.0000      -1.504918       -40.9509
   9   2.0000      -1.369444       -37.2645
  10   2.0000      -1.265653       -34.4402
  11   2.0000      -1.193402       -32.4741
  12   2.0000      -1.041647       -28.3447
  13   2.0000      -0.922951       -25.1148
  14   2.0000      -0.893508       -24.3136
  15   2.0000      -0.828188       -22.5361
  16   2.0000      -0.770909       -20.9775
  17   2.0000      -0.704955       -19.1828
  18   2.0000      -0.686164       -18.6715
  19   2.0000      -0.638148       -17.3649
  20   2.0000      -0.629398       -17.1268
  21   2.0000      -0.591789       -16.1034
  22   2.0000      -0.557163       -15.1612
  23   2.0000      -0.552337       -15.0298
  24   2.0000      -0.505379       -13.7521
  25   2.0000      -0.497785       -13.5454
  26   2.0000      -0.474077       -12.9003
  27   2.0000      -0.461195       -12.5498
  28   2.0000      -0.449267       -12.2252
  29   2.0000      -0.398319       -10.8388
  30   0.0000       0.115134         3.1330
  31   0.0000       0.125300         3.4096
  32   0.0000       0.132757         3.6125
  33   0.0000       0.170748         4.6463
  34   0.0000       0.180988         4.9249

MULLIKEN ATOMIC CHARGES
-----------------------
   0 O :   -0.465647
   1 C :   -0.067244
   2 C :   -0.212903
   3 C :    0.087299
   4 N :   -0.215828
   5 N :    0.032441
   6 N :   -0.113104
   7 N :   -0.160098
   8 H :    0.317650
   9 H :    0.122761
  10 H :    0.125707
  11 H :    0.127737
  12 H :    0.141801
  13 H :    0.279429
Sum of atomic charges:   -0.0000000

LOEWDIN ATOMIC CHARGES
----------------------
   0 O :   -0.043657
   1 C :   -0.340378
   2 C :   -0.243264
   3 C :   -0.371620
   4 N :    0.046252
   5 N :    0.059907
   6 N :   -0.052156
   7 N :    0.020833
   8 H :    0.175272
   9 H :    0.131544
  10 H :    0.121201
  11 H :    0.150049
  12 H :    0.153445
  13 H :    0.192572

  Mayer bond orders larger than 0.1
B(  0-O ,  1-C ) :   0.9396 B(  0-O ,  8-H ) :   0.8462 B(  1-C ,  2-C ) :   0.9061
B(  1-C ,  9-H ) :   0.9240 B(  1-C , 10-H ) :   0.9384 B(  2-C ,  3-C ) :   0.8960
B(  2-C , 11-H ) :   0.9213 B(  2-C , 12-H ) :   0.9256 B(  3-C ,  4-N ) :   1.4871
B(  3-C ,  7-N ) :   1.3701 B(  4-N ,  5-N ) :   1.1167 B(  4-N ,  6-N ) :   0.1159
B(  5-N ,  6-N ) :   1.1277 B(  5-N , 13-H ) :   0.8617 B(  6-N ,  7-N ) :   1.2564

MP2 TOTAL ENERGY:     -411.368233175 Eh
FINAL SINGLE POINT ENERGY      -411.368233174724

DIPOLE MOMENT
-------------
                                X             Y             Z
Electronic contribution:     -1.87639      -6.47264       0.04926
Nuclear contribution   :      1.58086       6.07863      -0.44269
                        -----------------------------------------
Total Dipole Moment    :     -0.29553      -0.39401      -0.39343
                        -----------------------------------------
Magnitude (a.u.)       :      0.63037
Magnitude (Debye)      :      1.60228

                             ****ORCA TERMINATED NORMALLY****
TOTAL RUN TIME: 0 days 0 hours 10 minutes 15 seconds 88 msec
