                         Program Version 3.0.3 - RELEASE   -
|  1> ! RI-MP2 RIJK def2-TZVP def2-TZVP/C def2-TZVP/JK TIGHTSCF
|  2> % maxcore 2000
|  3> % mp2 density relaxed end
|  4> *xyz 0 1
|  5>  C       -0.3760769162     1.3247332077    -0.1220886256
|  6>  C        0.2803022013    -0.0388230870    -0.0803497819
|  7>  O        1.6175259605    -0.0183049707    -0.6501630795
|  8>  C        2.1822813336    -0.5744792379     0.5551943000
|  9>  C        0.8238291402    -0.5438591366     1.2803142367
| 10>  C        0.4980678624    -1.9952602357     1.6736778839
| 11>  N        1.4851782641    -2.7679821606     0.9377672648
| 12>  C        2.5257248428    -2.0642853091     0.3874097989
| 13>  O        3.5053313607    -2.5341442745    -0.1449097716
| 14>  H        0.2271774801     2.0640408832     0.4137767718
| 15>  H       -0.4873498527     1.6593621083    -1.1579290446
| 16>  H       -1.3714669309     1.2854799175     0.3344397013
| 17>  H       -0.3447228529    -0.7821337559    -0.5957007856
| 18>  H        3.0380177992    -0.0001709444     0.9190393347
| 19>  H        0.7016138150     0.1590763611     2.1038517095
| 20>  H        0.5945914384    -2.1471851604     2.7571430381
| 21>  H       -0.5241394422    -2.2746414545     1.3902047594
| 22>  H        1.5206385967    -3.7752035305     0.9628305296
| 23> *
| 24>
| 25>                          ****END OF INPUT****

CARTESIAN COORDINATES (ANGSTROEM)
---------------------------------
  C     -0.376077    1.324733   -0.122089
  C      0.280302   -0.038823   -0.080350
  O      1.617526   -0.018305   -0.650163
  C      2.182281   -0.574479    0.555194
  C      0.823829   -0.543859    1.280314
  C      0.498068   -1.995260    1.673678
  N      1.485178   -2.767982    0.937767
  C      2.525725   -2.064285    0.387410
  O      3.505331   -2.534144   -0.144910
  H      0.227177    2.064041    0.413777
  H     -0.487350    1.659362   -1.157929
  H     -1.371467    1.285480    0.334440
  H     -0.344723   -0.782134   -0.595701
  H      3.038018   -0.000171    0.919039
  H      0.701614    0.159076    2.103852
  H      0.594591   -2.147185    2.757143
  H     -0.524139   -2.274641    1.390205
  H      1.520639   -3.775204    0.962831

 Total Charge           Charge          ....    0
 Multiplicity           Mult            ....    1
 Number of Electrons    NEL             ....   68
 Basis Dimension        Dim             ....  333

ORBITAL ENERGIES
----------------

  NO   OCC          E(Eh)            E(eV)
   0   2.0000     -20.561272      -559.5007
   1   2.0000     -20.519589      -558.3664
   2   2.0000     -15.589242      -424.2048
   3   2.0000     -11.346856      -308.7636
   4   2.0000     -11.299518      -307.4755
   5   2.0000     -11.297971      -307.4334
   6   2.0000     -11.288068      -307.1639
   7   2.0000     -11.255085      -306.2664
   8   2.0000     -11.229040      -305.5577
   9   2.0000      -1.401386       -38.1337
  10   2.0000      -1.374389       -37.3990
  11   2.0000      -1.251267       -34.0487
  12   2.0000      -1.060142       -28.8479
  13   2.0000      -1.021876       -27.8067
  14   2.0000      -0.964686       -26.2504
  15   2.0000      -0.880637       -23.9633
  16   2.0000      -0.809830       -22.0366
  17   2.0000      -0.765871       -20.8404
  18   2.0000      -0.705623       -19.2010
  19   2.0000      -0.681217       -18.5369
  20   2.0000      -0.656506       -17.8644
  21   2.0000      -0.638466       -17.3735
  22   2.0000      -0.627591       -17.0776
  23   2.0000      -0.607433       -16.5291
  24   2.0000      -0.592003       -16.1092
  25   2.0000      -0.562468       -15.3055
  26   2.0000      -0.542317       -14.7572
  27   2.0000      -0.538342       -14.6490
  28   2.0000      -0.528375       -14.3778
  29   2.0000      -0.484948       -13.1961
  30   2.0000      -0.465150       -12.6574
  31   2.0000      -0.448314       -12.1992
  32   2.0000      -0.401007       -10.9119
  33   2.0000      -0.394628       -10.7384
  34   0.0000       0.124275         3.3817
  35   0.0000       0.139475         3.7953
  36   0.0000       0.151716         4.1284
  37   0.0000       0.153760         4.1840
  38   0.0000       0.175298         4.7701

MULLIKEN ATOMIC CHARGES
-----------------------
   0 C :   -0.388738
   1 C :    0.075202
   2 O :   -0.327297
   3 C :    0.121719
   4 C :   -0.103547
   5 C :   -0.121710
   6 N :   -0.331240
   7 C :    0.176225
   8 O :   -0.328484
   9 H :    0.129247
  10 H :    0.146669
  11 H :    0.125480
  12 H :    0.087994
  13 H :    0.117570
  14 H :    0.131156
  15 H :    0.124037
  16 H :    0.127955
  17 H :    0.237763
Sum of atomic charges:   -0.0000000

LOEWDIN ATOMIC CHARGES
----------------------
   0 C :   -0.293820
   1 C :   -0.276695
   2 O :    0.167393
   3 C :   -0.212331
   4 C :   -0.180234
   5 C :   -0.250957
   6 N :    0.121219
   7 C :   -0.431751
   8 O :    0.097201
   9 H :    0.127167
  10 H :    0.131853
  11 H :    0.128064
  12 H :    0.138084
  13 H :    0.141345
  14 H :    0.149032
  15 H :    0.128908
  16 H :    0.131763
  17 H :    0.183759

  Mayer bond orders larger than 0.1
B(  0-C ,  1-C ) :   0.9179 B(  0-C ,  9-H ) :   0.9322 B(  0-C , 10-H ) :   0.9366
B(  0-C , 11-H ) :   0.9288 B(  1-C ,  2-O ) :   0.9336 B(  1-C ,  4-C ) :   0.9181
B(  1-C , 12-H ) :   0.9010 B(  2-O ,  3-C ) :   0.9250 B(  3-C ,  4-C ) :   0.9253
B(  3-C ,  7-C ) :   0.8677 B(  3-C , 13-H ) :   0.9198 B(  4-C ,  5-C ) :   0.9373
B(  4-C , 14-H ) :   0.9187 B(  5-C ,  6-N ) :   0.8981 B(  5-C , 15-H ) :   0.9276
B(  5-C , 16-H ) :   0.9266 B(  6-N ,  7-C ) :   1.1591 B(  6-N , 17-H ) :   0.8667
B(  7-C ,  8-O ) :   2.0141

MP2 TOTAL ENERGY:     -438.390090097 Eh
FINAL SINGLE POINT ENERGY      -438.390090097002

DIPOLE MOMENT
-------------
                                X             Y             Z
Electronic contribution:      6.95533      -4.90401      -1.85426
Nuclear contribution   :     -8.60049       5.05354       3.21472
                        -----------------------------------------
Total Dipole Moment    :     -1.64516       0.14953       1.36046
                        -----------------------------------------
Magnitude (a.u.)       :      2.14004
Magnitude (Debye)      :      5.43955

                             ****ORCA TERMINATED NORMALLY****
TOTAL RUN TIME: 0 days 0 hours 16 minutes 39 seconds 850 msec
