                         Program Version 3.0.3 - RELEASE   -
|  1> ! RI-MP2 RIJK def2-TZVP def2-TZVP/C def2-TZVP/JK TIGHTSCF
|  2> % maxcore 2000
|  3> % mp2 density relaxed end
|  4> *xyz 0 1
|  5>  C        0.0241539746    -1.1847626567    -0.2818631687
|  6>  C        0.0330360808     0.0042036579    -0.1045863810
|  7>  C        0.0363220091     1.4399419177     0.0887806878
|  8>  C       -0.8201150769     2.2254392534    -0.9207405187
|  9>  O       -0.2541531173     3.5250254358    -0.9638735807
| 10>  C        1.1569172189     3.3517354852    -0.9072760931
| 11>  C        1.3867046832     2.2367107300     0.1115053616
| 12>  C        0.9945407177     2.5632552600     1.5638538095
| 13>  O       -0.2484885081     1.8370197376     1.4529945247
| 14>  H        0.0141170884    -2.2367267962    -0.4287278806
| 15>  H       -0.7750506126     1.7347375433    -1.9056136684
| 16>  H       -1.8595693441     2.3070906573    -0.5967015329
| 17>  H        1.5571792101     3.0585017864    -1.8915196324
| 18>  H        1.5998000125     4.3098410664    -0.6211043351
| 19>  H        2.3075031801     1.6745228573    -0.0332939898
| 20>  H        1.6462482454     2.1313440688     2.3320518109
| 21>  H        0.8272221984     3.6249102257     1.7793773169
| 22> *
| 23>
| 24>                          ****END OF INPUT****

CARTESIAN COORDINATES (ANGSTROEM)
---------------------------------
  C      0.024154   -1.184763   -0.281863
  C      0.033036    0.004204   -0.104586
  C      0.036322    1.439942    0.088781
  C     -0.820115    2.225439   -0.920741
  O     -0.254153    3.525025   -0.963874
  C      1.156917    3.351735   -0.907276
  C      1.386705    2.236711    0.111505
  C      0.994541    2.563255    1.563854
  O     -0.248489    1.837020    1.452995
  H      0.014117   -2.236727   -0.428728
  H     -0.775051    1.734738   -1.905614
  H     -1.859569    2.307091   -0.596702
  H      1.557179    3.058502   -1.891520
  H      1.599800    4.309841   -0.621104
  H      2.307503    1.674523   -0.033294
  H      1.646248    2.131344    2.332052
  H      0.827222    3.624910    1.779377

 Total Charge           Charge          ....    0
 Multiplicity           Mult            ....    1
 Number of Electrons    NEL             ....   66
 Basis Dimension        Dim             ....  327

ORBITAL ENERGIES
----------------

  NO   OCC          E(Eh)            E(eV)
   0   2.0000     -20.565241      -559.6087
   1   2.0000     -20.559301      -559.4470
   2   2.0000     -11.319636      -308.0230
   3   2.0000     -11.287868      -307.1585
   4   2.0000     -11.286245      -307.1143
   5   2.0000     -11.284448      -307.0655
   6   2.0000     -11.250740      -306.1482
   7   2.0000     -11.242397      -305.9212
   8   2.0000     -11.237140      -305.7781
   9   2.0000      -1.408543       -38.3284
  10   2.0000      -1.373746       -37.3815
  11   2.0000      -1.074868       -29.2486
  12   2.0000      -1.048649       -28.5352
  13   2.0000      -0.996158       -27.1068
  14   2.0000      -0.927575       -25.2406
  15   2.0000      -0.846254       -23.0277
  16   2.0000      -0.799295       -21.7499
  17   2.0000      -0.738787       -20.1034
  18   2.0000      -0.709011       -19.2932
  19   2.0000      -0.692914       -18.8552
  20   2.0000      -0.660526       -17.9738
  21   2.0000      -0.623292       -16.9606
  22   2.0000      -0.610838       -16.6217
  23   2.0000      -0.599019       -16.3001
  24   2.0000      -0.580968       -15.8089
  25   2.0000      -0.542233       -14.7549
  26   2.0000      -0.501890       -13.6571
  27   2.0000      -0.488072       -13.2811
  28   2.0000      -0.473190       -12.8761
  29   2.0000      -0.438633       -11.9358
  30   2.0000      -0.433171       -11.7872
  31   2.0000      -0.403870       -10.9899
  32   2.0000      -0.385594       -10.4925
  33   0.0000       0.138867         3.7788
  34   0.0000       0.148235         4.0337
  35   0.0000       0.158012         4.2997
  36   0.0000       0.165122         4.4932
  37   0.0000       0.172787         4.7018

MULLIKEN ATOMIC CHARGES
-----------------------
   0 C :   -0.085209
   1 C :   -0.070051
   2 C :    0.039742
   3 C :   -0.034403
   4 O :   -0.320554
   5 C :   -0.064270
   6 C :   -0.107420
   7 C :   -0.040967
   8 O :   -0.320819
   9 H :    0.198094
  10 H :    0.102268
  11 H :    0.132349
  12 H :    0.102997
  13 H :    0.124220
  14 H :    0.140181
  15 H :    0.104836
  16 H :    0.099006
Sum of atomic charges:   -0.0000000

LOEWDIN ATOMIC CHARGES
----------------------
   0 C :   -0.071395
   1 C :   -0.062838
   2 C :   -0.289642
   3 C :   -0.251736
   4 O :    0.159933
   5 C :   -0.287416
   6 C :   -0.179199
   7 C :   -0.241230
   8 O :    0.173636
   9 H :    0.129343
  10 H :    0.130997
  11 H :    0.139609
  12 H :    0.125045
  13 H :    0.132196
  14 H :    0.149586
  15 H :    0.119778
  16 H :    0.123332

  Mayer bond orders larger than 0.1
B(  0-C ,  1-C ) :   2.5807 B(  0-C ,  2-C ) :  -0.1521 B(  0-C ,  9-H ) :   0.8739
B(  1-C ,  2-C ) :   1.2358 B(  2-C ,  3-C ) :   0.9374 B(  2-C ,  6-C ) :   0.8763
B(  2-C ,  8-O ) :   0.9208 B(  3-C ,  4-O ) :   0.9256 B(  3-C , 10-H ) :   0.9140
B(  3-C , 11-H ) :   0.9080 B(  4-O ,  5-C ) :   0.9411 B(  5-C ,  6-C ) :   0.9694
B(  5-C , 12-H ) :   0.9353 B(  5-C , 13-H ) :   0.9121 B(  6-C ,  7-C ) :   0.9647
B(  6-C , 14-H ) :   0.9072 B(  7-C ,  8-O ) :   0.9497 B(  7-C , 15-H ) :   0.9157
B(  7-C , 16-H ) :   0.8994

MP2 TOTAL ENERGY:     -421.060436146 Eh
FINAL SINGLE POINT ENERGY      -421.060436146099

DIPOLE MOMENT
-------------
                                X             Y             Z
Electronic contribution:     -2.22589      -1.93780       0.97173
Nuclear contribution   :      3.09430       1.67947      -1.33701
                        -----------------------------------------
Total Dipole Moment    :      0.86841      -0.25833      -0.36528
                        -----------------------------------------
Magnitude (a.u.)       :      0.97688
Magnitude (Debye)      :      2.48304

                             ****ORCA TERMINATED NORMALLY****
TOTAL RUN TIME: 0 days 0 hours 18 minutes 6 seconds 714 msec
