                         Program Version 3.0.3 - RELEASE   -
|  1> ! RI-MP2 RIJK def2-TZVP def2-TZVP/C def2-TZVP/JK TIGHTSCF
|  2> % maxcore 2000
|  3> % mp2 density relaxed end
|  4> *xyz 0 1
|  5>  C       -0.1843978648     1.4632070346    -0.0389543216
|  6>  C        0.0652198166    -0.0211962490    -0.1414983625
|  7>  O        1.1103062800    -0.5457661265    -0.4275871926
|  8>  O       -1.0641501804    -0.7154744101     0.1357065344
|  9>  C       -0.9393928705    -2.1445607030     0.0770774325
| 10>  C       -2.3080190742    -2.7318587329     0.4057798354
| 11>  C       -2.3514979570    -4.2265105131     0.1663358896
| 12>  O       -2.7195319085    -5.0392470180     0.9727861195
| 13>  H       -0.5189216245     1.7180241797     0.9706657570
| 14>  H        0.7328363232     2.0013636508    -0.2740091344
| 15>  H       -0.9796297442     1.7593069461    -0.7288503032
| 16>  H       -0.6022731243    -2.4382193235    -0.9231611261
| 17>  H       -0.1753033099    -2.4723220201     0.7886933979
| 18>  H       -2.5988826612    -2.5244843167     1.4380968368
| 19>  H       -3.0490000138    -2.2699451187    -0.2619932031
| 20>  H       -2.0183956165    -4.5390370695    -0.8512557795
| 21> *
| 22>
| 23>                          ****END OF INPUT****

CARTESIAN COORDINATES (ANGSTROEM)
---------------------------------
  C     -0.184398    1.463207   -0.038954
  C      0.065220   -0.021196   -0.141498
  O      1.110306   -0.545766   -0.427587
  O     -1.064150   -0.715474    0.135707
  C     -0.939393   -2.144561    0.077077
  C     -2.308019   -2.731859    0.405780
  C     -2.351498   -4.226511    0.166336
  O     -2.719532   -5.039247    0.972786
  H     -0.518922    1.718024    0.970666
  H      0.732836    2.001364   -0.274009
  H     -0.979630    1.759307   -0.728850
  H     -0.602273   -2.438219   -0.923161
  H     -0.175303   -2.472322    0.788693
  H     -2.598883   -2.524484    1.438097
  H     -3.049000   -2.269945   -0.261993
  H     -2.018396   -4.539037   -0.851256

 Total Charge           Charge          ....    0
 Multiplicity           Mult            ....    1
 Number of Electrons    NEL             ....   62
 Basis Dimension        Dim             ....  296

ORBITAL ENERGIES
----------------

  NO   OCC          E(Eh)            E(eV)
   0   2.0000     -20.613694      -560.9271
   1   2.0000     -20.567409      -559.6677
   2   2.0000     -20.552972      -559.2748
   3   2.0000     -11.389890      -309.9347
   4   2.0000     -11.342907      -308.6562
   5   2.0000     -11.309690      -307.7523
   6   2.0000     -11.254396      -306.2477
   7   2.0000     -11.249439      -306.1128
   8   2.0000      -1.471277       -40.0355
   9   2.0000      -1.406295       -38.2672
  10   2.0000      -1.371014       -37.3072
  11   2.0000      -1.086551       -29.5665
  12   2.0000      -1.023155       -27.8415
  13   2.0000      -0.914250       -24.8780
  14   2.0000      -0.811539       -22.0831
  15   2.0000      -0.788936       -21.4680
  16   2.0000      -0.708713       -19.2851
  17   2.0000      -0.701166       -19.0797
  18   2.0000      -0.686051       -18.6684
  19   2.0000      -0.666652       -18.1405
  20   2.0000      -0.631314       -17.1789
  21   2.0000      -0.619666       -16.8620
  22   2.0000      -0.594568       -16.1790
  23   2.0000      -0.576232       -15.6801
  24   2.0000      -0.561199       -15.2710
  25   2.0000      -0.543207       -14.7814
  26   2.0000      -0.521851       -14.2003
  27   2.0000      -0.506597       -13.7852
  28   2.0000      -0.474709       -12.9175
  29   2.0000      -0.462149       -12.5757
  30   2.0000      -0.431052       -11.7295
  31   0.0000       0.119716         3.2576
  32   0.0000       0.128594         3.4992
  33   0.0000       0.148467         4.0400
  34   0.0000       0.160699         4.3729
  35   0.0000       0.168606         4.5880

MULLIKEN ATOMIC CHARGES
-----------------------
   0 C :   -0.393441
   1 C :    0.316382
   2 O :   -0.327385
   3 O :   -0.250277
   4 C :   -0.119522
   5 C :   -0.121909
   6 C :    0.083706
   7 O :   -0.255094
   8 H :    0.152418
   9 H :    0.156433
  10 H :    0.150891
  11 H :    0.128189
  12 H :    0.138078
  13 H :    0.132044
  14 H :    0.132584
  15 H :    0.076905
Sum of atomic charges:    0.0000000

LOEWDIN ATOMIC CHARGES
----------------------
   0 C :   -0.270934
   1 C :   -0.498186
   2 O :    0.123893
   3 O :    0.240464
   4 C :   -0.279020
   5 C :   -0.260921
   6 C :   -0.293662
   7 O :    0.139187
   8 H :    0.140303
   9 H :    0.136975
  10 H :    0.139661
  11 H :    0.131892
  12 H :    0.134069
  13 H :    0.148154
  14 H :    0.156979
  15 H :    0.111144

  Mayer bond orders larger than 0.1
B(  0-C ,  1-C ) :   0.9268 B(  0-C ,  8-H ) :   0.9161 B(  0-C ,  9-H ) :   0.9421
B(  0-C , 10-H ) :   0.9164 B(  1-C ,  2-O ) :   1.9391 B(  1-C ,  3-O ) :   1.0818
B(  3-O ,  4-C ) :   0.8546 B(  4-C ,  5-C ) :   0.9079 B(  4-C , 11-H ) :   0.9349
B(  4-C , 12-H ) :   0.9299 B(  5-C ,  6-C ) :   0.8771 B(  5-C , 13-H ) :   0.9028
B(  5-C , 14-H ) :   0.9057 B(  6-C ,  7-O ) :   1.9944 B(  6-C , 15-H ) :   0.9264

MP2 TOTAL ENERGY:     -420.250730982 Eh
FINAL SINGLE POINT ENERGY      -420.250730981887

DIPOLE MOMENT
-------------
                                X             Y             Z
Electronic contribution:      0.46137      -3.85434       0.54917
Nuclear contribution   :     -0.82967       4.79469      -0.92626
                        -----------------------------------------
Total Dipole Moment    :     -0.36830       0.94036      -0.37709
                        -----------------------------------------
Magnitude (a.u.)       :      1.07801
Magnitude (Debye)      :      2.74009

                             ****ORCA TERMINATED NORMALLY****
TOTAL RUN TIME: 0 days 0 hours 8 minutes 48 seconds 92 msec
