                         Program Version 3.0.3 - RELEASE   -
|  1> ! RI-MP2 RIJK def2-TZVP def2-TZVP/C def2-TZVP/JK TIGHTSCF
|  2> % maxcore 2000
|  3> % mp2 density relaxed end
|  4> *xyz 0 1
|  5>  C       -0.1614994013     1.5339221191     0.0933065801
|  6>  C        0.0257012696     0.0240559102     0.0332107467
|  7>  C        0.8290614111    -0.6076633627    -1.1866610544
|  8>  C        0.5877899418    -0.2043644329    -2.6223694739
|  9>  C        2.1349976193    -0.2146585498    -0.4042087235
| 10>  C        1.2298482307    -0.6051010597     0.8162179810
| 11>  O        1.4631591860    -0.1836949448     2.1231176040
| 12>  C        0.9972944384    -2.0963242670     0.5122397481
| 13>  C        0.7362280011    -2.0934110473    -0.7966315755
| 14>  H        0.7487695244     2.0987018287    -0.1226266539
| 15>  H       -0.9290368783     1.8519769623    -0.6210775387
| 16>  H       -0.4982777385     1.8264070386     1.0931892472
| 17>  H       -0.9287458120    -0.4734405618     0.2305553412
| 18>  H        0.6506659545     0.8810562861    -2.7495900208
| 19>  H        1.3287258408    -0.6598605510    -3.2891330443
| 20>  H       -0.4045182710    -0.5228734902    -2.9622085735
| 21>  H        3.0235300776    -0.8242506362    -0.5878050516
| 22>  H        2.3785691352     0.8493857505    -0.4506650025
| 23>  H        2.2648175592    -0.6106724097     2.4434021370
| 24>  H        1.0175647321    -2.9026748699     1.2328289640
| 25>  H        0.4883960693    -2.9082350726    -1.4641563765
| 26> *
| 27>
| 28>                          ****END OF INPUT****

CARTESIAN COORDINATES (ANGSTROEM)
---------------------------------
  C     -0.161499    1.533922    0.093307
  C      0.025701    0.024056    0.033211
  C      0.829061   -0.607663   -1.186661
  C      0.587790   -0.204364   -2.622369
  C      2.134998   -0.214659   -0.404209
  C      1.229848   -0.605101    0.816218
  O      1.463159   -0.183695    2.123118
  C      0.997294   -2.096324    0.512240
  C      0.736228   -2.093411   -0.796632
  H      0.748770    2.098702   -0.122627
  H     -0.929037    1.851977   -0.621078
  H     -0.498278    1.826407    1.093189
  H     -0.928746   -0.473441    0.230555
  H      0.650666    0.881056   -2.749590
  H      1.328726   -0.659861   -3.289133
  H     -0.404518   -0.522873   -2.962209
  H      3.023530   -0.824251   -0.587805
  H      2.378569    0.849386   -0.450665
  H      2.264818   -0.610672    2.443402
  H      1.017565   -2.902675    1.232829
  H      0.488396   -2.908235   -1.464156

 Total Charge           Charge          ....    0
 Multiplicity           Mult            ....    1
 Number of Electrons    NEL             ....   68
 Basis Dimension        Dim             ....  351

ORBITAL ENERGIES
----------------

  NO   OCC          E(Eh)            E(eV)
   0   2.0000     -20.560461      -559.4786
   1   2.0000     -11.289430      -307.2010
   2   2.0000     -11.243087      -305.9400
   3   2.0000     -11.227616      -305.5190
   4   2.0000     -11.223781      -305.4146
   5   2.0000     -11.221126      -305.3424
   6   2.0000     -11.220254      -305.3186
   7   2.0000     -11.216580      -305.2187
   8   2.0000     -11.208774      -305.0063
   9   2.0000      -1.371371       -37.3169
  10   2.0000      -1.189750       -32.3747
  11   2.0000      -1.015976       -27.6461
  12   2.0000      -0.992127       -26.9972
  13   2.0000      -0.950398       -25.8617
  14   2.0000      -0.862546       -23.4711
  15   2.0000      -0.848305       -23.0836
  16   2.0000      -0.745525       -20.2868
  17   2.0000      -0.714783       -19.4502
  18   2.0000      -0.674876       -18.3643
  19   2.0000      -0.655070       -17.8254
  20   2.0000      -0.630037       -17.1442
  21   2.0000      -0.588467       -16.0130
  22   2.0000      -0.574489       -15.6326
  23   2.0000      -0.570219       -15.5164
  24   2.0000      -0.553691       -15.0667
  25   2.0000      -0.540072       -14.6961
  26   2.0000      -0.535019       -14.5586
  27   2.0000      -0.515802       -14.0357
  28   2.0000      -0.489526       -13.3207
  29   2.0000      -0.461369       -12.5545
  30   2.0000      -0.441578       -12.0159
  31   2.0000      -0.422870       -11.5069
  32   2.0000      -0.399879       -10.8813
  33   2.0000      -0.332250        -9.0410
  34   0.0000       0.133106         3.6220
  35   0.0000       0.141581         3.8526
  36   0.0000       0.148898         4.0517
  37   0.0000       0.171247         4.6599
  38   0.0000       0.181669         4.9435

MULLIKEN ATOMIC CHARGES
-----------------------
   0 C :   -0.436504
   1 C :   -0.020906
   2 C :    0.114491
   3 C :   -0.429286
   4 C :   -0.252940
   5 C :    0.227809
   6 O :   -0.463332
   7 C :   -0.238318
   8 C :   -0.233274
   9 H :    0.123624
  10 H :    0.135044
  11 H :    0.148969
  12 H :    0.098477
  13 H :    0.139721
  14 H :    0.136711
  15 H :    0.135896
  16 H :    0.109338
  17 H :    0.118590
  18 H :    0.320773
  19 H :    0.134382
  20 H :    0.130735
Sum of atomic charges:    0.0000000

LOEWDIN ATOMIC CHARGES
----------------------
   0 C :   -0.291012
   1 C :   -0.157198
   2 C :   -0.216504
   3 C :   -0.275406
   4 C :   -0.153570
   5 C :   -0.320620
   6 O :    0.020168
   7 C :   -0.121632
   8 C :   -0.110305
   9 H :    0.122549
  10 H :    0.126082
  11 H :    0.132477
  12 H :    0.148743
  13 H :    0.128267
  14 H :    0.129438
  15 H :    0.129319
  16 H :    0.126914
  17 H :    0.131423
  18 H :    0.181991
  19 H :    0.133842
  20 H :    0.135034

  Mayer bond orders larger than 0.1
B(  0-C ,  1-C ) :   0.9171 B(  0-C ,  9-H ) :   0.9304 B(  0-C , 10-H ) :   0.9401
B(  0-C , 11-H ) :   0.9358 B(  1-C ,  2-C ) :   0.8515 B(  1-C ,  5-C ) :   0.8977
B(  1-C , 12-H ) :   0.9163 B(  2-C ,  3-C ) :   0.8225 B(  2-C ,  4-C ) :   0.9028
B(  2-C ,  8-C ) :   0.9200 B(  3-C , 13-H ) :   0.9509 B(  3-C , 14-H ) :   0.9438
B(  3-C , 15-H ) :   0.9436 B(  4-C ,  5-C ) :   0.9085 B(  4-C , 16-H ) :   0.9045
B(  4-C , 17-H ) :   0.9179 B(  5-C ,  6-O ) :   1.0090 B(  5-C ,  7-C ) :   0.9444
B(  6-O , 18-H ) :   0.8380 B(  7-C ,  8-C ) :   1.7217 B(  7-C , 19-H ) :   0.9315
B(  8-C , 20-H ) :   0.9302

MP2 TOTAL ENERGY:     -386.391541104 Eh
FINAL SINGLE POINT ENERGY      -386.391541104387

DIPOLE MOMENT
-------------
                                X             Y             Z
Electronic contribution:      1.62261      -3.93873       5.03029
Nuclear contribution   :     -1.31996       3.73202      -5.31220
                        -----------------------------------------
Total Dipole Moment    :      0.30264      -0.20672      -0.28191
                        -----------------------------------------
Magnitude (a.u.)       :      0.46238
Magnitude (Debye)      :      1.17528

                             ****ORCA TERMINATED NORMALLY****
TOTAL RUN TIME: 0 days 0 hours 19 minutes 40 seconds 505 msec
