                         Program Version 3.0.3 - RELEASE   -
|  1> ! RI-MP2 RIJK def2-TZVP def2-TZVP/C def2-TZVP/JK TIGHTSCF
|  2> % maxcore 2000
|  3> % mp2 density relaxed end
|  4> *xyz 0 1
|  5>  C       -0.0357781869     1.4842252822     0.0127735632
|  6>  C        0.0063703388     0.0310885762     0.0059229301
|  7>  C        0.0502633586    -1.1710623020     0.0090901756
|  8>  C        0.0572759069    -2.6424964694    -0.0044189003
|  9>  O       -1.2508734894    -3.1820224226     0.1681270785
| 10>  C        0.6773845353    -3.1332851235    -1.2508612401
| 11>  C        1.1410301433    -3.5344335768    -2.2825194906
| 12>  C        0.8443917599    -3.1403010062     1.1553666482
| 13>  N        1.4762857656    -3.5100354277     2.0472092369
| 14>  H        0.7180475890     1.8902702155     0.6952756488
| 15>  H        0.1582953286     1.8902089231    -0.9853629437
| 16>  H       -1.0153028520     1.8466209355     0.3417030541
| 17>  H       -1.7914314418    -2.8298318809    -0.5499366336
| 18>  H        1.5608051740    -3.8924413533    -3.1908352270
| 19> *
| 20>
| 21>                          ****END OF INPUT****

CARTESIAN COORDINATES (ANGSTROEM)
---------------------------------
  C     -0.035778    1.484225    0.012774
  C      0.006370    0.031089    0.005923
  C      0.050263   -1.171062    0.009090
  C      0.057276   -2.642496   -0.004419
  O     -1.250873   -3.182022    0.168127
  C      0.677385   -3.133285   -1.250861
  C      1.141030   -3.534434   -2.282519
  C      0.844392   -3.140301    1.155367
  N      1.476286   -3.510035    2.047209
  H      0.718048    1.890270    0.695276
  H      0.158295    1.890209   -0.985363
  H     -1.015303    1.846621    0.341703
  H     -1.791431   -2.829832   -0.549937
  H      1.560805   -3.892441   -3.190835

 Total Charge           Charge          ....    0
 Multiplicity           Mult            ....    1
 Number of Electrons    NEL             ....   62
 Basis Dimension        Dim             ....  309

ORBITAL ENERGIES
----------------

  NO   OCC          E(Eh)            E(eV)
   0   2.0000     -20.605814      -560.7127
   1   2.0000     -15.583996      -424.0621
   2   2.0000     -11.410537      -310.4965
   3   2.0000     -11.285382      -307.0909
   4   2.0000     -11.268367      -306.6279
   5   2.0000     -11.266788      -306.5849
   6   2.0000     -11.266399      -306.5743
   7   2.0000     -11.261438      -306.4393
   8   2.0000     -11.251332      -306.1643
   9   2.0000      -1.419504       -38.6267
  10   2.0000      -1.228853       -33.4388
  11   2.0000      -1.122356       -30.5409
  12   2.0000      -1.074673       -29.2433
  13   2.0000      -1.023803       -27.8591
  14   2.0000      -0.965622       -26.2759
  15   2.0000      -0.808608       -22.0033
  16   2.0000      -0.779995       -21.2247
  17   2.0000      -0.723477       -19.6868
  18   2.0000      -0.719300       -19.5732
  19   2.0000      -0.654935       -17.8217
  20   2.0000      -0.612773       -16.6744
  21   2.0000      -0.609467       -16.5844
  22   2.0000      -0.603442       -16.4205
  23   2.0000      -0.566558       -15.4168
  24   2.0000      -0.535601       -14.5744
  25   2.0000      -0.484344       -13.1797
  26   2.0000      -0.481573       -13.1043
  27   2.0000      -0.438758       -11.9392
  28   2.0000      -0.427170       -11.6239
  29   2.0000      -0.408786       -11.1236
  30   2.0000      -0.400494       -10.8980
  31   0.0000       0.099097         2.6966
  32   0.0000       0.121699         3.3116
  33   0.0000       0.141925         3.8620
  34   0.0000       0.144955         3.9444
  35   0.0000       0.151141         4.1128

MULLIKEN ATOMIC CHARGES
-----------------------
   0 C :   -0.485938
   1 C :    0.109744
   2 C :   -0.091934
   3 C :    0.139553
   4 O :   -0.421727
   5 C :   -0.051101
   6 C :   -0.105929
   7 C :   -0.101060
   8 N :   -0.048245
   9 H :    0.175578
  10 H :    0.170706
  11 H :    0.171246
  12 H :    0.332837
  13 H :    0.206271
Sum of atomic charges:    0.0000000

LOEWDIN ATOMIC CHARGES
----------------------
   0 C :   -0.282977
   1 C :   -0.059764
   2 C :   -0.022225
   3 C :   -0.358536
   4 O :    0.056873
   5 C :   -0.041645
   6 C :   -0.046347
   7 C :   -0.103170
   8 N :    0.093304
   9 H :    0.148061
  10 H :    0.145362
  11 H :    0.146375
  12 H :    0.191007
  13 H :    0.133681

  Mayer bond orders larger than 0.1
B(  0-C ,  1-C ) :   0.8406 B(  0-C ,  9-H ) :   0.9446 B(  0-C , 10-H ) :   0.9470
B(  0-C , 11-H ) :   0.9422 B(  1-C ,  2-C ) :   2.6106 B(  1-C ,  3-C ) :  -0.1175
B(  2-C ,  3-C ) :   1.1902 B(  3-C ,  4-O ) :   0.9561 B(  3-C ,  5-C ) :   1.2347
B(  3-C ,  6-C ) :  -0.1006 B(  3-C ,  7-C ) :   0.8293 B(  4-O , 12-H ) :   0.8307
B(  5-C ,  6-C ) :   2.5518 B(  6-C , 13-H ) :   0.8838 B(  7-C ,  8-N ) :   2.8405

MP2 TOTAL ENERGY:     -398.769012672 Eh
FINAL SINGLE POINT ENERGY      -398.769012671979

DIPOLE MOMENT
-------------
                                X             Y             Z
Electronic contribution:      1.10565      -7.34020       1.85289
Nuclear contribution   :     -1.67070       8.65836      -3.42220
                        -----------------------------------------
Total Dipole Moment    :     -0.56506       1.31816      -1.56930
                        -----------------------------------------
Magnitude (a.u.)       :      2.12592
Magnitude (Debye)      :      5.40367

                             ****ORCA TERMINATED NORMALLY****
TOTAL RUN TIME: 0 days 0 hours 11 minutes 53 seconds 769 msec
