                         Program Version 3.0.3 - RELEASE   -
|  1> ! RI-MP2 RIJK def2-TZVP def2-TZVP/C def2-TZVP/JK TIGHTSCF
|  2> % maxcore 2000
|  3> % mp2 density relaxed end
|  4> *xyz 0 1
|  5>  C        0.7866121207     1.2749237603    -0.0377947293
|  6>  O        0.9813525927    -0.0678892878    -0.5208545370
|  7>  C       -0.0344733092    -0.5888083225    -1.2079153090
|  8>  O       -1.0793942152    -0.0620488366    -1.4618625521
|  9>  C        0.3047425335    -2.0231400995    -1.6637591976
| 10>  O       -0.4746112045    -2.6763710085    -2.2987475171
| 11>  C        1.6248075382    -2.5466428076    -1.2826074278
| 12>  N        2.6547654803    -2.9894245869    -0.9998887817
| 13>  H        0.6169376812     1.9530269896    -0.8770233690
| 14>  H       -0.0749837821     1.3096477697     0.6325471191
| 15>  H        1.7023988843     1.5319248898     0.4914766014
| 16> *
| 17>
| 18>                          ****END OF INPUT****

CARTESIAN COORDINATES (ANGSTROEM)
---------------------------------
  C      0.786612    1.274924   -0.037795
  O      0.981353   -0.067889   -0.520855
  C     -0.034473   -0.588808   -1.207915
  O     -1.079394   -0.062049   -1.461863
  C      0.304743   -2.023140   -1.663759
  O     -0.474611   -2.676371   -2.298748
  C      1.624808   -2.546643   -1.282607
  N      2.654765   -2.989425   -0.999889
  H      0.616938    1.953027   -0.877023
  H     -0.074984    1.309648    0.632547
  H      1.702399    1.531925    0.491477

 Total Charge           Charge          ....    0
 Multiplicity           Mult            ....    1
 Number of Electrons    NEL             ....   58
 Basis Dimension        Dim             ....  266

ORBITAL ENERGIES
----------------

  NO   OCC          E(Eh)            E(eV)
   0   2.0000     -20.651408      -561.9534
   1   2.0000     -20.637243      -561.5679
   2   2.0000     -20.595838      -560.4413
   3   2.0000     -15.624565      -425.1660
   4   2.0000     -11.432866      -311.1041
   5   2.0000     -11.424728      -310.8826
   6   2.0000     -11.319327      -308.0146
   7   2.0000     -11.313122      -307.8457
   8   2.0000      -1.514776       -41.2192
   9   2.0000      -1.472153       -40.0593
  10   2.0000      -1.411739       -38.4154
  11   2.0000      -1.258934       -34.2573
  12   2.0000      -1.057504       -28.7762
  13   2.0000      -0.969200       -26.3733
  14   2.0000      -0.857975       -23.3467
  15   2.0000      -0.797358       -21.6972
  16   2.0000      -0.736808       -20.0496
  17   2.0000      -0.717463       -19.5232
  18   2.0000      -0.711154       -19.3515
  19   2.0000      -0.648084       -17.6353
  20   2.0000      -0.628238       -17.0952
  21   2.0000      -0.609342       -16.5810
  22   2.0000      -0.576132       -15.6773
  23   2.0000      -0.575481       -15.6596
  24   2.0000      -0.553106       -15.0508
  25   2.0000      -0.509168       -13.8552
  26   2.0000      -0.508374       -13.8336
  27   2.0000      -0.497148       -13.5281
  28   2.0000      -0.486169       -13.2293
  29   0.0000       0.010548         0.2870
  30   0.0000       0.126291         3.4365
  31   0.0000       0.152655         4.1540
  32   0.0000       0.156094         4.2475
  33   0.0000       0.158497         4.3129

MULLIKEN ATOMIC CHARGES
-----------------------
   0 C :   -0.235023
   1 O :   -0.224492
   2 C :    0.306153
   3 O :   -0.268561
   4 C :    0.285942
   5 O :   -0.181517
   6 C :   -0.115515
   7 N :   -0.035173
   8 H :    0.153278
   9 H :    0.153286
  10 H :    0.161622
Sum of atomic charges:   -0.0000000

LOEWDIN ATOMIC CHARGES
----------------------
   0 C :   -0.284332
   1 O :    0.260366
   2 C :   -0.470827
   3 O :    0.178330
   4 C :   -0.278272
   5 O :    0.255772
   6 C :   -0.136848
   7 N :    0.114526
   8 H :    0.119910
   9 H :    0.119912
  10 H :    0.121463

  Mayer bond orders larger than 0.1
B(  0-C ,  1-O ) :   0.8168 B(  0-C ,  8-H ) :   0.9353 B(  0-C ,  9-H ) :   0.9353
B(  0-C , 10-H ) :   0.9316 B(  1-O ,  2-C ) :   1.1509 B(  2-C ,  3-O ) :   1.9434
B(  2-C ,  4-C ) :   0.8899 B(  4-C ,  5-O ) :   1.9963 B(  4-C ,  6-C ) :   0.8675
B(  6-C ,  7-N ) :   2.7609

MP2 TOTAL ENERGY:     -433.879218671 Eh
FINAL SINGLE POINT ENERGY      -433.879218671307

DIPOLE MOMENT
-------------
                                X             Y             Z
Electronic contribution:     -0.41209      -6.42078      -2.92472
Nuclear contribution   :      0.52858       7.69760       3.52217
                        -----------------------------------------
Total Dipole Moment    :      0.11649       1.27682       0.59745
                        -----------------------------------------
Magnitude (a.u.)       :      1.41449
Magnitude (Debye)      :      3.59536

                             ****ORCA TERMINATED NORMALLY****
TOTAL RUN TIME: 0 days 0 hours 7 minutes 53 seconds 437 msec
