                         Program Version 3.0.3 - RELEASE   -
|  1> ! RI-MP2 RIJK def2-TZVP def2-TZVP/C def2-TZVP/JK TIGHTSCF
|  2> % maxcore 2000
|  3> % mp2 density relaxed end
|  4> *xyz 0 1
|  5>  C        0.0613019826     1.4313772517    -0.0530551069
|  6>  N        0.0839450645    -0.0123248640    -0.0050905523
|  7>  N        0.2067069388    -0.7780119361    -1.1209549762
|  8>  N        0.1963958519    -2.0014691478    -0.7758802957
|  9>  N        0.0661719053    -2.0488745903     0.5755028284
| 10>  C       -0.0126686722    -0.7885063872     1.1428003013
| 11>  O       -0.1311310340    -0.4464626927     2.2982507188
| 12>  H        0.9911816391     1.8170089054    -0.4782065397
| 13>  H       -0.7844707362     1.7836159743    -0.6486803744
| 14>  H       -0.0441250519     1.7755651888     0.9772084731
| 15>  H        0.0365931221    -2.9329885621     1.0539227636
| 16> *
| 17>
| 18>                          ****END OF INPUT****

CARTESIAN COORDINATES (ANGSTROEM)
---------------------------------
  C      0.061302    1.431377   -0.053055
  N      0.083945   -0.012325   -0.005091
  N      0.206707   -0.778012   -1.120955
  N      0.196396   -2.001469   -0.775880
  N      0.066172   -2.048875    0.575503
  C     -0.012669   -0.788506    1.142800
  O     -0.131131   -0.446463    2.298251
  H      0.991182    1.817009   -0.478207
  H     -0.784471    1.783616   -0.648680
  H     -0.044125    1.775565    0.977208
  H      0.036593   -2.932989    1.053923

 Total Charge           Charge          ....    0
 Multiplicity           Mult            ....    1
 Number of Electrons    NEL             ....   52
 Basis Dimension        Dim             ....  241

ORBITAL ENERGIES
----------------

  NO   OCC          E(Eh)            E(eV)
   0   2.0000     -20.535478      -558.7988
   1   2.0000     -15.682690      -426.7477
   2   2.0000     -15.680564      -426.6898
   3   2.0000     -15.657285      -426.0564
   4   2.0000     -15.656744      -426.0417
   5   2.0000     -11.403585      -310.3073
   6   2.0000     -11.287636      -307.1522
   7   2.0000      -1.512593       -41.1598
   8   2.0000      -1.394336       -37.9418
   9   2.0000      -1.286256       -35.0008
  10   2.0000      -1.201438       -32.6928
  11   2.0000      -1.013225       -27.5712
  12   2.0000      -0.924912       -25.1681
  13   2.0000      -0.857271       -23.3275
  14   2.0000      -0.774511       -21.0755
  15   2.0000      -0.717308       -19.5190
  16   2.0000      -0.677029       -18.4229
  17   2.0000      -0.652150       -17.7459
  18   2.0000      -0.615013       -16.7354
  19   2.0000      -0.591444       -16.0940
  20   2.0000      -0.572713       -15.5843
  21   2.0000      -0.550402       -14.9772
  22   2.0000      -0.531498       -14.4628
  23   2.0000      -0.477753       -13.0003
  24   2.0000      -0.444598       -12.0981
  25   2.0000      -0.376796       -10.2531
  26   0.0000       0.121019         3.2931
  27   0.0000       0.133506         3.6329
  28   0.0000       0.144599         3.9347
  29   0.0000       0.198736         5.4079
  30   0.0000       0.200883         5.4663

MULLIKEN ATOMIC CHARGES
-----------------------
   0 C :   -0.310769
   1 N :    0.027052
   2 N :   -0.121376
   3 N :   -0.079969
   4 N :   -0.166097
   5 C :    0.249832
   6 O :   -0.375413
   7 H :    0.158214
   8 H :    0.158183
   9 H :    0.182686
  10 H :    0.277656
Sum of atomic charges:   -0.0000000

LOEWDIN ATOMIC CHARGES
----------------------
   0 C :   -0.272947
   1 N :    0.135391
   2 N :   -0.024949
   3 N :   -0.045095
   4 N :    0.095070
   5 C :   -0.536593
   6 O :    0.058723
   7 H :    0.127632
   8 H :    0.127620
   9 H :    0.141263
  10 H :    0.193884

  Mayer bond orders larger than 0.1
B(  0-C ,  1-N ) :   0.8557 B(  0-C ,  7-H ) :   0.9298 B(  0-C ,  8-H ) :   0.9299
B(  0-C ,  9-H ) :   0.9189 B(  1-N ,  2-N ) :   0.9501 B(  1-N ,  5-C ) :   1.0832
B(  2-N ,  3-N ) :   1.4441 B(  3-N ,  4-N ) :   0.9913 B(  4-N ,  5-C ) :   1.0857
B(  4-N , 10-H ) :   0.8619 B(  5-C ,  6-O ) :   1.9492

MP2 TOTAL ENERGY:     -372.162079646 Eh
FINAL SINGLE POINT ENERGY      -372.162079645628

DIPOLE MOMENT
-------------
                                X             Y             Z
Electronic contribution:      0.06531      -4.52171       0.20830
Nuclear contribution   :     -0.05572       4.71108      -0.34387
                        -----------------------------------------
Total Dipole Moment    :      0.00959       0.18937      -0.13557
                        -----------------------------------------
Magnitude (a.u.)       :      0.23309
Magnitude (Debye)      :      0.59247

                             ****ORCA TERMINATED NORMALLY****
TOTAL RUN TIME: 0 days 0 hours 6 minutes 24 seconds 118 msec
