                         Program Version 3.0.3 - RELEASE   -
|  1> ! RI-MP2 RIJK def2-TZVP def2-TZVP/C def2-TZVP/JK TIGHTSCF
|  2> % maxcore 2000
|  3> % mp2 density relaxed end
|  4> *xyz 0 1
|  5>  C       -0.0700391452     1.5835813609     0.0764454344
|  6>  C        1.4897602244     1.3542783812     0.0184475493
|  7>  C        1.3501326460     0.0950998953     0.9007330679
|  8>  C        2.1373763446    -1.0846859615     0.3772105216
|  9>  C        1.8718237256    -1.0421021431    -0.9512998860
| 10>  C        0.7456485144    -1.9865204277    -1.3905441250
| 11>  C       -0.5048592740    -1.2614191601    -0.6464776637
| 12>  C        0.1109805509     0.0624045341    -0.1593321477
| 13>  C        1.2769129099     0.3524325066    -1.1438355097
| 14>  H       -0.4820177105     1.9053419149     1.0381152327
| 15>  H       -0.5072095855     2.1594337136    -0.7449123786
| 16>  H        2.2630284029     2.1221199520     0.1052207365
| 17>  H        1.1688634155     0.2039392932     1.9720968252
| 18>  H        2.2713479729    -1.9958802462     0.9524613752
| 19>  H        0.5715449873    -2.0093797282    -2.4703610680
| 20>  H        0.8797576606    -3.0112711459    -1.0379245428
| 21>  H       -1.2958596827    -1.0657920267    -1.3763964782
| 22>  H       -0.9236972663    -1.8858643203     0.1477986920
| 23>  H        1.0330560591     0.7061477981    -2.1476661450
| 24> *
| 25>
| 26>                          ****END OF INPUT****

CARTESIAN COORDINATES (ANGSTROEM)
---------------------------------
  C     -0.070039    1.583581    0.076445
  C      1.489760    1.354278    0.018448
  C      1.350133    0.095100    0.900733
  C      2.137376   -1.084686    0.377211
  C      1.871824   -1.042102   -0.951300
  C      0.745649   -1.986520   -1.390544
  C     -0.504859   -1.261419   -0.646478
  C      0.110981    0.062405   -0.159332
  C      1.276913    0.352433   -1.143836
  H     -0.482018    1.905342    1.038115
  H     -0.507210    2.159434   -0.744912
  H      2.263028    2.122120    0.105221
  H      1.168863    0.203939    1.972097
  H      2.271348   -1.995880    0.952461
  H      0.571545   -2.009380   -2.470361
  H      0.879758   -3.011271   -1.037925
  H     -1.295860   -1.065792   -1.376396
  H     -0.923697   -1.885864    0.147799
  H      1.033056    0.706148   -2.147666

 Total Charge           Charge          ....    0
 Multiplicity           Mult            ....    1
 Number of Electrons    NEL             ....   64
 Basis Dimension        Dim             ....  339

ORBITAL ENERGIES
----------------

  NO   OCC          E(Eh)            E(eV)
   0   2.0000     -11.250677      -306.1465
   1   2.0000     -11.245760      -306.0127
   2   2.0000     -11.244165      -305.9693
   3   2.0000     -11.243102      -305.9403
   4   2.0000     -11.237343      -305.7837
   5   2.0000     -11.236122      -305.7504
   6   2.0000     -11.228512      -305.5433
   7   2.0000     -11.221379      -305.3493
   8   2.0000     -11.220106      -305.3146
   9   2.0000      -1.244185       -33.8560
  10   2.0000      -1.081533       -29.4300
  11   2.0000      -1.009111       -27.4593
  12   2.0000      -0.921121       -25.0650
  13   2.0000      -0.891849       -24.2685
  14   2.0000      -0.858265       -23.3546
  15   2.0000      -0.793868       -21.6022
  16   2.0000      -0.718728       -19.5576
  17   2.0000      -0.711691       -19.3661
  18   2.0000      -0.652798       -17.7635
  19   2.0000      -0.622869       -16.9491
  20   2.0000      -0.610919       -16.6240
  21   2.0000      -0.571734       -15.5577
  22   2.0000      -0.564567       -15.3627
  23   2.0000      -0.528323       -14.3764
  24   2.0000      -0.502770       -13.6811
  25   2.0000      -0.473616       -12.8877
  26   2.0000      -0.462148       -12.5757
  27   2.0000      -0.453007       -12.3269
  28   2.0000      -0.442538       -12.0421
  29   2.0000      -0.427009       -11.6195
  30   2.0000      -0.402886       -10.9631
  31   2.0000      -0.287699        -7.8287
  32   0.0000       0.094296         2.5659
  33   0.0000       0.140392         3.8203
  34   0.0000       0.162008         4.4085
  35   0.0000       0.167111         4.5473
  36   0.0000       0.171516         4.6672

MULLIKEN ATOMIC CHARGES
-----------------------
   0 C :   -0.184890
   1 C :   -0.113567
   2 C :   -0.099134
   3 C :   -0.194419
   4 C :    0.065739
   5 C :   -0.278381
   6 C :   -0.237876
   7 C :   -0.013349
   8 C :   -0.146094
   9 H :    0.116263
  10 H :    0.115360
  11 H :    0.127284
  12 H :    0.118049
  13 H :    0.123943
  14 H :    0.119209
  15 H :    0.125255
  16 H :    0.126075
  17 H :    0.121803
  18 H :    0.108730
Sum of atomic charges:    0.0000000

LOEWDIN ATOMIC CHARGES
----------------------
   0 C :   -0.176472
   1 C :   -0.137460
   2 C :   -0.126683
   3 C :   -0.098600
   4 C :   -0.144812
   5 C :   -0.199550
   6 C :   -0.199241
   7 C :   -0.134739
   8 C :   -0.120965
   9 H :    0.127041
  10 H :    0.128818
  11 H :    0.124851
  12 H :    0.138843
  13 H :    0.135692
  14 H :    0.131399
  15 H :    0.136383
  16 H :    0.140799
  17 H :    0.131629
  18 H :    0.143067

  Mayer bond orders larger than 0.1
B(  0-C ,  1-C ) :   0.9118 B(  0-C ,  7-C ) :   0.8737 B(  0-C ,  9-H ) :   0.9274
B(  0-C , 10-H ) :   0.9231 B(  1-C ,  2-C ) :   0.8715 B(  1-C ,  8-C ) :   0.8726
B(  1-C , 11-H ) :   0.8844 B(  2-C ,  3-C ) :   0.9625 B(  2-C ,  7-C ) :   0.8424
B(  2-C , 12-H ) :   0.9110 B(  3-C ,  4-C ) :   1.6303 B(  3-C , 13-H ) :   0.9293
B(  4-C ,  5-C ) :   0.9221 B(  4-C ,  8-C ) :   0.9099 B(  5-C ,  6-C ) :   0.9340
B(  5-C , 14-H ) :   0.9177 B(  5-C , 15-H ) :   0.9245 B(  6-C ,  7-C ) :   0.9145
B(  6-C , 16-H ) :   0.9175 B(  6-C , 17-H ) :   0.9183 B(  7-C ,  8-C ) :   0.8463
B(  8-C , 18-H ) :   0.9281

MP2 TOTAL ENERGY:     -347.985146716 Eh
FINAL SINGLE POINT ENERGY      -347.985146716276

DIPOLE MOMENT
-------------
                                X             Y             Z
Electronic contribution:      3.15351       0.63036       0.40157
Nuclear contribution   :     -3.74423      -0.62660      -0.27343
                        -----------------------------------------
Total Dipole Moment    :     -0.59072       0.00376       0.12814
                        -----------------------------------------
Magnitude (a.u.)       :      0.60447
Magnitude (Debye)      :      1.53645

                             ****ORCA TERMINATED NORMALLY****
TOTAL RUN TIME: 0 days 0 hours 23 minutes 49 seconds 889 msec
