                         Program Version 3.0.3 - RELEASE   -
|  1> ! RI-MP2 RIJK def2-TZVP def2-TZVP/C def2-TZVP/JK TIGHTSCF
|  2> % maxcore 2000
|  3> % mp2 density relaxed end
|  4> *xyz 0 1
|  5>  C       -0.0055109461     1.5153095531    -0.1082270888
|  6>  C       -0.0178026585    -0.0131266806    -0.0290282794
|  7>  C       -1.4261573670    -0.5876103682     0.1341883634
|  8>  O       -2.2512193772    -0.1697097020    -0.9848466475
|  9>  C       -3.0265062489    -1.2762275569    -1.3904613892
| 10>  C       -2.8104411225    -2.0637374738    -2.7387249862
| 11>  C       -2.7598726311    -3.3919927241    -1.8878534159
| 12>  C       -2.4407002514    -2.4767203713    -0.7256518392
| 13>  C       -1.4671816070    -2.1129314787     0.0988135790
| 14>  H        1.0120881380     1.8942209817    -0.2429905156
| 15>  H       -0.6159053070     1.8589202784    -0.9470659107
| 16>  H       -0.4113398154     1.9616853934     0.8065539523
| 17>  H        0.4283203565    -0.4428051608    -0.9340972166
| 18>  H        0.5897595853    -0.3532294279     0.8196759242
| 19>  H       -1.8681962495    -0.1754481410     1.0583687871
| 20>  H       -4.0959419742    -1.0853286499    -1.2201143184
| 21>  H       -3.5930759641    -1.9863512547    -3.4970500576
| 22>  H       -1.8354825793    -1.8302996855    -3.1700309799
| 23>  H       -3.7465941351    -3.8605591083    -1.8233285422
| 24>  H       -2.0210691777    -4.1500431884    -2.1526779895
| 25>  H       -0.7049926879    -2.7257531143     0.5639707007
| 26> *
| 27>
| 28>                          ****END OF INPUT****

CARTESIAN COORDINATES (ANGSTROEM)
---------------------------------
  C     -0.005511    1.515310   -0.108227
  C     -0.017803   -0.013127   -0.029028
  C     -1.426157   -0.587610    0.134188
  O     -2.251219   -0.169710   -0.984847
  C     -3.026506   -1.276228   -1.390461
  C     -2.810441   -2.063737   -2.738725
  C     -2.759873   -3.391993   -1.887853
  C     -2.440700   -2.476720   -0.725652
  C     -1.467182   -2.112931    0.098814
  H      1.012088    1.894221   -0.242991
  H     -0.615905    1.858920   -0.947066
  H     -0.411340    1.961685    0.806554
  H      0.428320   -0.442805   -0.934097
  H      0.589760   -0.353229    0.819676
  H     -1.868196   -0.175448    1.058369
  H     -4.095942   -1.085329   -1.220114
  H     -3.593076   -1.986351   -3.497050
  H     -1.835483   -1.830300   -3.170031
  H     -3.746594   -3.860559   -1.823329
  H     -2.021069   -4.150043   -2.152678
  H     -0.704993   -2.725753    0.563971

 Total Charge           Charge          ....    0
 Multiplicity           Mult            ....    1
 Number of Electrons    NEL             ....   68
 Basis Dimension        Dim             ....  351

ORBITAL ENERGIES
----------------

  NO   OCC          E(Eh)            E(eV)
   0   2.0000     -20.546887      -559.1092
   1   2.0000     -11.280430      -306.9561
   2   2.0000     -11.274078      -306.7833
   3   2.0000     -11.243706      -305.9568
   4   2.0000     -11.234111      -305.6957
   5   2.0000     -11.232432      -305.6500
   6   2.0000     -11.224382      -305.4310
   7   2.0000     -11.218160      -305.2617
   8   2.0000     -11.205901      -304.9281
   9   2.0000      -1.372237       -37.3405
  10   2.0000      -1.139568       -31.0092
  11   2.0000      -1.063380       -28.9360
  12   2.0000      -1.005436       -27.3593
  13   2.0000      -0.913858       -24.8673
  14   2.0000      -0.880508       -23.9598
  15   2.0000      -0.823487       -22.4082
  16   2.0000      -0.779255       -21.2046
  17   2.0000      -0.735858       -20.0237
  18   2.0000      -0.666136       -18.1265
  19   2.0000      -0.651487       -17.7279
  20   2.0000      -0.640478       -17.4283
  21   2.0000      -0.600906       -16.3515
  22   2.0000      -0.585953       -15.9446
  23   2.0000      -0.555531       -15.1168
  24   2.0000      -0.536800       -14.6071
  25   2.0000      -0.522136       -14.2080
  26   2.0000      -0.512298       -13.9403
  27   2.0000      -0.506680       -13.7875
  28   2.0000      -0.482368       -13.1259
  29   2.0000      -0.476826       -12.9751
  30   2.0000      -0.460389       -12.5278
  31   2.0000      -0.443969       -12.0810
  32   2.0000      -0.413228       -11.2445
  33   2.0000      -0.337600        -9.1866
  34   0.0000       0.137299         3.7361
  35   0.0000       0.145041         3.9468
  36   0.0000       0.150757         4.1023
  37   0.0000       0.167134         4.5479
  38   0.0000       0.174551         4.7498

MULLIKEN ATOMIC CHARGES
-----------------------
   0 C :   -0.390271
   1 C :   -0.210478
   2 C :    0.154309
   3 O :   -0.327158
   4 C :    0.078726
   5 C :   -0.213807
   6 C :   -0.196528
   7 C :   -0.013620
   8 C :   -0.291848
   9 H :    0.129837
  10 H :    0.144849
  11 H :    0.117193
  12 H :    0.110247
  13 H :    0.101493
  14 H :    0.089718
  15 H :    0.086925
  16 H :    0.121167
  17 H :    0.117786
  18 H :    0.130274
  19 H :    0.127068
  20 H :    0.134118
Sum of atomic charges:    0.0000000

LOEWDIN ATOMIC CHARGES
----------------------
   0 C :   -0.318225
   1 C :   -0.274904
   2 C :   -0.267797
   3 O :    0.185984
   4 C :   -0.253414
   5 C :   -0.195952
   6 C :   -0.195176
   7 C :   -0.155460
   8 C :   -0.122962
   9 H :    0.119620
  10 H :    0.126337
  11 H :    0.120334
  12 H :    0.138257
  13 H :    0.138421
  14 H :    0.140352
  15 H :    0.139585
  16 H :    0.123092
  17 H :    0.138113
  18 H :    0.141163
  19 H :    0.131539
  20 H :    0.141092

  Mayer bond orders larger than 0.1
B(  0-C ,  1-C ) :   0.9241 B(  0-C ,  9-H ) :   0.9405 B(  0-C , 10-H ) :   0.9363
B(  0-C , 11-H ) :   0.9362 B(  1-C ,  2-C ) :   0.9187 B(  1-C , 12-H ) :   0.9295
B(  1-C , 13-H ) :   0.9317 B(  2-C ,  3-O ) :   0.8809 B(  2-C ,  8-C ) :   0.9168
B(  2-C , 14-H ) :   0.9045 B(  3-O ,  4-C ) :   1.0085 B(  4-C ,  5-C ) :   0.8610
B(  4-C ,  7-C ) :   0.9473 B(  4-C , 15-H ) :   0.9347 B(  5-C ,  6-C ) :   0.9148
B(  5-C , 16-H ) :   0.9199 B(  5-C , 17-H ) :   0.9141 B(  6-C ,  7-C ) :   0.9094
B(  6-C , 18-H ) :   0.9206 B(  6-C , 19-H ) :   0.9157 B(  7-C ,  8-C ) :   1.8053
B(  8-C , 20-H ) :   0.9176

MP2 TOTAL ENERGY:     -386.382989726 Eh
FINAL SINGLE POINT ENERGY      -386.382989726486

DIPOLE MOMENT
-------------
                                X             Y             Z
Electronic contribution:     -4.05788      -2.89581       0.40077
Nuclear contribution   :      4.17373       2.36644      -0.42921
                        -----------------------------------------
Total Dipole Moment    :      0.11585      -0.52938      -0.02844
                        -----------------------------------------
Magnitude (a.u.)       :      0.54265
Magnitude (Debye)      :      1.37931

                             ****ORCA TERMINATED NORMALLY****
TOTAL RUN TIME: 0 days 0 hours 31 minutes 50 seconds 951 msec
