                         Program Version 3.0.3 - RELEASE   -
|  1> ! RI-MP2 RIJK def2-TZVP def2-TZVP/C def2-TZVP/JK TIGHTSCF
|  2> % maxcore 2000
|  3> % mp2 density relaxed end
|  4> *xyz 0 1
|  5>  C       -0.2272186667     1.4144036319    -0.2196829996
|  6>  C        1.0042613509     2.2671500897     0.0999511359
|  7>  C        2.1322296738     2.1681095717    -0.9104525467
|  8>  N        3.5049860550     2.0605195512    -0.3752782984
|  9>  C        2.9411203904     0.9394347508    -1.1361925012
| 10>  C        2.6658855327    -0.3578339330    -0.3997791392
| 11>  N        1.6277814283    -1.0985699154    -1.1192011951
| 12>  C        0.4251286852    -0.8194992420    -0.8677419785
| 13>  O       -0.0313118237     0.0286768894     0.1082592981
| 14>  H       -1.0711123799     1.7396985072     0.3961087870
| 15>  H       -0.5210299471     1.5125336200    -1.2731606212
| 16>  H        0.6832725624     3.3143706758     0.1733012246
| 17>  H        1.3729915358     1.9851367017     1.0903090450
| 18>  H        1.9977487845     2.7975425464    -1.7896836946
| 19>  H        4.1609329721     2.5855559775    -0.9468866574
| 20>  H        3.2986290817     0.7916992497    -2.1543441467
| 21>  H        3.5720923605    -0.9716556199    -0.3868970846
| 22>  H        2.3853091571    -0.1401964701     0.6355130659
| 23>  H       -0.3743326932    -1.3311530125    -1.4090782935
| 24> *
| 25>
| 26>                          ****END OF INPUT****

CARTESIAN COORDINATES (ANGSTROEM)
---------------------------------
  C     -0.227219    1.414404   -0.219683
  C      1.004261    2.267150    0.099951
  C      2.132230    2.168110   -0.910453
  N      3.504986    2.060520   -0.375278
  C      2.941120    0.939435   -1.136193
  C      2.665886   -0.357834   -0.399779
  N      1.627781   -1.098570   -1.119201
  C      0.425129   -0.819499   -0.867742
  O     -0.031312    0.028677    0.108259
  H     -1.071112    1.739699    0.396109
  H     -0.521030    1.512534   -1.273161
  H      0.683273    3.314371    0.173301
  H      1.372992    1.985137    1.090309
  H      1.997749    2.797543   -1.789684
  H      4.160933    2.585556   -0.946887
  H      3.298629    0.791699   -2.154344
  H      3.572092   -0.971656   -0.386897
  H      2.385309   -0.140196    0.635513
  H     -0.374333   -1.331153   -1.409078

 Total Charge           Charge          ....    0
 Multiplicity           Mult            ....    1
 Number of Electrons    NEL             ....   68
 Basis Dimension        Dim             ....  339

ORBITAL ENERGIES
----------------

  NO   OCC          E(Eh)            E(eV)
   0   2.0000     -20.576800      -559.9232
   1   2.0000     -15.560238      -423.4156
   2   2.0000     -15.550630      -423.1541
   3   2.0000     -11.324985      -308.1685
   4   2.0000     -11.297063      -307.4087
   5   2.0000     -11.263813      -306.5039
   6   2.0000     -11.261407      -306.4385
   7   2.0000     -11.249176      -306.1056
   8   2.0000     -11.233245      -305.6721
   9   2.0000      -1.408192       -38.3189
  10   2.0000      -1.267906       -34.5015
  11   2.0000      -1.215576       -33.0775
  12   2.0000      -1.048680       -28.5360
  13   2.0000      -0.984648       -26.7936
  14   2.0000      -0.913307       -24.8523
  15   2.0000      -0.842975       -22.9385
  16   2.0000      -0.804100       -21.8807
  17   2.0000      -0.754531       -20.5318
  18   2.0000      -0.723862       -19.6973
  19   2.0000      -0.694986       -18.9115
  20   2.0000      -0.658346       -17.9145
  21   2.0000      -0.652328       -17.7508
  22   2.0000      -0.602435       -16.3931
  23   2.0000      -0.582281       -15.8447
  24   2.0000      -0.575776       -15.6677
  25   2.0000      -0.545763       -14.8510
  26   2.0000      -0.543325       -14.7846
  27   2.0000      -0.488559       -13.2944
  28   2.0000      -0.486831       -13.2473
  29   2.0000      -0.468080       -12.7371
  30   2.0000      -0.436626       -11.8812
  31   2.0000      -0.416576       -11.3356
  32   2.0000      -0.404348       -11.0029
  33   2.0000      -0.390658       -10.6304
  34   0.0000       0.130057         3.5390
  35   0.0000       0.142045         3.8652
  36   0.0000       0.160386         4.3643
  37   0.0000       0.173222         4.7136
  38   0.0000       0.179582         4.8867

MULLIKEN ATOMIC CHARGES
-----------------------
   0 C :   -0.064386
   1 C :   -0.236115
   2 C :   -0.046586
   3 N :   -0.391252
   4 C :   -0.082105
   5 C :   -0.063550
   6 N :   -0.247003
   7 C :    0.080263
   8 O :   -0.306331
   9 H :    0.134200
  10 H :    0.110486
  11 H :    0.125254
  12 H :    0.143193
  13 H :    0.120674
  14 H :    0.221103
  15 H :    0.118497
  16 H :    0.127326
  17 H :    0.132578
  18 H :    0.123754
Sum of atomic charges:    0.0000000

LOEWDIN ATOMIC CHARGES
----------------------
   0 C :   -0.286058
   1 C :   -0.255869
   2 C :   -0.260720
   3 N :    0.006467
   4 C :   -0.262143
   5 C :   -0.265657
   6 N :    0.092381
   7 C :   -0.354978
   8 O :    0.186751
   9 H :    0.131701
  10 H :    0.126567
  11 H :    0.147210
  12 H :    0.152124
  13 H :    0.137876
  14 H :    0.165983
  15 H :    0.140155
  16 H :    0.135466
  17 H :    0.136955
  18 H :    0.125790

  Mayer bond orders larger than 0.1
B(  0-C ,  1-C ) :   0.9317 B(  0-C ,  8-O ) :   0.8642 B(  0-C ,  9-H ) :   0.9327
B(  0-C , 10-H ) :   0.9325 B(  1-C ,  2-C ) :   0.8865 B(  1-C , 11-H ) :   0.9192
B(  1-C , 12-H ) :   0.9342 B(  2-C ,  3-N ) :   0.9627 B(  2-C ,  4-C ) :   0.9209
B(  2-C , 13-H ) :   0.9253 B(  3-N ,  4-C ) :   0.9197 B(  3-N , 14-H ) :   0.8688
B(  4-C ,  5-C ) :   0.8860 B(  4-C , 15-H ) :   0.9251 B(  5-C ,  6-N ) :   0.8529
B(  5-C , 16-H ) :   0.9307 B(  5-C , 17-H ) :   0.9271 B(  6-N ,  7-C ) :   1.9034
B(  7-C ,  8-O ) :   0.9998 B(  7-C , 18-H ) :   0.9296

MP2 TOTAL ENERGY:     -418.470141939 Eh
FINAL SINGLE POINT ENERGY      -418.470141939056

DIPOLE MOMENT
-------------
                                X             Y             Z
Electronic contribution:     -0.37880      -3.58352      -0.11685
Nuclear contribution   :      0.07622       4.54141      -0.38805
                        -----------------------------------------
Total Dipole Moment    :     -0.30258       0.95789      -0.50489
                        -----------------------------------------
Magnitude (a.u.)       :      1.12429
Magnitude (Debye)      :      2.85771

                             ****ORCA TERMINATED NORMALLY****
TOTAL RUN TIME: 0 days 0 hours 19 minutes 5 seconds 427 msec
