                         Program Version 3.0.3 - RELEASE   -
|  1> ! RI-MP2 RIJK def2-TZVP def2-TZVP/C def2-TZVP/JK TIGHTSCF
|  2> % maxcore 2000
|  3> % mp2 density relaxed end
|  4> *xyz 0 1
|  5>  O       -0.0287236934     0.1011256565    -0.7414583011
|  6>  C        0.0092451138     1.1069474247    -0.1025803834
|  7>  O       -1.1207455694     1.6410364214     0.4319854835
|  8>  C       -1.1664944997     2.9882881003     0.8740926108
|  9>  C       -0.5864680175     3.4109624844     2.1874719106
| 10>  C        0.6168723674     2.5234947445     2.5032793643
| 11>  C        1.1775057478     2.8347102947     1.0781904561
| 12>  O        1.1729926291     1.7496216513     0.1428342765
| 13>  C        0.0520563142     3.8324278173     0.8388009996
| 14>  H       -2.1078474099     3.4369084590     0.5805680078
| 15>  H       -1.1457331057     4.0137518358     2.8914098676
| 16>  H        1.2615744951     2.9414635133     3.2786113360
| 17>  H        0.4156385966     1.4728637417     2.7287080886
| 18>  H        2.1937570219     3.2221193488     1.0592218466
| 19>  H        0.1206460799     4.7846072764     0.3298240165
| 20> *
| 21>
| 22>                          ****END OF INPUT****

CARTESIAN COORDINATES (ANGSTROEM)
---------------------------------
  O     -0.028724    0.101126   -0.741458
  C      0.009245    1.106947   -0.102580
  O     -1.120746    1.641036    0.431985
  C     -1.166494    2.988288    0.874093
  C     -0.586468    3.410962    2.187472
  C      0.616872    2.523495    2.503279
  C      1.177506    2.834710    1.078190
  O      1.172993    1.749622    0.142834
  C      0.052056    3.832428    0.838801
  H     -2.107847    3.436908    0.580568
  H     -1.145733    4.013752    2.891410
  H      1.261574    2.941464    3.278611
  H      0.415639    1.472864    2.728708
  H      2.193757    3.222119    1.059222
  H      0.120646    4.784607    0.329824

 Total Charge           Charge          ....    0
 Multiplicity           Mult            ....    1
 Number of Electrons    NEL             ....   66
 Basis Dimension        Dim             ....  315

ORBITAL ENERGIES
----------------

  NO   OCC          E(Eh)            E(eV)
   0   2.0000     -20.616552      -561.0049
   1   2.0000     -20.614099      -560.9382
   2   2.0000     -20.532951      -558.7300
   3   2.0000     -11.430487      -311.0394
   4   2.0000     -11.325365      -308.1788
   5   2.0000     -11.324173      -308.1464
   6   2.0000     -11.270743      -306.6925
   7   2.0000     -11.266830      -306.5860
   8   2.0000     -11.258866      -306.3693
   9   2.0000      -1.506472       -40.9932
  10   2.0000      -1.402031       -38.1512
  11   2.0000      -1.372135       -37.3377
  12   2.0000      -1.223134       -33.2832
  13   2.0000      -1.019410       -27.7396
  14   2.0000      -0.945713       -25.7341
  15   2.0000      -0.905200       -24.6317
  16   2.0000      -0.816045       -22.2057
  17   2.0000      -0.759443       -20.6655
  18   2.0000      -0.743849       -20.2412
  19   2.0000      -0.712213       -19.3803
  20   2.0000      -0.694621       -18.9016
  21   2.0000      -0.670806       -18.2536
  22   2.0000      -0.633644       -17.2423
  23   2.0000      -0.626592       -17.0504
  24   2.0000      -0.595222       -16.1968
  25   2.0000      -0.575261       -15.6536
  26   2.0000      -0.552542       -15.0354
  27   2.0000      -0.523678       -14.2500
  28   2.0000      -0.494539       -13.4571
  29   2.0000      -0.473892       -12.8953
  30   2.0000      -0.452181       -12.3045
  31   2.0000      -0.433999       -11.8097
  32   2.0000      -0.420515       -11.4428
  33   0.0000       0.130434         3.5493
  34   0.0000       0.149156         4.0587
  35   0.0000       0.150854         4.1050
  36   0.0000       0.169917         4.6237
  37   0.0000       0.184880         5.0308

MULLIKEN ATOMIC CHARGES
-----------------------
   0 O :   -0.284205
   1 C :    0.351128
   2 O :   -0.243947
   3 C :    0.039931
   4 C :   -0.144405
   5 C :   -0.235036
   6 C :    0.083029
   7 O :   -0.242133
   8 C :   -0.192482
   9 H :    0.148274
  10 H :    0.146735
  11 H :    0.136555
  12 H :    0.140755
  13 H :    0.142135
  14 H :    0.153668
Sum of atomic charges:    0.0000000

LOEWDIN ATOMIC CHARGES
----------------------
   0 O :    0.133360
   1 C :   -0.607365
   2 O :    0.281678
   3 C :   -0.240215
   4 C :   -0.149776
   5 C :   -0.186102
   6 C :   -0.230869
   7 O :    0.274001
   8 C :   -0.142351
   9 H :    0.155485
  10 H :    0.140191
  11 H :    0.143458
  12 H :    0.139558
  13 H :    0.147561
  14 H :    0.141389

  Mayer bond orders larger than 0.1
B(  0-O ,  1-C ) :   2.0605 B(  1-C ,  2-O ) :   1.0801 B(  1-C ,  7-O ) :   1.1074
B(  2-O ,  3-C ) :   0.8920 B(  3-C ,  4-C ) :   0.8793 B(  3-C ,  8-C ) :   0.9192
B(  3-C ,  9-H ) :   0.9460 B(  4-C ,  5-C ) :   0.9528 B(  4-C ,  8-C ) :   0.7996
B(  4-C , 10-H ) :   0.9149 B(  5-C ,  6-C ) :   0.9536 B(  5-C , 11-H ) :   0.9276
B(  5-C , 12-H ) :   0.9059 B(  6-C ,  7-O ) :   0.8563 B(  6-C ,  8-C ) :   0.9165
B(  6-C , 13-H ) :   0.9378 B(  8-C , 14-H ) :   0.9164

MP2 TOTAL ENERGY:     -457.034770679 Eh
FINAL SINGLE POINT ENERGY      -457.034770678528

DIPOLE MOMENT
-------------
                                X             Y             Z
Electronic contribution:     -0.52449      -4.31620      -4.59859
Nuclear contribution   :      0.58685       6.25839       5.83370
                        -----------------------------------------
Total Dipole Moment    :      0.06237       1.94219       1.23511
                        -----------------------------------------
Magnitude (a.u.)       :      2.30249
Magnitude (Debye)      :      5.85248

                             ****ORCA TERMINATED NORMALLY****
TOTAL RUN TIME: 0 days 0 hours 15 minutes 21 seconds 22 msec
