                         Program Version 3.0.3 - RELEASE   -
|  1> ! RI-MP2 RIJK def2-TZVP def2-TZVP/C def2-TZVP/JK TIGHTSCF
|  2> % maxcore 2000
|  3> % mp2 density relaxed end
|  4> *xyz 0 1
|  5>  C       -0.0852047149     1.5089599171     0.0277679326
|  6>  C        1.3944484315     1.9249378310     0.0115936295
|  7>  C        2.2814125120     0.9114400339    -0.0341159057
|  8>  C        1.5482298326    -0.3561635868    -0.0524779430
|  9>  C        1.2183207479    -1.6811302823    -0.7679798158
| 10>  C        1.1669413132    -1.5845302425     0.7462474728
| 11>  N       -0.3191719426    -1.1933585578     0.7497329915
| 12>  C       -0.2803916291    -1.2514252823    -0.7702267328
| 13>  C        0.0724865533     0.0070312822    -0.0710365012
| 14>  H       -0.5864442495     1.8255138804     0.9516590869
| 15>  H       -0.6465062334     1.9506168609    -0.8046788361
| 16>  H        1.6781763494     2.9713457598     0.0522092359
| 17>  H        3.3575427788     1.0321406344    -0.0369471947
| 18>  H        1.8196255717    -2.3176190581    -1.4027023840
| 19>  H        1.6674607221    -2.1590702125     1.5168789776
| 20>  H       -1.1453059030    -1.5515340274    -1.3510805736
| 21> *
| 22>
| 23>                          ****END OF INPUT****

CARTESIAN COORDINATES (ANGSTROEM)
---------------------------------
  C     -0.085205    1.508960    0.027768
  C      1.394448    1.924938    0.011594
  C      2.281413    0.911440   -0.034116
  C      1.548230   -0.356164   -0.052478
  C      1.218321   -1.681130   -0.767980
  C      1.166941   -1.584530    0.746247
  N     -0.319172   -1.193359    0.749733
  C     -0.280392   -1.251425   -0.770227
  C      0.072487    0.007031   -0.071037
  H     -0.586444    1.825514    0.951659
  H     -0.646506    1.950617   -0.804679
  H      1.678176    2.971346    0.052209
  H      3.357543    1.032141   -0.036947
  H      1.819626   -2.317619   -1.402702
  H      1.667461   -2.159070    1.516879
  H     -1.145306   -1.551534   -1.351081

 Total Charge           Charge          ....    0
 Multiplicity           Mult            ....    1
 Number of Electrons    NEL             ....   62
 Basis Dimension        Dim             ....  321

ORBITAL ENERGIES
----------------

  NO   OCC          E(Eh)            E(eV)
   0   2.0000     -15.559110      -423.3849
   1   2.0000     -11.269589      -306.6611
   2   2.0000     -11.268956      -306.6439
   3   2.0000     -11.259690      -306.3917
   4   2.0000     -11.250589      -306.1441
   5   2.0000     -11.244078      -305.9669
   6   2.0000     -11.243728      -305.9574
   7   2.0000     -11.242253      -305.9173
   8   2.0000     -11.239295      -305.8368
   9   2.0000      -1.339749       -36.4564
  10   2.0000      -1.118432       -30.4341
  11   2.0000      -1.054975       -28.7073
  12   2.0000      -0.953264       -25.9396
  13   2.0000      -0.917458       -24.9653
  14   2.0000      -0.887764       -24.1573
  15   2.0000      -0.766613       -20.8606
  16   2.0000      -0.729294       -19.8451
  17   2.0000      -0.695680       -18.9304
  18   2.0000      -0.678187       -18.4544
  19   2.0000      -0.647377       -17.6160
  20   2.0000      -0.605345       -16.4723
  21   2.0000      -0.582586       -15.8530
  22   2.0000      -0.574989       -15.6463
  23   2.0000      -0.542754       -14.7691
  24   2.0000      -0.515451       -14.0261
  25   2.0000      -0.495995       -13.4967
  26   2.0000      -0.435124       -11.8403
  27   2.0000      -0.406617       -11.0646
  28   2.0000      -0.400690       -10.9033
  29   2.0000      -0.361173        -9.8280
  30   2.0000      -0.309938        -8.4338
  31   0.0000       0.139297         3.7905
  32   0.0000       0.151735         4.1289
  33   0.0000       0.164873         4.4864
  34   0.0000       0.173584         4.7235
  35   0.0000       0.181651         4.9430

MULLIKEN ATOMIC CHARGES
-----------------------
   0 C :   -0.176502
   1 C :   -0.113767
   2 C :   -0.256640
   3 C :    0.016403
   4 C :   -0.124980
   5 C :   -0.053705
   6 N :   -0.223325
   7 C :   -0.216004
   8 C :    0.182270
   9 H :    0.132048
  10 H :    0.129391
  11 H :    0.132012
  12 H :    0.133667
  13 H :    0.152492
  14 H :    0.143156
  15 H :    0.143483
Sum of atomic charges:   -0.0000000

LOEWDIN ATOMIC CHARGES
----------------------
   0 C :   -0.197124
   1 C :   -0.124700
   2 C :   -0.124676
   3 C :   -0.133122
   4 C :   -0.109218
   5 C :   -0.126349
   6 N :    0.143737
   7 C :   -0.133867
   8 C :   -0.162133
   9 H :    0.148826
  10 H :    0.144382
  11 H :    0.136950
  12 H :    0.141494
  13 H :    0.134606
  14 H :    0.130717
  15 H :    0.130476

  Mayer bond orders larger than 0.1
B(  0-C ,  1-C ) :   0.9439 B(  0-C ,  8-C ) :   0.9347 B(  0-C ,  9-H ) :   0.8903
B(  0-C , 10-H ) :   0.9178 B(  1-C ,  2-C ) :   1.7430 B(  1-C , 11-H ) :   0.9270
B(  2-C ,  3-C ) :   0.9520 B(  2-C , 12-H ) :   0.9227 B(  3-C ,  4-C ) :   0.7692
B(  3-C ,  5-C ) :   0.8558 B(  3-C ,  8-C ) :   0.8624 B(  4-C ,  5-C ) :   0.8958
B(  4-C ,  7-C ) :   0.8708 B(  4-C , 13-H ) :   0.9018 B(  5-C ,  6-N ) :   0.9217
B(  5-C , 14-H ) :   0.9085 B(  6-N ,  7-C ) :   1.0325 B(  6-N ,  8-C ) :   0.8067
B(  7-C ,  8-C ) :   0.8941 B(  7-C , 15-H ) :   0.8956

MP2 TOTAL ENERGY:     -362.799632106 Eh
FINAL SINGLE POINT ENERGY      -362.799632106402

DIPOLE MOMENT
-------------
                                X             Y             Z
Electronic contribution:     -0.20208      -2.56334       0.43185
Nuclear contribution   :      0.73600       2.82632      -0.91912
                        -----------------------------------------
Total Dipole Moment    :      0.53392       0.26298      -0.48727
                        -----------------------------------------
Magnitude (a.u.)       :      0.76920
Magnitude (Debye)      :      1.95515

                             ****ORCA TERMINATED NORMALLY****
TOTAL RUN TIME: 0 days 0 hours 17 minutes 15 seconds 147 msec
