                         Program Version 3.0.3 - RELEASE   -
|  1> ! RI-MP2 RIJK def2-TZVP def2-TZVP/C def2-TZVP/JK TIGHTSCF
|  2> % maxcore 2000
|  3> % mp2 density relaxed end
|  4> *xyz 0 1
|  5>  O       -0.0128976853     1.4252819827     0.0306861115
|  6>  C        0.0386073792     0.0042538389    -0.0354234338
|  7>  C        0.8612497865    -0.5686280548     1.1362559339
|  8>  C        0.8400215034    -2.0903901438     1.1968372166
|  9>  N        0.0208541013    -2.6977253334     2.2670508895
| 10>  C       -0.4331736396    -2.7856619426     0.8703258306
| 11>  C       -1.6079160653    -1.9578016564     0.4196650105
| 12>  N       -1.9959001180    -0.7830339315     1.2182665696
| 13>  C       -1.3596428769    -0.5824806021    -0.0963908801
| 14>  H       -0.4923142958     1.6421955351     0.8392941478
| 15>  H        0.5435284297    -0.2132696841    -0.9853191059
| 16>  H        1.8851650471    -0.1939894427     1.0522493028
| 17>  H        0.4381037154    -0.1829211666     2.0682769332
| 18>  H        1.7633511655    -2.5984404462     0.9289580039
| 19>  H        0.4239587398    -3.5887545047     2.5466399003
| 20>  H       -0.3678700589    -3.7526306534     0.3759609927
| 21>  H       -2.4122249535    -2.5219757677    -0.0468932061
| 22>  H       -3.0007385989    -0.6472111215     1.1566924552
| 23>  H       -1.9705646959    -0.2165392652    -0.9184989523
| 24> *
| 25>
| 26>                          ****END OF INPUT****

CARTESIAN COORDINATES (ANGSTROEM)
---------------------------------
  O     -0.012898    1.425282    0.030686
  C      0.038607    0.004254   -0.035423
  C      0.861250   -0.568628    1.136256
  C      0.840022   -2.090390    1.196837
  N      0.020854   -2.697725    2.267051
  C     -0.433174   -2.785662    0.870326
  C     -1.607916   -1.957802    0.419665
  N     -1.995900   -0.783034    1.218267
  C     -1.359643   -0.582481   -0.096391
  H     -0.492314    1.642196    0.839294
  H      0.543528   -0.213270   -0.985319
  H      1.885165   -0.193989    1.052249
  H      0.438104   -0.182921    2.068277
  H      1.763351   -2.598440    0.928958
  H      0.423959   -3.588755    2.546640
  H     -0.367870   -3.752631    0.375961
  H     -2.412225   -2.521976   -0.046893
  H     -3.000739   -0.647211    1.156692
  H     -1.970565   -0.216539   -0.918499

 Total Charge           Charge          ....    0
 Multiplicity           Mult            ....    1
 Number of Electrons    NEL             ....   68
 Basis Dimension        Dim             ....  339

ORBITAL ENERGIES
----------------

  NO   OCC          E(Eh)            E(eV)
   0   2.0000     -20.549372      -559.1768
   1   2.0000     -15.560554      -423.4242
   2   2.0000     -15.556280      -423.3079
   3   2.0000     -11.278961      -306.9161
   4   2.0000     -11.266746      -306.5837
   5   2.0000     -11.262103      -306.4574
   6   2.0000     -11.258285      -306.3535
   7   2.0000     -11.258201      -306.3512
   8   2.0000     -11.217053      -305.2315
   9   2.0000      -1.357465       -36.9385
  10   2.0000      -1.281753       -34.8783
  11   2.0000      -1.244902       -33.8755
  12   2.0000      -1.032790       -28.1036
  13   2.0000      -0.947888       -25.7933
  14   2.0000      -0.923602       -25.1325
  15   2.0000      -0.829393       -22.5689
  16   2.0000      -0.815394       -22.1880
  17   2.0000      -0.750442       -20.4206
  18   2.0000      -0.727028       -19.7834
  19   2.0000      -0.687643       -18.7117
  20   2.0000      -0.656235       -17.8570
  21   2.0000      -0.623955       -16.9787
  22   2.0000      -0.622336       -16.9346
  23   2.0000      -0.564134       -15.3509
  24   2.0000      -0.548449       -14.9240
  25   2.0000      -0.519673       -14.1410
  26   2.0000      -0.503334       -13.6964
  27   2.0000      -0.500290       -13.6136
  28   2.0000      -0.495267       -13.4769
  29   2.0000      -0.453740       -12.3469
  30   2.0000      -0.446616       -12.1530
  31   2.0000      -0.428444       -11.6586
  32   2.0000      -0.399954       -10.8833
  33   2.0000      -0.369111       -10.0440
  34   0.0000       0.126838         3.4514
  35   0.0000       0.143999         3.9184
  36   0.0000       0.160520         4.3680
  37   0.0000       0.166259         4.5241
  38   0.0000       0.185680         5.0526

MULLIKEN ATOMIC CHARGES
-----------------------
   0 O :   -0.471183
   1 C :    0.058327
   2 C :   -0.183614
   3 C :   -0.071206
   4 N :   -0.374687
   5 C :   -0.060081
   6 C :   -0.039080
   7 N :   -0.394731
   8 C :   -0.060529
   9 H :    0.319671
  10 H :    0.092315
  11 H :    0.128635
  12 H :    0.129719
  13 H :    0.122391
  14 H :    0.215501
  15 H :    0.119358
  16 H :    0.128039
  17 H :    0.218239
  18 H :    0.122918
Sum of atomic charges:    0.0000000

LOEWDIN ATOMIC CHARGES
----------------------
   0 O :   -0.020189
   1 C :   -0.324275
   2 C :   -0.228587
   3 C :   -0.243599
   4 N :    0.012099
   5 C :   -0.245253
   6 C :   -0.232788
   7 N :    0.016384
   8 C :   -0.243160
   9 H :    0.178129
  10 H :    0.147744
  11 H :    0.142453
  12 H :    0.152951
  13 H :    0.134995
  14 H :    0.165813
  15 H :    0.139798
  16 H :    0.140327
  17 H :    0.168045
  18 H :    0.139112

  Mayer bond orders larger than 0.1
B(  0-O ,  1-C ) :   0.8993 B(  0-O ,  9-H ) :   0.8379 B(  1-C ,  2-C ) :   0.9427
B(  1-C ,  8-C ) :   0.9423 B(  1-C , 10-H ) :   0.9227 B(  2-C ,  3-C ) :   0.8875
B(  2-C , 11-H ) :   0.9375 B(  2-C , 12-H ) :   0.8958 B(  3-C ,  4-N ) :   0.9650
B(  3-C ,  5-C ) :   0.9240 B(  3-C , 13-H ) :   0.9267 B(  4-N ,  5-C ) :   0.9634
B(  4-N , 14-H ) :   0.8679 B(  5-C ,  6-C ) :   0.9415 B(  5-C , 15-H ) :   0.9171
B(  6-C ,  7-N ) :   0.8853 B(  6-C ,  8-C ) :   0.8921 B(  6-C , 16-H ) :   0.9286
B(  7-N ,  8-C ) :   0.8940 B(  7-N , 17-H ) :   0.8637 B(  8-C , 18-H ) :   0.9372

MP2 TOTAL ENERGY:     -418.464672970 Eh
FINAL SINGLE POINT ENERGY      -418.464672970059

DIPOLE MOMENT
-------------
                                X             Y             Z
Electronic contribution:     -1.06524       0.59649       0.26559
Nuclear contribution   :      0.80212      -1.50715      -0.72824
                        -----------------------------------------
Total Dipole Moment    :     -0.26313      -0.91066      -0.46265
                        -----------------------------------------
Magnitude (a.u.)       :      1.05479
Magnitude (Debye)      :      2.68106

                             ****ORCA TERMINATED NORMALLY****
TOTAL RUN TIME: 0 days 0 hours 17 minutes 0 seconds 58 msec
