                         Program Version 3.0.3 - RELEASE   -
|  1> ! RI-MP2 RIJK def2-TZVP def2-TZVP/C def2-TZVP/JK TIGHTSCF
|  2> % maxcore 2000
|  3> % mp2 density relaxed end
|  4> *xyz 0 1
|  5>  C       -0.0096842931     1.5265362807     0.1182482836
|  6>  C        0.1038702600     0.0095112634    -0.0066439323
|  7>  C        0.7293692495    -0.4647039609    -1.2891265216
|  8>  N        1.1237243644     0.3755429803    -2.1854060162
|  9>  C        1.6936081106    -0.1212022194    -3.3490696051
| 10>  C        1.8410594682    -1.4356205737    -3.5587063748
| 11>  O        1.4403328942    -2.3523466746    -2.6429133854
| 12>  C        0.8627108883    -1.9297245514    -1.4576820411
| 13>  N        0.4769089474    -2.7605496971    -0.5806219263
| 14>  H        0.9723309749     2.0038086139     0.0658910758
| 15>  H       -0.6163795523     1.9469747959    -0.6879930315
| 16>  H       -0.4724053163     1.7902623561     1.0735106070
| 17>  H        0.6816488936    -0.4164884220     0.8239185558
| 18>  H       -0.8784476654    -0.4722367448     0.0836048070
| 19>  H        2.0169983966     0.6018935917    -4.0868296223
| 20>  H        2.2743609219    -1.8963232380    -4.4369187486
| 21>  H        0.6544798175    -3.7198295801    -0.8813465539
| 22> *
| 23>
| 24>                          ****END OF INPUT****

CARTESIAN COORDINATES (ANGSTROEM)
---------------------------------
  C     -0.009684    1.526536    0.118248
  C      0.103870    0.009511   -0.006644
  C      0.729369   -0.464704   -1.289127
  N      1.123724    0.375543   -2.185406
  C      1.693608   -0.121202   -3.349070
  C      1.841059   -1.435621   -3.558706
  O      1.440333   -2.352347   -2.642913
  C      0.862711   -1.929725   -1.457682
  N      0.476909   -2.760550   -0.580622
  H      0.972331    2.003809    0.065891
  H     -0.616380    1.946975   -0.687993
  H     -0.472405    1.790262    1.073511
  H      0.681649   -0.416488    0.823919
  H     -0.878448   -0.472237    0.083605
  H      2.016998    0.601894   -4.086830
  H      2.274361   -1.896323   -4.436919
  H      0.654480   -3.719830   -0.881347

 Total Charge           Charge          ....    0
 Multiplicity           Mult            ....    1
 Number of Electrons    NEL             ....   66
 Basis Dimension        Dim             ....  327

ORBITAL ENERGIES
----------------

  NO   OCC          E(Eh)            E(eV)
   0   2.0000     -20.634401      -561.4906
   1   2.0000     -15.585355      -424.0991
   2   2.0000     -15.552428      -423.2031
   3   2.0000     -11.360719      -309.1409
   4   2.0000     -11.315645      -307.9144
   5   2.0000     -11.304593      -307.6136
   6   2.0000     -11.267245      -306.5973
   7   2.0000     -11.231892      -305.6353
   8   2.0000     -11.211868      -305.0904
   9   2.0000      -1.470780       -40.0220
  10   2.0000      -1.266011       -34.4499
  11   2.0000      -1.221190       -33.2303
  12   2.0000      -1.067895       -29.0589
  13   2.0000      -1.016678       -27.6652
  14   2.0000      -0.930232       -25.3129
  15   2.0000      -0.890194       -24.2234
  16   2.0000      -0.831723       -22.6323
  17   2.0000      -0.752737       -20.4830
  18   2.0000      -0.725358       -19.7380
  19   2.0000      -0.665624       -18.1125
  20   2.0000      -0.663370       -18.0512
  21   2.0000      -0.640451       -17.4275
  22   2.0000      -0.613532       -16.6951
  23   2.0000      -0.594366       -16.1735
  24   2.0000      -0.577773       -15.7220
  25   2.0000      -0.521103       -14.1799
  26   2.0000      -0.513708       -13.9787
  27   2.0000      -0.507246       -13.8029
  28   2.0000      -0.484516       -13.1844
  29   2.0000      -0.469987       -12.7890
  30   2.0000      -0.455465       -12.3938
  31   2.0000      -0.424578       -11.5533
  32   2.0000      -0.324550        -8.8315
  33   0.0000       0.072935         1.9847
  34   0.0000       0.140202         3.8151
  35   0.0000       0.155545         4.2326
  36   0.0000       0.163203         4.4410
  37   0.0000       0.169096         4.6013

MULLIKEN ATOMIC CHARGES
-----------------------
   0 C :   -0.344993
   1 C :   -0.191711
   2 C :    0.119203
   3 N :   -0.231959
   4 C :   -0.114135
   5 C :    0.038273
   6 O :   -0.211520
   7 C :    0.141583
   8 N :   -0.378852
   9 H :    0.126328
  10 H :    0.126357
  11 H :    0.132192
  12 H :    0.137599
  13 H :    0.137525
  14 H :    0.140850
  15 H :    0.150966
  16 H :    0.222293
Sum of atomic charges:   -0.0000000

LOEWDIN ATOMIC CHARGES
----------------------
   0 C :   -0.310987
   1 C :   -0.250026
   2 C :   -0.192223
   3 N :    0.175356
   4 C :   -0.256363
   5 C :   -0.231015
   6 O :    0.317038
   7 C :   -0.347491
   8 N :   -0.044500
   9 H :    0.124541
  10 H :    0.124544
  11 H :    0.121589
  12 H :    0.156607
  13 H :    0.156613
  14 H :    0.145797
  15 H :    0.142855
  16 H :    0.167664

  Mayer bond orders larger than 0.1
B(  0-C ,  1-C ) :   0.9333 B(  0-C ,  9-H ) :   0.9344 B(  0-C , 10-H ) :   0.9344
B(  0-C , 11-H ) :   0.9386 B(  1-C ,  2-C ) :   0.9455 B(  1-C , 12-H ) :   0.9111
B(  1-C , 13-H ) :   0.9110 B(  2-C ,  3-N ) :   1.6274 B(  2-C ,  7-C ) :   1.0041
B(  2-C ,  8-N ) :  -0.1250 B(  3-N ,  4-C ) :   1.1114 B(  4-C ,  5-C ) :   1.6212
B(  4-C , 14-H ) :   0.9345 B(  5-C ,  6-O ) :   1.0216 B(  5-C , 15-H ) :   0.9274
B(  6-O ,  7-C ) :   1.0214 B(  7-C ,  8-N ) :   2.0097 B(  8-N , 16-H ) :   0.8515

MP2 TOTAL ENERGY:     -417.313443977 Eh
FINAL SINGLE POINT ENERGY      -417.313443977387

DIPOLE MOMENT
-------------
                                X             Y             Z
Electronic contribution:      2.80914      -6.04558      -5.46193
Nuclear contribution   :     -2.46935       5.87971       4.75813
                        -----------------------------------------
Total Dipole Moment    :      0.33979      -0.16587      -0.70380
                        -----------------------------------------
Magnitude (a.u.)       :      0.79894
Magnitude (Debye)      :      2.03074

                             ****ORCA TERMINATED NORMALLY****
TOTAL RUN TIME: 0 days 0 hours 16 minutes 1 seconds 427 msec
