                         Program Version 3.0.3 - RELEASE   -
|  1> ! RI-MP2 RIJK def2-TZVP def2-TZVP/C def2-TZVP/JK TIGHTSCF
|  2> % maxcore 2000
|  3> % mp2 density relaxed end
|  4> *xyz 0 1
|  5>  O       -0.0345111382     1.5205609037     0.0507000090
|  6>  C        0.0239712252     0.1045493612     0.0372913979
|  7>  C       -1.3584509789    -0.5742471419     0.1240536715
|  8>  N       -2.3106202786    -0.4092950963    -0.9603376604
|  9>  C       -2.1000083970     0.1821041676    -2.0468346232
| 10>  O       -0.9548803317     0.8075989522    -2.5090951794
| 11>  C        0.2587258690     0.0500602941    -2.5461185956
| 12>  C        0.7841202033    -0.4081394792    -1.1840373201
| 13>  O        1.7306591765    -1.1522945378    -1.1230156237
| 14>  H       -0.5096066240     1.8052185994    -0.7404830031
| 15>  H        0.5988063212    -0.1887595058     0.9204108919
| 16>  H       -1.2146503156    -1.6514716760     0.2794418032
| 17>  H       -1.8526427592    -0.2004326826     1.0293155853
| 18>  H       -2.9129102460     0.3144314026    -2.7603744493
| 19>  H        0.1370942658    -0.8353780376    -3.1817541469
| 20>  H        1.0030320281     0.6997065564    -3.0144105170
| 21> *
| 22>
| 23>                          ****END OF INPUT****

CARTESIAN COORDINATES (ANGSTROEM)
---------------------------------
  O     -0.034511    1.520561    0.050700
  C      0.023971    0.104549    0.037291
  C     -1.358451   -0.574247    0.124054
  N     -2.310620   -0.409295   -0.960338
  C     -2.100008    0.182104   -2.046835
  O     -0.954880    0.807599   -2.509095
  C      0.258726    0.050060   -2.546119
  C      0.784120   -0.408139   -1.184037
  O      1.730659   -1.152295   -1.123016
  H     -0.509607    1.805219   -0.740483
  H      0.598806   -0.188760    0.920411
  H     -1.214650   -1.651472    0.279442
  H     -1.852643   -0.200433    1.029316
  H     -2.912910    0.314431   -2.760374
  H      0.137094   -0.835378   -3.181754
  H      1.003032    0.699707   -3.014411

 Total Charge           Charge          ....    0
 Multiplicity           Mult            ....    1
 Number of Electrons    NEL             ....   68
 Basis Dimension        Dim             ....  321

ORBITAL ENERGIES
----------------

  NO   OCC          E(Eh)            E(eV)
   0   2.0000     -20.618822      -561.0667
   1   2.0000     -20.575603      -559.8906
   2   2.0000     -20.571829      -559.7879
   3   2.0000     -15.580131      -423.9569
   4   2.0000     -11.355584      -309.0012
   5   2.0000     -11.350908      -308.8739
   6   2.0000     -11.323873      -308.1383
   7   2.0000     -11.307815      -307.7013
   8   2.0000     -11.282550      -307.0138
   9   2.0000      -1.448053       -39.4035
  10   2.0000      -1.415012       -38.5044
  11   2.0000      -1.381807       -37.6009
  12   2.0000      -1.246588       -33.9214
  13   2.0000      -1.066714       -29.0268
  14   2.0000      -1.000574       -27.2270
  15   2.0000      -0.937844       -25.5200
  16   2.0000      -0.813304       -22.1311
  17   2.0000      -0.802201       -21.8290
  18   2.0000      -0.724365       -19.7110
  19   2.0000      -0.717011       -19.5108
  20   2.0000      -0.699671       -19.0390
  21   2.0000      -0.669926       -18.2296
  22   2.0000      -0.651562       -17.7299
  23   2.0000      -0.638241       -17.3674
  24   2.0000      -0.608030       -16.5453
  25   2.0000      -0.596093       -16.2205
  26   2.0000      -0.568988       -15.4829
  27   2.0000      -0.557740       -15.1769
  28   2.0000      -0.540877       -14.7180
  29   2.0000      -0.512560       -13.9475
  30   2.0000      -0.502626       -13.6771
  31   2.0000      -0.436746       -11.8845
  32   2.0000      -0.428502       -11.6601
  33   2.0000      -0.408720       -11.1218
  34   0.0000       0.114095         3.1047
  35   0.0000       0.123428         3.3586
  36   0.0000       0.144598         3.9347
  37   0.0000       0.160616         4.3706
  38   0.0000       0.175592         4.7781

MULLIKEN ATOMIC CHARGES
-----------------------
   0 O :   -0.467191
   1 C :    0.139808
   2 C :   -0.172187
   3 N :   -0.222123
   4 C :    0.066873
   5 O :   -0.333142
   6 C :   -0.090052
   7 C :    0.119658
   8 O :   -0.260336
   9 H :    0.336565
  10 H :    0.123041
  11 H :    0.146370
  12 H :    0.152371
  13 H :    0.145499
  14 H :    0.150136
  15 H :    0.164711
Sum of atomic charges:    0.0000000

LOEWDIN ATOMIC CHARGES
----------------------
   0 O :    0.000456
   1 C :   -0.326219
   2 C :   -0.272409
   3 N :    0.104241
   4 C :   -0.351247
   5 O :    0.178248
   6 C :   -0.262642
   7 C :   -0.314210
   8 O :    0.173635
   9 H :    0.175200
  10 H :    0.160009
  11 H :    0.151407
  12 H :    0.151169
  13 H :    0.134663
  14 H :    0.145459
  15 H :    0.152240

  Mayer bond orders larger than 0.1
B(  0-O ,  1-C ) :   0.9068 B(  0-O ,  9-H ) :   0.8167 B(  1-C ,  2-C ) :   0.8939
B(  1-C ,  7-C ) :   0.8742 B(  1-C , 10-H ) :   0.9058 B(  2-C ,  3-N ) :   0.9187
B(  2-C , 11-H ) :   0.9184 B(  2-C , 12-H ) :   0.9188 B(  3-N ,  4-C ) :   1.8899
B(  4-C ,  5-O ) :   0.9484 B(  4-C , 13-H ) :   0.9288 B(  5-O ,  6-C ) :   0.8484
B(  6-C ,  7-C ) :   0.8790 B(  6-C , 14-H ) :   0.9307 B(  6-C , 15-H ) :   0.9119
B(  7-C ,  8-O ) :   2.0115

MP2 TOTAL ENERGY:     -474.272793875 Eh
FINAL SINGLE POINT ENERGY      -474.272793874578

DIPOLE MOMENT
-------------
                                X             Y             Z
Electronic contribution:      1.27558       0.30434      -0.95803
Nuclear contribution   :     -1.69040      -0.30800       0.40408
                        -----------------------------------------
Total Dipole Moment    :     -0.41482      -0.00365      -0.55395
                        -----------------------------------------
Magnitude (a.u.)       :      0.69206
Magnitude (Debye)      :      1.75908

                             ****ORCA TERMINATED NORMALLY****
TOTAL RUN TIME: 0 days 0 hours 16 minutes 21 seconds 958 msec
