                         Program Version 3.0.3 - RELEASE   -
|  1> ! RI-MP2 RIJK def2-TZVP def2-TZVP/C def2-TZVP/JK TIGHTSCF
|  2> % maxcore 2000
|  3> % mp2 density relaxed end
|  4> *xyz 0 1
|  5>  C       -0.0338061227    -1.2232232505     0.1920190977
|  6>  C       -0.0262194690    -0.0208967981     0.1430532791
|  7>  C       -0.0149273902     1.4110303398     0.0737240364
|  8>  C        0.6435688208     2.2280755536     1.1776110997
|  9>  C        1.2837921182     2.1704582563    -0.1759602685
| 10>  C        2.5773612560     1.4021869625    -0.3892688450
| 11>  C        3.7545572728     2.1894610332    -0.0205356131
| 12>  N        4.6767336793     2.8221402469     0.2699639116
| 13>  H       -0.0509751136    -2.2838752948     0.2414044190
| 14>  H       -0.8994076636     1.8489579843    -0.3791951913
| 15>  H        0.1548521248     3.1452838199     1.4842153703
| 16>  H        1.1101300148     1.6715865362     1.9825933108
| 17>  H        1.1860877806     3.0549836569    -0.7971240710
| 18>  H        2.5684468197     0.4777972460     0.1974922695
| 19>  H        2.6737456119     1.1009898577    -1.4389544653
| 20> *
| 21>
| 22>                          ****END OF INPUT****

CARTESIAN COORDINATES (ANGSTROEM)
---------------------------------
  C     -0.033806   -1.223223    0.192019
  C     -0.026219   -0.020897    0.143053
  C     -0.014927    1.411030    0.073724
  C      0.643569    2.228076    1.177611
  C      1.283792    2.170458   -0.175960
  C      2.577361    1.402187   -0.389269
  C      3.754557    2.189461   -0.020536
  N      4.676734    2.822140    0.269964
  H     -0.050975   -2.283875    0.241404
  H     -0.899408    1.848958   -0.379195
  H      0.154852    3.145284    1.484215
  H      1.110130    1.671587    1.982593
  H      1.186088    3.054984   -0.797124
  H      2.568447    0.477797    0.197492
  H      2.673746    1.100990   -1.438954

 Total Charge           Charge          ....    0
 Multiplicity           Mult            ....    1
 Number of Electrons    NEL             ....   56
 Basis Dimension        Dim             ....  290

ORBITAL ENERGIES
----------------

  NO   OCC          E(Eh)            E(eV)
   0   2.0000     -15.568732      -423.6467
   1   2.0000     -11.288240      -307.1686
   2   2.0000     -11.278745      -306.9103
   3   2.0000     -11.274771      -306.8021
   4   2.0000     -11.273526      -306.7682
   5   2.0000     -11.257597      -306.3348
   6   2.0000     -11.250099      -306.1307
   7   2.0000     -11.236440      -305.7591
   8   2.0000      -1.220502       -33.2115
   9   2.0000      -1.190519       -32.3957
  10   2.0000      -1.054288       -28.6886
  11   2.0000      -1.029183       -28.0055
  12   2.0000      -0.885335       -24.0912
  13   2.0000      -0.835733       -22.7415
  14   2.0000      -0.739458       -20.1217
  15   2.0000      -0.719430       -19.5767
  16   2.0000      -0.682228       -18.5644
  17   2.0000      -0.675853       -18.3909
  18   2.0000      -0.619977       -16.8704
  19   2.0000      -0.577587       -15.7169
  20   2.0000      -0.557324       -15.1655
  21   2.0000      -0.548418       -14.9232
  22   2.0000      -0.498520       -13.5654
  23   2.0000      -0.473893       -12.8953
  24   2.0000      -0.460352       -12.5268
  25   2.0000      -0.457515       -12.4496
  26   2.0000      -0.397144       -10.8068
  27   2.0000      -0.377594       -10.2748
  28   0.0000       0.125185         3.4064
  29   0.0000       0.139838         3.8052
  30   0.0000       0.153064         4.1651
  31   0.0000       0.158272         4.3068
  32   0.0000       0.166135         4.5208

MULLIKEN ATOMIC CHARGES
-----------------------
   0 C :   -0.122460
   1 C :   -0.033897
   2 C :   -0.251310
   3 C :   -0.254366
   4 C :   -0.062867
   5 C :   -0.160743
   6 C :   -0.175399
   7 N :   -0.060199
   8 H :    0.194590
   9 H :    0.148706
  10 H :    0.147616
  11 H :    0.147549
  12 H :    0.141961
  13 H :    0.174726
  14 H :    0.166093
Sum of atomic charges:    0.0000000

LOEWDIN ATOMIC CHARGES
----------------------
   0 C :   -0.093877
   1 C :   -0.099954
   2 C :   -0.187439
   3 C :   -0.171437
   4 C :   -0.179626
   5 C :   -0.219689
   6 C :   -0.186104
   7 N :    0.056849
   8 H :    0.128488
   9 H :    0.167096
  10 H :    0.138556
  11 H :    0.145491
  12 H :    0.156891
  13 H :    0.174834
  14 H :    0.169920

  Mayer bond orders larger than 0.1
B(  0-C ,  1-C ) :   2.5536 B(  0-C ,  2-C ) :  -0.1269 B(  0-C ,  8-H ) :   0.9001
B(  1-C ,  2-C ) :   1.1715 B(  2-C ,  3-C ) :   0.8503 B(  2-C ,  4-C ) :   0.8538
B(  2-C ,  9-H ) :   0.9345 B(  3-C ,  4-C ) :   0.8981 B(  3-C , 10-H ) :   0.9258
B(  3-C , 11-H ) :   0.9244 B(  4-C ,  5-C ) :   0.9038 B(  4-C , 12-H ) :   0.9202
B(  5-C ,  6-C ) :   0.9381 B(  5-C , 13-H ) :   0.9091 B(  5-C , 14-H ) :   0.9089
B(  6-C ,  7-N ) :   2.8725

MP2 TOTAL ENERGY:     -324.894014722 Eh
FINAL SINGLE POINT ENERGY      -324.894014721960

DIPOLE MOMENT
-------------
                                X             Y             Z
Electronic contribution:      3.03630       0.14418      -0.44292
Nuclear contribution   :     -4.31352      -0.69022       0.14309
                        -----------------------------------------
Total Dipole Moment    :     -1.27722      -0.54604      -0.29983
                        -----------------------------------------
Magnitude (a.u.)       :      1.42103
Magnitude (Debye)      :      3.61198

                             ****ORCA TERMINATED NORMALLY****
TOTAL RUN TIME: 0 days 0 hours 10 minutes 19 seconds 893 msec
