                         Program Version 3.0.3 - RELEASE   -
|  1> ! RI-MP2 RIJK def2-TZVP def2-TZVP/C def2-TZVP/JK TIGHTSCF
|  2> % maxcore 2000
|  3> % mp2 density relaxed end
|  4> *xyz 0 1
|  5>  C        0.2209695251     1.4928466080    -0.3729064322
|  6>  C       -0.0044383160     0.0599585544     0.0317597567
|  7>  O        1.1513804978    -0.7790261917     0.1959509943
|  8>  C        0.3358664258    -0.5203885088     1.3402034818
|  9>  C        0.9827160953     0.2349065560     2.4854726582
| 10>  O        0.0032459074     0.6596426821     3.4246786070
| 11>  C        2.0779118557    -0.6129060880     3.1496647983
| 12>  C        2.7321537930     0.1296366112     4.2940329286
| 13>  O        2.8427602825    -0.2968555926     5.4133804340
| 14>  H        1.0549870025     1.9462254999     0.1660017758
| 15>  H        0.4433988656     1.5485527865    -1.4434443733
| 16>  H       -0.6804246243     2.0854621291    -0.1850184665
| 17>  H       -0.8138302072    -0.4345542540    -0.5095155615
| 18>  H       -0.2507422283    -1.3824368800     1.6741673483
| 19>  H        1.4331696746     1.1574009352     2.1069407426
| 20>  H       -0.3119045607    -0.1139843270     3.9060003978
| 21>  H        1.6740620216    -1.5594932976     3.5276045152
| 22>  H        2.8398030804    -0.8450308077     2.3935293951
| 23>  H        3.1232175992     1.1373016450     4.0208268698
| 24> *
| 25>
| 26>                          ****END OF INPUT****

CARTESIAN COORDINATES (ANGSTROEM)
---------------------------------
  C      0.220970    1.492847   -0.372906
  C     -0.004438    0.059959    0.031760
  O      1.151380   -0.779026    0.195951
  C      0.335866   -0.520389    1.340203
  C      0.982716    0.234907    2.485473
  O      0.003246    0.659643    3.424679
  C      2.077912   -0.612906    3.149665
  C      2.732154    0.129637    4.294033
  O      2.842760   -0.296856    5.413380
  H      1.054987    1.946225    0.166002
  H      0.443399    1.548553   -1.443444
  H     -0.680425    2.085462   -0.185018
  H     -0.813830   -0.434554   -0.509516
  H     -0.250742   -1.382437    1.674167
  H      1.433170    1.157401    2.106941
  H     -0.311905   -0.113984    3.906000
  H      1.674062   -1.559493    3.527605
  H      2.839803   -0.845031    2.393529
  H      3.123218    1.137302    4.020827

 Total Charge           Charge          ....    0
 Multiplicity           Mult            ....    1
 Number of Electrons    NEL             ....   70
 Basis Dimension        Dim             ....  339

ORBITAL ENERGIES
----------------

  NO   OCC          E(Eh)            E(eV)
   0   2.0000     -20.578709      -559.9751
   1   2.0000     -20.578661      -559.9738
   2   2.0000     -20.560355      -559.4757
   3   2.0000     -11.336774      -308.4893
   4   2.0000     -11.309930      -307.7588
   5   2.0000     -11.301284      -307.5236
   6   2.0000     -11.298918      -307.4592
   7   2.0000     -11.249988      -306.1277
   8   2.0000     -11.236083      -305.7494
   9   2.0000      -1.424105       -38.7519
  10   2.0000      -1.400309       -38.1044
  11   2.0000      -1.384228       -37.6667
  12   2.0000      -1.072906       -29.1952
  13   2.0000      -1.024066       -27.8663
  14   2.0000      -0.961091       -26.1526
  15   2.0000      -0.873852       -23.7787
  16   2.0000      -0.814717       -22.1696
  17   2.0000      -0.798273       -21.7221
  18   2.0000      -0.716157       -19.4876
  19   2.0000      -0.698731       -19.0134
  20   2.0000      -0.675889       -18.3919
  21   2.0000      -0.655027       -17.8242
  22   2.0000      -0.632686       -17.2163
  23   2.0000      -0.622861       -16.9489
  24   2.0000      -0.597018       -16.2457
  25   2.0000      -0.578992       -15.7552
  26   2.0000      -0.574889       -15.6435
  27   2.0000      -0.553934       -15.0733
  28   2.0000      -0.528051       -14.3690
  29   2.0000      -0.518166       -14.1000
  30   2.0000      -0.501446       -13.6450
  31   2.0000      -0.485270       -13.2049
  32   2.0000      -0.454319       -12.3627
  33   2.0000      -0.441208       -12.0059
  34   2.0000      -0.418601       -11.3907
  35   0.0000       0.126663         3.4467
  36   0.0000       0.134399         3.6572
  37   0.0000       0.138689         3.7739
  38   0.0000       0.152633         4.1534
  39   0.0000       0.176110         4.7922

MULLIKEN ATOMIC CHARGES
-----------------------
   0 C :   -0.383557
   1 C :    0.044717
   2 O :   -0.345527
   3 C :    0.055909
   4 C :    0.024077
   5 O :   -0.466915
   6 C :   -0.183965
   7 C :    0.104300
   8 O :   -0.260719
   9 H :    0.131090
  10 H :    0.143992
  11 H :    0.138729
  12 H :    0.112487
  13 H :    0.120881
  14 H :    0.096520
  15 H :    0.322720
  16 H :    0.121436
  17 H :    0.151191
  18 H :    0.072633
Sum of atomic charges:    0.0000000

LOEWDIN ATOMIC CHARGES
----------------------
   0 C :   -0.291365
   1 C :   -0.281322
   2 O :    0.160416
   3 C :   -0.265034
   4 C :   -0.336666
   5 O :   -0.003256
   6 C :   -0.247366
   7 C :   -0.293039
   8 O :    0.134041
   9 H :    0.125758
  10 H :    0.131707
  11 H :    0.134654
  12 H :    0.139061
  13 H :    0.139000
  14 H :    0.150387
  15 H :    0.180444
  16 H :    0.147183
  17 H :    0.163584
  18 H :    0.111813

  Mayer bond orders larger than 0.1
B(  0-C ,  1-C ) :   0.8976 B(  0-C ,  9-H ) :   0.9421 B(  0-C , 10-H ) :   0.9326
B(  0-C , 11-H ) :   0.9240 B(  1-C ,  2-O ) :   0.8897 B(  1-C ,  3-C ) :   0.9974
B(  1-C , 12-H ) :   0.9182 B(  2-O ,  3-C ) :   0.8847 B(  3-C ,  4-C ) :   0.9232
B(  3-C , 13-H ) :   0.8843 B(  4-C ,  5-O ) :   0.8939 B(  4-C ,  6-C ) :   0.9407
B(  4-C , 14-H ) :   0.9280 B(  5-O , 15-H ) :   0.8361 B(  6-C ,  7-C ) :   0.8729
B(  6-C , 16-H ) :   0.8906 B(  6-C , 17-H ) :   0.9031 B(  7-C ,  8-O ) :   2.0003
B(  7-C , 18-H ) :   0.9357

MP2 TOTAL ENERGY:     -459.411648642 Eh
FINAL SINGLE POINT ENERGY      -459.411648642455

DIPOLE MOMENT
-------------
                                X             Y             Z
Electronic contribution:      2.12941      -2.77776       5.39412
Nuclear contribution   :     -2.72890       2.85631      -6.29588
                        -----------------------------------------
Total Dipole Moment    :     -0.59949       0.07854      -0.90175
                        -----------------------------------------
Magnitude (a.u.)       :      1.08569
Magnitude (Debye)      :      2.75960

                             ****ORCA TERMINATED NORMALLY****
TOTAL RUN TIME: 0 days 0 hours 16 minutes 28 seconds 840 msec
