                         Program Version 3.0.3 - RELEASE   -
|  1> ! RI-MP2 RIJK def2-TZVP def2-TZVP/C def2-TZVP/JK TIGHTSCF
|  2> % maxcore 2000
|  3> % mp2 density relaxed end
|  4> *xyz 0 1
|  5>  C        0.0657864108     1.5089205605    -0.1242916115
|  6>  C        0.0978665947     0.0164491864     0.0768375349
|  7>  O        1.3696758443    -0.6299209187     0.1170569700
|  8>  C        0.5539330359    -0.6755706323     1.3109125279
|  9>  C        1.1052714738     0.0593918849     2.5186152070
| 10>  C        2.3143448600    -0.6500787996     3.1232144489
| 11>  O        2.7441917942     0.1287530964     4.2298999559
| 12>  C       -0.0226210050    -1.9739708142     1.5951439635
| 13>  C       -0.5106896644    -3.0419027966     1.8540880926
| 14>  H        0.8282771372     2.0221617237     0.4631665299
| 15>  H        0.2419786347     1.7397329494    -1.1802028896
| 16>  H       -0.9179119024     1.9075506916     0.1452870785
| 17>  H       -0.6426328014    -0.5301392061    -0.5105239425
| 18>  H        1.4044900444     1.0719763668     2.2408268643
| 19>  H        0.3218129218     0.1419283886     3.2799633581
| 20>  H        2.0337052272    -1.6680458082     3.4314842172
| 21>  H        3.1010732935    -0.7369590286     2.3590019856
| 22>  H        3.5125093156    -0.3004516469     4.6169676398
| 23>  H       -0.9389671550    -3.9886053472     2.0740995494
| 24> *
| 25>
| 26>                          ****END OF INPUT****

CARTESIAN COORDINATES (ANGSTROEM)
---------------------------------
  C      0.065786    1.508921   -0.124292
  C      0.097867    0.016449    0.076838
  O      1.369676   -0.629921    0.117057
  C      0.553933   -0.675571    1.310913
  C      1.105271    0.059392    2.518615
  C      2.314345   -0.650079    3.123214
  O      2.744192    0.128753    4.229900
  C     -0.022621   -1.973971    1.595144
  C     -0.510690   -3.041903    1.854088
  H      0.828277    2.022162    0.463167
  H      0.241979    1.739733   -1.180203
  H     -0.917912    1.907551    0.145287
  H     -0.642633   -0.530139   -0.510524
  H      1.404490    1.071976    2.240827
  H      0.321813    0.141928    3.279963
  H      2.033705   -1.668046    3.431484
  H      3.101073   -0.736959    2.359002
  H      3.512509   -0.300452    4.616968
  H     -0.938967   -3.988605    2.074100

 Total Charge           Charge          ....    0
 Multiplicity           Mult            ....    1
 Number of Electrons    NEL             ....   68
 Basis Dimension        Dim             ....  339

ORBITAL ENERGIES
----------------

  NO   OCC          E(Eh)            E(eV)
   0   2.0000     -20.574123      -559.8504
   1   2.0000     -20.556693      -559.3761
   2   2.0000     -11.318007      -307.9786
   3   2.0000     -11.299098      -307.4641
   4   2.0000     -11.276068      -306.8374
   5   2.0000     -11.241360      -305.8930
   6   2.0000     -11.234742      -305.7129
   7   2.0000     -11.233811      -305.6875
   8   2.0000     -11.231789      -305.6325
   9   2.0000      -1.419358       -38.6227
  10   2.0000      -1.360707       -37.0267
  11   2.0000      -1.076732       -29.2994
  12   2.0000      -1.024410       -27.8756
  13   2.0000      -1.017737       -27.6940
  14   2.0000      -0.921605       -25.0781
  15   2.0000      -0.846157       -23.0251
  16   2.0000      -0.814244       -22.1567
  17   2.0000      -0.736429       -20.0393
  18   2.0000      -0.701738       -19.0953
  19   2.0000      -0.698882       -19.0175
  20   2.0000      -0.650951       -17.7133
  21   2.0000      -0.628667       -17.1069
  22   2.0000      -0.607140       -16.5211
  23   2.0000      -0.591712       -16.1013
  24   2.0000      -0.566579       -15.4174
  25   2.0000      -0.550705       -14.9855
  26   2.0000      -0.525723       -14.3056
  27   2.0000      -0.513470       -13.9722
  28   2.0000      -0.503220       -13.6933
  29   2.0000      -0.471677       -12.8350
  30   2.0000      -0.449641       -12.2354
  31   2.0000      -0.443010       -12.0549
  32   2.0000      -0.402926       -10.9642
  33   2.0000      -0.379617       -10.3299
  34   0.0000       0.140113         3.8127
  35   0.0000       0.144204         3.9240
  36   0.0000       0.157718         4.2917
  37   0.0000       0.159284         4.3343
  38   0.0000       0.170718         4.6455

MULLIKEN ATOMIC CHARGES
-----------------------
   0 C :   -0.378919
   1 C :    0.048792
   2 O :   -0.330453
   3 C :   -0.007508
   4 C :   -0.132087
   5 C :   -0.116742
   6 O :   -0.466133
   7 C :   -0.006438
   8 C :   -0.120198
   9 H :    0.138273
  10 H :    0.143846
  11 H :    0.135632
  12 H :    0.118904
  13 H :    0.105612
  14 H :    0.124191
  15 H :    0.113696
  16 H :    0.117276
  17 H :    0.317814
  18 H :    0.194441
Sum of atomic charges:    0.0000000

LOEWDIN ATOMIC CHARGES
----------------------
   0 C :   -0.290332
   1 C :   -0.256408
   2 O :    0.192538
   3 C :   -0.288642
   4 C :   -0.209784
   5 C :   -0.338681
   6 O :   -0.050902
   7 C :   -0.063045
   8 C :   -0.077187
   9 H :    0.127568
  10 H :    0.132843
  11 H :    0.133206
  12 H :    0.144124
  13 H :    0.147084
  14 H :    0.153524
  15 H :    0.120785
  16 H :    0.121381
  17 H :    0.173179
  18 H :    0.128748

  Mayer bond orders larger than 0.1
B(  0-C ,  1-C ) :   0.8772 B(  0-C ,  9-H ) :   0.9413 B(  0-C , 10-H ) :   0.9317
B(  0-C , 11-H ) :   0.9230 B(  1-C ,  2-O ) :   0.9089 B(  1-C ,  3-C ) :   0.9602
B(  1-C , 12-H ) :   0.9194 B(  2-O ,  3-C ) :   0.8566 B(  3-C ,  4-C ) :   0.9302
B(  3-C ,  7-C ) :   1.1257 B(  3-C ,  8-C ) :  -0.1305 B(  4-C ,  5-C ) :   0.9319
B(  4-C ,  6-O ) :  -0.1007 B(  4-C , 13-H ) :   0.9088 B(  4-C , 14-H ) :   0.9179
B(  5-C ,  6-O ) :   1.0164 B(  5-C , 15-H ) :   0.9337 B(  5-C , 16-H ) :   0.9293
B(  6-O , 17-H ) :   0.8485 B(  7-C ,  8-C ) :   2.5964 B(  8-C , 18-H ) :   0.8869

MP2 TOTAL ENERGY:     -422.258322050 Eh
FINAL SINGLE POINT ENERGY      -422.258322050403

DIPOLE MOMENT
-------------
                                X             Y             Z
Electronic contribution:      0.09584      -4.67909      -0.09045
Nuclear contribution   :     -0.35972       4.55885       0.19960
                        -----------------------------------------
Total Dipole Moment    :     -0.26387      -0.12025       0.10914
                        -----------------------------------------
Magnitude (a.u.)       :      0.30984
Magnitude (Debye)      :      0.78755

                             ****ORCA TERMINATED NORMALLY****
TOTAL RUN TIME: 0 days 0 hours 17 minutes 35 seconds 306 msec
