                         Program Version 3.0.3 - RELEASE   -
|  1> ! RI-MP2 RIJK def2-TZVP def2-TZVP/C def2-TZVP/JK TIGHTSCF
|  2> % maxcore 2000
|  3> % mp2 density relaxed end
|  4> *xyz 0 1
|  5>  C        0.0997077461     1.5841049267    -0.0158401822
|  6>  C        0.0102443273     0.0557329022    -0.0014879812
|  7>  O        0.7108562333    -0.3733786087     1.1506746087
|  8>  C       -1.4672507585    -0.4451559269     0.0056153262
|  9>  C       -2.2138857655     0.0030368181     1.1714644539
| 10>  C       -2.8368645788     0.3715543562     2.1301515224
| 11>  C        0.6592070477    -0.4995999527    -1.2171898226
| 12>  N        1.1563273648    -0.9635150712    -2.1516436673
| 13>  H        1.1469135259     1.8913852517     0.0008120451
| 14>  H       -0.3779764333     1.9920848357    -0.9095613365
| 15>  H       -0.4024964384     1.9722729582     0.8723762651
| 16>  H        0.6719087762    -1.3354571908     1.2022492251
| 17>  H       -1.9563365837    -0.1081910059    -0.9161135727
| 18>  H       -1.4604903531    -1.5419072231    -0.0375962137
| 19>  H       -3.3892728702     0.6936375906     2.9782193696
| 20> *
| 21>
| 22>                          ****END OF INPUT****

CARTESIAN COORDINATES (ANGSTROEM)
---------------------------------
  C      0.099708    1.584105   -0.015840
  C      0.010244    0.055733   -0.001488
  O      0.710856   -0.373379    1.150675
  C     -1.467251   -0.445156    0.005615
  C     -2.213886    0.003037    1.171464
  C     -2.836865    0.371554    2.130152
  C      0.659207   -0.499600   -1.217190
  N      1.156327   -0.963515   -2.151644
  H      1.146914    1.891385    0.000812
  H     -0.377976    1.992085   -0.909561
  H     -0.402496    1.972273    0.872376
  H      0.671909   -1.335457    1.202249
  H     -1.956337   -0.108191   -0.916114
  H     -1.460490   -1.541907   -0.037596
  H     -3.389273    0.693638    2.978219

 Total Charge           Charge          ....    0
 Multiplicity           Mult            ....    1
 Number of Electrons    NEL             ....   58
 Basis Dimension        Dim             ....  290

ORBITAL ENERGIES
----------------

  NO   OCC          E(Eh)            E(eV)
   0   2.0000     -20.593195      -560.3693
   1   2.0000     -15.584239      -424.0687
   2   2.0000     -11.359917      -309.1191
   3   2.0000     -11.286475      -307.1206
   4   2.0000     -11.280008      -306.9446
   5   2.0000     -11.251285      -306.1630
   6   2.0000     -11.243374      -305.9478
   7   2.0000     -11.239984      -305.8555
   8   2.0000      -1.407762       -38.3072
   9   2.0000      -1.229202       -33.4483
  10   2.0000      -1.117451       -30.4074
  11   2.0000      -1.045786       -28.4573
  12   2.0000      -0.978771       -26.6337
  13   2.0000      -0.890655       -24.2359
  14   2.0000      -0.771966       -21.0063
  15   2.0000      -0.734759       -19.9938
  16   2.0000      -0.690339       -18.7851
  17   2.0000      -0.662750       -18.0343
  18   2.0000      -0.646724       -17.5982
  19   2.0000      -0.591988       -16.1088
  20   2.0000      -0.586305       -15.9542
  21   2.0000      -0.566728       -15.4214
  22   2.0000      -0.556785       -15.1509
  23   2.0000      -0.537261       -14.6196
  24   2.0000      -0.502902       -13.6847
  25   2.0000      -0.478139       -13.0108
  26   2.0000      -0.471281       -12.8242
  27   2.0000      -0.405038       -11.0216
  28   2.0000      -0.404575       -11.0091
  29   0.0000       0.106197         2.8898
  30   0.0000       0.142063         3.8657
  31   0.0000       0.154872         4.2143
  32   0.0000       0.161156         4.3853
  33   0.0000       0.167836         4.5671

MULLIKEN ATOMIC CHARGES
-----------------------
   0 C :   -0.394356
   1 C :    0.363644
   2 O :   -0.440574
   3 C :   -0.476676
   4 C :    0.012353
   5 C :   -0.094904
   6 C :   -0.235880
   7 N :   -0.045263
   8 H :    0.154713
   9 H :    0.137163
  10 H :    0.164967
  11 H :    0.325881
  12 H :    0.166962
  13 H :    0.164666
  14 H :    0.197304
Sum of atomic charges:    0.0000000

LOEWDIN ATOMIC CHARGES
----------------------
   0 C :   -0.237405
   1 C :   -0.392116
   2 O :    0.048762
   3 C :   -0.203885
   4 C :   -0.111079
   5 C :   -0.087061
   6 C :   -0.154110
   7 N :    0.073081
   8 H :    0.137829
   9 H :    0.135576
  10 H :    0.140532
  11 H :    0.186580
  12 H :    0.169594
  13 H :    0.164615
  14 H :    0.129088

  Mayer bond orders larger than 0.1
B(  0-C ,  1-C ) :   0.8726 B(  0-C ,  8-H ) :   0.9303 B(  0-C ,  9-H ) :   0.9234
B(  0-C , 10-H ) :   0.9330 B(  1-C ,  2-O ) :   0.9300 B(  1-C ,  3-C ) :   0.9155
B(  1-C ,  6-C ) :   0.9081 B(  2-O , 11-H ) :   0.8345 B(  3-C ,  4-C ) :   1.0705
B(  3-C ,  5-C ) :  -0.1288 B(  3-C , 12-H ) :   0.9238 B(  3-C , 13-H ) :   0.9224
B(  4-C ,  5-C ) :   2.6373 B(  5-C , 14-H ) :   0.8856 B(  6-C ,  7-N ) :   2.8702

MP2 TOTAL ENERGY:     -362.018082516 Eh
FINAL SINGLE POINT ENERGY      -362.018082515825

DIPOLE MOMENT
-------------
                                X             Y             Z
Electronic contribution:      1.68165      -3.30270      -1.28174
Nuclear contribution   :     -2.53940       3.51554       2.00936
                        -----------------------------------------
Total Dipole Moment    :     -0.85775       0.21285       0.72762
                        -----------------------------------------
Magnitude (a.u.)       :      1.14476
Magnitude (Debye)      :      2.90975

                             ****ORCA TERMINATED NORMALLY****
TOTAL RUN TIME: 0 days 0 hours 10 minutes 48 seconds 709 msec
