                         Program Version 3.0.3 - RELEASE   -
|  1> ! RI-MP2 RIJK def2-TZVP def2-TZVP/C def2-TZVP/JK TIGHTSCF
|  2> % maxcore 2000
|  3> % mp2 density relaxed end
|  4> *xyz 0 1
|  5>  N       -0.0411860081    -1.1452325209     0.5212272659
|  6>  C       -0.0096615794    -0.0155440102     0.2832810754
|  7>  C        0.0272218311     1.4209968475    -0.0187990047
|  8>  C        1.4136046988     1.9684515494    -0.1362485053
|  9>  C        2.1290421117     2.4673956449    -1.1786735250
| 10>  C        3.4051983485     2.8442529762    -0.6448438201
| 11>  C        3.3616937925     2.5416734823     0.6774414850
| 12>  O        2.1538559007     2.0086928560     1.0050736220
| 13>  H       -0.5012118427     1.5936141199    -0.9612308351
| 14>  H       -0.5318888445     1.9490582602     0.7635807284
| 15>  H        1.7944201526     2.5541268588    -2.2005998894
| 16>  H        4.2353654563     3.2789997888    -1.1783482488
| 17>  H        4.0639621625     2.6366013770     1.4887376616
| 18> *
| 19>
| 20>                          ****END OF INPUT****

CARTESIAN COORDINATES (ANGSTROEM)
---------------------------------
  N     -0.041186   -1.145233    0.521227
  C     -0.009662   -0.015544    0.283281
  C      0.027222    1.420997   -0.018799
  C      1.413605    1.968452   -0.136249
  C      2.129042    2.467396   -1.178674
  C      3.405198    2.844253   -0.644844
  C      3.361694    2.541673    0.677441
  O      2.153856    2.008693    1.005074
  H     -0.501212    1.593614   -0.961231
  H     -0.531889    1.949058    0.763581
  H      1.794420    2.554127   -2.200600
  H      4.235365    3.279000   -1.178348
  H      4.063962    2.636601    1.488738

 Total Charge           Charge          ....    0
 Multiplicity           Mult            ....    1
 Number of Electrons    NEL             ....   56
 Basis Dimension        Dim             ....  278

ORBITAL ENERGIES
----------------

  NO   OCC          E(Eh)            E(eV)
   0   2.0000     -20.637175      -561.5661
   1   2.0000     -15.572756      -423.7562
   2   2.0000     -11.315345      -307.9062
   3   2.0000     -11.303759      -307.5909
   4   2.0000     -11.301231      -307.5221
   5   2.0000     -11.278068      -306.8918
   6   2.0000     -11.247353      -306.0560
   7   2.0000     -11.242831      -305.9330
   8   2.0000      -1.476858       -40.1874
   9   2.0000      -1.222232       -33.2586
  10   2.0000      -1.108451       -30.1625
  11   2.0000      -1.088997       -29.6331
  12   2.0000      -0.980725       -26.6869
  13   2.0000      -0.828058       -22.5326
  14   2.0000      -0.788438       -21.4545
  15   2.0000      -0.749391       -20.3920
  16   2.0000      -0.706244       -19.2179
  17   2.0000      -0.658543       -17.9199
  18   2.0000      -0.634816       -17.2742
  19   2.0000      -0.612003       -16.6535
  20   2.0000      -0.591510       -16.0958
  21   2.0000      -0.580035       -15.7835
  22   2.0000      -0.561940       -15.2912
  23   2.0000      -0.552644       -15.0382
  24   2.0000      -0.466375       -12.6907
  25   2.0000      -0.463297       -12.6070
  26   2.0000      -0.414370       -11.2756
  27   2.0000      -0.333500        -9.0750
  28   0.0000       0.118566         3.2263
  29   0.0000       0.130272         3.5449
  30   0.0000       0.158675         4.3178
  31   0.0000       0.169779         4.6199
  32   0.0000       0.179645         4.8884

MULLIKEN ATOMIC CHARGES
-----------------------
   0 N :   -0.062511
   1 C :   -0.157045
   2 C :   -0.170557
   3 C :    0.232319
   4 C :   -0.251884
   5 C :   -0.141074
   6 C :   -0.033339
   7 O :   -0.216278
   8 H :    0.177017
   9 H :    0.174390
  10 H :    0.147453
  11 H :    0.147280
  12 H :    0.154229
Sum of atomic charges:   -0.0000000

LOEWDIN ATOMIC CHARGES
----------------------
   0 N :    0.063648
   1 C :   -0.180676
   2 C :   -0.210473
   3 C :   -0.248988
   4 C :   -0.156053
   5 C :   -0.182878
   6 C :   -0.232471
   7 O :    0.366353
   8 H :    0.178107
   9 H :    0.175570
  10 H :    0.147000
  11 H :    0.145752
  12 H :    0.135109

  Mayer bond orders larger than 0.1
B(  0-N ,  1-C ) :   2.8519 B(  1-C ,  2-C ) :   0.9277 B(  2-C ,  3-C ) :   0.9013
B(  2-C ,  8-H ) :   0.9231 B(  2-C ,  9-H ) :   0.9088 B(  3-C ,  4-C ) :   1.5096
B(  3-C ,  7-O ) :   1.0242 B(  4-C ,  5-C ) :   1.2045 B(  4-C , 10-H ) :   0.9162
B(  5-C ,  6-C ) :   1.5558 B(  5-C , 11-H ) :   0.9225 B(  6-C ,  7-O ) :   1.0486
B(  6-C , 12-H ) :   0.9329

MP2 TOTAL ENERGY:     -360.874113303 Eh
FINAL SINGLE POINT ENERGY      -360.874113303299

DIPOLE MOMENT
-------------
                                X             Y             Z
Electronic contribution:     -0.97160      -2.57704       1.82533
Nuclear contribution   :      1.18444       4.12142      -2.33915
                        -----------------------------------------
Total Dipole Moment    :      0.21284       1.54438      -0.51382
                        -----------------------------------------
Magnitude (a.u.)       :      1.64147
Magnitude (Debye)      :      4.17228

                             ****ORCA TERMINATED NORMALLY****
TOTAL RUN TIME: 0 days 0 hours 9 minutes 12 seconds 638 msec
