                         Program Version 3.0.3 - RELEASE   -
|  1> ! RI-MP2 RIJK def2-TZVP def2-TZVP/C def2-TZVP/JK TIGHTSCF
|  2> % maxcore 2000
|  3> % mp2 density relaxed end
|  4> *xyz 0 1
|  5>  C       -0.1226314938     1.1897669719     0.7636858951
|  6>  C       -0.2285649242    -0.1321824882     0.0221720726
|  7>  O        0.8985108680    -0.2650922626    -0.8232800513
|  8>  C        0.9213892835    -1.4641642945    -1.5471866733
|  9>  C       -0.0210707588    -1.6118511937    -2.7849250907
| 10>  C        1.1930181510    -2.1507288669    -3.5541183149
| 11>  C        1.2839812923    -3.5071172874    -4.1921132309
| 12>  C        1.4018592298    -2.2532838117    -5.0324231839
| 13>  C        2.1452637605    -1.6092450845    -2.4789336603
| 14>  H        0.7931211940     1.2218328125     1.3608878800
| 15>  H       -0.0988862341     2.0244829173     0.0573060419
| 16>  H       -0.9790809125     1.3236297106     1.4313278930
| 17>  H       -0.2674457585    -0.9743828017     0.7341506854
| 18>  H       -1.1581892705    -0.1685007360    -0.5688743227
| 19>  H        0.8174539964    -2.3253851464    -0.8692739097
| 20>  H       -0.8942534814    -2.2632444244    -2.6921427030
| 21>  H       -0.3375788674    -0.6262882467    -3.1431340301
| 22>  H        2.1814752887    -4.0946306940    -4.0241271789
| 23>  H        0.3762429056    -4.0964147096    -4.2796081298
| 24>  H        0.5738034362    -1.9968674459    -5.6860484523
| 25>  H        2.3780669427    -1.9957022737    -5.4315936183
| 26>  H        2.5419230345    -0.6205378097    -2.7304890147
| 27>  H        2.9625760979    -2.2520250147    -2.1423204933
| 28> *
| 29>
| 30>                          ****END OF INPUT****

CARTESIAN COORDINATES (ANGSTROEM)
---------------------------------
  C     -0.122631    1.189767    0.763686
  C     -0.228565   -0.132182    0.022172
  O      0.898511   -0.265092   -0.823280
  C      0.921389   -1.464164   -1.547187
  C     -0.021071   -1.611851   -2.784925
  C      1.193018   -2.150729   -3.554118
  C      1.283981   -3.507117   -4.192113
  C      1.401859   -2.253284   -5.032423
  C      2.145264   -1.609245   -2.478934
  H      0.793121    1.221833    1.360888
  H     -0.098886    2.024483    0.057306
  H     -0.979081    1.323630    1.431328
  H     -0.267446   -0.974383    0.734151
  H     -1.158189   -0.168501   -0.568874
  H      0.817454   -2.325385   -0.869274
  H     -0.894253   -2.263244   -2.692143
  H     -0.337579   -0.626288   -3.143134
  H      2.181475   -4.094631   -4.024127
  H      0.376243   -4.096415   -4.279608
  H      0.573803   -1.996867   -5.686048
  H      2.378067   -1.995702   -5.431594
  H      2.541923   -0.620538   -2.730489
  H      2.962576   -2.252025   -2.142320

 Total Charge           Charge          ....    0
 Multiplicity           Mult            ....    1
 Number of Electrons    NEL             ....   70
 Basis Dimension        Dim             ....  363

ORBITAL ENERGIES
----------------

  NO   OCC          E(Eh)            E(eV)
   0   2.0000     -20.549491      -559.1801
   1   2.0000     -11.274857      -306.8044
   2   2.0000     -11.272064      -306.7284
   3   2.0000     -11.233057      -305.6670
   4   2.0000     -11.220595      -305.3279
   5   2.0000     -11.219167      -305.2890
   6   2.0000     -11.218105      -305.2602
   7   2.0000     -11.215943      -305.2013
   8   2.0000     -11.212371      -305.1041
   9   2.0000      -1.374225       -37.3946
  10   2.0000      -1.161053       -31.5939
  11   2.0000      -1.066137       -29.0111
  12   2.0000      -1.005255       -27.3544
  13   2.0000      -0.906014       -24.6539
  14   2.0000      -0.845525       -23.0079
  15   2.0000      -0.821876       -22.3644
  16   2.0000      -0.806848       -21.9554
  17   2.0000      -0.722401       -19.6575
  18   2.0000      -0.677565       -18.4375
  19   2.0000      -0.664042       -18.0695
  20   2.0000      -0.647011       -17.6061
  21   2.0000      -0.632553       -17.2126
  22   2.0000      -0.586868       -15.9695
  23   2.0000      -0.574113       -15.6224
  24   2.0000      -0.546566       -14.8728
  25   2.0000      -0.543072       -14.7777
  26   2.0000      -0.526884       -14.3372
  27   2.0000      -0.506466       -13.7816
  28   2.0000      -0.498293       -13.5593
  29   2.0000      -0.484894       -13.1946
  30   2.0000      -0.459295       -12.4981
  31   2.0000      -0.446094       -12.1388
  32   2.0000      -0.416355       -11.3296
  33   2.0000      -0.397089       -10.8054
  34   2.0000      -0.383946       -10.4477
  35   0.0000       0.139736         3.8024
  36   0.0000       0.153452         4.1756
  37   0.0000       0.157306         4.2805
  38   0.0000       0.172910         4.7051
  39   0.0000       0.180850         4.9212

MULLIKEN ATOMIC CHARGES
-----------------------
   0 C :   -0.360901
   1 C :   -0.047416
   2 O :   -0.285510
   3 C :   -0.006572
   4 C :   -0.186475
   5 C :    0.027867
   6 C :   -0.310876
   7 C :   -0.266053
   8 C :   -0.142175
   9 H :    0.129055
  10 H :    0.128930
  11 H :    0.121194
  12 H :    0.090165
  13 H :    0.095047
  14 H :    0.066385
  15 H :    0.116981
  16 H :    0.104599
  17 H :    0.123871
  18 H :    0.123623
  19 H :    0.125752
  20 H :    0.126539
  21 H :    0.108570
  22 H :    0.117402
Sum of atomic charges:    0.0000000

LOEWDIN ATOMIC CHARGES
----------------------
   0 C :   -0.317539
   1 C :   -0.348623
   2 O :    0.180174
   3 C :   -0.302008
   4 C :   -0.186392
   5 C :   -0.233454
   6 C :   -0.210404
   7 C :   -0.214183
   8 C :   -0.174264
   9 H :    0.123850
  10 H :    0.123667
  11 H :    0.123639
  12 H :    0.115904
  13 H :    0.117477
  14 H :    0.131603
  15 H :    0.126521
  16 H :    0.141037
  17 H :    0.131789
  18 H :    0.131484
  19 H :    0.133240
  20 H :    0.133492
  21 H :    0.144122
  22 H :    0.128868

  Mayer bond orders larger than 0.1
B(  0-C ,  1-C ) :   0.9542 B(  0-C ,  9-H ) :   0.9361 B(  0-C , 10-H ) :   0.9371
B(  0-C , 11-H ) :   0.9333 B(  1-C ,  2-O ) :   0.9046 B(  1-C , 12-H ) :   0.9204
B(  1-C , 13-H ) :   0.9226 B(  2-O ,  3-C ) :   1.0537 B(  3-C ,  4-C ) :   0.9726
B(  3-C ,  8-C ) :   0.9537 B(  3-C , 14-H ) :   0.9392 B(  4-C ,  5-C ) :   0.9164
B(  4-C , 15-H ) :   0.9108 B(  4-C , 16-H ) :   0.8975 B(  5-C ,  6-C ) :   0.8534
B(  5-C ,  7-C ) :   0.8314 B(  5-C ,  8-C ) :   0.8842 B(  6-C ,  7-C ) :   0.9429
B(  6-C , 17-H ) :   0.9238 B(  6-C , 18-H ) :   0.9232 B(  7-C , 19-H ) :   0.9250
B(  7-C , 20-H ) :   0.9244 B(  8-C , 21-H ) :   0.9049 B(  8-C , 22-H ) :   0.9151

MP2 TOTAL ENERGY:     -387.576576477 Eh
FINAL SINGLE POINT ENERGY      -387.576576476727

DIPOLE MOMENT
-------------
                                X             Y             Z
Electronic contribution:      1.96420      -1.07615      -1.48514
Nuclear contribution   :     -2.30479       0.84502       1.57814
                        -----------------------------------------
Total Dipole Moment    :     -0.34059      -0.23113       0.09299
                        -----------------------------------------
Magnitude (a.u.)       :      0.42198
Magnitude (Debye)      :      1.07260

                             ****ORCA TERMINATED NORMALLY****
TOTAL RUN TIME: 0 days 0 hours 17 minutes 20 seconds 712 msec
