                         Program Version 3.0.3 - RELEASE   -
|  1> ! RI-MP2 RIJK def2-TZVP def2-TZVP/C def2-TZVP/JK TIGHTSCF
|  2> % maxcore 2000
|  3> % mp2 density relaxed end
|  4> *xyz 0 1
|  5>  C        0.0157990406     1.4606108632     0.1394473975
|  6>  C       -0.0074273824    -0.0179381460    -0.0585273048
|  7>  C        0.7129729260    -0.9373392011    -1.0700901191
|  8>  C        0.0517268110    -1.8359185316    -0.0122294705
|  9>  O        0.5115411490    -0.8986033505     1.0414850591
| 10>  C       -1.2612447140    -0.9844036570    -0.0816352887
| 11>  O       -2.0793919843    -0.9743826227     1.0374620684
| 12>  C       -2.0838112348    -1.0393426151    -1.2864945564
| 13>  N       -2.6961647151    -1.0738300860    -2.2655101393
| 14>  H        1.0340715102     1.8062727988     0.3387563957
| 15>  H       -0.3552418758     1.9621607080    -0.7593532075
| 16>  H       -0.6243855051     1.7408768847     0.9812416513
| 17>  H        0.3412978819    -0.9733569469    -2.0953389812
| 18>  H        1.7999365980    -0.9045781640    -1.0060132793
| 19>  H        0.1574332162    -2.9022980540     0.1818888119
| 20>  H       -1.4576081814    -0.9525742098     1.7826171327
| 21> *
| 22>
| 23>                          ****END OF INPUT****

CARTESIAN COORDINATES (ANGSTROEM)
---------------------------------
  C      0.015799    1.460611    0.139447
  C     -0.007427   -0.017938   -0.058527
  C      0.712973   -0.937339   -1.070090
  C      0.051727   -1.835919   -0.012229
  O      0.511541   -0.898603    1.041485
  C     -1.261245   -0.984404   -0.081635
  O     -2.079392   -0.974383    1.037462
  C     -2.083811   -1.039343   -1.286495
  N     -2.696165   -1.073830   -2.265510
  H      1.034072    1.806273    0.338756
  H     -0.355242    1.962161   -0.759353
  H     -0.624386    1.740877    0.981242
  H      0.341298   -0.973357   -2.095339
  H      1.799937   -0.904578   -1.006013
  H      0.157433   -2.902298    0.181889
  H     -1.457608   -0.952574    1.782617

 Total Charge           Charge          ....    0
 Multiplicity           Mult            ....    1
 Number of Electrons    NEL             ....   66
 Basis Dimension        Dim             ....  321

ORBITAL ENERGIES
----------------

  NO   OCC          E(Eh)            E(eV)
   0   2.0000     -20.591865      -560.3331
   1   2.0000     -20.585030      -560.1472
   2   2.0000     -15.585915      -424.1143
   3   2.0000     -11.357059      -309.0413
   4   2.0000     -11.340071      -308.5790
   5   2.0000     -11.333708      -308.4059
   6   2.0000     -11.284132      -307.0568
   7   2.0000     -11.264004      -306.5091
   8   2.0000     -11.248376      -306.0839
   9   2.0000      -1.449454       -39.4417
  10   2.0000      -1.388666       -37.7875
  11   2.0000      -1.230589       -33.4860
  12   2.0000      -1.113592       -30.3024
  13   2.0000      -1.032931       -28.1075
  14   2.0000      -0.965762       -26.2797
  15   2.0000      -0.872807       -23.7503
  16   2.0000      -0.839972       -22.8568
  17   2.0000      -0.722692       -19.6654
  18   2.0000      -0.705568       -19.1995
  19   2.0000      -0.685981       -18.6665
  20   2.0000      -0.642415       -17.4810
  21   2.0000      -0.624340       -16.9892
  22   2.0000      -0.617595       -16.8056
  23   2.0000      -0.580017       -15.7831
  24   2.0000      -0.575077       -15.6486
  25   2.0000      -0.558596       -15.2002
  26   2.0000      -0.541079       -14.7235
  27   2.0000      -0.509337       -13.8598
  28   2.0000      -0.500223       -13.6118
  29   2.0000      -0.490821       -13.3559
  30   2.0000      -0.486805       -13.2466
  31   2.0000      -0.449283       -12.2256
  32   2.0000      -0.426665       -11.6102
  33   0.0000       0.128939         3.5086
  34   0.0000       0.144596         3.9347
  35   0.0000       0.148333         4.0363
  36   0.0000       0.169887         4.6229
  37   0.0000       0.174627         4.7518

MULLIKEN ATOMIC CHARGES
-----------------------
   0 C :   -0.422720
   1 C :    0.021222
   2 C :   -0.156531
   3 C :   -0.051653
   4 O :   -0.316730
   5 C :    0.348286
   6 O :   -0.439639
   7 C :   -0.193673
   8 N :   -0.038105
   9 H :    0.156563
  10 H :    0.158412
  11 H :    0.151613
  12 H :    0.152269
  13 H :    0.132283
  14 H :    0.156668
  15 H :    0.341735
Sum of atomic charges:   -0.0000000

LOEWDIN ATOMIC CHARGES
----------------------
   0 C :   -0.262579
   1 C :   -0.246997
   2 C :   -0.167553
   3 C :   -0.181622
   4 O :    0.136688
   5 C :   -0.317062
   6 O :    0.055881
   7 C :   -0.136546
   8 N :    0.083973
   9 H :    0.140032
  10 H :    0.143542
  11 H :    0.140051
  12 H :    0.143025
  13 H :    0.142120
  14 H :    0.132138
  15 H :    0.194909

  Mayer bond orders larger than 0.1
B(  0-C ,  1-C ) :   0.8563 B(  0-C ,  9-H ) :   0.9378 B(  0-C , 10-H ) :   0.9301
B(  0-C , 11-H ) :   0.9317 B(  1-C ,  2-C ) :   0.8879 B(  1-C ,  4-O ) :   0.8663
B(  1-C ,  5-C ) :   0.8655 B(  2-C ,  3-C ) :   0.9299 B(  2-C , 12-H ) :   0.9091
B(  2-C , 13-H ) :   0.9144 B(  3-C ,  4-O ) :   0.8784 B(  3-C ,  5-C ) :   0.9191
B(  3-C , 14-H ) :   0.8850 B(  5-C ,  6-O ) :   1.0610 B(  5-C ,  7-C ) :   0.9108
B(  6-O , 15-H ) :   0.7963 B(  7-C ,  8-N ) :   2.8451

MP2 TOTAL ENERGY:     -437.118641255 Eh
FINAL SINGLE POINT ENERGY      -437.118641255175

DIPOLE MOMENT
-------------
                                X             Y             Z
Electronic contribution:     -4.42195      -3.98957      -0.48396
Nuclear contribution   :      5.70073       4.26923       0.92942
                        -----------------------------------------
Total Dipole Moment    :      1.27878       0.27966       0.44546
                        -----------------------------------------
Magnitude (a.u.)       :      1.38273
Magnitude (Debye)      :      3.51462

                             ****ORCA TERMINATED NORMALLY****
TOTAL RUN TIME: 0 days 0 hours 16 minutes 56 seconds 252 msec
