                         Program Version 3.0.3 - RELEASE   -
|  1> ! RI-MP2 RIJK def2-TZVP def2-TZVP/C def2-TZVP/JK TIGHTSCF
|  2> % maxcore 2000
|  3> % mp2 density relaxed end
|  4> *xyz 0 1
|  5>  C       -0.0093417712     1.5005445430     0.1264698167
|  6>  C        1.2993278742     0.7733182049    -0.0217799270
|  7>  C        2.0977453239     0.4674826952     1.2627335831
|  8>  C        1.4493135617    -0.8365774878     1.7794760070
|  9>  O        1.3746189216    -1.0445622566     3.1780991796
| 10>  C        0.0600511324    -1.5379903363     3.4726443335
| 11>  C       -0.7883592369    -1.1556904091     2.2758372100
| 12>  C        0.0198581875    -0.7432661273     1.3068612155
| 13>  C       -0.0170905723    -0.0120127896     0.0163803782
| 14>  H       -0.2526811534     1.9453446636     1.0860236279
| 15>  H       -0.3776169865     2.0537997493    -0.7316378777
| 16>  H        1.8412861630     0.8877663394    -0.9532775449
| 17>  H        3.1648799655     0.3537722995     1.0580308939
| 18>  H        1.9821323130     1.2573745386     2.0123000370
| 19>  H        1.9573576074    -1.6921744233     1.2956583512
| 20>  H        0.0882183158    -2.6287037505     3.6415220441
| 21>  H       -0.2891644936    -1.0741785344     4.4046358347
| 22>  H       -1.8704513113    -1.1854794305     2.2839229903
| 23>  H       -0.4413632206    -0.4643760683    -0.8726388031
| 24> *
| 25>
| 26>                          ****END OF INPUT****

CARTESIAN COORDINATES (ANGSTROEM)
---------------------------------
  C     -0.009342    1.500545    0.126470
  C      1.299328    0.773318   -0.021780
  C      2.097745    0.467483    1.262734
  C      1.449314   -0.836577    1.779476
  O      1.374619   -1.044562    3.178099
  C      0.060051   -1.537990    3.472644
  C     -0.788359   -1.155690    2.275837
  C      0.019858   -0.743266    1.306861
  C     -0.017091   -0.012013    0.016380
  H     -0.252681    1.945345    1.086024
  H     -0.377617    2.053800   -0.731638
  H      1.841286    0.887766   -0.953278
  H      3.164880    0.353772    1.058031
  H      1.982132    1.257375    2.012300
  H      1.957358   -1.692174    1.295658
  H      0.088218   -2.628704    3.641522
  H     -0.289164   -1.074179    4.404636
  H     -1.870451   -1.185479    2.283923
  H     -0.441363   -0.464376   -0.872639

 Total Charge           Charge          ....    0
 Multiplicity           Mult            ....    1
 Number of Electrons    NEL             ....   66
 Basis Dimension        Dim             ....  339

ORBITAL ENERGIES
----------------

  NO   OCC          E(Eh)            E(eV)
   0   2.0000     -20.547250      -559.1191
   1   2.0000     -11.276362      -306.8454
   2   2.0000     -11.272833      -306.7494
   3   2.0000     -11.240557      -305.8711
   4   2.0000     -11.237378      -305.7846
   5   2.0000     -11.232728      -305.6581
   6   2.0000     -11.230165      -305.5883
   7   2.0000     -11.224429      -305.4323
   8   2.0000     -11.224180      -305.4255
   9   2.0000      -1.373250       -37.3680
  10   2.0000      -1.177336       -32.0369
  11   2.0000      -1.058244       -28.7963
  12   2.0000      -1.018500       -27.7148
  13   2.0000      -0.935456       -25.4550
  14   2.0000      -0.842383       -22.9224
  15   2.0000      -0.804351       -21.8875
  16   2.0000      -0.777982       -21.1700
  17   2.0000      -0.737752       -20.0753
  18   2.0000      -0.682724       -18.5779
  19   2.0000      -0.667357       -18.1597
  20   2.0000      -0.635402       -17.2902
  21   2.0000      -0.599679       -16.3181
  22   2.0000      -0.588167       -16.0048
  23   2.0000      -0.569534       -15.4978
  24   2.0000      -0.541654       -14.7391
  25   2.0000      -0.530702       -14.4411
  26   2.0000      -0.502200       -13.6656
  27   2.0000      -0.489868       -13.3300
  28   2.0000      -0.464345       -12.6355
  29   2.0000      -0.439720       -11.9654
  30   2.0000      -0.417456       -11.3595
  31   2.0000      -0.399830       -10.8799
  32   2.0000      -0.335328        -9.1247
  33   0.0000       0.134072         3.6483
  34   0.0000       0.158281         4.3071
  35   0.0000       0.167103         4.5471
  36   0.0000       0.170795         4.6476
  37   0.0000       0.174368         4.7448

MULLIKEN ATOMIC CHARGES
-----------------------
   0 C :   -0.288635
   1 C :   -0.087422
   2 C :   -0.216645
   3 C :    0.119359
   4 O :   -0.335046
   5 C :    0.017484
   6 C :   -0.239419
   7 C :   -0.046452
   8 C :   -0.125742
   9 H :    0.134347
  10 H :    0.131265
  11 H :    0.128072
  12 H :    0.126383
  13 H :    0.114924
  14 H :    0.080451
  15 H :    0.098445
  16 H :    0.114967
  17 H :    0.136261
  18 H :    0.137402
Sum of atomic charges:    0.0000000

LOEWDIN ATOMIC CHARGES
----------------------
   0 C :   -0.193535
   1 C :   -0.180467
   2 C :   -0.200952
   3 C :   -0.258192
   4 O :    0.166647
   5 C :   -0.274870
   6 C :   -0.135574
   7 C :   -0.136705
   8 C :   -0.157362
   9 H :    0.136274
  10 H :    0.134797
  11 H :    0.140689
  12 H :    0.136504
  13 H :    0.142677
  14 H :    0.144237
  15 H :    0.122332
  16 H :    0.126244
  17 H :    0.139534
  18 H :    0.147725

  Mayer bond orders larger than 0.1
B(  0-C ,  1-C ) :   0.8995 B(  0-C ,  8-C ) :   0.8690 B(  0-C ,  9-H ) :   0.9195
B(  0-C , 10-H ) :   0.9262 B(  1-C ,  2-C ) :   0.9187 B(  1-C ,  8-C ) :   0.8676
B(  1-C , 11-H ) :   0.9276 B(  2-C ,  3-C ) :   0.9173 B(  2-C , 12-H ) :   0.9288
B(  2-C , 13-H ) :   0.9120 B(  3-C ,  4-O ) :   0.9866 B(  3-C ,  7-C ) :   0.9495
B(  3-C , 14-H ) :   0.9144 B(  4-O ,  5-C ) :   0.9237 B(  5-C ,  6-C ) :   0.9767
B(  5-C , 15-H ) :   0.9113 B(  5-C , 16-H ) :   0.9208 B(  6-C ,  7-C ) :   1.7358
B(  6-C , 17-H ) :   0.9130 B(  7-C ,  8-C ) :   0.9326 B(  8-C , 18-H ) :   0.9190

MP2 TOTAL ENERGY:     -385.197368945 Eh
FINAL SINGLE POINT ENERGY      -385.197368944739

DIPOLE MOMENT
-------------
                                X             Y             Z
Electronic contribution:      0.05691      -2.13564       1.42706
Nuclear contribution   :     -0.47561       2.22589      -1.92255
                        -----------------------------------------
Total Dipole Moment    :     -0.41870       0.09025      -0.49550
                        -----------------------------------------
Magnitude (a.u.)       :      0.65496
Magnitude (Debye)      :      1.66478

                             ****ORCA TERMINATED NORMALLY****
TOTAL RUN TIME: 0 days 0 hours 18 minutes 51 seconds 751 msec
