                         Program Version 3.0.3 - RELEASE   -
|  1> ! RI-MP2 RIJK def2-TZVP def2-TZVP/C def2-TZVP/JK TIGHTSCF
|  2> % maxcore 2000
|  3> % mp2 density relaxed end
|  4> *xyz 0 1
|  5>  N       -0.0082944157     1.4154361087     0.1382607700
|  6>  C       -0.0422471410     0.0270335862     0.0229722005
|  7>  C       -1.1096935491    -0.8323251005     0.0762983719
|  8>  N       -0.5442177982    -2.1090113211    -0.0152463755
|  9>  C        0.7852931821    -1.9290853236    -0.1175055394
| 10>  O        1.5854630186    -3.0207585228    -0.2392068654
| 11>  C        2.9250659608    -2.8718383031     0.0373240049
| 12>  O        3.6785787408    -3.7798781406    -0.1134260691
| 13>  N        1.1438626904    -0.6715461948    -0.1069893852
| 14>  H        0.8290380077     1.7982198806    -0.2806170099
| 15>  H       -0.8312827766     1.8747433618    -0.2265727833
| 16>  H       -2.1711185657    -0.6833077815     0.1624917711
| 17>  H       -1.0215526287    -2.9938529882    -0.0036285710
| 18>  H        3.1639840147    -1.8602742211     0.3910471504
| 19> *
| 20>
| 21>                          ****END OF INPUT****

CARTESIAN COORDINATES (ANGSTROEM)
---------------------------------
  N     -0.008294    1.415436    0.138261
  C     -0.042247    0.027034    0.022972
  C     -1.109694   -0.832325    0.076298
  N     -0.544218   -2.109011   -0.015246
  C      0.785293   -1.929085   -0.117506
  O      1.585463   -3.020759   -0.239207
  C      2.925066   -2.871838    0.037324
  O      3.678579   -3.779878   -0.113426
  N      1.143863   -0.671546   -0.106989
  H      0.829038    1.798220   -0.280617
  H     -0.831283    1.874743   -0.226573
  H     -2.171119   -0.683308    0.162492
  H     -1.021553   -2.993853   -0.003629
  H      3.163984   -1.860274    0.391047

 Total Charge           Charge          ....    0
 Multiplicity           Mult            ....    1
 Number of Electrons    NEL             ....   66
 Basis Dimension        Dim             ....  309

ORBITAL ENERGIES
----------------

  NO   OCC          E(Eh)            E(eV)
   0   2.0000     -20.646422      -561.8177
   1   2.0000     -20.571671      -559.7836
   2   2.0000     -15.627962      -425.2585
   3   2.0000     -15.567024      -423.6003
   4   2.0000     -15.558179      -423.3596
   5   2.0000     -11.399779      -310.2037
   6   2.0000     -11.384213      -309.7802
   7   2.0000     -11.301563      -307.5312
   8   2.0000     -11.252782      -306.2038
   9   2.0000      -1.502956       -40.8975
  10   2.0000      -1.410255       -38.3750
  11   2.0000      -1.347219       -36.6597
  12   2.0000      -1.227410       -33.3995
  13   2.0000      -1.168397       -31.7937
  14   2.0000      -1.005479       -27.3605
  15   2.0000      -0.906329       -24.6625
  16   2.0000      -0.843499       -22.9528
  17   2.0000      -0.805322       -21.9139
  18   2.0000      -0.796260       -21.6673
  19   2.0000      -0.711130       -19.3508
  20   2.0000      -0.693087       -18.8599
  21   2.0000      -0.679574       -18.4922
  22   2.0000      -0.659935       -17.9578
  23   2.0000      -0.628406       -17.0998
  24   2.0000      -0.616568       -16.7777
  25   2.0000      -0.602492       -16.3946
  26   2.0000      -0.584274       -15.8989
  27   2.0000      -0.518203       -14.1010
  28   2.0000      -0.492655       -13.4058
  29   2.0000      -0.489839       -13.3292
  30   2.0000      -0.458468       -12.4756
  31   2.0000      -0.404871       -11.0171
  32   2.0000      -0.299598        -8.1525
  33   0.0000       0.128699         3.5021
  34   0.0000       0.134872         3.6700
  35   0.0000       0.137669         3.7462
  36   0.0000       0.171924         4.6783
  37   0.0000       0.178137         4.8474

MULLIKEN ATOMIC CHARGES
-----------------------
   0 N :   -0.523661
   1 C :    0.200645
   2 C :   -0.182522
   3 N :   -0.262189
   4 C :    0.362785
   5 O :   -0.226020
   6 C :    0.191527
   7 O :   -0.247386
   8 N :   -0.372226
   9 H :    0.257729
  10 H :    0.245322
  11 H :    0.155681
  12 H :    0.262827
  13 H :    0.137488
Sum of atomic charges:   -0.0000000

LOEWDIN ATOMIC CHARGES
----------------------
   0 N :   -0.086401
   1 C :   -0.360629
   2 C :   -0.242022
   3 N :    0.193089
   4 C :   -0.440660
   5 O :    0.289936
   6 C :   -0.389219
   7 O :    0.143921
   8 N :    0.097687
   9 H :    0.172736
  10 H :    0.167524
  11 H :    0.133574
  12 H :    0.199046
  13 H :    0.121417

  Mayer bond orders larger than 0.1
B(  0-N ,  1-C ) :   1.0394 B(  0-N ,  9-H ) :   0.8721 B(  0-N , 10-H ) :   0.8807
B(  1-C ,  2-C ) :   1.5499 B(  1-C ,  8-N ) :   1.2346 B(  2-C ,  3-N ) :   1.0444
B(  2-C , 11-H ) :   0.9049 B(  3-N ,  4-C ) :   1.2262 B(  3-N , 12-H ) :   0.8603
B(  4-C ,  5-O ) :   1.0203 B(  4-C ,  8-N ) :   1.4965 B(  5-O ,  6-C ) :   0.9612
B(  6-C ,  7-O ) :   2.0493 B(  6-C , 13-H ) :   0.9170

MP2 TOTAL ENERGY:     -469.304903598 Eh
FINAL SINGLE POINT ENERGY      -469.304903598314

DIPOLE MOMENT
-------------
                                X             Y             Z
Electronic contribution:      2.96289      -4.90277      -0.37597
Nuclear contribution   :     -4.53945       5.48989       0.22670
                        -----------------------------------------
Total Dipole Moment    :     -1.57656       0.58712      -0.14927
                        -----------------------------------------
Magnitude (a.u.)       :      1.68894
Magnitude (Debye)      :      4.29295

                             ****ORCA TERMINATED NORMALLY****
TOTAL RUN TIME: 0 days 0 hours 11 minutes 56 seconds 831 msec
