                         Program Version 3.0.3 - RELEASE   -
|  1> ! RI-MP2 RIJK def2-TZVP def2-TZVP/C def2-TZVP/JK TIGHTSCF
|  2> % maxcore 2000
|  3> % mp2 density relaxed end
|  4> *xyz 0 1
|  5>  O        0.6349365507     0.2959447475     0.8766699836
|  6>  C        0.1661488676     1.2365588103     0.3064769871
|  7>  N       -0.8270380221     2.1208694811     0.7151519882
|  8>  C       -1.0193548843     3.0420843184    -0.2782812657
|  9>  N       -0.2498261517     2.8168291064    -1.2939480035
| 10>  O        0.5191699599     1.6800943113    -0.9410574577
| 11>  C       -1.9730262769     4.1631779440    -0.2109305554
| 12>  C       -1.4484225462     5.5573330032    -0.3665633435
| 13>  N       -2.2370802279     4.9365707028    -1.4273649532
| 14>  H       -1.2814212815     2.0706353406     1.6105576165
| 15>  H       -2.8400351474     3.9885733958     0.4214331745
| 16>  H       -1.9407582711     6.3665866923     0.1651288802
| 17>  H       -0.3764310055     5.6662104410    -0.5021572459
| 18>  H       -1.6278744335     4.5997814854    -2.1712317853
| 19> *
| 20>
| 21>                          ****END OF INPUT****

CARTESIAN COORDINATES (ANGSTROEM)
---------------------------------
  O      0.634937    0.295945    0.876670
  C      0.166149    1.236559    0.306477
  N     -0.827038    2.120869    0.715152
  C     -1.019355    3.042084   -0.278281
  N     -0.249826    2.816829   -1.293948
  O      0.519170    1.680094   -0.941057
  C     -1.973026    4.163178   -0.210931
  C     -1.448423    5.557333   -0.366563
  N     -2.237080    4.936571   -1.427365
  H     -1.281421    2.070635    1.610558
  H     -2.840035    3.988573    0.421433
  H     -1.940758    6.366587    0.165129
  H     -0.376431    5.666210   -0.502157
  H     -1.627874    4.599781   -2.171232

 Total Charge           Charge          ....    0
 Multiplicity           Mult            ....    1
 Number of Electrons    NEL             ....   66
 Basis Dimension        Dim             ....  309

ORBITAL ENERGIES
----------------

  NO   OCC          E(Eh)            E(eV)
   0   2.0000     -20.650067      -561.9169
   1   2.0000     -20.552951      -559.2742
   2   2.0000     -15.651868      -425.9090
   3   2.0000     -15.639622      -425.5758
   4   2.0000     -15.594583      -424.3502
   5   2.0000     -11.429971      -311.0253
   6   2.0000     -11.364200      -309.2356
   7   2.0000     -11.311854      -307.8112
   8   2.0000     -11.295705      -307.3718
   9   2.0000      -1.524773       -41.4912
  10   2.0000      -1.404731       -38.2247
  11   2.0000      -1.318131       -35.8682
  12   2.0000      -1.292542       -35.1719
  13   2.0000      -1.171646       -31.8821
  14   2.0000      -0.974205       -26.5095
  15   2.0000      -0.909467       -24.7478
  16   2.0000      -0.893172       -24.3044
  17   2.0000      -0.834498       -22.7078
  18   2.0000      -0.785062       -21.3626
  19   2.0000      -0.725158       -19.7326
  20   2.0000      -0.711761       -19.3680
  21   2.0000      -0.681750       -18.5513
  22   2.0000      -0.665831       -18.1182
  23   2.0000      -0.618954       -16.8426
  24   2.0000      -0.574246       -15.6260
  25   2.0000      -0.553743       -15.0681
  26   2.0000      -0.548061       -14.9135
  27   2.0000      -0.544253       -14.8099
  28   2.0000      -0.527889       -14.3646
  29   2.0000      -0.507556       -13.8113
  30   2.0000      -0.468006       -12.7351
  31   2.0000      -0.436125       -11.8676
  32   2.0000      -0.387408       -10.5419
  33   0.0000       0.109205         2.9716
  34   0.0000       0.124630         3.3913
  35   0.0000       0.152850         4.1593
  36   0.0000       0.157934         4.2976
  37   0.0000       0.168708         4.5908

MULLIKEN ATOMIC CHARGES
-----------------------
   0 O :   -0.305705
   1 C :    0.346061
   2 N :   -0.334393
   3 C :    0.216352
   4 N :   -0.158802
   5 O :   -0.131901
   6 C :   -0.095026
   7 C :   -0.150247
   8 N :   -0.349952
   9 H :    0.272977
  10 H :    0.155207
  11 H :    0.136249
  12 H :    0.150026
  13 H :    0.249153
Sum of atomic charges:    0.0000000

LOEWDIN ATOMIC CHARGES
----------------------
   0 O :    0.113971
   1 C :   -0.554293
   2 N :    0.176102
   3 C :   -0.339874
   4 N :    0.045782
   5 O :    0.235797
   6 C :   -0.248446
   7 C :   -0.239870
   8 N :    0.017207
   9 H :    0.205325
  10 H :    0.152274
  11 H :    0.128692
  12 H :    0.130588
  13 H :    0.176745

  Mayer bond orders larger than 0.1
B(  0-O ,  1-C ) :   2.0216 B(  1-C ,  2-N ) :   1.0470 B(  1-C ,  5-O ) :   1.0919
B(  2-N ,  3-C ) :   1.0828 B(  2-N ,  9-H ) :   0.8576 B(  3-C ,  4-N ) :   1.6509
B(  3-C ,  6-C ) :   0.9567 B(  4-N ,  5-O ) :   0.8115 B(  6-C ,  7-C ) :   0.9294
B(  6-C ,  8-N ) :   0.9758 B(  6-C , 10-H ) :   0.8904 B(  7-C ,  8-N ) :   0.9076
B(  7-C , 11-H ) :   0.9253 B(  7-C , 12-H ) :   0.9108 B(  8-N , 13-H ) :   0.8686

MP2 TOTAL ENERGY:     -469.240539037 Eh
FINAL SINGLE POINT ENERGY      -469.240539037130

DIPOLE MOMENT
-------------
                                X             Y             Z
Electronic contribution:      3.39895      -6.72015       0.06807
Nuclear contribution   :     -4.31067       7.92066       0.89061
                        -----------------------------------------
Total Dipole Moment    :     -0.91172       1.20051       0.95868
                        -----------------------------------------
Magnitude (a.u.)       :      1.78648
Magnitude (Debye)      :      4.54088

                             ****ORCA TERMINATED NORMALLY****
TOTAL RUN TIME: 0 days 0 hours 13 minutes 32 seconds 333 msec
