                         Program Version 3.0.3 - RELEASE   -
|  1> ! RI-MP2 RIJK def2-TZVP def2-TZVP/C def2-TZVP/JK TIGHTSCF
|  2> % maxcore 2000
|  3> % mp2 density relaxed end
|  4> *xyz 0 1
|  5>  O       -0.2489514687     0.3364714332    -0.9384297285
|  6>  C       -0.1365649676     1.3076683675    -0.2428335328
|  7>  C       -1.2116299713     1.9234317963     0.6614798408
|  8>  C       -0.8269629676     3.4106136048     0.8190870800
|  9>  C        0.6637112476     3.4470566293     0.5308532537
| 10>  O        1.3934410882     2.4655280918     1.2515701125
| 11>  C        1.0982494016     2.1990655574    -0.1486160253
| 12>  C        2.1881346263     2.0767809551    -1.0621423179
| 13>  C        3.0826802863     1.9463894355    -1.8532329770
| 14>  H       -2.1969162102     1.7655406463     0.2201304252
| 15>  H       -1.1920046094     1.3987238321     1.6216560049
| 16>  H       -1.3521647112     4.0349167481     0.0884917818
| 17>  H       -1.0484213427     3.8074214437     1.8139366446
| 18>  H        1.1851208888     4.3832635314     0.3492061201
| 19>  H        3.8775344700     1.8291018674    -2.5481020319
| 20> *
| 21>
| 22>                          ****END OF INPUT****

CARTESIAN COORDINATES (ANGSTROEM)
---------------------------------
  O     -0.248951    0.336471   -0.938430
  C     -0.136565    1.307668   -0.242834
  C     -1.211630    1.923432    0.661480
  C     -0.826963    3.410614    0.819087
  C      0.663711    3.447057    0.530853
  O      1.393441    2.465528    1.251570
  C      1.098249    2.199066   -0.148616
  C      2.188135    2.076781   -1.062142
  C      3.082680    1.946389   -1.853233
  H     -2.196916    1.765541    0.220130
  H     -1.192005    1.398724    1.621656
  H     -1.352165    4.034917    0.088492
  H     -1.048421    3.807421    1.813937
  H      1.185121    4.383264    0.349206
  H      3.877534    1.829102   -2.548102

 Total Charge           Charge          ....    0
 Multiplicity           Mult            ....    1
 Number of Electrons    NEL             ....   64
 Basis Dimension        Dim             ....  315

ORBITAL ENERGIES
----------------

  NO   OCC          E(Eh)            E(eV)
   0   2.0000     -20.602765      -560.6297
   1   2.0000     -20.563963      -559.5739
   2   2.0000     -11.348863      -308.8183
   3   2.0000     -11.332344      -308.3688
   4   2.0000     -11.320675      -308.0512
   5   2.0000     -11.258824      -306.3682
   6   2.0000     -11.253226      -306.2159
   7   2.0000     -11.249800      -306.1226
   8   2.0000     -11.244878      -305.9887
   9   2.0000      -1.449565       -39.4447
  10   2.0000      -1.405796       -38.2537
  11   2.0000      -1.107785       -30.1443
  12   2.0000      -1.064445       -28.9650
  13   2.0000      -0.971288       -26.4301
  14   2.0000      -0.956934       -26.0395
  15   2.0000      -0.837027       -22.7767
  16   2.0000      -0.811361       -22.0783
  17   2.0000      -0.731695       -19.9104
  18   2.0000      -0.714493       -19.4424
  19   2.0000      -0.673317       -18.3219
  20   2.0000      -0.652992       -17.7688
  21   2.0000      -0.629372       -17.1261
  22   2.0000      -0.619904       -16.8685
  23   2.0000      -0.579427       -15.7670
  24   2.0000      -0.561335       -15.2747
  25   2.0000      -0.540232       -14.7005
  26   2.0000      -0.522909       -14.2291
  27   2.0000      -0.490407       -13.3446
  28   2.0000      -0.478222       -13.0131
  29   2.0000      -0.433838       -11.8053
  30   2.0000      -0.406136       -11.0515
  31   2.0000      -0.383672       -10.4402
  32   0.0000       0.111573         3.0361
  33   0.0000       0.131865         3.5882
  34   0.0000       0.152372         4.1463
  35   0.0000       0.158233         4.3057
  36   0.0000       0.162602         4.4246

MULLIKEN ATOMIC CHARGES
-----------------------
   0 O :   -0.243636
   1 C :    0.119108
   2 C :   -0.235621
   3 C :   -0.186629
   4 C :    0.007547
   5 O :   -0.298204
   6 C :   -0.107470
   7 C :    0.112867
   8 C :   -0.065196
   9 H :    0.146611
  10 H :    0.146483
  11 H :    0.128762
  12 H :    0.131580
  13 H :    0.142732
  14 H :    0.201066
Sum of atomic charges:    0.0000000

LOEWDIN ATOMIC CHARGES
----------------------
   0 O :    0.184077
   1 C :   -0.267237
   2 C :   -0.209276
   3 C :   -0.228589
   4 C :   -0.220996
   5 O :    0.218492
   6 C :   -0.242802
   7 C :   -0.058098
   8 C :   -0.049979
   9 H :    0.149585
  10 H :    0.158491
  11 H :    0.147244
  12 H :    0.143947
  13 H :    0.144044
  14 H :    0.131097

  Mayer bond orders larger than 0.1
B(  0-O ,  1-C ) :   2.0628 B(  1-C ,  2-C ) :   0.9503 B(  1-C ,  6-C ) :   0.9122
B(  2-C ,  3-C ) :   0.9402 B(  2-C ,  9-H ) :   0.9199 B(  2-C , 10-H ) :   0.8981
B(  3-C ,  4-C ) :   0.9142 B(  3-C , 11-H ) :   0.9099 B(  3-C , 12-H ) :   0.9112
B(  4-C ,  5-O ) :   0.9261 B(  4-C ,  6-C ) :   0.9086 B(  4-C , 13-H ) :   0.9191
B(  5-O ,  6-C ) :   0.8535 B(  6-C ,  7-C ) :   1.0896 B(  6-C ,  8-C ) :  -0.1909
B(  7-C ,  8-C ) :   2.6371 B(  8-C , 14-H ) :   0.8659

MP2 TOTAL ENERGY:     -419.880937713 Eh
FINAL SINGLE POINT ENERGY      -419.880937712528

DIPOLE MOMENT
-------------
                                X             Y             Z
Electronic contribution:      3.81418      -3.09398      -1.78035
Nuclear contribution   :     -4.18292       4.23678       1.87104
                        -----------------------------------------
Total Dipole Moment    :     -0.36874       1.14280       0.09069
                        -----------------------------------------
Magnitude (a.u.)       :      1.20424
Magnitude (Debye)      :      3.06093

                             ****ORCA TERMINATED NORMALLY****
TOTAL RUN TIME: 0 days 0 hours 15 minutes 17 seconds 43 msec
