                         Program Version 3.0.3 - RELEASE   -
|  1> ! RI-MP2 RIJK def2-TZVP def2-TZVP/C def2-TZVP/JK TIGHTSCF
|  2> % maxcore 2000
|  3> % mp2 density relaxed end
|  4> *xyz 0 1
|  5>  C        0.0013181304     1.5679047024     0.0508843298
|  6>  C        0.0260423155     0.0658427683     0.0341866744
|  7>  C       -0.8684021053    -0.7746519247     0.9028164394
|  8>  C        0.6227316600    -0.9302555394     1.0402552302
|  9>  C        1.2081232475    -1.7783589071    -0.1058047782
| 10>  C        0.6492149197    -3.1714853487    -0.4564431371
| 11>  C        0.2247146716    -3.0388530925    -1.9388329077
| 12>  C       -0.3105917141    -1.5925982014    -2.0788375661
| 13>  C        0.5936591783    -0.7730553276    -1.1370107663
| 14>  H        0.9659325244     1.9878447934    -0.2582238346
| 15>  H       -0.7626865702     1.9621079615    -0.6313148718
| 16>  H       -0.2240923087     1.9511212456     1.0518605934
| 17>  H       -1.3438147880    -0.2331992611     1.7156007725
| 18>  H       -1.4885115667    -1.5699904864     0.4977788443
| 19>  H        1.1239464449    -0.7266221144     1.9801667427
| 20>  H        2.3004724900    -1.7659330581    -0.1013408814
| 21>  H        1.3747516260    -3.9757224775    -0.3033869786
| 22>  H       -0.2221780286    -3.4064838494     0.1644582646
| 23>  H        1.1048787279    -3.1638773158    -2.5820841194
| 24>  H       -0.5036222554    -3.7965256023    -2.2453807999
| 25>  H       -0.2847311727    -1.2404799022    -3.1141846295
| 26>  H       -1.3556660114    -1.5458401108    -1.7527903642
| 27>  H        1.3549919848    -0.2129627819    -1.6866628464
| 28> *
| 29>
| 30>                          ****END OF INPUT****

CARTESIAN COORDINATES (ANGSTROEM)
---------------------------------
  C      0.001318    1.567905    0.050884
  C      0.026042    0.065843    0.034187
  C     -0.868402   -0.774652    0.902816
  C      0.622732   -0.930256    1.040255
  C      1.208123   -1.778359   -0.105805
  C      0.649215   -3.171485   -0.456443
  C      0.224715   -3.038853   -1.938833
  C     -0.310592   -1.592598   -2.078838
  C      0.593659   -0.773055   -1.137011
  H      0.965933    1.987845   -0.258224
  H     -0.762687    1.962108   -0.631315
  H     -0.224092    1.951121    1.051861
  H     -1.343815   -0.233199    1.715601
  H     -1.488512   -1.569990    0.497779
  H      1.123946   -0.726622    1.980167
  H      2.300472   -1.765933   -0.101341
  H      1.374752   -3.975722   -0.303387
  H     -0.222178   -3.406484    0.164458
  H      1.104879   -3.163877   -2.582084
  H     -0.503622   -3.796526   -2.245381
  H     -0.284731   -1.240480   -3.114185
  H     -1.355666   -1.545840   -1.752790
  H      1.354992   -0.212963   -1.686663

 Total Charge           Charge          ....    0
 Multiplicity           Mult            ....    1
 Number of Electrons    NEL             ....   68
 Basis Dimension        Dim             ....  363

ORBITAL ENERGIES
----------------

  NO   OCC          E(Eh)            E(eV)
   0   2.0000     -11.230023      -305.5845
   1   2.0000     -11.221218      -305.3449
   2   2.0000     -11.218144      -305.2612
   3   2.0000     -11.217717      -305.2496
   4   2.0000     -11.217183      -305.2351
   5   2.0000     -11.213930      -305.1466
   6   2.0000     -11.213498      -305.1348
   7   2.0000     -11.210005      -305.0397
   8   2.0000     -11.209134      -305.0161
   9   2.0000      -1.189798       -32.3761
  10   2.0000      -1.078138       -29.3376
  11   2.0000      -0.978216       -26.6186
  12   2.0000      -0.950985       -25.8776
  13   2.0000      -0.943109       -25.6633
  14   2.0000      -0.817346       -22.2411
  15   2.0000      -0.798738       -21.7348
  16   2.0000      -0.747487       -20.3402
  17   2.0000      -0.694964       -18.9109
  18   2.0000      -0.668128       -18.1807
  19   2.0000      -0.641360       -17.4523
  20   2.0000      -0.606434       -16.5019
  21   2.0000      -0.580982       -15.8093
  22   2.0000      -0.563240       -15.3266
  23   2.0000      -0.558089       -15.1864
  24   2.0000      -0.539529       -14.6813
  25   2.0000      -0.521032       -14.1780
  26   2.0000      -0.496100       -13.4996
  27   2.0000      -0.476931       -12.9780
  28   2.0000      -0.464284       -12.6338
  29   2.0000      -0.458550       -12.4778
  30   2.0000      -0.439407       -11.9569
  31   2.0000      -0.424630       -11.5548
  32   2.0000      -0.393760       -10.7148
  33   2.0000      -0.348678        -9.4880
  34   0.0000       0.136481         3.7138
  35   0.0000       0.152611         4.1527
  36   0.0000       0.161034         4.3820
  37   0.0000       0.173297         4.7157
  38   0.0000       0.189012         5.1433

MULLIKEN ATOMIC CHARGES
-----------------------
   0 C :   -0.424437
   1 C :    0.043016
   2 C :   -0.291484
   3 C :   -0.162621
   4 C :   -0.019847
   5 C :   -0.297425
   6 C :   -0.185242
   7 C :   -0.300673
   8 C :   -0.027995
   9 H :    0.127344
  10 H :    0.132969
  11 H :    0.127097
  12 H :    0.124736
  13 H :    0.124881
  14 H :    0.122274
  15 H :    0.103906
  16 H :    0.117780
  17 H :    0.122483
  18 H :    0.107848
  19 H :    0.114453
  20 H :    0.118364
  21 H :    0.122117
  22 H :    0.100454
Sum of atomic charges:    0.0000000

LOEWDIN ATOMIC CHARGES
----------------------
   0 C :   -0.277724
   1 C :   -0.207008
   2 C :   -0.193674
   3 C :   -0.148210
   4 C :   -0.171854
   5 C :   -0.239136
   6 C :   -0.253703
   7 C :   -0.237863
   8 C :   -0.149152
   9 H :    0.125477
  10 H :    0.128075
  11 H :    0.128355
  12 H :    0.140360
  13 H :    0.126540
  14 H :    0.132791
  15 H :    0.146350
  16 H :    0.131599
  17 H :    0.137446
  18 H :    0.135083
  19 H :    0.129639
  20 H :    0.131415
  21 H :    0.137558
  22 H :    0.147637

  Mayer bond orders larger than 0.1
B(  0-C ,  1-C ) :   0.8921 B(  0-C ,  9-H ) :   0.9451 B(  0-C , 10-H ) :   0.9400
B(  0-C , 11-H ) :   0.9384 B(  1-C ,  2-C ) :   0.8982 B(  1-C ,  3-C ) :   0.8155
B(  1-C ,  8-C ) :   0.9231 B(  2-C ,  3-C ) :   0.8694 B(  2-C , 12-H ) :   0.9310
B(  2-C , 13-H ) :   0.9139 B(  3-C ,  4-C ) :   0.9478 B(  3-C , 14-H ) :   0.9214
B(  4-C ,  5-C ) :   0.8970 B(  4-C ,  8-C ) :   0.9819 B(  4-C , 15-H ) :   0.9236
B(  5-C ,  6-C ) :   0.9287 B(  5-C , 16-H ) :   0.9350 B(  5-C , 17-H ) :   0.9313
B(  6-C ,  7-C ) :   0.9278 B(  6-C , 18-H ) :   0.9285 B(  6-C , 19-H ) :   0.9321
B(  7-C ,  8-C ) :   0.8945 B(  7-C , 20-H ) :   0.9337 B(  7-C , 21-H ) :   0.9310
B(  8-C , 22-H ) :   0.9232

MP2 TOTAL ENERGY:     -350.497050457 Eh
FINAL SINGLE POINT ENERGY      -350.497050457036

DIPOLE MOMENT
-------------
                                X             Y             Z
Electronic contribution:      1.14976      -0.31086       1.23909
Nuclear contribution   :     -1.07864       0.39907      -1.26750
                        -----------------------------------------
Total Dipole Moment    :      0.07112       0.08821      -0.02841
                        -----------------------------------------
Magnitude (a.u.)       :      0.11682
Magnitude (Debye)      :      0.29693

                             ****ORCA TERMINATED NORMALLY****
TOTAL RUN TIME: 0 days 0 hours 21 minutes 44 seconds 89 msec
