                         Program Version 3.0.3 - RELEASE   -
|  1> ! RI-MP2 RIJK def2-TZVP def2-TZVP/C def2-TZVP/JK TIGHTSCF
|  2> % maxcore 2000
|  3> % mp2 density relaxed end
|  4> *xyz 0 1
|  5>  C       -0.8905641969     0.9737862076    -0.4154165939
|  6>  C       -0.3245124321    -0.4159670203    -0.1132883412
|  7>  C        0.7368550668    -0.3979558356     0.9933492629
|  8>  O        0.1036392344     0.0768710592     2.1751868350
|  9>  C        1.0026709581     0.4819359439     3.1863076508
| 10>  C        1.3456400307    -1.7709042868     1.2179888131
| 11>  C        0.4881112475    -2.8779961016     1.7642710097
| 12>  N        2.5823373459    -1.8800810709     0.9136054664
| 13>  O        3.0580954514    -3.1875926456     1.1034677455
| 14>  H       -0.1035662127     1.6539282229    -0.7600495172
| 15>  H       -1.6535162356     0.9230111541    -1.1980029166
| 16>  H       -1.3426611681     1.4077301222     0.4793401871
| 17>  H       -1.1346470496    -1.0912397116     0.1862000307
| 18>  H        0.1339084112    -0.8456002312    -1.0113286138
| 19>  H        1.5529505127     0.2808622515     0.7027204263
| 20>  H        1.6441743922    -0.3423367507     3.5283381325
| 21>  H        1.6527695711     1.3005731152     2.8424436683
| 22>  H        0.4006146256     0.8354319536     4.0268495116
| 23>  H        0.1620729414    -3.5492707637     0.9613191355
| 24>  H        1.0564086722    -3.4842513936     2.4732803285
| 25>  H       -0.3940292374    -2.4637449662     2.2552004875
| 26>  H        3.9883919111    -3.0989619623     0.8708947811
| 27> *
| 28>
| 29>                          ****END OF INPUT****

CARTESIAN COORDINATES (ANGSTROEM)
---------------------------------
  C     -0.890564    0.973786   -0.415417
  C     -0.324512   -0.415967   -0.113288
  C      0.736855   -0.397956    0.993349
  O      0.103639    0.076871    2.175187
  C      1.002671    0.481936    3.186308
  C      1.345640   -1.770904    1.217989
  C      0.488111   -2.877996    1.764271
  N      2.582337   -1.880081    0.913605
  O      3.058095   -3.187593    1.103468
  H     -0.103566    1.653928   -0.760050
  H     -1.653516    0.923011   -1.198003
  H     -1.342661    1.407730    0.479340
  H     -1.134647   -1.091240    0.186200
  H      0.133908   -0.845600   -1.011329
  H      1.552951    0.280862    0.702720
  H      1.644174   -0.342337    3.528338
  H      1.652770    1.300573    2.842444
  H      0.400615    0.835432    4.026850
  H      0.162073   -3.549271    0.961319
  H      1.056409   -3.484251    2.473280
  H     -0.394029   -2.463745    2.255200
  H      3.988392   -3.098962    0.870895

 Total Charge           Charge          ....    0
 Multiplicity           Mult            ....    1
 Number of Electrons    NEL             ....   72
 Basis Dimension        Dim             ....  357

ORBITAL ENERGIES
----------------

  NO   OCC          E(Eh)            E(eV)
   0   2.0000     -20.589804      -560.2771
   1   2.0000     -20.558942      -559.4372
   2   2.0000     -15.613814      -424.8735
   3   2.0000     -11.286628      -307.1248
   4   2.0000     -11.274661      -306.7991
   5   2.0000     -11.271162      -306.7039
   6   2.0000     -11.225318      -305.4564
   7   2.0000     -11.224928      -305.4458
   8   2.0000     -11.211431      -305.0785
   9   2.0000      -1.417534       -38.5731
  10   2.0000      -1.379510       -37.5384
  11   2.0000      -1.166998       -31.7556
  12   2.0000      -1.056496       -28.7487
  13   2.0000      -0.982664       -26.7396
  14   2.0000      -0.951396       -25.8888
  15   2.0000      -0.895699       -24.3732
  16   2.0000      -0.818739       -22.2790
  17   2.0000      -0.740259       -20.1435
  18   2.0000      -0.695333       -18.9210
  19   2.0000      -0.683952       -18.6113
  20   2.0000      -0.648449       -17.6452
  21   2.0000      -0.642654       -17.4875
  22   2.0000      -0.615446       -16.7471
  23   2.0000      -0.601469       -16.3668
  24   2.0000      -0.589981       -16.0542
  25   2.0000      -0.569487       -15.4965
  26   2.0000      -0.554811       -15.0972
  27   2.0000      -0.549846       -14.9621
  28   2.0000      -0.532835       -14.4992
  29   2.0000      -0.506542       -13.7837
  30   2.0000      -0.491544       -13.3756
  31   2.0000      -0.484985       -13.1971
  32   2.0000      -0.471229       -12.8228
  33   2.0000      -0.444410       -12.0930
  34   2.0000      -0.419270       -11.4089
  35   2.0000      -0.382813       -10.4169
  36   0.0000       0.134962         3.6725
  37   0.0000       0.151227         4.1151
  38   0.0000       0.158708         4.3187
  39   0.0000       0.164535         4.4772
  40   0.0000       0.166974         4.5436

MULLIKEN ATOMIC CHARGES
-----------------------
   0 C :   -0.398531
   1 C :   -0.190386
   2 C :    0.131684
   3 O :   -0.319215
   4 C :   -0.228063
   5 C :    0.018108
   6 C :   -0.455892
   7 N :   -0.085036
   8 O :   -0.372386
   9 H :    0.118763
  10 H :    0.132356
  11 H :    0.144940
  12 H :    0.114253
  13 H :    0.120504
  14 H :    0.079359
  15 H :    0.124011
  16 H :    0.117452
  17 H :    0.138236
  18 H :    0.152327
  19 H :    0.160772
  20 H :    0.160860
  21 H :    0.335884
Sum of atomic charges:   -0.0000000

LOEWDIN ATOMIC CHARGES
----------------------
   0 C :   -0.316718
   1 C :   -0.263151
   2 C :   -0.305292
   3 O :    0.159521
   4 C :   -0.353134
   5 C :   -0.294259
   6 C :   -0.284421
   7 N :    0.024781
   8 O :   -0.073561
   9 H :    0.120807
  10 H :    0.120869
  11 H :    0.125266
  12 H :    0.141743
  13 H :    0.143831
  14 H :    0.146974
  15 H :    0.105861
  16 H :    0.104321
  17 H :    0.113307
  18 H :    0.139980
  19 H :    0.137482
  20 H :    0.136603
  21 H :    0.169190

  Mayer bond orders larger than 0.1
B(  0-C ,  1-C ) :   0.9149 B(  0-C ,  9-H ) :   0.9377 B(  0-C , 10-H ) :   0.9402
B(  0-C , 11-H ) :   0.9378 B(  1-C ,  2-C ) :   0.9144 B(  1-C , 12-H ) :   0.9227
B(  1-C , 13-H ) :   0.9349 B(  2-C ,  3-O ) :   0.8954 B(  2-C ,  5-C ) :   0.9166
B(  2-C , 14-H ) :   0.9223 B(  3-O ,  4-C ) :   0.9048 B(  4-C , 15-H ) :   0.9333
B(  4-C , 16-H ) :   0.9362 B(  4-C , 17-H ) :   0.9388 B(  5-C ,  6-C ) :   0.9320
B(  5-C ,  7-N ) :   1.8562 B(  6-C , 18-H ) :   0.9166 B(  6-C , 19-H ) :   0.9217
B(  6-C , 20-H ) :   0.9281 B(  7-N ,  8-O ) :   0.8152 B(  8-O , 21-H ) :   0.8451

MP2 TOTAL ENERGY:     -440.719799362 Eh
FINAL SINGLE POINT ENERGY      -440.719799361606

DIPOLE MOMENT
-------------
                                X             Y             Z
Electronic contribution:      5.85507      -4.37799       0.55119
Nuclear contribution   :     -5.63583       4.37410      -0.49551
                        -----------------------------------------
Total Dipole Moment    :      0.21924      -0.00389       0.05569
                        -----------------------------------------
Magnitude (a.u.)       :      0.22624
Magnitude (Debye)      :      0.57505

                             ****ORCA TERMINATED NORMALLY****
TOTAL RUN TIME: 0 days 0 hours 18 minutes 40 seconds 116 msec
