                         Program Version 3.0.3 - RELEASE   -
|  1> ! RI-MP2 RIJK def2-TZVP def2-TZVP/C def2-TZVP/JK TIGHTSCF
|  2> % maxcore 2000
|  3> % mp2 density relaxed end
|  4> *xyz 0 1
|  5>  C       -0.0228983992     1.3813255028     0.0228732223
|  6>  O        0.0009418495    -0.0241599030     0.0059620523
|  7>  C        0.6487333032    -0.5494153320    -1.1323724162
|  8>  C        0.6197988991    -2.0694888332    -1.0523057334
|  9>  C        1.3026028404    -2.7332194437    -2.2507127841
| 10>  C        1.2756891312    -4.2537371091    -2.1742078943
| 11>  O        1.9298249999    -4.7617151189    -3.3274620380
| 12>  H        0.9927028272     1.8094980105     0.0289046386
| 13>  H       -0.5597316370     1.7937225136    -0.8469312730
| 14>  H       -0.5403425384     1.6907515379     0.9344470620
| 15>  H        0.1468984056    -0.2035836195    -2.0535187672
| 16>  H        1.6909180878    -0.1870800294    -1.1824536813
| 17>  H        1.1055480752    -2.3767680019    -0.1180208605
| 18>  H       -0.4259199481    -2.3930940085    -0.9815860392
| 19>  H        0.8170895129    -2.4261684796    -3.1853390402
| 20>  H        2.3484349843    -2.4097177953    -2.3220570725
| 21>  H        1.7773231260    -4.5876963358    -1.2509528063
| 22>  H        0.2316269131    -4.6040409735    -2.1205903556
| 23>  H        1.9194971172    -5.7219635514    -3.2801572134
| 24> *
| 25>
| 26>                          ****END OF INPUT****

CARTESIAN COORDINATES (ANGSTROEM)
---------------------------------
  C     -0.022898    1.381326    0.022873
  O      0.000942   -0.024160    0.005962
  C      0.648733   -0.549415   -1.132372
  C      0.619799   -2.069489   -1.052306
  C      1.302603   -2.733219   -2.250713
  C      1.275689   -4.253737   -2.174208
  O      1.929825   -4.761715   -3.327462
  H      0.992703    1.809498    0.028905
  H     -0.559732    1.793723   -0.846931
  H     -0.540343    1.690752    0.934447
  H      0.146898   -0.203584   -2.053519
  H      1.690918   -0.187080   -1.182454
  H      1.105548   -2.376768   -0.118021
  H     -0.425920   -2.393094   -0.981586
  H      0.817090   -2.426168   -3.185339
  H      2.348435   -2.409718   -2.322057
  H      1.777323   -4.587696   -1.250953
  H      0.231627   -4.604041   -2.120590
  H      1.919497   -5.721964   -3.280157

 Total Charge           Charge          ....    0
 Multiplicity           Mult            ....    1
 Number of Electrons    NEL             ....   58
 Basis Dimension        Dim             ....  289

ORBITAL ENERGIES
----------------

  NO   OCC          E(Eh)            E(eV)
   0   2.0000     -20.553794      -559.2972
   1   2.0000     -20.552389      -559.2589
   2   2.0000     -11.274087      -306.7835
   3   2.0000     -11.271950      -306.7254
   4   2.0000     -11.268573      -306.6334
   5   2.0000     -11.219366      -305.2945
   6   2.0000     -11.218571      -305.2728
   7   2.0000      -1.373889       -37.3854
   8   2.0000      -1.357774       -36.9469
   9   2.0000      -1.070867       -29.1398
  10   2.0000      -0.981739       -26.7145
  11   2.0000      -0.906726       -24.6733
  12   2.0000      -0.837605       -22.7924
  13   2.0000      -0.799741       -21.7621
  14   2.0000      -0.693025       -18.8582
  15   2.0000      -0.676951       -18.4208
  16   2.0000      -0.647434       -17.6176
  17   2.0000      -0.647321       -17.6145
  18   2.0000      -0.626236       -17.0408
  19   2.0000      -0.588157       -16.0046
  20   2.0000      -0.574462       -15.6319
  21   2.0000      -0.529086       -14.3972
  22   2.0000      -0.516459       -14.0536
  23   2.0000      -0.497272       -13.5315
  24   2.0000      -0.482020       -13.1164
  25   2.0000      -0.476516       -12.9667
  26   2.0000      -0.463068       -12.6007
  27   2.0000      -0.442589       -12.0435
  28   2.0000      -0.420609       -11.4453
  29   0.0000       0.135780         3.6948
  30   0.0000       0.143621         3.9081
  31   0.0000       0.160030         4.3546
  32   0.0000       0.178643         4.8611
  33   0.0000       0.182694         4.9714

MULLIKEN ATOMIC CHARGES
-----------------------
   0 C :   -0.213174
   1 O :   -0.302425
   2 C :   -0.049828
   3 C :   -0.193720
   4 C :   -0.190891
   5 C :   -0.061825
   6 O :   -0.467316
   7 H :    0.109793
   8 H :    0.109800
   9 H :    0.137699
  10 H :    0.089197
  11 H :    0.089172
  12 H :    0.110716
  13 H :    0.110770
  14 H :    0.111102
  15 H :    0.110974
  16 H :    0.092411
  17 H :    0.092348
  18 H :    0.315196
Sum of atomic charges:   -0.0000000

LOEWDIN ATOMIC CHARGES
----------------------
   0 C :   -0.364548
   1 O :    0.132543
   2 C :   -0.331891
   3 C :   -0.267612
   4 C :   -0.271037
   5 C :   -0.353671
   6 O :   -0.053379
   7 H :    0.100508
   8 H :    0.100511
   9 H :    0.112848
  10 H :    0.118233
  11 H :    0.118227
  12 H :    0.139757
  13 H :    0.139772
  14 H :    0.139933
  15 H :    0.139891
  16 H :    0.114232
  17 H :    0.114235
  18 H :    0.171447

  Mayer bond orders larger than 0.1
B(  0-C ,  1-O ) :   0.9237 B(  0-C ,  7-H ) :   0.9373 B(  0-C ,  8-H ) :   0.9373
B(  0-C ,  9-H ) :   0.9396 B(  1-O ,  2-C ) :   0.9600 B(  2-C ,  3-C ) :   0.9597
B(  2-C , 10-H ) :   0.9253 B(  2-C , 11-H ) :   0.9253 B(  3-C ,  4-C ) :   0.9175
B(  3-C , 12-H ) :   0.9214 B(  3-C , 13-H ) :   0.9214 B(  4-C ,  5-C ) :   0.9443
B(  4-C , 14-H ) :   0.9216 B(  4-C , 15-H ) :   0.9216 B(  5-C ,  6-O ) :   1.0192
B(  5-C , 16-H ) :   0.9330 B(  5-C , 17-H ) :   0.9330 B(  6-O , 18-H ) :   0.8499

MP2 TOTAL ENERGY:     -347.478204278 Eh
FINAL SINGLE POINT ENERGY      -347.478204278051

DIPOLE MOMENT
-------------
                                X             Y             Z
Electronic contribution:      0.36297      -2.78460      -0.59822
Nuclear contribution   :     -0.41898       2.67375       0.70817
                        -----------------------------------------
Total Dipole Moment    :     -0.05601      -0.11085       0.10995
                        -----------------------------------------
Magnitude (a.u.)       :      0.16587
Magnitude (Debye)      :      0.42162

                             ****ORCA TERMINATED NORMALLY****
TOTAL RUN TIME: 0 days 0 hours 7 minutes 20 seconds 864 msec
