                         Program Version 3.0.3 - RELEASE   -
|  1> ! RI-MP2 RIJK def2-TZVP def2-TZVP/C def2-TZVP/JK TIGHTSCF
|  2> % maxcore 2000
|  3> % mp2 density relaxed end
|  4> *xyz 0 1
|  5>  O        0.2712281111     1.3903253996     0.2001399350
|  6>  C        0.1660974657    -0.0104029258     0.0820469795
|  7>  C       -1.3023215219    -0.4483619825     0.1253446327
|  8>  O       -2.0442066779     0.2797239754    -0.8494771041
|  9>  C       -1.4779805496    -1.9467712827    -0.0606965230
| 10>  C       -2.9100912897    -2.5057512958    -0.1972807218
| 11>  C       -2.4670709294    -2.8907221149    -1.5911472869
| 12>  N       -2.9861201899    -3.4927890930    -2.5571537116
| 13>  O       -1.2010307670    -2.3328588201    -1.4571850023
| 14>  H       -0.4206263979     1.7511981316    -0.3693170066
| 15>  H        0.6220661169    -0.3792330434    -0.8530428074
| 16>  H        0.7201646416    -0.4536326029     0.9172645664
| 17>  H       -1.7276175376    -0.1613447312     1.0948115265
| 18>  H       -1.8003957358    -0.0894674890    -1.7090755242
| 19>  H       -0.8260023512    -2.5098424366     0.6139101394
| 20>  H       -3.1739140413    -3.3390146931     0.4544799787
| 21>  H       -3.6939463755    -1.7472906099    -0.1782177736
| 22>  H       -2.3427975607    -3.5641050057    -3.3470833168
| 23> *
| 24>
| 25>                          ****END OF INPUT****

CARTESIAN COORDINATES (ANGSTROEM)
---------------------------------
  O      0.271228    1.390325    0.200140
  C      0.166097   -0.010403    0.082047
  C     -1.302322   -0.448362    0.125345
  O     -2.044207    0.279724   -0.849477
  C     -1.477981   -1.946771   -0.060697
  C     -2.910091   -2.505751   -0.197281
  C     -2.467071   -2.890722   -1.591147
  N     -2.986120   -3.492789   -2.557154
  O     -1.201031   -2.332859   -1.457185
  H     -0.420626    1.751198   -0.369317
  H      0.622066   -0.379233   -0.853043
  H      0.720165   -0.453633    0.917265
  H     -1.727618   -0.161345    1.094812
  H     -1.800396   -0.089467   -1.709076
  H     -0.826002   -2.509842    0.613910
  H     -3.173914   -3.339015    0.454480
  H     -3.693946   -1.747291   -0.178218
  H     -2.342798   -3.564105   -3.347083

 Total Charge           Charge          ....    0
 Multiplicity           Mult            ....    1
 Number of Electrons    NEL             ....   70
 Basis Dimension        Dim             ....  333

ORBITAL ENERGIES
----------------

  NO   OCC          E(Eh)            E(eV)
   0   2.0000     -20.606248      -560.7245
   1   2.0000     -20.582332      -560.0737
   2   2.0000     -20.559044      -559.4400
   3   2.0000     -15.548754      -423.1031
   4   2.0000     -11.352362      -308.9135
   5   2.0000     -11.321419      -308.0715
   6   2.0000     -11.304581      -307.6133
   7   2.0000     -11.286972      -307.1341
   8   2.0000     -11.261844      -306.4504
   9   2.0000      -1.448159       -39.4064
  10   2.0000      -1.394223       -37.9387
  11   2.0000      -1.359817       -37.0025
  12   2.0000      -1.209554       -32.9136
  13   2.0000      -1.071903       -29.1680
  14   2.0000      -1.020150       -27.7597
  15   2.0000      -0.907357       -24.6904
  16   2.0000      -0.841004       -22.8849
  17   2.0000      -0.758679       -20.6447
  18   2.0000      -0.732119       -19.9220
  19   2.0000      -0.722546       -19.6615
  20   2.0000      -0.707478       -19.2515
  21   2.0000      -0.692820       -18.8526
  22   2.0000      -0.651406       -17.7257
  23   2.0000      -0.629287       -17.1238
  24   2.0000      -0.606522       -16.5043
  25   2.0000      -0.579463       -15.7680
  26   2.0000      -0.563729       -15.3398
  27   2.0000      -0.548305       -14.9201
  28   2.0000      -0.529801       -14.4166
  29   2.0000      -0.526006       -14.3134
  30   2.0000      -0.505890       -13.7660
  31   2.0000      -0.480360       -13.0713
  32   2.0000      -0.448324       -12.1995
  33   2.0000      -0.441143       -12.0041
  34   2.0000      -0.415736       -11.3127
  35   0.0000       0.126992         3.4556
  36   0.0000       0.140894         3.8339
  37   0.0000       0.156025         4.2456
  38   0.0000       0.158177         4.3042
  39   0.0000       0.174184         4.7398

MULLIKEN ATOMIC CHARGES
-----------------------
   0 O :   -0.473056
   1 C :   -0.019067
   2 C :    0.047268
   3 O :   -0.494050
   4 C :    0.014408
   5 C :   -0.156878
   6 C :    0.097502
   7 N :   -0.353353
   8 O :   -0.305518
   9 H :    0.329199
  10 H :    0.109491
  11 H :    0.107529
  12 H :    0.115010
  13 H :    0.334223
  14 H :    0.120310
  15 H :    0.147089
  16 H :    0.148452
  17 H :    0.231442
Sum of atomic charges:   -0.0000000

LOEWDIN ATOMIC CHARGES
----------------------
   0 O :   -0.042045
   1 C :   -0.339392
   2 C :   -0.349975
   3 O :   -0.013439
   4 C :   -0.230766
   5 C :   -0.177075
   6 C :   -0.400842
   7 N :   -0.046995
   8 O :    0.207683
   9 H :    0.177985
  10 H :    0.121629
  11 H :    0.131061
  12 H :    0.155482
  13 H :    0.183051
  14 H :    0.146932
  15 H :    0.146464
  16 H :    0.155470
  17 H :    0.174771

  Mayer bond orders larger than 0.1
B(  0-O ,  1-C ) :   0.9462 B(  0-O ,  9-H ) :   0.8251 B(  1-C ,  2-C ) :   0.9591
B(  1-C , 10-H ) :   0.9089 B(  1-C , 11-H ) :   0.9240 B(  2-C ,  3-O ) :   0.8658
B(  2-C ,  4-C ) :   0.9253 B(  2-C , 12-H ) :   0.9121 B(  3-O , 13-H ) :   0.8236
B(  4-C ,  5-C ) :   0.9271 B(  4-C ,  8-O ) :   0.8770 B(  4-C , 14-H ) :   0.9146
B(  5-C ,  6-C ) :   0.9294 B(  5-C , 15-H ) :   0.9120 B(  5-C , 16-H ) :   0.8932
B(  6-C ,  7-N ) :   2.0879 B(  6-C ,  8-O ) :   1.0146 B(  7-N , 17-H ) :   0.8427

MP2 TOTAL ENERGY:     -475.471437784 Eh
FINAL SINGLE POINT ENERGY      -475.471437784198

DIPOLE MOMENT
-------------
                                X             Y             Z
Electronic contribution:     -0.75843      -1.11272      -2.42326
Nuclear contribution   :      0.91159       0.73732       2.78775
                        -----------------------------------------
Total Dipole Moment    :      0.15316      -0.37540       0.36450
                        -----------------------------------------
Magnitude (a.u.)       :      0.54520
Magnitude (Debye)      :      1.38578

                             ****ORCA TERMINATED NORMALLY****
TOTAL RUN TIME: 0 days 0 hours 14 minutes 58 seconds 744 msec
