                         Program Version 3.0.3 - RELEASE   -
|  1> ! RI-MP2 RIJK def2-TZVP def2-TZVP/C def2-TZVP/JK TIGHTSCF
|  2> % maxcore 2000
|  3> % mp2 density relaxed end
|  4> *xyz 0 1
|  5>  C       -0.0564093209     1.5248851893     0.0845695968
|  6>  C        0.0327009327     0.0052580731    -0.0543294957
|  7>  C        0.7403336789    -0.4410516861    -1.2988213096
|  8>  N        1.2411847384     0.3252556238    -2.1912327890
|  9>  C        1.8267743444    -0.5484305910    -3.2152499064
| 10>  C        1.5756054935    -1.9805907495    -2.7560822718
| 11>  N        0.8915906087    -1.8078572916    -1.5512001125
| 12>  N        1.9183320127    -3.0466335972    -3.3491661781
| 13>  C        1.5675681805    -4.3077906531    -2.7168830881
| 14>  H        0.9398651264     1.9721108548     0.1054597264
| 15>  H       -0.5914318567     1.9615657112    -0.7616422693
| 16>  H       -0.5803087430     1.7916425457     1.0065397961
| 17>  H        0.5509262719    -0.4311320102     0.8109511327
| 18>  H       -0.9712420312    -0.4416912642    -0.0507504698
| 19>  H        1.3680879123    -0.3599029269    -4.1921833256
| 20>  H        2.8986831494    -0.3502380526    -3.3251213527
| 21>  H        0.5626349317    -2.5502526762    -0.9591824244
| 22>  H        1.9162844196    -5.1375658345    -3.3365900848
| 23>  H        2.0299771643    -4.4222084048    -1.7230124720
| 24>  H        0.4791615364    -4.4263853199    -2.5898756920
| 25> *
| 26>
| 27>                          ****END OF INPUT****

CARTESIAN COORDINATES (ANGSTROEM)
---------------------------------
  C     -0.056409    1.524885    0.084570
  C      0.032701    0.005258   -0.054329
  C      0.740334   -0.441052   -1.298821
  N      1.241185    0.325256   -2.191233
  C      1.826774   -0.548431   -3.215250
  C      1.575605   -1.980591   -2.756082
  N      0.891591   -1.807857   -1.551200
  N      1.918332   -3.046634   -3.349166
  C      1.567568   -4.307791   -2.716883
  H      0.939865    1.972111    0.105460
  H     -0.591432    1.961566   -0.761642
  H     -0.580309    1.791643    1.006540
  H      0.550926   -0.431132    0.810951
  H     -0.971242   -0.441691   -0.050750
  H      1.368088   -0.359903   -4.192183
  H      2.898683   -0.350238   -3.325121
  H      0.562635   -2.550253   -0.959182
  H      1.916284   -5.137566   -3.336590
  H      2.029977   -4.422208   -1.723012
  H      0.479162   -4.426385   -2.589876

 Total Charge           Charge          ....    0
 Multiplicity           Mult            ....    1
 Number of Electrons    NEL             ....   68
 Basis Dimension        Dim             ....  345

ORBITAL ENERGIES
----------------

  NO   OCC          E(Eh)            E(eV)
   0   2.0000     -15.600830      -424.5202
   1   2.0000     -15.540207      -422.8705
   2   2.0000     -15.530146      -422.5967
   3   2.0000     -11.321079      -308.0622
   4   2.0000     -11.313985      -307.8692
   5   2.0000     -11.256567      -306.3068
   6   2.0000     -11.251638      -306.1726
   7   2.0000     -11.245673      -306.0103
   8   2.0000     -11.221745      -305.3592
   9   2.0000      -1.334973       -36.3265
  10   2.0000      -1.218597       -33.1597
  11   2.0000      -1.154378       -31.4122
  12   2.0000      -1.068150       -29.0658
  13   2.0000      -0.983059       -26.7504
  14   2.0000      -0.913197       -24.8493
  15   2.0000      -0.881764       -23.9940
  16   2.0000      -0.803171       -21.8554
  17   2.0000      -0.772943       -21.0328
  18   2.0000      -0.693974       -18.8840
  19   2.0000      -0.655782       -17.8447
  20   2.0000      -0.635266       -17.2865
  21   2.0000      -0.617828       -16.8120
  22   2.0000      -0.606788       -16.5115
  23   2.0000      -0.580479       -15.7956
  24   2.0000      -0.572581       -15.5807
  25   2.0000      -0.540347       -14.7036
  26   2.0000      -0.530905       -14.4467
  27   2.0000      -0.528469       -14.3804
  28   2.0000      -0.510209       -13.8835
  29   2.0000      -0.496458       -13.5093
  30   2.0000      -0.443065       -12.0564
  31   2.0000      -0.425880       -11.5888
  32   2.0000      -0.392075       -10.6689
  33   2.0000      -0.337715        -9.1897
  34   0.0000       0.115382         3.1397
  35   0.0000       0.144587         3.9344
  36   0.0000       0.144968         3.9448
  37   0.0000       0.163271         4.4428
  38   0.0000       0.174278         4.7423

MULLIKEN ATOMIC CHARGES
-----------------------
   0 C :   -0.360073
   1 C :   -0.236988
   2 C :    0.184151
   3 N :   -0.274126
   4 C :   -0.061645
   5 C :    0.083100
   6 N :   -0.351758
   7 N :   -0.240453
   8 C :   -0.332005
   9 H :    0.135972
  10 H :    0.135945
  11 H :    0.131295
  12 H :    0.129126
  13 H :    0.129152
  14 H :    0.139924
  15 H :    0.139925
  16 H :    0.249572
  17 H :    0.150422
  18 H :    0.124684
  19 H :    0.123778
Sum of atomic charges:    0.0000000

LOEWDIN ATOMIC CHARGES
----------------------
   0 C :   -0.303907
   1 C :   -0.257237
   2 C :   -0.318383
   3 N :    0.091941
   4 C :   -0.229165
   5 C :   -0.327097
   6 N :    0.151884
   7 N :    0.051224
   8 C :   -0.348358
   9 H :    0.128269
  10 H :    0.128266
  11 H :    0.120757
  12 H :    0.148226
  13 H :    0.148216
  14 H :    0.147845
  15 H :    0.147840
  16 H :    0.187136
  17 H :    0.117125
  18 H :    0.107843
  19 H :    0.107573

  Mayer bond orders larger than 0.1
B(  0-C ,  1-C ) :   0.9566 B(  0-C ,  9-H ) :   0.9349 B(  0-C , 10-H ) :   0.9349
B(  0-C , 11-H ) :   0.9342 B(  1-C ,  2-C ) :   0.9124 B(  1-C , 12-H ) :   0.9218
B(  1-C , 13-H ) :   0.9219 B(  2-C ,  3-N ) :   1.8130 B(  2-C ,  6-N ) :   1.0413
B(  3-N ,  4-C ) :   0.9610 B(  4-C ,  5-C ) :   0.9284 B(  4-C , 14-H ) :   0.9102
B(  4-C , 15-H ) :   0.9102 B(  5-C ,  6-N ) :   1.0255 B(  5-C ,  7-N ) :   1.9777
B(  6-N , 16-H ) :   0.8684 B(  7-N ,  8-C ) :   0.8828 B(  8-C , 17-H ) :   0.9505
B(  8-C , 18-H ) :   0.9261 B(  8-C , 19-H ) :   0.9260

MP2 TOTAL ENERGY:     -398.661560544 Eh
FINAL SINGLE POINT ENERGY      -398.661560544250

DIPOLE MOMENT
-------------
                                X             Y             Z
Electronic contribution:      2.31352      -0.80598      -4.07279
Nuclear contribution   :     -2.94870       0.31831       5.20149
                        -----------------------------------------
Total Dipole Moment    :     -0.63518      -0.48767       1.12870
                        -----------------------------------------
Magnitude (a.u.)       :      1.38393
Magnitude (Debye)      :      3.51766

                             ****ORCA TERMINATED NORMALLY****
TOTAL RUN TIME: 0 days 0 hours 17 minutes 4 seconds 252 msec
