                         Program Version 3.0.3 - RELEASE   -
|  1> ! RI-MP2 RIJK def2-TZVP def2-TZVP/C def2-TZVP/JK TIGHTSCF
|  2> % maxcore 2000
|  3> % mp2 density relaxed end
|  4> *xyz 0 1
|  5>  C        0.1056144617     1.5922311748     0.0503837997
|  6>  C       -0.0185844179     0.0657751274    -0.0017640837
|  7>  C       -1.4618868360    -0.4712910684    -0.0733844020
|  8>  C       -2.1693492169    -0.0289077268    -1.3630609108
|  9>  C       -1.4621222271    -2.0051132308     0.0894558236
| 10>  C       -2.8450795542    -2.6378357376     0.2899189964
| 11>  C       -2.8417508012    -4.1707894362     0.4507881092
| 12>  C       -2.1247172019    -4.6309933116     1.7282725515
| 13>  C       -4.2765402685    -4.7155652694     0.4180171223
| 14>  H        1.1500370338     1.8940414915     0.1786608006
| 15>  H       -0.2604896232     2.0676294722    -0.8644676160
| 16>  H       -0.4639179948     2.0062536029     0.8904664408
| 17>  H        0.5478634983    -0.3184708368    -0.8618738087
| 18>  H        0.4640881025    -0.3563514920     0.8890408219
| 19>  H       -2.0140070641    -0.0467560253     0.7795681769
| 20>  H       -1.6527838584    -0.4297344343    -2.2442691491
| 21>  H       -3.2055150350    -0.3765936933    -1.3991088490
| 22>  H       -2.1926273894     1.0602873098    -1.4587503002
| 23>  H       -0.9803876676    -2.4575132858    -0.7901735457
| 24>  H       -0.8235958478    -2.2552145618     0.9453037165
| 25>  H       -3.3258653254    -2.1887848485     1.1718514517
| 26>  H       -3.4876677314    -2.3896401794    -0.5633396387
| 27>  H       -2.3028189862    -4.5935405976    -0.4100961229
| 28>  H       -2.1515527881    -5.7219809936     1.8204633901
| 29>  H       -1.0745915309    -4.3259274554     1.7469733339
| 30>  H       -2.6103989270    -4.2119958509     2.6183262362
| 31>  H       -4.7898728272    -4.4348530035    -0.5078711820
| 32>  H       -4.2898285413    -5.8081809879     0.4916978098
| 33>  H       -4.8639560952    -4.3206802917     1.2559653876
| 34> *
| 35>
| 36>                          ****END OF INPUT****

CARTESIAN COORDINATES (ANGSTROEM)
---------------------------------
  C      0.105614    1.592231    0.050384
  C     -0.018584    0.065775   -0.001764
  C     -1.461887   -0.471291   -0.073384
  C     -2.169349   -0.028908   -1.363061
  C     -1.462122   -2.005113    0.089456
  C     -2.845080   -2.637836    0.289919
  C     -2.841751   -4.170789    0.450788
  C     -2.124717   -4.630993    1.728273
  C     -4.276540   -4.715565    0.418017
  H      1.150037    1.894041    0.178661
  H     -0.260490    2.067629   -0.864468
  H     -0.463918    2.006254    0.890466
  H      0.547863   -0.318471   -0.861874
  H      0.464088   -0.356351    0.889041
  H     -2.014007   -0.046756    0.779568
  H     -1.652784   -0.429734   -2.244269
  H     -3.205515   -0.376594   -1.399109
  H     -2.192627    1.060287   -1.458750
  H     -0.980388   -2.457513   -0.790174
  H     -0.823596   -2.255215    0.945304
  H     -3.325865   -2.188785    1.171851
  H     -3.487668   -2.389640   -0.563340
  H     -2.302819   -4.593541   -0.410096
  H     -2.151553   -5.721981    1.820463
  H     -1.074592   -4.325927    1.746973
  H     -2.610399   -4.211996    2.618326
  H     -4.789873   -4.434853   -0.507871
  H     -4.289829   -5.808181    0.491698
  H     -4.863956   -4.320680    1.255965

 Total Charge           Charge          ....    0
 Multiplicity           Mult            ....    1
 Number of Electrons    NEL             ....   74
 Basis Dimension        Dim             ....  399

ORBITAL ENERGIES
----------------

  NO   OCC          E(Eh)            E(eV)
   0   2.0000     -11.222033      -305.3670
   1   2.0000     -11.220501      -305.3253
   2   2.0000     -11.213770      -305.1422
   3   2.0000     -11.211365      -305.0767
   4   2.0000     -11.210724      -305.0593
   5   2.0000     -11.208893      -305.0095
   6   2.0000     -11.207571      -304.9735
   7   2.0000     -11.207281      -304.9656
   8   2.0000     -11.206507      -304.9445
   9   2.0000      -1.100987       -29.9594
  10   2.0000      -1.070424       -29.1277
  11   2.0000      -0.997612       -27.1464
  12   2.0000      -0.952955       -25.9312
  13   2.0000      -0.923811       -25.1382
  14   2.0000      -0.886452       -24.1216
  15   2.0000      -0.826256       -22.4836
  16   2.0000      -0.758731       -20.6461
  17   2.0000      -0.757096       -20.6016
  18   2.0000      -0.640098       -17.4180
  19   2.0000      -0.626245       -17.0410
  20   2.0000      -0.611962       -16.6523
  21   2.0000      -0.591942       -16.1076
  22   2.0000      -0.577794       -15.7226
  23   2.0000      -0.566214       -15.4075
  24   2.0000      -0.559536       -15.2257
  25   2.0000      -0.531876       -14.4731
  26   2.0000      -0.529452       -14.4071
  27   2.0000      -0.518140       -14.0993
  28   2.0000      -0.506211       -13.7747
  29   2.0000      -0.495737       -13.4897
  30   2.0000      -0.482163       -13.1203
  31   2.0000      -0.478419       -13.0184
  32   2.0000      -0.459965       -12.5163
  33   2.0000      -0.454689       -12.3727
  34   2.0000      -0.451273       -12.2798
  35   2.0000      -0.438137       -11.9223
  36   2.0000      -0.424038       -11.5386
  37   0.0000       0.134701         3.6654
  38   0.0000       0.147934         4.0255
  39   0.0000       0.157564         4.2875
  40   0.0000       0.165046         4.4911
  41   0.0000       0.177057         4.8180

MULLIKEN ATOMIC CHARGES
-----------------------
   0 C :   -0.405696
   1 C :   -0.177737
   2 C :   -0.014972
   3 C :   -0.438422
   4 C :   -0.241055
   5 C :   -0.252667
   6 C :    0.009449
   7 C :   -0.421232
   8 C :   -0.388863
   9 H :    0.134222
  10 H :    0.127077
  11 H :    0.122119
  12 H :    0.102323
  13 H :    0.107709
  14 H :    0.076666
  15 H :    0.120341
  16 H :    0.134316
  17 H :    0.134412
  18 H :    0.106643
  19 H :    0.111975
  20 H :    0.106326
  21 H :    0.110345
  22 H :    0.079143
  23 H :    0.129970
  24 H :    0.132645
  25 H :    0.119509
  26 H :    0.126770
  27 H :    0.129413
  28 H :    0.119272
Sum of atomic charges:   -0.0000000

LOEWDIN ATOMIC CHARGES
----------------------
   0 C :   -0.321328
   1 C :   -0.275843
   2 C :   -0.285777
   3 C :   -0.294853
   4 C :   -0.246894
   5 C :   -0.249068
   6 C :   -0.309916
   7 C :   -0.297969
   8 C :   -0.298434
   9 H :    0.120815
  10 H :    0.118094
  11 H :    0.120527
  12 H :    0.136310
  13 H :    0.136114
  14 H :    0.150122
  15 H :    0.123760
  16 H :    0.120572
  17 H :    0.121515
  18 H :    0.138964
  19 H :    0.138329
  20 H :    0.138532
  21 H :    0.138317
  22 H :    0.148610
  23 H :    0.122445
  24 H :    0.119615
  25 H :    0.122859
  26 H :    0.120870
  27 H :    0.121275
  28 H :    0.122434

  Mayer bond orders larger than 0.1
B(  0-C ,  1-C ) :   0.9158 B(  0-C ,  9-H ) :   0.9428 B(  0-C , 10-H ) :   0.9430
B(  0-C , 11-H ) :   0.9382 B(  1-C ,  2-C ) :   0.9245 B(  1-C , 12-H ) :   0.9256
B(  1-C , 13-H ) :   0.9364 B(  2-C ,  3-C ) :   0.9037 B(  2-C ,  4-C ) :   0.9248
B(  2-C , 14-H ) :   0.9269 B(  3-C , 15-H ) :   0.9304 B(  3-C , 16-H ) :   0.9416
B(  3-C , 17-H ) :   0.9423 B(  4-C ,  5-C ) :   0.9284 B(  4-C , 18-H ) :   0.9213
B(  4-C , 19-H ) :   0.9372 B(  5-C ,  6-C ) :   0.9236 B(  5-C , 20-H ) :   0.9260
B(  5-C , 21-H ) :   0.9347 B(  6-C ,  7-C ) :   0.9147 B(  6-C ,  8-C ) :   0.9163
B(  6-C , 22-H ) :   0.9287 B(  7-C , 23-H ) :   0.9397 B(  7-C , 24-H ) :   0.9407
B(  7-C , 25-H ) :   0.9318 B(  8-C , 26-H ) :   0.9408 B(  8-C , 27-H ) :   0.9429
B(  8-C , 28-H ) :   0.9321

MP2 TOTAL ENERGY:     -354.129455324 Eh
FINAL SINGLE POINT ENERGY      -354.129455324046

DIPOLE MOMENT
-------------
                                X             Y             Z
Electronic contribution:      0.29623      -0.46233      -0.12910
Nuclear contribution   :     -0.26908       0.45490       0.12500
                        -----------------------------------------
Total Dipole Moment    :      0.02715      -0.00743      -0.00410
                        -----------------------------------------
Magnitude (a.u.)       :      0.02845
Magnitude (Debye)      :      0.07231

                             ****ORCA TERMINATED NORMALLY****
TOTAL RUN TIME: 0 days 0 hours 20 minutes 2 seconds 368 msec
