                         Program Version 3.0.3 - RELEASE   -
|  1> ! RI-MP2 RIJK def2-TZVP def2-TZVP/C def2-TZVP/JK TIGHTSCF
|  2> % maxcore 2000
|  3> % mp2 density relaxed end
|  4> *xyz 0 1
|  5>  C        2.2911890939     1.4704253735    -0.3358682631
|  6>  C        2.1730707424    -0.0475446713    -0.4987638177
|  7>  C        0.8892474549    -0.4636268517    -1.2311564124
|  8>  C        0.7741017860    -1.9567526085    -1.5155063509
|  9>  C        0.7537372964    -2.8661485094    -0.2900649623
| 10>  C       -0.4304339120    -2.5794956505     0.6094027150
| 11>  O       -0.3577570162    -2.3097648537     1.7811401821
| 12>  C       -0.0588437302    -2.3793574536    -2.7064392374
| 13>  C        1.4457395491    -2.4865151836    -2.7607758372
| 14>  H        2.3049298081     1.9745625075    -1.3088640221
| 15>  H        1.4466650231     1.8743306434     0.2333280867
| 16>  H        3.2090295285     1.7436160396     0.1936653190
| 17>  H        3.0423193893    -0.4299337297    -1.0491905653
| 18>  H        2.2021519472    -0.5185620770     0.4908500537
| 19>  H        0.0198835608    -0.1313079349    -0.6458722458
| 20>  H        0.8319399760     0.0762055277    -2.1852163489
| 21>  H        0.6669717613    -3.9102507831    -0.6216937935
| 22>  H        1.6681374255    -2.7796553069     0.3039881762
| 23>  H       -1.4179546211    -2.6294616452     0.0939182782
| 24>  H       -0.6316424856    -3.2984184810    -2.6384510830
| 25>  H       -0.5393477265    -1.6035988974    -3.2929267287
| 26>  H        1.9841571587    -1.7788880880    -3.3823599745
| 27>  H        1.8912467003    -3.4751355163    -2.7281117081
| 28> *
| 29>
| 30>                          ****END OF INPUT****

CARTESIAN COORDINATES (ANGSTROEM)
---------------------------------
  C      2.291189    1.470425   -0.335868
  C      2.173071   -0.047545   -0.498764
  C      0.889247   -0.463627   -1.231156
  C      0.774102   -1.956753   -1.515506
  C      0.753737   -2.866149   -0.290065
  C     -0.430434   -2.579496    0.609403
  O     -0.357757   -2.309765    1.781140
  C     -0.058844   -2.379357   -2.706439
  C      1.445740   -2.486515   -2.760776
  H      2.304930    1.974563   -1.308864
  H      1.446665    1.874331    0.233328
  H      3.209030    1.743616    0.193665
  H      3.042319   -0.429934   -1.049191
  H      2.202152   -0.518562    0.490850
  H      0.019884   -0.131308   -0.645872
  H      0.831940    0.076206   -2.185216
  H      0.666972   -3.910251   -0.621694
  H      1.668137   -2.779655    0.303988
  H     -1.417955   -2.629462    0.093918
  H     -0.631642   -3.298418   -2.638451
  H     -0.539348   -1.603599   -3.292927
  H      1.984157   -1.778888   -3.382360
  H      1.891247   -3.475136   -2.728112

 Total Charge           Charge          ....    0
 Multiplicity           Mult            ....    1
 Number of Electrons    NEL             ....   70
 Basis Dimension        Dim             ....  363

ORBITAL ENERGIES
----------------

  NO   OCC          E(Eh)            E(eV)
   0   2.0000     -20.554862      -559.3262
   1   2.0000     -11.329002      -308.2778
   2   2.0000     -11.251757      -306.1759
   3   2.0000     -11.241284      -305.8909
   4   2.0000     -11.233997      -305.6926
   5   2.0000     -11.233081      -305.6677
   6   2.0000     -11.228344      -305.5388
   7   2.0000     -11.221117      -305.3421
   8   2.0000     -11.213726      -305.1410
   9   2.0000      -1.393319       -37.9141
  10   2.0000      -1.170096       -31.8399
  11   2.0000      -1.056456       -28.7476
  12   2.0000      -1.015829       -27.6421
  13   2.0000      -0.940564       -25.5941
  14   2.0000      -0.839292       -22.8383
  15   2.0000      -0.819369       -22.2962
  16   2.0000      -0.803564       -21.8661
  17   2.0000      -0.747151       -20.3310
  18   2.0000      -0.683674       -18.6037
  19   2.0000      -0.654088       -17.7986
  20   2.0000      -0.646185       -17.5836
  21   2.0000      -0.626730       -17.0542
  22   2.0000      -0.614423       -16.7193
  23   2.0000      -0.577085       -15.7033
  24   2.0000      -0.557563       -15.1721
  25   2.0000      -0.552712       -15.0401
  26   2.0000      -0.531465       -14.4619
  27   2.0000      -0.524413       -14.2700
  28   2.0000      -0.508353       -13.8330
  29   2.0000      -0.490346       -13.3430
  30   2.0000      -0.475913       -12.9502
  31   2.0000      -0.466662       -12.6985
  32   2.0000      -0.442691       -12.0462
  33   2.0000      -0.411672       -11.2022
  34   2.0000      -0.396112       -10.7787
  35   0.0000       0.130211         3.5432
  36   0.0000       0.137116         3.7311
  37   0.0000       0.146168         3.9774
  38   0.0000       0.151839         4.1318
  39   0.0000       0.165700         4.5089

MULLIKEN ATOMIC CHARGES
-----------------------
   0 C :   -0.390727
   1 C :   -0.223921
   2 C :   -0.255817
   3 C :    0.094050
   4 C :   -0.184831
   5 C :    0.073136
   6 O :   -0.262555
   7 C :   -0.294033
   8 C :   -0.290344
   9 H :    0.121144
  10 H :    0.127423
  11 H :    0.135366
  12 H :    0.113978
  13 H :    0.124231
  14 H :    0.124820
  15 H :    0.112952
  16 H :    0.131338
  17 H :    0.136515
  18 H :    0.082686
  19 H :    0.130237
  20 H :    0.131943
  21 H :    0.132647
  22 H :    0.129761
Sum of atomic charges:   -0.0000000

LOEWDIN ATOMIC CHARGES
----------------------
   0 C :   -0.319711
   1 C :   -0.287383
   2 C :   -0.224719
   3 C :   -0.252066
   4 C :   -0.219935
   5 C :   -0.289249
   6 O :    0.129677
   7 C :   -0.209748
   8 C :   -0.207424
   9 H :    0.119444
  10 H :    0.121996
  11 H :    0.121343
  12 H :    0.136219
  13 H :    0.137937
  14 H :    0.144453
  15 H :    0.145664
  16 H :    0.157827
  17 H :    0.148996
  18 H :    0.111593
  19 H :    0.132456
  20 H :    0.134160
  21 H :    0.135312
  22 H :    0.133159

  Mayer bond orders larger than 0.1
B(  0-C ,  1-C ) :   0.9188 B(  0-C ,  9-H ) :   0.9416 B(  0-C , 10-H ) :   0.9383
B(  0-C , 11-H ) :   0.9434 B(  1-C ,  2-C ) :   0.9264 B(  1-C , 12-H ) :   0.9360
B(  1-C , 13-H ) :   0.9276 B(  2-C ,  3-C ) :   0.9212 B(  2-C , 14-H ) :   0.9214
B(  2-C , 15-H ) :   0.9257 B(  3-C ,  4-C ) :   0.8805 B(  3-C ,  7-C ) :   0.8638
B(  3-C ,  8-C ) :   0.8549 B(  4-C ,  5-C ) :   0.8735 B(  4-C , 16-H ) :   0.9052
B(  4-C , 17-H ) :   0.9136 B(  5-C ,  6-O ) :   2.0016 B(  5-C , 18-H ) :   0.9405
B(  7-C ,  8-C ) :   0.9160 B(  7-C , 19-H ) :   0.9301 B(  7-C , 20-H ) :   0.9239
B(  8-C , 21-H ) :   0.9294 B(  8-C , 22-H ) :   0.9255

MP2 TOTAL ENERGY:     -387.613158179 Eh
FINAL SINGLE POINT ENERGY      -387.613158179255

DIPOLE MOMENT
-------------
                                X             Y             Z
Electronic contribution:     -4.49045      -5.70076       4.78461
Nuclear contribution   :      4.67787       5.56661      -5.79616
                        -----------------------------------------
Total Dipole Moment    :      0.18742      -0.13415      -1.01154
                        -----------------------------------------
Magnitude (a.u.)       :      1.03747
Magnitude (Debye)      :      2.63704

                             ****ORCA TERMINATED NORMALLY****
TOTAL RUN TIME: 0 days 0 hours 20 minutes 57 seconds 243 msec
