                         Program Version 3.0.3 - RELEASE   -
|  1> ! RI-MP2 RIJK def2-TZVP def2-TZVP/C def2-TZVP/JK TIGHTSCF
|  2> % maxcore 2000
|  3> % mp2 density relaxed end
|  4> *xyz 0 1
|  5>  C        0.2274594817     1.4138454233    -0.1744826968
|  6>  N        0.3530491733    -0.0365554120    -0.1551409495
|  7>  C        0.5016023182    -0.6285833147     0.9367289744
|  8>  O        0.5869470997    -0.1608347532     2.2397599558
|  9>  C        0.8575660717    -1.5163251772     2.7648649988
| 10>  C       -0.1420931643    -1.9281216872     3.8198307693
| 11>  C        0.7048890484    -2.0493852106     1.3378526232
| 12>  C        0.0654292504    -3.2535714229     0.7630313682
| 13>  N        1.5196355110    -3.0475152071     0.6670644038
| 14>  H        0.9599766639     1.8273646078    -0.8760415389
| 15>  H       -0.7646305457     1.6856534540    -0.5527768885
| 16>  H        0.3694769433     1.8864727727     0.8043598290
| 17>  H        1.8876184431    -1.5607175796     3.1315569487
| 18>  H       -1.1618041432    -1.8902906761     3.4262601823
| 19>  H        0.0670349956    -2.9495926575     4.1545684846
| 20>  H       -0.0778178206    -1.2664992615     4.6885469740
| 21>  H       -0.2367136210    -4.0677357624     1.4159157281
| 22>  H       -0.5486033325    -3.1098383121    -0.1217523997
| 23>  H        1.7678944671    -2.7016486537    -0.2584348270
| 24> *
| 25>
| 26>                          ****END OF INPUT****

CARTESIAN COORDINATES (ANGSTROEM)
---------------------------------
  C      0.227459    1.413845   -0.174483
  N      0.353049   -0.036555   -0.155141
  C      0.501602   -0.628583    0.936729
  O      0.586947   -0.160835    2.239760
  C      0.857566   -1.516325    2.764865
  C     -0.142093   -1.928122    3.819831
  C      0.704889   -2.049385    1.337853
  C      0.065429   -3.253571    0.763031
  N      1.519636   -3.047515    0.667064
  H      0.959977    1.827365   -0.876042
  H     -0.764631    1.685653   -0.552777
  H      0.369477    1.886473    0.804360
  H      1.887618   -1.560718    3.131557
  H     -1.161804   -1.890291    3.426260
  H      0.067035   -2.949593    4.154568
  H     -0.077818   -1.266499    4.688547
  H     -0.236714   -4.067736    1.415916
  H     -0.548603   -3.109838   -0.121752
  H      1.767894   -2.701649   -0.258435

 Total Charge           Charge          ....    0
 Multiplicity           Mult            ....    1
 Number of Electrons    NEL             ....   68
 Basis Dimension        Dim             ....  339

ORBITAL ENERGIES
----------------

  NO   OCC          E(Eh)            E(eV)
   0   2.0000     -20.586972      -560.2000
   1   2.0000     -15.577319      -423.8804
   2   2.0000     -15.543702      -422.9656
   3   2.0000     -11.332785      -308.3808
   4   2.0000     -11.304937      -307.6230
   5   2.0000     -11.283384      -307.0365
   6   2.0000     -11.274215      -306.7870
   7   2.0000     -11.242789      -305.9319
   8   2.0000     -11.232940      -305.6638
   9   2.0000      -1.428541       -38.8726
  10   2.0000      -1.280830       -34.8531
  11   2.0000      -1.216065       -33.0908
  12   2.0000      -1.039732       -28.2925
  13   2.0000      -0.972723       -26.4692
  14   2.0000      -0.921956       -25.0877
  15   2.0000      -0.896192       -24.3866
  16   2.0000      -0.825645       -22.4669
  17   2.0000      -0.739522       -20.1234
  18   2.0000      -0.702264       -19.1096
  19   2.0000      -0.680051       -18.5051
  20   2.0000      -0.651111       -17.7176
  21   2.0000      -0.625503       -17.0208
  22   2.0000      -0.596989       -16.2449
  23   2.0000      -0.586132       -15.9495
  24   2.0000      -0.573105       -15.5950
  25   2.0000      -0.558837       -15.2067
  26   2.0000      -0.542778       -14.7697
  27   2.0000      -0.514672       -14.0049
  28   2.0000      -0.499599       -13.5948
  29   2.0000      -0.481369       -13.0987
  30   2.0000      -0.480382       -13.0719
  31   2.0000      -0.423746       -11.5307
  32   2.0000      -0.411237       -11.1903
  33   2.0000      -0.373480       -10.1629
  34   0.0000       0.135944         3.6992
  35   0.0000       0.154719         4.2101
  36   0.0000       0.160894         4.3781
  37   0.0000       0.166352         4.5267
  38   0.0000       0.172697         4.6993

MULLIKEN ATOMIC CHARGES
-----------------------
   0 C :   -0.277829
   1 N :   -0.253975
   2 C :    0.140109
   3 O :   -0.292127
   4 C :    0.172827
   5 C :   -0.416868
   6 C :    0.020989
   7 C :   -0.174012
   8 N :   -0.374773
   9 H :    0.136945
  10 H :    0.136967
  11 H :    0.132259
  12 H :    0.111389
  13 H :    0.138978
  14 H :    0.137235
  15 H :    0.147412
  16 H :    0.129333
  17 H :    0.147306
  18 H :    0.237836
Sum of atomic charges:    0.0000000

LOEWDIN ATOMIC CHARGES
----------------------
   0 C :   -0.325338
   1 N :    0.074021
   2 C :   -0.345409
   3 O :    0.226518
   4 C :   -0.221225
   5 C :   -0.288150
   6 C :   -0.253290
   7 C :   -0.222055
   8 N :    0.025268
   9 H :    0.118355
  10 H :    0.119302
  11 H :    0.111537
  12 H :    0.144642
  13 H :    0.130820
  14 H :    0.133529
  15 H :    0.131791
  16 H :    0.129676
  17 H :    0.131656
  18 H :    0.178350

  Mayer bond orders larger than 0.1
B(  0-C ,  1-N ) :   0.8568 B(  0-C ,  9-H ) :   0.9359 B(  0-C , 10-H ) :   0.9336
B(  0-C , 11-H ) :   0.9322 B(  1-N ,  2-C ) :   1.9806 B(  2-C ,  3-O ) :   1.0661
B(  2-C ,  6-C ) :   0.9324 B(  3-O ,  4-C ) :   0.8828 B(  4-C ,  5-C ) :   0.9209
B(  4-C ,  6-C ) :   0.8922 B(  4-C , 12-H ) :   0.9155 B(  5-C , 13-H ) :   0.9335
B(  5-C , 14-H ) :   0.9272 B(  5-C , 15-H ) :   0.9338 B(  6-C ,  7-C ) :   0.8922
B(  6-C ,  8-N ) :   0.8992 B(  7-C ,  8-N ) :   0.9609 B(  7-C , 16-H ) :   0.9133
B(  7-C , 17-H ) :   0.9172 B(  8-N , 18-H ) :   0.8632

MP2 TOTAL ENERGY:     -418.465095659 Eh
FINAL SINGLE POINT ENERGY      -418.465095659169

DIPOLE MOMENT
-------------
                                X             Y             Z
Electronic contribution:      2.33293      -0.26120      -1.66500
Nuclear contribution   :     -2.66848       0.04224       2.01330
                        -----------------------------------------
Total Dipole Moment    :     -0.33555      -0.21895       0.34830
                        -----------------------------------------
Magnitude (a.u.)       :      0.53089
Magnitude (Debye)      :      1.34942

                             ****ORCA TERMINATED NORMALLY****
TOTAL RUN TIME: 0 days 0 hours 16 minutes 20 seconds 428 msec
