                         Program Version 3.0.3 - RELEASE   -
|  1> ! RI-MP2 RIJK def2-TZVP def2-TZVP/C def2-TZVP/JK TIGHTSCF
|  2> % maxcore 2000
|  3> % mp2 density relaxed end
|  4> *xyz 0 1
|  5>  C        0.0442921128     1.4979230307     0.1092306251
|  6>  C        1.3770780376     0.7846848271     0.0498576400
|  7>  C        2.2772281793     0.8554708016     1.2659938473
|  8>  O        3.1002154694    -0.2880835043     1.4834023179
|  9>  C        2.4351076965    -1.5319044950     1.5282726725
| 10>  C        1.3102478967    -1.6401353352     2.5588935063
| 11>  O        0.1952552373    -0.7850281307     2.3488842668
| 12>  C       -0.4403179443    -0.9283334061     1.0924992734
| 13>  C        0.0781597035    -0.0021256768    -0.0023905436
| 14>  H       -0.2313254399     1.9172137077     1.0725697344
| 15>  H       -0.2866311243     2.0808269038    -0.7431531929
| 16>  H        1.9124253993     0.8353767605    -0.8948617027
| 17>  H        2.9872952453     1.6786781464     1.1308161812
| 18>  H        1.6799828890     1.0717680463     2.1575808049
| 19>  H        2.0580574315    -1.8153130009     0.5341529499
| 20>  H        3.2027452161    -2.2662288934     1.7992685875
| 21>  H        0.9772894362    -2.6925685916     2.5841714144
| 22>  H        1.6913882023    -1.3800420004     3.5516438048
| 23>  H       -0.3641548223    -1.9718205364     0.7486033454
| 24>  H       -1.5050422903    -0.7260954244     1.2637880095
| 25>  H       -0.1612045317    -0.3865175290    -0.9920888821
| 26> *
| 27>
| 28>                          ****END OF INPUT****

CARTESIAN COORDINATES (ANGSTROEM)
---------------------------------
  C      0.044292    1.497923    0.109231
  C      1.377078    0.784685    0.049858
  C      2.277228    0.855471    1.265994
  O      3.100215   -0.288084    1.483402
  C      2.435108   -1.531904    1.528273
  C      1.310248   -1.640135    2.558894
  O      0.195255   -0.785028    2.348884
  C     -0.440318   -0.928333    1.092499
  C      0.078160   -0.002126   -0.002391
  H     -0.231325    1.917214    1.072570
  H     -0.286631    2.080827   -0.743153
  H      1.912425    0.835377   -0.894862
  H      2.987295    1.678678    1.130816
  H      1.679983    1.071768    2.157581
  H      2.058057   -1.815313    0.534153
  H      3.202745   -2.266229    1.799269
  H      0.977289   -2.692569    2.584171
  H      1.691388   -1.380042    3.551644
  H     -0.364155   -1.971821    0.748603
  H     -1.505042   -0.726095    1.263788
  H     -0.161205   -0.386518   -0.992089

 Total Charge           Charge          ....    0
 Multiplicity           Mult            ....    1
 Number of Electrons    NEL             ....   70
 Basis Dimension        Dim             ....  351

ORBITAL ENERGIES
----------------

  NO   OCC          E(Eh)            E(eV)
   0   2.0000     -20.555401      -559.3409
   1   2.0000     -20.546767      -559.1060
   2   2.0000     -11.280699      -306.9634
   3   2.0000     -11.276648      -306.8532
   4   2.0000     -11.271759      -306.7202
   5   2.0000     -11.267052      -306.5921
   6   2.0000     -11.235437      -305.7318
   7   2.0000     -11.232302      -305.6465
   8   2.0000     -11.225719      -305.4673
   9   2.0000      -1.381485       -37.5921
  10   2.0000      -1.358850       -36.9762
  11   2.0000      -1.149292       -31.2738
  12   2.0000      -1.014801       -27.6141
  13   2.0000      -0.981380       -26.7047
  14   2.0000      -0.905052       -24.6277
  15   2.0000      -0.836549       -22.7637
  16   2.0000      -0.805553       -21.9202
  17   2.0000      -0.747960       -20.3530
  18   2.0000      -0.691778       -18.8242
  19   2.0000      -0.678802       -18.4711
  20   2.0000      -0.663226       -18.0473
  21   2.0000      -0.639813       -17.4102
  22   2.0000      -0.633401       -17.2357
  23   2.0000      -0.613742       -16.7008
  24   2.0000      -0.583297       -15.8723
  25   2.0000      -0.548861       -14.9353
  26   2.0000      -0.539496       -14.6804
  27   2.0000      -0.523786       -14.2529
  28   2.0000      -0.513999       -13.9866
  29   2.0000      -0.483445       -13.1552
  30   2.0000      -0.473492       -12.8844
  31   2.0000      -0.444661       -12.0998
  32   2.0000      -0.416254       -11.3268
  33   2.0000      -0.401095       -10.9144
  34   2.0000      -0.390529       -10.6268
  35   0.0000       0.138283         3.7629
  36   0.0000       0.159089         4.3290
  37   0.0000       0.168033         4.5724
  38   0.0000       0.171003         4.6532
  39   0.0000       0.195891         5.3305

MULLIKEN ATOMIC CHARGES
-----------------------
   0 C :   -0.309727
   1 C :   -0.117110
   2 C :   -0.051174
   3 O :   -0.318525
   4 C :   -0.071347
   5 C :   -0.071315
   6 O :   -0.322646
   7 C :   -0.061994
   8 C :   -0.118873
   9 H :    0.140683
  10 H :    0.134074
  11 H :    0.119271
  12 H :    0.121095
  13 H :    0.117798
  14 H :    0.102679
  15 H :    0.128702
  16 H :    0.106100
  17 H :    0.120969
  18 H :    0.105325
  19 H :    0.126645
  20 H :    0.119368
Sum of atomic charges:   -0.0000000

LOEWDIN ATOMIC CHARGES
----------------------
   0 C :   -0.204044
   1 C :   -0.209297
   2 C :   -0.302152
   3 O :    0.148742
   4 C :   -0.340331
   5 C :   -0.329699
   6 O :    0.151138
   7 C :   -0.306556
   8 C :   -0.222875
   9 H :    0.140136
  10 H :    0.130724
  11 H :    0.148209
  12 H :    0.134139
  13 H :    0.129374
  14 H :    0.124917
  15 H :    0.136044
  16 H :    0.125776
  17 H :    0.133898
  18 H :    0.125494
  19 H :    0.133576
  20 H :    0.152788

  Mayer bond orders larger than 0.1
B(  0-C ,  1-C ) :   0.8741 B(  0-C ,  8-C ) :   0.8878 B(  0-C ,  9-H ) :   0.9208
B(  0-C , 10-H ) :   0.9299 B(  1-C ,  2-C ) :   0.9065 B(  1-C ,  8-C ) :   0.8787
B(  1-C , 11-H ) :   0.9286 B(  2-C ,  3-O ) :   0.9298 B(  2-C , 12-H ) :   0.9245
B(  2-C , 13-H ) :   0.9407 B(  3-O ,  4-C ) :   0.9503 B(  4-C ,  5-C ) :   0.9096
B(  4-C , 14-H ) :   0.9361 B(  4-C , 15-H ) :   0.9205 B(  5-C ,  6-O ) :   0.9074
B(  5-C , 16-H ) :   0.9326 B(  5-C , 17-H ) :   0.9269 B(  6-O ,  7-C ) :   0.9319
B(  7-C ,  8-C ) :   0.9191 B(  7-C , 18-H ) :   0.9413 B(  7-C , 19-H ) :   0.9289
B(  8-C , 20-H ) :   0.9213

MP2 TOTAL ENERGY:     -423.490274443 Eh
FINAL SINGLE POINT ENERGY      -423.490274443109

DIPOLE MOMENT
-------------
                                X             Y             Z
Electronic contribution:      1.52421       0.27776       1.51050
Nuclear contribution   :     -1.92594      -0.58806      -1.95347
                        -----------------------------------------
Total Dipole Moment    :     -0.40173      -0.31030      -0.44297
                        -----------------------------------------
Magnitude (a.u.)       :      0.67372
Magnitude (Debye)      :      1.71246

                             ****ORCA TERMINATED NORMALLY****
TOTAL RUN TIME: 0 days 0 hours 18 minutes 49 seconds 498 msec
