                         Program Version 3.0.3 - RELEASE   -
|  1> ! RI-MP2 RIJK def2-TZVP def2-TZVP/C def2-TZVP/JK TIGHTSCF
|  2> % maxcore 2000
|  3> % mp2 density relaxed end
|  4> *xyz 0 1
|  5>  O       -0.0354946184     1.4574407021     0.0078992334
|  6>  C        0.0232668786     0.0405594280     0.0012827390
|  7>  C       -1.3736246485    -0.4833745762     0.0117724428
|  8>  C       -2.5172362543     0.2369318223     0.0236974348
|  9>  N       -3.6660459140    -0.5537116230     0.0312776888
| 10>  C       -3.3303897858    -1.8995364188     0.0247133182
| 11>  O       -4.0775397269    -2.8394736740     0.0286010446
| 12>  C       -1.7524121011    -1.8949869502     0.0110719868
| 13>  O       -1.0702252006    -2.8917808653     0.0025038987
| 14>  H        0.8638634479     1.7965305425     0.0023309203
| 15>  H        0.5527021536    -0.3400618317    -0.8874045229
| 16>  H        0.5687535939    -0.3478236696     0.8767806145
| 17>  H       -2.6059892880     1.3139023573     0.0276710387
| 18>  H       -4.6112310065    -0.2095789734     0.0407221223
| 19> *
| 20>
| 21>                          ****END OF INPUT****

CARTESIAN COORDINATES (ANGSTROEM)
---------------------------------
  O     -0.035495    1.457441    0.007899
  C      0.023267    0.040559    0.001283
  C     -1.373625   -0.483375    0.011772
  C     -2.517236    0.236932    0.023697
  N     -3.666046   -0.553712    0.031278
  C     -3.330390   -1.899536    0.024713
  O     -4.077540   -2.839474    0.028601
  C     -1.752412   -1.894987    0.011072
  O     -1.070225   -2.891781    0.002504
  H      0.863863    1.796531    0.002331
  H      0.552702   -0.340062   -0.887405
  H      0.568754   -0.347824    0.876781
  H     -2.605989    1.313902    0.027671
  H     -4.611231   -0.209579    0.040722

 Total Charge           Charge          ....    0
 Multiplicity           Mult            ....    1
 Number of Electrons    NEL             ....   66
 Basis Dimension        Dim             ....  309

ORBITAL ENERGIES
----------------

  NO   OCC          E(Eh)            E(eV)
   0   2.0000     -20.580475      -560.0232
   1   2.0000     -20.568514      -559.6977
   2   2.0000     -20.564621      -559.5918
   3   2.0000     -15.622954      -425.1222
   4   2.0000     -11.378698      -309.6301
   5   2.0000     -11.352084      -308.9059
   6   2.0000     -11.328292      -308.2585
   7   2.0000     -11.305098      -307.6274
   8   2.0000     -11.248688      -306.0924
   9   2.0000      -1.427750       -38.8511
  10   2.0000      -1.398043       -38.0427
  11   2.0000      -1.385720       -37.7074
  12   2.0000      -1.301631       -35.4192
  13   2.0000      -1.093825       -29.7645
  14   2.0000      -0.960985       -26.1497
  15   2.0000      -0.949868       -25.8472
  16   2.0000      -0.804985       -21.9048
  17   2.0000      -0.778820       -21.1928
  18   2.0000      -0.746161       -20.3041
  19   2.0000      -0.704690       -19.1756
  20   2.0000      -0.669304       -18.2127
  21   2.0000      -0.661136       -17.9904
  22   2.0000      -0.646347       -17.5880
  23   2.0000      -0.628007       -17.0889
  24   2.0000      -0.626690       -17.0531
  25   2.0000      -0.612330       -16.6623
  26   2.0000      -0.539121       -14.6702
  27   2.0000      -0.536586       -14.6012
  28   2.0000      -0.509358       -13.8603
  29   2.0000      -0.500909       -13.6304
  30   2.0000      -0.474964       -12.9244
  31   2.0000      -0.411543       -11.1987
  32   2.0000      -0.349626        -9.5138
  33   0.0000       0.043224         1.1762
  34   0.0000       0.122337         3.3290
  35   0.0000       0.124419         3.3856
  36   0.0000       0.159822         4.3490
  37   0.0000       0.178171         4.8483

MULLIKEN ATOMIC CHARGES
-----------------------
   0 O :   -0.474956
   1 C :   -0.050023
   2 C :   -0.029335
   3 C :   -0.007288
   4 N :   -0.284184
   5 C :    0.230739
   6 O :   -0.257888
   7 C :    0.124983
   8 O :   -0.256650
   9 H :    0.323531
  10 H :    0.121449
  11 H :    0.121533
  12 H :    0.182244
  13 H :    0.255846
Sum of atomic charges:    0.0000000

LOEWDIN ATOMIC CHARGES
----------------------
   0 O :   -0.039052
   1 C :   -0.300846
   2 C :   -0.178010
   3 C :   -0.114830
   4 N :    0.141076
   5 C :   -0.364541
   6 O :    0.160878
   7 C :   -0.268025
   8 O :    0.181004
   9 H :    0.177480
  10 H :    0.131284
  11 H :    0.131298
  12 H :    0.150749
  13 H :    0.191532

  Mayer bond orders larger than 0.1
B(  0-O ,  1-C ) :   1.0318 B(  0-O ,  2-C ) :  -0.1135 B(  0-O ,  9-H ) :   0.8453
B(  1-C ,  2-C ) :   0.8984 B(  1-C , 10-H ) :   0.9288 B(  1-C , 11-H ) :   0.9288
B(  2-C ,  3-C ) :   1.6213 B(  2-C ,  7-C ) :   0.9336 B(  3-C ,  4-N ) :   1.0268
B(  3-C , 12-H ) :   0.8829 B(  4-N ,  5-C ) :   1.0472 B(  4-N , 13-H ) :   0.8610
B(  5-C ,  6-O ) :   2.0353 B(  5-C ,  7-C ) :   0.8820 B(  7-C ,  8-O ) :   1.9699

MP2 TOTAL ENERGY:     -473.106804249 Eh
FINAL SINGLE POINT ENERGY      -473.106804248532

DIPOLE MOMENT
-------------
                                X             Y             Z
Electronic contribution:     -3.89732      -4.57028       0.02037
Nuclear contribution   :      4.20976       6.55863      -0.01724
                        -----------------------------------------
Total Dipole Moment    :      0.31245       1.98834       0.00313
                        -----------------------------------------
Magnitude (a.u.)       :      2.01275
Magnitude (Debye)      :      5.11599

                             ****ORCA TERMINATED NORMALLY****
TOTAL RUN TIME: 0 days 0 hours 12 minutes 53 seconds 289 msec
