                         Program Version 3.0.3 - RELEASE   -
|  1> ! RI-MP2 RIJK def2-TZVP def2-TZVP/C def2-TZVP/JK TIGHTSCF
|  2> % maxcore 2000
|  3> % mp2 density relaxed end
|  4> *xyz 0 1
|  5>  O       -0.1968340376     1.1191526752     1.2230673013
|  6>  C        0.0031595101     0.1381725687     0.2379633147
|  7>  C        0.5137523331    -1.1494137592     0.9170843895
|  8>  C       -0.9374996990    -1.7365704141     0.9209269809
|  9>  C       -1.6260321274    -1.5971793367     2.2625962682
| 10>  O       -2.1179403717    -2.5252534555     2.8500556952
| 11>  C       -1.3115487844    -0.6389519213    -0.1421376251
| 12>  C       -2.5507266451     0.1063629443    -0.0256666874
| 13>  N       -3.5017753019     0.7564671813     0.0788047036
| 14>  H       -0.7631806501     1.8137226496     0.8653146194
| 15>  H        0.5753498207     0.5241633802    -0.6140490501
| 16>  H        1.1823265869    -1.7302691779     0.2793090998
| 17>  H        0.9859437012    -0.9887753179     1.8876402127
| 18>  H       -1.0524126836    -2.7653584285     0.5794035766
| 19>  H       -1.6208423305    -0.5713126857     2.6857092402
| 20>  H       -1.2342028505    -1.0618567824    -1.1472827193
| 21> *
| 22>
| 23>                          ****END OF INPUT****

CARTESIAN COORDINATES (ANGSTROEM)
---------------------------------
  O     -0.196834    1.119153    1.223067
  C      0.003160    0.138173    0.237963
  C      0.513752   -1.149414    0.917084
  C     -0.937500   -1.736570    0.920927
  C     -1.626032   -1.597179    2.262596
  O     -2.117940   -2.525253    2.850056
  C     -1.311549   -0.638952   -0.142138
  C     -2.550727    0.106363   -0.025667
  N     -3.501775    0.756467    0.078805
  H     -0.763181    1.813723    0.865315
  H      0.575350    0.524163   -0.614049
  H      1.182327   -1.730269    0.279309
  H      0.985944   -0.988775    1.887640
  H     -1.052413   -2.765358    0.579404
  H     -1.620842   -0.571313    2.685709
  H     -1.234203   -1.061857   -1.147283

 Total Charge           Charge          ....    0
 Multiplicity           Mult            ....    1
 Number of Electrons    NEL             ....   66
 Basis Dimension        Dim             ....  321

ORBITAL ENERGIES
----------------

  NO   OCC          E(Eh)            E(eV)
   0   2.0000     -20.593699      -560.3830
   1   2.0000     -20.566758      -559.6499
   2   2.0000     -15.588933      -424.1964
   3   2.0000     -11.340039      -308.5781
   4   2.0000     -11.329338      -308.2870
   5   2.0000     -11.306258      -307.6589
   6   2.0000     -11.290205      -307.2221
   7   2.0000     -11.278638      -306.9073
   8   2.0000     -11.265564      -306.5516
   9   2.0000      -1.407342       -38.2957
  10   2.0000      -1.404219       -38.2108
  11   2.0000      -1.238035       -33.6886
  12   2.0000      -1.173447       -31.9311
  13   2.0000      -0.994776       -27.0692
  14   2.0000      -0.970776       -26.4162
  15   2.0000      -0.846592       -23.0369
  16   2.0000      -0.804750       -21.8984
  17   2.0000      -0.747226       -20.3330
  18   2.0000      -0.737136       -20.0585
  19   2.0000      -0.695806       -18.9338
  20   2.0000      -0.655088       -17.8259
  21   2.0000      -0.632715       -17.2170
  22   2.0000      -0.618420       -16.8281
  23   2.0000      -0.585759       -15.9393
  24   2.0000      -0.579352       -15.7650
  25   2.0000      -0.563165       -15.3245
  26   2.0000      -0.550477       -14.9792
  27   2.0000      -0.515526       -14.0282
  28   2.0000      -0.510331       -13.8868
  29   2.0000      -0.487674       -13.2703
  30   2.0000      -0.464068       -12.6279
  31   2.0000      -0.449966       -12.2442
  32   2.0000      -0.426259       -11.5991
  33   0.0000       0.108441         2.9508
  34   0.0000       0.114768         3.1230
  35   0.0000       0.130186         3.5425
  36   0.0000       0.144474         3.9313
  37   0.0000       0.169136         4.6024

MULLIKEN ATOMIC CHARGES
-----------------------
   0 O :   -0.451568
   1 C :    0.011682
   2 C :   -0.250042
   3 C :    0.041112
   4 C :    0.008170
   5 O :   -0.248459
   6 C :    0.037299
   7 C :   -0.268904
   8 N :   -0.034553
   9 H :    0.335272
  10 H :    0.115311
  11 H :    0.144352
  12 H :    0.147355
  13 H :    0.135397
  14 H :    0.121017
  15 H :    0.156559
Sum of atomic charges:    0.0000000

LOEWDIN ATOMIC CHARGES
----------------------
   0 O :    0.012689
   1 C :   -0.290608
   2 C :   -0.181467
   3 C :   -0.177561
   4 C :   -0.273072
   5 O :    0.145995
   6 C :   -0.183095
   7 C :   -0.185796
   8 N :    0.071775
   9 H :    0.186404
  10 H :    0.127853
  11 H :    0.144559
  12 H :    0.144277
  13 H :    0.152991
  14 H :    0.125124
  15 H :    0.179932

  Mayer bond orders larger than 0.1
B(  0-O ,  1-C ) :   1.0907 B(  0-O ,  9-H ) :   0.8288 B(  1-C ,  2-C ) :   0.8759
B(  1-C ,  6-C ) :   0.8498 B(  1-C , 10-H ) :   0.9542 B(  2-C ,  3-C ) :   0.8682
B(  2-C , 11-H ) :   0.9164 B(  2-C , 12-H ) :   0.9151 B(  3-C ,  4-C ) :   0.8303
B(  3-C ,  6-C ) :   0.8420 B(  3-C , 13-H ) :   0.9046 B(  4-C ,  5-O ) :   1.9897
B(  4-C , 14-H ) :   0.9427 B(  6-C ,  7-C ) :   0.9434 B(  6-C , 15-H ) :   0.8798
B(  7-C ,  8-N ) :   2.8490

MP2 TOTAL ENERGY:     -437.168606109 Eh
FINAL SINGLE POINT ENERGY      -437.168606109407

DIPOLE MOMENT
-------------
                                X             Y             Z
Electronic contribution:     -4.94096       0.53597       0.91365
Nuclear contribution   :      6.52810      -0.52746      -2.06496
                        -----------------------------------------
Total Dipole Moment    :      1.58714       0.00850      -1.15130
                        -----------------------------------------
Magnitude (a.u.)       :      1.96076
Magnitude (Debye)      :      4.98386

                             ****ORCA TERMINATED NORMALLY****
TOTAL RUN TIME: 0 days 0 hours 15 minutes 41 seconds 895 msec
