                         Program Version 3.0.3 - RELEASE   -
|  1> ! RI-MP2 RIJK def2-TZVP def2-TZVP/C def2-TZVP/JK TIGHTSCF
|  2> % maxcore 2000
|  3> % mp2 density relaxed end
|  4> *xyz 0 1
|  5>  C       -0.6585566168    -0.9701671046     0.7716112239
|  6>  C       -0.2375111786     0.0137022558     0.2223808535
|  7>  C        0.2583386798     1.1648676036    -0.4810981148
|  8>  C        0.7985188005     2.3395161059     0.2772493868
|  9>  N        1.6952286984     1.4948196394    -0.4978595311
| 10>  C        2.6099658342     0.6175350620     0.2326121077
| 11>  C        4.0421916796     1.1137686715     0.1342340271
| 12>  C        4.5832125104     1.6662530407    -1.1282040997
| 13>  N        4.3594556753     2.5460413590     0.0389480106
| 14>  H       -1.0338333454    -1.8320044483     1.2659192281
| 15>  H       -0.2346392339     1.3561334951    -1.4318092836
| 16>  H        0.6306994771     3.3434943084    -0.1035098004
| 17>  H        0.8240919159     2.2509981882     1.3615758122
| 18>  H        2.3244680721     0.5161170891     1.2913248395
| 19>  H        2.5477842299    -0.3854444785    -0.2059643365
| 20>  H        4.7223780437     0.5653297566     0.7838191850
| 21>  H        5.6252486902     1.5075069265    -1.3910183259
| 22>  H        3.8975895234     1.7537824270    -1.9654963656
| 23>  H        3.4964117242     3.0608069425    -0.1217011268
| 24> *
| 25>
| 26>                          ****END OF INPUT****

CARTESIAN COORDINATES (ANGSTROEM)
---------------------------------
  C     -0.658557   -0.970167    0.771611
  C     -0.237511    0.013702    0.222381
  C      0.258339    1.164868   -0.481098
  C      0.798519    2.339516    0.277249
  N      1.695229    1.494820   -0.497860
  C      2.609966    0.617535    0.232612
  C      4.042192    1.113769    0.134234
  C      4.583213    1.666253   -1.128204
  N      4.359456    2.546041    0.038948
  H     -1.033833   -1.832004    1.265919
  H     -0.234639    1.356133   -1.431809
  H      0.630699    3.343494   -0.103510
  H      0.824092    2.250998    1.361576
  H      2.324468    0.516117    1.291325
  H      2.547784   -0.385444   -0.205964
  H      4.722378    0.565330    0.783819
  H      5.625249    1.507507   -1.391018
  H      3.897590    1.753782   -1.965496
  H      3.496412    3.060807   -0.121701

 Total Charge           Charge          ....    0
 Multiplicity           Mult            ....    1
 Number of Electrons    NEL             ....   66
 Basis Dimension        Dim             ....  339

ORBITAL ENERGIES
----------------

  NO   OCC          E(Eh)            E(eV)
   0   2.0000     -15.580878      -423.9772
   1   2.0000     -15.547450      -423.0676
   2   2.0000     -11.295075      -307.3546
   3   2.0000     -11.275782      -306.8296
   4   2.0000     -11.262995      -306.4817
   5   2.0000     -11.254578      -306.2526
   6   2.0000     -11.246380      -306.0295
   7   2.0000     -11.242076      -305.9124
   8   2.0000     -11.236492      -305.7605
   9   2.0000      -1.297858       -35.3165
  10   2.0000      -1.248473       -33.9727
  11   2.0000      -1.053988       -28.6805
  12   2.0000      -1.018380       -27.7115
  13   2.0000      -0.901109       -24.5204
  14   2.0000      -0.879893       -23.9431
  15   2.0000      -0.860799       -23.4235
  16   2.0000      -0.789921       -21.4948
  17   2.0000      -0.731522       -19.9057
  18   2.0000      -0.706395       -19.2220
  19   2.0000      -0.682774       -18.5792
  20   2.0000      -0.653403       -17.7800
  21   2.0000      -0.623874       -16.9765
  22   2.0000      -0.604897       -16.4601
  23   2.0000      -0.569884       -15.5073
  24   2.0000      -0.536682       -14.6038
  25   2.0000      -0.502511       -13.6740
  26   2.0000      -0.487772       -13.2730
  27   2.0000      -0.468494       -12.7484
  28   2.0000      -0.457847       -12.4586
  29   2.0000      -0.429445       -11.6858
  30   2.0000      -0.401373       -10.9219
  31   2.0000      -0.380236       -10.3468
  32   2.0000      -0.365628        -9.9492
  33   0.0000       0.142258         3.8710
  34   0.0000       0.149206         4.0601
  35   0.0000       0.153777         4.1845
  36   0.0000       0.163044         4.4367
  37   0.0000       0.170160         4.6303

MULLIKEN ATOMIC CHARGES
-----------------------
   0 C :   -0.131512
   1 C :   -0.023831
   2 C :   -0.199261
   3 C :   -0.157777
   4 N :   -0.227201
   5 C :   -0.132785
   6 C :   -0.027477
   7 C :   -0.179297
   8 N :   -0.378588
   9 H :    0.194957
  10 H :    0.141086
  11 H :    0.140980
  12 H :    0.139089
  13 H :    0.114577
  14 H :    0.128510
  15 H :    0.119322
  16 H :    0.121312
  17 H :    0.136210
  18 H :    0.221684
Sum of atomic charges:    0.0000000

LOEWDIN ATOMIC CHARGES
----------------------
   0 C :   -0.084933
   1 C :   -0.100694
   2 C :   -0.238729
   3 C :   -0.227155
   4 N :    0.121841
   5 C :   -0.272278
   6 C :   -0.286710
   7 C :   -0.269388
   8 N :   -0.020571
   9 H :    0.128704
  10 H :    0.159729
  11 H :    0.127482
  12 H :    0.131738
  13 H :    0.133182
  14 H :    0.145649
  15 H :    0.142417
  16 H :    0.121400
  17 H :    0.123897
  18 H :    0.164417

  Mayer bond orders larger than 0.1
B(  0-C ,  1-C ) :   2.5605 B(  0-C ,  2-C ) :  -0.1114 B(  0-C ,  9-H ) :   0.8992
B(  1-C ,  2-C ) :   1.1601 B(  2-C ,  3-C ) :   0.8981 B(  2-C ,  4-N ) :   0.9198
B(  2-C , 10-H ) :   0.9325 B(  3-C ,  4-N ) :   0.8585 B(  3-C , 11-H ) :   0.9227
B(  3-C , 12-H ) :   0.9190 B(  4-N ,  5-C ) :   0.8754 B(  5-C ,  6-C ) :   0.9379
B(  5-C , 13-H ) :   0.9206 B(  5-C , 14-H ) :   0.9137 B(  6-C ,  7-C ) :   0.9470
B(  6-C ,  8-N ) :   0.9548 B(  6-C , 15-H ) :   0.9186 B(  7-C ,  8-N ) :   0.9040
B(  7-C , 16-H ) :   0.9245 B(  7-C , 17-H ) :   0.9145 B(  8-N , 18-H ) :   0.8830

MP2 TOTAL ENERGY:     -381.282443884 Eh
FINAL SINGLE POINT ENERGY      -381.282443884327

DIPOLE MOMENT
-------------
                                X             Y             Z
Electronic contribution:     -3.34282      -1.04565       0.02765
Nuclear contribution   :      2.61319       0.62627       0.02024
                        -----------------------------------------
Total Dipole Moment    :     -0.72963      -0.41938       0.04788
                        -----------------------------------------
Magnitude (a.u.)       :      0.84293
Magnitude (Debye)      :      2.14256

                             ****ORCA TERMINATED NORMALLY****
TOTAL RUN TIME: 0 days 0 hours 17 minutes 9 seconds 731 msec
