                         Program Version 3.0.3 - RELEASE   -
|  1> ! RI-MP2 RIJK def2-TZVP def2-TZVP/C def2-TZVP/JK TIGHTSCF
|  2> % maxcore 2000
|  3> % mp2 density relaxed end
|  4> *xyz 0 1
|  5>  N       -0.0219277495     1.3310741188    -0.0899999371
|  6>  C       -0.0055681994     0.0617360579    -0.0578978545
|  7>  N       -1.1871931317    -0.6797107840     0.0547373189
|  8>  C       -2.4327513749    -0.0119598394     0.1183009610
|  9>  C       -3.5628269210    -0.6331574192     0.4470933725
| 10>  C       -3.5715694481    -2.1016856693     0.7681245952
| 11>  C       -2.4340726378    -2.8057891575     0.0161592008
| 12>  C       -1.1001391084    -2.0825860429     0.0870044502
| 13>  O       -0.0341608537    -2.6573231045     0.1132919185
| 14>  H        0.9256459317     1.6897240179    -0.1872716155
| 15>  H        0.8651673437    -0.5907174746    -0.1118508087
| 16>  H       -2.3520776713     1.0448006269    -0.0941172492
| 17>  H       -4.4816594785    -0.0615136034     0.5005170225
| 18>  H       -3.4614558092    -2.2519435580     1.8522350341
| 19>  H       -4.5284380518    -2.5585312849     0.4966912549
| 20>  H       -2.2652018875    -3.8269133583     0.3619052115
| 21>  H       -2.6907070526    -2.8608661954    -1.0510031153
| 22> *
| 23>
| 24>                          ****END OF INPUT****

CARTESIAN COORDINATES (ANGSTROEM)
---------------------------------
  N     -0.021928    1.331074   -0.090000
  C     -0.005568    0.061736   -0.057898
  N     -1.187193   -0.679711    0.054737
  C     -2.432751   -0.011960    0.118301
  C     -3.562827   -0.633157    0.447093
  C     -3.571569   -2.101686    0.768125
  C     -2.434073   -2.805789    0.016159
  C     -1.100139   -2.082586    0.087004
  O     -0.034161   -2.657323    0.113292
  H      0.925646    1.689724   -0.187272
  H      0.865167   -0.590717   -0.111851
  H     -2.352078    1.044801   -0.094117
  H     -4.481659   -0.061514    0.500517
  H     -3.461456   -2.251944    1.852235
  H     -4.528438   -2.558531    0.496691
  H     -2.265202   -3.826913    0.361905
  H     -2.690707   -2.860866   -1.051003

 Total Charge           Charge          ....    0
 Multiplicity           Mult            ....    1
 Number of Electrons    NEL             ....   66
 Basis Dimension        Dim             ....  327

ORBITAL ENERGIES
----------------

  NO   OCC          E(Eh)            E(eV)
   0   2.0000     -20.544408      -559.0418
   1   2.0000     -15.619639      -425.0320
   2   2.0000     -15.548498      -423.0961
   3   2.0000     -11.372824      -309.4703
   4   2.0000     -11.324664      -308.1598
   5   2.0000     -11.277623      -306.8797
   6   2.0000     -11.253380      -306.2200
   7   2.0000     -11.250440      -306.1400
   8   2.0000     -11.236517      -305.7612
   9   2.0000      -1.412125       -38.4259
  10   2.0000      -1.301463       -35.4146
  11   2.0000      -1.195092       -32.5201
  12   2.0000      -1.100166       -29.9370
  13   2.0000      -1.027589       -27.9621
  14   2.0000      -0.927581       -25.2408
  15   2.0000      -0.865576       -23.5535
  16   2.0000      -0.827674       -22.5222
  17   2.0000      -0.714539       -19.4436
  18   2.0000      -0.693696       -18.8764
  19   2.0000      -0.692584       -18.8462
  20   2.0000      -0.655877       -17.8473
  21   2.0000      -0.645303       -17.5596
  22   2.0000      -0.626325       -17.0432
  23   2.0000      -0.607382       -16.5277
  24   2.0000      -0.590884       -16.0788
  25   2.0000      -0.551793       -15.0150
  26   2.0000      -0.549142       -14.9429
  27   2.0000      -0.505601       -13.7581
  28   2.0000      -0.494078       -13.4445
  29   2.0000      -0.454040       -12.3551
  30   2.0000      -0.428826       -11.6690
  31   2.0000      -0.427807       -11.6412
  32   2.0000      -0.332699        -9.0532
  33   0.0000       0.118399         3.2218
  34   0.0000       0.133040         3.6202
  35   0.0000       0.141751         3.8572
  36   0.0000       0.153223         4.1694
  37   0.0000       0.166798         4.5388

MULLIKEN ATOMIC CHARGES
-----------------------
   0 N :   -0.393889
   1 C :    0.015569
   2 N :   -0.047238
   3 C :   -0.115692
   4 C :   -0.169922
   5 C :   -0.198212
   6 C :   -0.230264
   7 C :    0.219081
   8 O :   -0.330032
   9 H :    0.227741
  10 H :    0.153852
  11 H :    0.170038
  12 H :    0.139817
  13 H :    0.132165
  14 H :    0.135426
  15 H :    0.152680
  16 H :    0.138881
Sum of atomic charges:    0.0000000

LOEWDIN ATOMIC CHARGES
----------------------
   0 N :   -0.080237
   1 C :   -0.289897
   2 N :    0.226441
   3 C :   -0.172196
   4 C :   -0.184874
   5 C :   -0.247252
   6 C :   -0.212163
   7 C :   -0.374339
   8 O :    0.116342
   9 H :    0.168056
  10 H :    0.136631
  11 H :    0.156027
  12 H :    0.147792
  13 H :    0.148936
  14 H :    0.146004
  15 H :    0.153089
  16 H :    0.161640

  Mayer bond orders larger than 0.1
B(  0-N ,  1-C ) :   1.8825 B(  0-N ,  9-H ) :   0.8606 B(  1-C ,  2-N ) :   0.9812
B(  1-C , 10-H ) :   0.9175 B(  2-N ,  3-C ) :   0.9810 B(  2-N ,  7-C ) :   1.0355
B(  3-C ,  4-C ) :   1.7407 B(  3-C , 11-H ) :   0.9218 B(  4-C ,  5-C ) :   0.9109
B(  4-C , 12-H ) :   0.9258 B(  5-C ,  6-C ) :   0.9058 B(  5-C , 13-H ) :   0.9189
B(  5-C , 14-H ) :   0.9275 B(  6-C ,  7-C ) :   0.9428 B(  6-C , 15-H ) :   0.9329
B(  6-C , 16-H ) :   0.9055 B(  7-C ,  8-O ) :   1.9362

MP2 TOTAL ENERGY:     -417.344221144 Eh
FINAL SINGLE POINT ENERGY      -417.344221143546

DIPOLE MOMENT
-------------
                                X             Y             Z
Electronic contribution:      4.52946       0.64729      -0.49676
Nuclear contribution   :     -5.17271      -0.74965       0.46662
                        -----------------------------------------
Total Dipole Moment    :     -0.64324      -0.10236      -0.03014
                        -----------------------------------------
Magnitude (a.u.)       :      0.65203
Magnitude (Debye)      :      1.65734

                             ****ORCA TERMINATED NORMALLY****
TOTAL RUN TIME: 0 days 0 hours 16 minutes 28 seconds 454 msec
