                         Program Version 3.0.3 - RELEASE   -
|  1> ! RI-MP2 RIJK def2-TZVP def2-TZVP/C def2-TZVP/JK TIGHTSCF
|  2> % maxcore 2000
|  3> % mp2 density relaxed end
|  4> *xyz 0 1
|  5>  C       -1.5166188346    -0.1827945612    -0.1133451728
|  6>  C        0.0055541279    -0.0813589134     0.0491950363
|  7>  C        0.7900783839    -0.6233321853    -1.1367307666
|  8>  C        0.7248870615     0.1736556239    -2.4360170462
|  9>  C        1.3014150343     1.5910242248    -2.3333752793
| 10>  C        2.1100106490    -1.3451341388    -0.8759775201
| 11>  O        2.5671134022    -1.5640173458     0.4231547714
| 12>  C        0.8909124145    -2.1240327551    -1.3184663884
| 13>  O        0.2987734988    -2.9250068226    -0.3192644534
| 14>  H       -1.8734916231     0.3754835695    -0.9853398655
| 15>  H       -1.8228955502    -1.2260358975    -0.2312414282
| 16>  H       -2.0270794458     0.2238334537     0.7656733104
| 17>  H        0.2935998860     0.9638887391     0.2126844782
| 18>  H        0.3094612393    -0.6119819912     0.9543369049
| 19>  H        1.2744332523    -0.3745101057    -3.2123760430
| 20>  H       -0.3140061957     0.2205913771    -2.7879239259
| 21>  H        0.7208248927     2.2177107127    -1.6501112756
| 22>  H        2.3339373798     1.5717124100    -1.9689978577
| 23>  H        1.2982371556     2.0817581856    -3.3116118734
| 24>  H        2.9299309322    -1.1836102234    -1.5711405105
| 25>  H        1.9587437920    -2.2064197959     0.8147673883
| 26>  H        0.8218614674    -2.5339731325    -2.3246103483
| 27>  H        0.6356405802    -3.8215183881    -0.4249618145
| 28> *
| 29>
| 30>                          ****END OF INPUT****

CARTESIAN COORDINATES (ANGSTROEM)
---------------------------------
  C     -1.516619   -0.182795   -0.113345
  C      0.005554   -0.081359    0.049195
  C      0.790078   -0.623332   -1.136731
  C      0.724887    0.173656   -2.436017
  C      1.301415    1.591024   -2.333375
  C      2.110011   -1.345134   -0.875978
  O      2.567113   -1.564017    0.423155
  C      0.890912   -2.124033   -1.318466
  O      0.298773   -2.925007   -0.319264
  H     -1.873492    0.375484   -0.985340
  H     -1.822896   -1.226036   -0.231241
  H     -2.027079    0.223833    0.765673
  H      0.293600    0.963889    0.212684
  H      0.309461   -0.611982    0.954337
  H      1.274433   -0.374510   -3.212376
  H     -0.314006    0.220591   -2.787924
  H      0.720825    2.217711   -1.650111
  H      2.333937    1.571712   -1.968998
  H      1.298237    2.081758   -3.311612
  H      2.929931   -1.183610   -1.571141
  H      1.958744   -2.206420    0.814767
  H      0.821861   -2.533973   -2.324610
  H      0.635641   -3.821518   -0.424962

 Total Charge           Charge          ....    0
 Multiplicity           Mult            ....    1
 Number of Electrons    NEL             ....   72
 Basis Dimension        Dim             ....  363

ORBITAL ENERGIES
----------------

  NO   OCC          E(Eh)            E(eV)
   0   2.0000     -20.580148      -560.0143
   1   2.0000     -20.554394      -559.3135
   2   2.0000     -11.283298      -307.0341
   3   2.0000     -11.276262      -306.8427
   4   2.0000     -11.231926      -305.6363
   5   2.0000     -11.225989      -305.4747
   6   2.0000     -11.215583      -305.1915
   7   2.0000     -11.213110      -305.1242
   8   2.0000     -11.204956      -304.9023
   9   2.0000      -1.394640       -37.9501
  10   2.0000      -1.356290       -36.9065
  11   2.0000      -1.140120       -31.0242
  12   2.0000      -1.019179       -27.7333
  13   2.0000      -1.010801       -27.5053
  14   2.0000      -0.871779       -23.7223
  15   2.0000      -0.850114       -23.1328
  16   2.0000      -0.826742       -22.4968
  17   2.0000      -0.745260       -20.2795
  18   2.0000      -0.715794       -19.4777
  19   2.0000      -0.690109       -18.7788
  20   2.0000      -0.640738       -17.4354
  21   2.0000      -0.627850       -17.0847
  22   2.0000      -0.604406       -16.4467
  23   2.0000      -0.584457       -15.9039
  24   2.0000      -0.567825       -15.4513
  25   2.0000      -0.559474       -15.2240
  26   2.0000      -0.550275       -14.9737
  27   2.0000      -0.526329       -14.3221
  28   2.0000      -0.514746       -14.0070
  29   2.0000      -0.508172       -13.8281
  30   2.0000      -0.497882       -13.5481
  31   2.0000      -0.496748       -13.5172
  32   2.0000      -0.477312       -12.9883
  33   2.0000      -0.455777       -12.4023
  34   2.0000      -0.389192       -10.5905
  35   2.0000      -0.368460       -10.0263
  36   0.0000       0.125160         3.4058
  37   0.0000       0.142663         3.8821
  38   0.0000       0.158039         4.3005
  39   0.0000       0.164800         4.4844
  40   0.0000       0.189529         5.1573

MULLIKEN ATOMIC CHARGES
-----------------------
   0 C :   -0.422173
   1 C :   -0.148921
   2 C :    0.048326
   3 C :   -0.227017
   4 C :   -0.418497
   5 C :    0.045678
   6 O :   -0.469936
   7 C :   -0.054957
   8 O :   -0.480218
   9 H :    0.118523
  10 H :    0.144866
  11 H :    0.131060
  12 H :    0.121959
  13 H :    0.089931
  14 H :    0.105428
  15 H :    0.123985
  16 H :    0.130192
  17 H :    0.134701
  18 H :    0.134804
  19 H :    0.122311
  20 H :    0.329237
  21 H :    0.111364
  22 H :    0.329354
Sum of atomic charges:    0.0000000

LOEWDIN ATOMIC CHARGES
----------------------
   0 C :   -0.311491
   1 C :   -0.241162
   2 C :   -0.228061
   3 C :   -0.246102
   4 C :   -0.311073
   5 C :   -0.290698
   6 O :    0.001310
   7 C :   -0.287440
   8 O :   -0.007400
   9 H :    0.117454
  10 H :    0.125373
  11 H :    0.120346
  12 H :    0.141736
  13 H :    0.141810
  14 H :    0.141792
  15 H :    0.140032
  16 H :    0.120544
  17 H :    0.124346
  18 H :    0.121174
  19 H :    0.138002
  20 H :    0.176068
  21 H :    0.130684
  22 H :    0.182759

  Mayer bond orders larger than 0.1
B(  0-C ,  1-C ) :   0.9098 B(  0-C ,  9-H ) :   0.9369 B(  0-C , 10-H ) :   0.9381
B(  0-C , 11-H ) :   0.9419 B(  1-C ,  2-C ) :   0.9267 B(  1-C , 12-H ) :   0.9406
B(  1-C , 13-H ) :   0.9095 B(  2-C ,  3-C ) :   0.8825 B(  2-C ,  5-C ) :   0.8383
B(  2-C ,  7-C ) :   0.8432 B(  3-C ,  4-C ) :   0.9221 B(  3-C , 14-H ) :   0.9217
B(  3-C , 15-H ) :   0.9381 B(  4-C , 16-H ) :   0.9401 B(  4-C , 17-H ) :   0.9374
B(  4-C , 18-H ) :   0.9400 B(  5-C ,  6-O ) :   0.9715 B(  5-C ,  7-C ) :   0.8994
B(  5-C , 19-H ) :   0.9450 B(  6-O , 20-H ) :   0.8182 B(  7-C ,  8-O ) :   1.0344
B(  7-C , 21-H ) :   0.9413 B(  8-O , 22-H ) :   0.8360

MP2 TOTAL ENERGY:     -424.708058451 Eh
FINAL SINGLE POINT ENERGY      -424.708058450585

DIPOLE MOMENT
-------------
                                X             Y             Z
Electronic contribution:      4.15213      -7.27995       2.81020
Nuclear contribution   :     -4.35550       6.74531      -3.39698
                        -----------------------------------------
Total Dipole Moment    :     -0.20337      -0.53463      -0.58678
                        -----------------------------------------
Magnitude (a.u.)       :      0.81945
Magnitude (Debye)      :      2.08288

                             ****ORCA TERMINATED NORMALLY****
TOTAL RUN TIME: 0 days 0 hours 20 minutes 36 seconds 276 msec
