                         Program Version 3.0.3 - RELEASE   -
|  1> ! RI-MP2 RIJK def2-TZVP def2-TZVP/C def2-TZVP/JK TIGHTSCF
|  2> % maxcore 2000
|  3> % mp2 density relaxed end
|  4> *xyz 0 1
|  5>  N        0.0384093067    -1.2045941651    -0.0301835589
|  6>  C        0.0089969040    -0.0488320994     0.0071758554
|  7>  C        0.0155005233     1.4176259582     0.0410961162
|  8>  C       -0.2027329775     2.0107855623     1.4683073694
|  9>  C        1.3319102135     2.2125427907     1.5077228367
| 10>  N        1.3638200146     2.0348889027     0.0331562737
| 11>  H       -0.6450877129     1.7859549026    -0.7507659475
| 12>  H       -0.7597817905     2.9471489830     1.4271187757
| 13>  H       -0.6442107175     1.3479941443     2.2106690153
| 14>  H        1.7034084396     3.1842656773     1.8448047818
| 15>  H        1.8411895582     1.4206725786     2.0716277745
| 16>  H        2.1070203984     1.4497218447    -0.3328884024
| 17> *
| 18>
| 19>                          ****END OF INPUT****

CARTESIAN COORDINATES (ANGSTROEM)
---------------------------------
  N      0.038409   -1.204594   -0.030184
  C      0.008997   -0.048832    0.007176
  C      0.015501    1.417626    0.041096
  C     -0.202733    2.010786    1.468307
  C      1.331910    2.212543    1.507723
  N      1.363820    2.034889    0.033156
  H     -0.645088    1.785955   -0.750766
  H     -0.759782    2.947149    1.427119
  H     -0.644211    1.347994    2.210669
  H      1.703408    3.184266    1.844805
  H      1.841190    1.420673    2.071628
  H      2.107020    1.449722   -0.332888

 Total Charge           Charge          ....    0
 Multiplicity           Mult            ....    1
 Number of Electrons    NEL             ....   44
 Basis Dimension        Dim             ....  222

ORBITAL ENERGIES
----------------

  NO   OCC          E(Eh)            E(eV)
   0   2.0000     -15.575567      -423.8327
   1   2.0000     -15.572450      -423.7479
   2   2.0000     -11.314808      -307.8916
   3   2.0000     -11.275036      -306.8093
   4   2.0000     -11.274401      -306.7920
   5   2.0000     -11.257151      -306.3226
   6   2.0000      -1.269406       -34.5423
   7   2.0000      -1.216106       -33.0919
   8   2.0000      -1.008314       -27.4376
   9   2.0000      -0.975087       -26.5335
  10   2.0000      -0.822131       -22.3713
  11   2.0000      -0.742794       -20.2124
  12   2.0000      -0.699391       -19.0314
  13   2.0000      -0.626450       -17.0466
  14   2.0000      -0.586690       -15.9646
  15   2.0000      -0.561990       -15.2925
  16   2.0000      -0.552051       -15.0221
  17   2.0000      -0.522675       -14.2227
  18   2.0000      -0.506562       -13.7843
  19   2.0000      -0.466776       -12.7016
  20   2.0000      -0.453606       -12.3433
  21   2.0000      -0.406337       -11.0570
  22   0.0000       0.125970         3.4278
  23   0.0000       0.134497         3.6598
  24   0.0000       0.154872         4.2143
  25   0.0000       0.159290         4.3345
  26   0.0000       0.191691         5.2162

MULLIKEN ATOMIC CHARGES
-----------------------
   0 N :   -0.059057
   1 C :   -0.260362
   2 C :    0.169586
   3 C :   -0.239032
   4 C :   -0.149184
   5 N :   -0.349051
   6 H :    0.145658
   7 H :    0.131380
   8 H :    0.145594
   9 H :    0.119352
  10 H :    0.123603
  11 H :    0.221514
Sum of atomic charges:    0.0000000

LOEWDIN ATOMIC CHARGES
----------------------
   0 N :    0.061780
   1 C :   -0.179643
   2 C :   -0.263995
   3 C :   -0.200339
   4 C :   -0.265823
   5 N :    0.011072
   6 H :    0.158328
   7 H :    0.138846
   8 H :    0.135017
   9 H :    0.120336
  10 H :    0.122888
  11 H :    0.161533

  Mayer bond orders larger than 0.1
B(  0-N ,  1-C ) :   2.8499 B(  1-C ,  2-C ) :   0.9379 B(  2-C ,  3-C ) :   0.8767
B(  2-C ,  5-N ) :   0.9798 B(  2-C ,  6-H ) :   0.9034 B(  3-C ,  4-C ) :   0.9481
B(  3-C ,  7-H ) :   0.9232 B(  3-C ,  8-H ) :   0.9261 B(  4-C ,  5-N ) :   0.9549
B(  4-C ,  9-H ) :   0.9255 B(  4-C , 10-H ) :   0.9241 B(  5-N , 11-H ) :   0.8870

MP2 TOTAL ENERGY:     -264.934837765 Eh
FINAL SINGLE POINT ENERGY      -264.934837765348

DIPOLE MOMENT
-------------
                                X             Y             Z
Electronic contribution:     -0.77709      -4.04801      -2.67028
Nuclear contribution   :      0.83704       5.13699       3.12440
                        -----------------------------------------
Total Dipole Moment    :      0.05995       1.08898       0.45412
                        -----------------------------------------
Magnitude (a.u.)       :      1.18140
Magnitude (Debye)      :      3.00287

                             ****ORCA TERMINATED NORMALLY****
TOTAL RUN TIME: 0 days 0 hours 5 minutes 10 seconds 723 msec
