                         Program Version 3.0.3 - RELEASE   -
|  1> ! RI-MP2 RIJK def2-TZVP def2-TZVP/C def2-TZVP/JK TIGHTSCF
|  2> % maxcore 2000
|  3> % mp2 density relaxed end
|  4> *xyz 0 1
|  5>  O        0.7647750860     0.1664596340    -0.5731219689
|  6>  C        0.7540276800     1.3564344390    -0.6436973838
|  7>  O        0.8599394886     2.1430555796     0.4536665813
|  8>  C        0.9444212588     3.5518071682     0.2516732543
|  9>  C        2.3911552086     3.9981045755     0.1505059101
| 10>  O        2.8998816514     3.5198197792    -1.0816104411
| 11>  C        4.2892034778     3.7063910216    -1.2135008643
| 12>  C        4.7104960648     3.2504924043    -2.5406880935
| 13>  N        5.0709998085     2.9051141311    -3.5813077193
| 14>  H        0.6444594862     1.9348741699    -1.5785462562
| 15>  H        0.4005812339     3.8489392194    -0.6533954213
| 16>  H        0.4675223566     4.0199747077     1.1161578368
| 17>  H        2.4480141781     5.0976434067     0.1964229407
| 18>  H        2.9635451707     3.5873361753     0.9958849956
| 19>  H        4.5657167547     4.7674596521    -1.1047224208
| 20>  H        4.8460305155     3.1420650064    -0.4488617795
| 21> *
| 22>
| 23>                          ****END OF INPUT****

CARTESIAN COORDINATES (ANGSTROEM)
---------------------------------
  O      0.764775    0.166460   -0.573122
  C      0.754028    1.356434   -0.643697
  O      0.859939    2.143056    0.453667
  C      0.944421    3.551807    0.251673
  C      2.391155    3.998105    0.150506
  O      2.899882    3.519820   -1.081610
  C      4.289203    3.706391   -1.213501
  C      4.710496    3.250492   -2.540688
  N      5.071000    2.905114   -3.581308
  H      0.644459    1.934874   -1.578546
  H      0.400581    3.848939   -0.653395
  H      0.467522    4.019975    1.116158
  H      2.448014    5.097643    0.196423
  H      2.963545    3.587336    0.995885
  H      4.565717    4.767460   -1.104722
  H      4.846031    3.142065   -0.448862

 Total Charge           Charge          ....    0
 Multiplicity           Mult            ....    1
 Number of Electrons    NEL             ....   68
 Basis Dimension        Dim             ....  321

ORBITAL ENERGIES
----------------

  NO   OCC          E(Eh)            E(eV)
   0   2.0000     -20.616046      -560.9911
   1   2.0000     -20.612405      -560.8921
   2   2.0000     -20.552776      -559.2695
   3   2.0000     -15.588206      -424.1766
   4   2.0000     -11.385024      -309.8023
   5   2.0000     -11.357367      -309.0497
   6   2.0000     -11.323283      -308.1222
   7   2.0000     -11.321780      -308.0813
   8   2.0000     -11.287407      -307.1460
   9   2.0000      -1.469383       -39.9839
  10   2.0000      -1.435210       -39.0540
  11   2.0000      -1.377560       -37.4853
  12   2.0000      -1.233106       -33.5545
  13   2.0000      -1.082209       -29.4484
  14   2.0000      -1.006251       -27.3815
  15   2.0000      -0.899483       -24.4762
  16   2.0000      -0.850610       -23.1463
  17   2.0000      -0.754904       -20.5420
  18   2.0000      -0.745826       -20.2950
  19   2.0000      -0.726719       -19.7750
  20   2.0000      -0.714023       -19.4296
  21   2.0000      -0.676209       -18.4006
  22   2.0000      -0.664150       -18.0724
  23   2.0000      -0.617084       -16.7917
  24   2.0000      -0.608881       -16.5685
  25   2.0000      -0.585097       -15.9213
  26   2.0000      -0.562225       -15.2989
  27   2.0000      -0.547359       -14.8944
  28   2.0000      -0.540817       -14.7164
  29   2.0000      -0.495916       -13.4946
  30   2.0000      -0.485459       -13.2100
  31   2.0000      -0.468762       -12.7557
  32   2.0000      -0.464696       -12.6450
  33   2.0000      -0.460082       -12.5195
  34   0.0000       0.108297         2.9469
  35   0.0000       0.128820         3.5054
  36   0.0000       0.144531         3.9329
  37   0.0000       0.149773         4.0755
  38   0.0000       0.160148         4.3579

MULLIKEN ATOMIC CHARGES
-----------------------
   0 O :   -0.267034
   1 C :    0.203232
   2 O :   -0.221176
   3 C :   -0.086128
   4 C :   -0.073345
   5 O :   -0.282346
   6 C :    0.025185
   7 C :   -0.151145
   8 N :   -0.049201
   9 H :    0.090601
  10 H :    0.136908
  11 H :    0.147505
  12 H :    0.116111
  13 H :    0.121224
  14 H :    0.140839
  15 H :    0.148771
Sum of atomic charges:    0.0000000

LOEWDIN ATOMIC CHARGES
----------------------
   0 O :    0.126486
   1 C :   -0.445952
   2 O :    0.237732
   3 C :   -0.301912
   4 C :   -0.322444
   5 O :    0.175348
   6 C :   -0.307213
   7 C :   -0.178119
   8 N :    0.079663
   9 H :    0.106450
  10 H :    0.133805
  11 H :    0.140047
  12 H :    0.129161
  13 H :    0.131311
  14 H :    0.147224
  15 H :    0.148413

  Mayer bond orders larger than 0.1
B(  0-O ,  1-C ) :   2.0233 B(  1-C ,  2-O ) :   1.0434 B(  1-C ,  9-H ) :   0.9164
B(  2-O ,  3-C ) :   0.8734 B(  3-C ,  4-C ) :   0.9527 B(  3-C , 10-H ) :   0.9416
B(  3-C , 11-H ) :   0.9258 B(  4-C ,  5-O ) :   0.9117 B(  4-C , 12-H ) :   0.9132
B(  4-C , 13-H ) :   0.9191 B(  5-O ,  6-C ) :   0.9608 B(  6-C ,  7-C ) :   0.9417
B(  6-C , 14-H ) :   0.9037 B(  6-C , 15-H ) :   0.9081 B(  7-C ,  8-N ) :   2.8399

MP2 TOTAL ENERGY:     -474.279971062 Eh
FINAL SINGLE POINT ENERGY      -474.279971062246

DIPOLE MOMENT
-------------
                                X             Y             Z
Electronic contribution:      0.71798      -4.69860      -3.38404
Nuclear contribution   :     -0.83056       6.87478       4.66834
                        -----------------------------------------
Total Dipole Moment    :     -0.11258       2.17618       1.28430
                        -----------------------------------------
Magnitude (a.u.)       :      2.52940
Magnitude (Debye)      :      6.42922

                             ****ORCA TERMINATED NORMALLY****
TOTAL RUN TIME: 0 days 0 hours 12 minutes 49 seconds 422 msec
