                         Program Version 3.0.3 - RELEASE   -
|  1> ! RI-MP2 RIJK def2-TZVP def2-TZVP/C def2-TZVP/JK TIGHTSCF
|  2> % maxcore 2000
|  3> % mp2 density relaxed end
|  4> *xyz 0 1
|  5>  C       -0.0501686402     1.5928075440     0.0276421438
|  6>  C        0.0251671321     0.0597927842     0.0082214875
|  7>  C       -1.4010087426    -0.5196785664    -0.0439587938
|  8>  O       -1.9980545742    -0.1377662954    -1.2751585485
|  9>  C        0.8469112439    -0.4884216252    -1.1472789985
| 10>  C        1.6357627844    -1.4964927804    -0.7771012594
| 11>  C        1.4902645429    -1.8083580274     0.6942189077
| 12>  C        0.7756380891    -0.5478189528     1.2453916393
| 13>  O        1.7056547723     0.3550184329     1.8242397356
| 14>  H        0.9413471837     2.0482169901    -0.0259428088
| 15>  H       -0.6390130262     1.9429052832    -0.8237492126
| 16>  H       -0.5265955642     1.9488955376     0.9466147377
| 17>  H       -1.3582367774    -1.6164107116     0.0465029989
| 18>  H       -1.9788027865    -0.1344212864     0.8123089169
| 19>  H       -2.8925873567    -0.4889307809    -1.2988457503
| 20>  H        0.7458474227    -0.1007054533    -2.1540211367
| 21>  H        2.2831247263    -2.0620201914    -1.4386581183
| 22>  H        0.8946678245    -2.7185388211     0.8493019793
| 23>  H        2.4390527033    -1.9647754671     1.2192227638
| 24>  H        0.0799553852    -0.7833138515     2.0568818994
| 25>  H        2.3742761075     0.5468016290     1.1565649969
| 26> *
| 27>
| 28>                          ****END OF INPUT****

CARTESIAN COORDINATES (ANGSTROEM)
---------------------------------
  C     -0.050169    1.592808    0.027642
  C      0.025167    0.059793    0.008221
  C     -1.401009   -0.519679   -0.043959
  O     -1.998055   -0.137766   -1.275159
  C      0.846911   -0.488422   -1.147279
  C      1.635763   -1.496493   -0.777101
  C      1.490265   -1.808358    0.694219
  C      0.775638   -0.547819    1.245392
  O      1.705655    0.355018    1.824240
  H      0.941347    2.048217   -0.025943
  H     -0.639013    1.942905   -0.823749
  H     -0.526596    1.948896    0.946615
  H     -1.358237   -1.616411    0.046503
  H     -1.978803   -0.134421    0.812309
  H     -2.892587   -0.488931   -1.298846
  H      0.745847   -0.100705   -2.154021
  H      2.283125   -2.062020   -1.438658
  H      0.894668   -2.718539    0.849302
  H      2.439053   -1.964775    1.219223
  H      0.079955   -0.783314    2.056882
  H      2.374276    0.546802    1.156565

 Total Charge           Charge          ....    0
 Multiplicity           Mult            ....    1
 Number of Electrons    NEL             ....   70
 Basis Dimension        Dim             ....  351

ORBITAL ENERGIES
----------------

  NO   OCC          E(Eh)            E(eV)
   0   2.0000     -20.558751      -559.4321
   1   2.0000     -20.550467      -559.2066
   2   2.0000     -11.279472      -306.9300
   3   2.0000     -11.278660      -306.9079
   4   2.0000     -11.236163      -305.7515
   5   2.0000     -11.226266      -305.4822
   6   2.0000     -11.225585      -305.4637
   7   2.0000     -11.222021      -305.3667
   8   2.0000     -11.205602      -304.9199
   9   2.0000      -1.364220       -37.1223
  10   2.0000      -1.358993       -36.9801
  11   2.0000      -1.135958       -30.9110
  12   2.0000      -1.027284       -27.9538
  13   2.0000      -0.958179       -26.0734
  14   2.0000      -0.918738       -25.0001
  15   2.0000      -0.867336       -23.6014
  16   2.0000      -0.779648       -21.2153
  17   2.0000      -0.731175       -19.8963
  18   2.0000      -0.702801       -19.1242
  19   2.0000      -0.670317       -18.2402
  20   2.0000      -0.641072       -17.4445
  21   2.0000      -0.633426       -17.2364
  22   2.0000      -0.618399       -16.8275
  23   2.0000      -0.597054       -16.2467
  24   2.0000      -0.565758       -15.3950
  25   2.0000      -0.546927       -14.8826
  26   2.0000      -0.538750       -14.6601
  27   2.0000      -0.520531       -14.1644
  28   2.0000      -0.507270       -13.8035
  29   2.0000      -0.492693       -13.4068
  30   2.0000      -0.471963       -12.8428
  31   2.0000      -0.462599       -12.5880
  32   2.0000      -0.443172       -12.0593
  33   2.0000      -0.420546       -11.4436
  34   2.0000      -0.350734        -9.5440
  35   0.0000       0.127339         3.4651
  36   0.0000       0.149119         4.0577
  37   0.0000       0.154815         4.2127
  38   0.0000       0.165148         4.4939
  39   0.0000       0.172883         4.7044

MULLIKEN ATOMIC CHARGES
-----------------------
   0 C :   -0.390572
   1 C :    0.176834
   2 C :   -0.123258
   3 O :   -0.474320
   4 C :   -0.233471
   5 C :   -0.175545
   6 C :   -0.223665
   7 C :    0.045416
   8 O :   -0.460054
   9 H :    0.111553
  10 H :    0.153679
  11 H :    0.127710
  12 H :    0.106332
  13 H :    0.106510
  14 H :    0.315680
  15 H :    0.130224
  16 H :    0.127434
  17 H :    0.117006
  18 H :    0.138412
  19 H :    0.106127
  20 H :    0.317971
Sum of atomic charges:    0.0000000

LOEWDIN ATOMIC CHARGES
----------------------
   0 C :   -0.267426
   1 C :   -0.275159
   2 C :   -0.302142
   3 O :   -0.038804
   4 C :   -0.118865
   5 C :   -0.163371
   6 C :   -0.233809
   7 C :   -0.273083
   8 O :   -0.008444
   9 H :    0.121444
  10 H :    0.131317
  11 H :    0.128598
  12 H :    0.122783
  13 H :    0.120329
  14 H :    0.173239
  15 H :    0.143854
  16 H :    0.135572
  17 H :    0.141938
  18 H :    0.140701
  19 H :    0.142776
  20 H :    0.178550

  Mayer bond orders larger than 0.1
B(  0-C ,  1-C ) :   0.9241 B(  0-C ,  9-H ) :   0.9283 B(  0-C , 10-H ) :   0.9339
B(  0-C , 11-H ) :   0.9316 B(  1-C ,  2-C ) :   0.8793 B(  1-C ,  4-C ) :   0.8969
B(  1-C ,  7-C ) :   0.8750 B(  2-C ,  3-O ) :   1.0303 B(  2-C , 12-H ) :   0.9191
B(  2-C , 13-H ) :   0.9306 B(  3-O , 14-H ) :   0.8469 B(  4-C ,  5-C ) :   1.7646
B(  4-C , 15-H ) :   0.9269 B(  5-C ,  6-C ) :   0.9333 B(  5-C , 16-H ) :   0.9334
B(  6-C ,  7-C ) :   0.9538 B(  6-C , 17-H ) :   0.9026 B(  6-C , 18-H ) :   0.9291
B(  7-C ,  8-O ) :   0.9395 B(  7-C , 19-H ) :   0.9266 B(  8-O , 20-H ) :   0.8398

MP2 TOTAL ENERGY:     -423.532693085 Eh
FINAL SINGLE POINT ENERGY      -423.532693085249

DIPOLE MOMENT
-------------
                                X             Y             Z
Electronic contribution:      0.73041      -0.78572      -0.55792
Nuclear contribution   :     -1.09970       0.21770       0.37037
                        -----------------------------------------
Total Dipole Moment    :     -0.36929      -0.56802      -0.18754
                        -----------------------------------------
Magnitude (a.u.)       :      0.70299
Magnitude (Debye)      :      1.78686

                             ****ORCA TERMINATED NORMALLY****
TOTAL RUN TIME: 0 days 0 hours 18 minutes 39 seconds 732 msec
