                         Program Version 3.0.3 - RELEASE   -
|  1> ! RI-MP2 RIJK def2-TZVP def2-TZVP/C def2-TZVP/JK TIGHTSCF
|  2> % maxcore 2000
|  3> % mp2 density relaxed end
|  4> *xyz 0 1
|  5>  C       -0.1203779954     1.4363644745     0.1724224758
|  6>  C        0.1003233167    -0.0482350169    -0.0785558039
|  7>  O        1.1126441766    -0.5040732595    -0.5426260317
|  8>  N       -1.0094601592    -0.8220325963     0.2861750867
|  9>  C       -1.1249297749    -2.2139365518     0.2592326502
| 10>  O       -0.2397900013    -2.9881942773     0.0098514600
| 11>  N       -2.4420837885    -2.5827887485     0.6400469750
| 12>  C       -3.4745531832    -2.6732352383    -0.4064387481
| 13>  C       -2.9060741924    -3.8952929542     0.2283301924
| 14>  H        0.7627066831     1.9797225483    -0.1608749958
| 15>  H       -0.9984093941     1.8015371742    -0.3711438789
| 16>  H       -0.2840755716     1.6289244173     1.2381870073
| 17>  H       -1.8158365194    -0.3384241547     0.6515551997
| 18>  H       -4.4575725992    -2.3067502934    -0.1257672739
| 19>  H       -3.1719024304    -2.4540345001    -1.4272732018
| 20>  H       -2.2084033122    -4.4912417792    -0.3519378086
| 21>  H       -3.4814223345    -4.4337013741     0.9747462655
| 22> *
| 23>
| 24>                          ****END OF INPUT****

CARTESIAN COORDINATES (ANGSTROEM)
---------------------------------
  C     -0.120378    1.436364    0.172422
  C      0.100323   -0.048235   -0.078556
  O      1.112644   -0.504073   -0.542626
  N     -1.009460   -0.822033    0.286175
  C     -1.124930   -2.213937    0.259233
  O     -0.239790   -2.988194    0.009851
  N     -2.442084   -2.582789    0.640047
  C     -3.474553   -2.673235   -0.406439
  C     -2.906074   -3.895293    0.228330
  H      0.762707    1.979723   -0.160875
  H     -0.998409    1.801537   -0.371144
  H     -0.284076    1.628924    1.238187
  H     -1.815837   -0.338424    0.651555
  H     -4.457573   -2.306750   -0.125767
  H     -3.171902   -2.454035   -1.427273
  H     -2.208403   -4.491242   -0.351938
  H     -3.481422   -4.433701    0.974746

 Total Charge           Charge          ....    0
 Multiplicity           Mult            ....    1
 Number of Electrons    NEL             ....   68
 Basis Dimension        Dim             ....  327

ORBITAL ENERGIES
----------------

  NO   OCC          E(Eh)            E(eV)
   0   2.0000     -20.537527      -558.8545
   1   2.0000     -20.536844      -558.8359
   2   2.0000     -15.612009      -424.8244
   3   2.0000     -15.593777      -424.3283
   4   2.0000     -11.391850      -309.9880
   5   2.0000     -11.368798      -309.3607
   6   2.0000     -11.290067      -307.2184
   7   2.0000     -11.277258      -306.8698
   8   2.0000     -11.250162      -306.1325
   9   2.0000      -1.423283       -38.7295
  10   2.0000      -1.393352       -37.9150
  11   2.0000      -1.298780       -35.3416
  12   2.0000      -1.245349       -33.8877
  13   2.0000      -1.031499       -28.0685
  14   2.0000      -0.976091       -26.5608
  15   2.0000      -0.873252       -23.7624
  16   2.0000      -0.833346       -22.6765
  17   2.0000      -0.777727       -21.1630
  18   2.0000      -0.744018       -20.2458
  19   2.0000      -0.694803       -18.9065
  20   2.0000      -0.674540       -18.3552
  21   2.0000      -0.653827       -17.7915
  22   2.0000      -0.637089       -17.3361
  23   2.0000      -0.609577       -16.5874
  24   2.0000      -0.586041       -15.9470
  25   2.0000      -0.577837       -15.7238
  26   2.0000      -0.555500       -15.1159
  27   2.0000      -0.528891       -14.3918
  28   2.0000      -0.523357       -14.2413
  29   2.0000      -0.503517       -13.7014
  30   2.0000      -0.467061       -12.7094
  31   2.0000      -0.430197       -11.7063
  32   2.0000      -0.426074       -11.5941
  33   2.0000      -0.412950       -11.2369
  34   0.0000       0.114586         3.1180
  35   0.0000       0.137715         3.7474
  36   0.0000       0.154575         4.2062
  37   0.0000       0.167143         4.5482
  38   0.0000       0.174931         4.7601

MULLIKEN ATOMIC CHARGES
-----------------------
   0 C :   -0.446076
   1 C :    0.289674
   2 O :   -0.278994
   3 N :   -0.319733
   4 C :    0.351746
   5 O :   -0.282683
   6 N :   -0.265744
   7 C :   -0.181655
   8 C :   -0.168865
   9 H :    0.162712
  10 H :    0.146142
  11 H :    0.152645
  12 H :    0.254764
  13 H :    0.138408
  14 H :    0.146498
  15 H :    0.159569
  16 H :    0.141593
Sum of atomic charges:    0.0000000

LOEWDIN ATOMIC CHARGES
----------------------
   0 C :   -0.280024
   1 C :   -0.438712
   2 O :    0.148642
   3 N :    0.138668
   4 C :   -0.490485
   5 O :    0.147754
   6 N :    0.123691
   7 C :   -0.239870
   8 C :   -0.239884
   9 H :    0.138884
  10 H :    0.133064
  11 H :    0.135429
  12 H :    0.201152
  13 H :    0.125945
  14 H :    0.130791
  15 H :    0.135471
  16 H :    0.129484

  Mayer bond orders larger than 0.1
B(  0-C ,  1-C ) :   0.9117 B(  0-C ,  9-H ) :   0.9392 B(  0-C , 10-H ) :   0.9179
B(  0-C , 11-H ) :   0.9172 B(  1-C ,  2-O ) :   2.0204 B(  1-C ,  3-N ) :   0.9961
B(  3-N ,  4-C ) :   1.0042 B(  3-N , 12-H ) :   0.8622 B(  4-C ,  5-O ) :   2.0193
B(  4-C ,  6-N ) :   0.9892 B(  6-N ,  7-C ) :   0.8327 B(  6-N ,  8-C ) :   0.8891
B(  7-C ,  8-C ) :   0.9486 B(  7-C , 13-H ) :   0.9260 B(  7-C , 14-H ) :   0.9168
B(  8-C , 15-H ) :   0.9215 B(  8-C , 16-H ) :   0.9246

MP2 TOTAL ENERGY:     -454.437190278 Eh
FINAL SINGLE POINT ENERGY      -454.437190277630

DIPOLE MOMENT
-------------
                                X             Y             Z
Electronic contribution:      4.47618      -2.80407       0.19963
Nuclear contribution   :     -6.41570       3.68920      -0.01293
                        -----------------------------------------
Total Dipole Moment    :     -1.93952       0.88514       0.18669
                        -----------------------------------------
Magnitude (a.u.)       :      2.14011
Magnitude (Debye)      :      5.43972

                             ****ORCA TERMINATED NORMALLY****
TOTAL RUN TIME: 0 days 0 hours 15 minutes 29 seconds 198 msec
