                         Program Version 3.0.3 - RELEASE   -
|  1> ! RI-MP2 RIJK def2-TZVP def2-TZVP/C def2-TZVP/JK TIGHTSCF
|  2> % maxcore 2000
|  3> % mp2 density relaxed end
|  4> *xyz 0 1
|  5>  O        0.4197186303     1.0602824243     1.4906786516
|  6>  C        0.2458537403     1.5900973717     0.4158443916
|  7>  N        1.1868025927     1.7051234632    -0.5632611981
|  8>  C        2.4955832655     1.1271490376    -0.4577721625
|  9>  C        3.6931406764     1.7720112212    -1.0903085230
| 10>  C        3.6079000348     3.3028798128    -1.0122849814
| 11>  C        3.4666308295     3.2058116715     0.5405159276
| 12>  C        3.5610143389     1.6808912839     0.4418373647
| 13>  H       -0.7162686563     2.0537746448     0.1139317016
| 14>  H        0.8988367002     2.0878157703    -1.4506087142
| 15>  H        2.5052407340     0.0398583559    -0.5023355186
| 16>  H        4.3317778502     1.2149612628    -1.7659681841
| 17>  H        4.5411002282     3.7834221205    -1.3123201826
| 18>  H        2.7860546629     3.7775966586    -1.5583393052
| 19>  H        4.3201704910     3.6467933336     1.0585491755
| 20>  H        2.5461775934     3.5967231322     0.9823140442
| 21>  H        4.0730112480     1.0332459552     1.1423884728
| 22> *
| 23>
| 24>                          ****END OF INPUT****

CARTESIAN COORDINATES (ANGSTROEM)
---------------------------------
  O      0.419719    1.060282    1.490679
  C      0.245854    1.590097    0.415844
  N      1.186803    1.705123   -0.563261
  C      2.495583    1.127149   -0.457772
  C      3.693141    1.772011   -1.090309
  C      3.607900    3.302880   -1.012285
  C      3.466631    3.205812    0.540516
  C      3.561014    1.680891    0.441837
  H     -0.716269    2.053775    0.113932
  H      0.898837    2.087816   -1.450609
  H      2.505241    0.039858   -0.502336
  H      4.331778    1.214961   -1.765968
  H      4.541100    3.783422   -1.312320
  H      2.786055    3.777597   -1.558339
  H      4.320170    3.646793    1.058549
  H      2.546178    3.596723    0.982314
  H      4.073011    1.033246    1.142388

 Total Charge           Charge          ....    0
 Multiplicity           Mult            ....    1
 Number of Electrons    NEL             ....   60
 Basis Dimension        Dim             ....  302

ORBITAL ENERGIES
----------------

  NO   OCC          E(Eh)            E(eV)
   0   2.0000     -20.521421      -558.4163
   1   2.0000     -15.588387      -424.1816
   2   2.0000     -11.346454      -308.7527
   3   2.0000     -11.272478      -306.7397
   4   2.0000     -11.241339      -305.8924
   5   2.0000     -11.236689      -305.7659
   6   2.0000     -11.233067      -305.6673
   7   2.0000     -11.227472      -305.5151
   8   2.0000      -1.381700       -37.5980
   9   2.0000      -1.250897       -34.0386
  10   2.0000      -1.170992       -31.8643
  11   2.0000      -0.992520       -27.0079
  12   2.0000      -0.899813       -24.4852
  13   2.0000      -0.864620       -23.5275
  14   2.0000      -0.776501       -21.1297
  15   2.0000      -0.740197       -20.1418
  16   2.0000      -0.720775       -19.6133
  17   2.0000      -0.704793       -19.1784
  18   2.0000      -0.648506       -17.6467
  19   2.0000      -0.627281       -17.0692
  20   2.0000      -0.601876       -16.3779
  21   2.0000      -0.577952       -15.7269
  22   2.0000      -0.537547       -14.6274
  23   2.0000      -0.524716       -14.2783
  24   2.0000      -0.485119       -13.2007
  25   2.0000      -0.470594       -12.8055
  26   2.0000      -0.434535       -11.8243
  27   2.0000      -0.430082       -11.7031
  28   2.0000      -0.405183       -11.0256
  29   2.0000      -0.374405       -10.1881
  30   0.0000       0.126936         3.4541
  31   0.0000       0.148311         4.0358
  32   0.0000       0.163271         4.4428
  33   0.0000       0.170019         4.6264
  34   0.0000       0.181366         4.9352

MULLIKEN ATOMIC CHARGES
-----------------------
   0 O :   -0.350838
   1 C :    0.187135
   2 N :   -0.340287
   3 C :   -0.020408
   4 C :   -0.128188
   5 C :   -0.242078
   6 C :   -0.213064
   7 C :   -0.091236
   8 H :    0.075410
   9 H :    0.242491
  10 H :    0.133746
  11 H :    0.134036
  12 H :    0.125121
  13 H :    0.102087
  14 H :    0.126047
  15 H :    0.121649
  16 H :    0.138376
Sum of atomic charges:    0.0000000

LOEWDIN ATOMIC CHARGES
----------------------
   0 O :    0.068704
   1 C :   -0.433842
   2 N :    0.106994
   3 C :   -0.232298
   4 C :   -0.168378
   5 C :   -0.220538
   6 C :   -0.211751
   7 C :   -0.155668
   8 H :    0.107490
   9 H :    0.187549
  10 H :    0.156023
  11 H :    0.134585
  12 H :    0.135680
  13 H :    0.121112
  14 H :    0.135647
  15 H :    0.130763
  16 H :    0.137927

  Mayer bond orders larger than 0.1
B(  0-O ,  1-C ) :   1.9140 B(  1-C ,  2-N ) :   1.1361 B(  1-C ,  8-H ) :   0.9298
B(  2-N ,  3-C ) :   0.8376 B(  2-N ,  9-H ) :   0.8687 B(  3-C ,  4-C ) :   0.9078
B(  3-C ,  7-C ) :   0.9012 B(  3-C , 10-H ) :   0.9420 B(  4-C ,  5-C ) :   0.9306
B(  4-C ,  7-C ) :   0.7993 B(  4-C , 11-H ) :   0.9246 B(  5-C ,  6-C ) :   0.9582
B(  5-C , 12-H ) :   0.9261 B(  5-C , 13-H ) :   0.9274 B(  6-C ,  7-C ) :   0.9341
B(  6-C , 14-H ) :   0.9280 B(  6-C , 15-H ) :   0.9256 B(  7-C , 16-H ) :   0.9228

MP2 TOTAL ENERGY:     -363.231101506 Eh
FINAL SINGLE POINT ENERGY      -363.231101506160

DIPOLE MOMENT
-------------
                                X             Y             Z
Electronic contribution:     -3.95571      -3.11645       1.68368
Nuclear contribution   :      4.40380       3.60900      -2.96955
                        -----------------------------------------
Total Dipole Moment    :      0.44809       0.49254      -1.28586
                        -----------------------------------------
Magnitude (a.u.)       :      1.44804
Magnitude (Debye)      :      3.68064

                             ****ORCA TERMINATED NORMALLY****
TOTAL RUN TIME: 0 days 0 hours 12 minutes 36 seconds 876 msec
