                         Program Version 3.0.3 - RELEASE   -
|  1> ! RI-MP2 RIJK def2-TZVP def2-TZVP/C def2-TZVP/JK TIGHTSCF
|  2> % maxcore 2000
|  3> % mp2 density relaxed end
|  4> *xyz 0 1
|  5>  C        0.0052937226     1.5534123060    -0.0136846737
|  6>  C        1.5584765504     1.7506467810    -0.0385497728
|  7>  C        1.9610386302     0.2746827119    -0.0059262722
|  8>  C        1.0225476496    -0.3965987235    -1.0437869375
|  9>  O        1.2347895014    -1.7849435501    -1.1781857244
| 10>  C        0.9113208121    -2.5125090077     0.0013290561
| 11>  C        1.2545956920    -1.7061417929     1.2656719277
| 12>  N        1.0423354105    -0.2599579094     1.0850410922
| 13>  C       -0.0250617080     0.0220105998     0.0335885329
| 14>  H       -0.4577780497     1.9881699386     0.8741486685
| 15>  H       -0.4953026815     1.9527455860    -0.8999695831
| 16>  H        1.9131627872     2.2603299065    -0.9385973214
| 17>  H        1.9252704651     2.2891690159     0.8373089995
| 18>  H        3.0174314507     0.0099349292     0.0618119321
| 19>  H        0.9570402275     0.0116351671    -2.0582988939
| 20>  H       -0.1616434806    -2.7556925635    -0.0039477454
| 21>  H        1.4619789999    -3.4567466356    -0.0444156452
| 22>  H        0.6368391627    -2.0563681204     2.1014972086
| 23>  H        2.3015204221    -1.8504184172     1.5557816660
| 24>  H       -0.9940664943    -0.4663460219     0.1430638859
| 25> *
| 26>
| 27>                          ****END OF INPUT****

CARTESIAN COORDINATES (ANGSTROEM)
---------------------------------
  C      0.005294    1.553412   -0.013685
  C      1.558477    1.750647   -0.038550
  C      1.961039    0.274683   -0.005926
  C      1.022548   -0.396599   -1.043787
  O      1.234790   -1.784944   -1.178186
  C      0.911321   -2.512509    0.001329
  C      1.254596   -1.706142    1.265672
  N      1.042335   -0.259958    1.085041
  C     -0.025062    0.022011    0.033589
  H     -0.457778    1.988170    0.874149
  H     -0.495303    1.952746   -0.899970
  H      1.913163    2.260330   -0.938597
  H      1.925270    2.289169    0.837309
  H      3.017431    0.009935    0.061812
  H      0.957040    0.011635   -2.058299
  H     -0.161643   -2.755693   -0.003948
  H      1.461979   -3.456747   -0.044416
  H      0.636839   -2.056368    2.101497
  H      2.301520   -1.850418    1.555782
  H     -0.994066   -0.466346    0.143064

 Total Charge           Charge          ....    0
 Multiplicity           Mult            ....    1
 Number of Electrons    NEL             ....   68
 Basis Dimension        Dim             ....  345

ORBITAL ENERGIES
----------------

  NO   OCC          E(Eh)            E(eV)
   0   2.0000     -20.553959      -559.3017
   1   2.0000     -15.549760      -423.1305
   2   2.0000     -11.280433      -306.9562
   3   2.0000     -11.272758      -306.7473
   4   2.0000     -11.259393      -306.3837
   5   2.0000     -11.253911      -306.2345
   6   2.0000     -11.248517      -306.0877
   7   2.0000     -11.224332      -305.4296
   8   2.0000     -11.222541      -305.3809
   9   2.0000      -1.383349       -37.6429
  10   2.0000      -1.254490       -34.1364
  11   2.0000      -1.081031       -29.4164
  12   2.0000      -0.988019       -26.8854
  13   2.0000      -0.952002       -25.9053
  14   2.0000      -0.893094       -24.3023
  15   2.0000      -0.861698       -23.4480
  16   2.0000      -0.780735       -21.2449
  17   2.0000      -0.715721       -19.4758
  18   2.0000      -0.682420       -18.5696
  19   2.0000      -0.680104       -18.5066
  20   2.0000      -0.646643       -17.5960
  21   2.0000      -0.628584       -17.1046
  22   2.0000      -0.604753       -16.4562
  23   2.0000      -0.568080       -15.4583
  24   2.0000      -0.549734       -14.9590
  25   2.0000      -0.524393       -14.2695
  26   2.0000      -0.507093       -13.7987
  27   2.0000      -0.503966       -13.7136
  28   2.0000      -0.494301       -13.4506
  29   2.0000      -0.482028       -13.1166
  30   2.0000      -0.465384       -12.6637
  31   2.0000      -0.443402       -12.0656
  32   2.0000      -0.392311       -10.6753
  33   2.0000      -0.350368        -9.5340
  34   0.0000       0.140666         3.8277
  35   0.0000       0.153738         4.1834
  36   0.0000       0.160292         4.3618
  37   0.0000       0.177729         4.8363
  38   0.0000       0.185266         5.0414

MULLIKEN ATOMIC CHARGES
-----------------------
   0 C :   -0.226796
   1 C :   -0.227998
   2 C :   -0.048625
   3 C :    0.068875
   4 O :   -0.313348
   5 C :   -0.075704
   6 C :   -0.183508
   7 N :   -0.219028
   8 C :   -0.064253
   9 H :    0.114379
  10 H :    0.117311
  11 H :    0.117087
  12 H :    0.112551
  13 H :    0.125473
  14 H :    0.108648
  15 H :    0.095921
  16 H :    0.124865
  17 H :    0.128422
  18 H :    0.116752
  19 H :    0.128976
Sum of atomic charges:    0.0000000

LOEWDIN ATOMIC CHARGES
----------------------
   0 C :   -0.224065
   1 C :   -0.225331
   2 C :   -0.215365
   3 C :   -0.261410
   4 O :    0.172977
   5 C :   -0.315707
   6 C :   -0.296294
   7 N :    0.121141
   8 C :   -0.213081
   9 H :    0.136178
  10 H :    0.133691
  11 H :    0.133774
  12 H :    0.135922
  13 H :    0.133555
  14 H :    0.134334
  15 H :    0.119229
  16 H :    0.128364
  17 H :    0.134389
  18 H :    0.132987
  19 H :    0.134711

  Mayer bond orders larger than 0.1
B(  0-C ,  1-C ) :   0.9946 B(  0-C ,  8-C ) :   0.9255 B(  0-C ,  9-H ) :   0.9101
B(  0-C , 10-H ) :   0.9299 B(  1-C ,  2-C ) :   0.9184 B(  1-C , 11-H ) :   0.9297
B(  1-C , 12-H ) :   0.9079 B(  2-C ,  3-C ) :   0.8800 B(  2-C ,  7-N ) :   0.8886
B(  2-C , 13-H ) :   0.9148 B(  3-C ,  4-O ) :   0.9502 B(  3-C ,  8-C ) :   0.8734
B(  3-C , 14-H ) :   0.9433 B(  4-O ,  5-C ) :   0.9333 B(  5-C ,  6-C ) :   0.9390
B(  5-C , 15-H ) :   0.9361 B(  5-C , 16-H ) :   0.9200 B(  6-C ,  7-N ) :   0.9397
B(  6-C , 17-H ) :   0.9299 B(  6-C , 18-H ) :   0.9307 B(  7-N ,  8-C ) :   0.8625
B(  8-C , 19-H ) :   0.9121

MP2 TOTAL ENERGY:     -402.431550556 Eh
FINAL SINGLE POINT ENERGY      -402.431550556095

DIPOLE MOMENT
-------------
                                X             Y             Z
Electronic contribution:      0.65690      -1.83848      -1.44652
Nuclear contribution   :     -0.81184       1.86593       1.48523
                        -----------------------------------------
Total Dipole Moment    :     -0.15494       0.02746       0.03871
                        -----------------------------------------
Magnitude (a.u.)       :      0.16204
Magnitude (Debye)      :      0.41188

                             ****ORCA TERMINATED NORMALLY****
TOTAL RUN TIME: 0 days 0 hours 20 minutes 9 seconds 426 msec
