                         Program Version 3.0.3 - RELEASE   -
|  1> ! RI-MP2 RIJK def2-TZVP def2-TZVP/C def2-TZVP/JK TIGHTSCF
|  2> % maxcore 2000
|  3> % mp2 density relaxed end
|  4> *xyz 0 1
|  5>  O        0.3385086449     1.1955796536    -0.6105424603
|  6>  C        0.1032536338    -0.0858073994    -0.0686786976
|  7>  C        0.5482745491    -0.2613652619     1.3746295934
|  8>  C       -0.3780909176    -0.8184947072     2.1558244681
|  9>  C       -1.6499917896    -1.0740834825     1.4024285179
| 10>  O       -2.6554295021     0.0001786639     1.6495295745
| 11>  C       -2.3512886553     0.5908217520     0.4566737262
| 12>  O       -2.7248594432     1.6456158777     0.0444803259
| 13>  C       -1.3880050735    -0.5073814876    -0.0035562537
| 14>  H       -0.3356444695     1.8028113684    -0.2804022618
| 15>  H        0.6599989556    -0.7725626806    -0.7175617254
| 16>  H        1.5358156963     0.0570443720     1.6897300847
| 17>  H       -0.2766073525    -1.0348319371     3.2126118733
| 18>  H       -2.1192718777    -2.0494458370     1.5274510447
| 19>  H       -1.7443838887    -1.0697779444    -0.8651716400
| 20> *
| 21>
| 22>                          ****END OF INPUT****

CARTESIAN COORDINATES (ANGSTROEM)
---------------------------------
  O      0.338509    1.195580   -0.610542
  C      0.103254   -0.085807   -0.068679
  C      0.548275   -0.261365    1.374630
  C     -0.378091   -0.818495    2.155824
  C     -1.649992   -1.074083    1.402429
  O     -2.655430    0.000179    1.649530
  C     -2.351289    0.590822    0.456674
  O     -2.724859    1.645616    0.044480
  C     -1.388005   -0.507381   -0.003556
  H     -0.335644    1.802811   -0.280402
  H      0.659999   -0.772563   -0.717562
  H      1.535816    0.057044    1.689730
  H     -0.276607   -1.034832    3.212612
  H     -2.119272   -2.049446    1.527451
  H     -1.744384   -1.069778   -0.865172

 Total Charge           Charge          ....    0
 Multiplicity           Mult            ....    1
 Number of Electrons    NEL             ....   66
 Basis Dimension        Dim             ....  315

ORBITAL ENERGIES
----------------

  NO   OCC          E(Eh)            E(eV)
   0   2.0000     -20.609645      -560.8170
   1   2.0000     -20.571913      -559.7902
   2   2.0000     -20.564489      -559.5882
   3   2.0000     -11.395176      -310.0785
   4   2.0000     -11.327722      -308.2430
   5   2.0000     -11.317886      -307.9753
   6   2.0000     -11.274250      -306.7879
   7   2.0000     -11.261769      -306.4483
   8   2.0000     -11.259177      -306.3778
   9   2.0000      -1.473347       -40.0918
  10   2.0000      -1.388886       -37.7935
  11   2.0000      -1.381662       -37.5969
  12   2.0000      -1.155598       -31.4454
  13   2.0000      -1.028070       -27.9752
  14   2.0000      -0.971493       -26.4357
  15   2.0000      -0.881770       -23.9942
  16   2.0000      -0.782292       -21.2872
  17   2.0000      -0.754402       -20.5283
  18   2.0000      -0.748544       -20.3689
  19   2.0000      -0.711744       -19.3675
  20   2.0000      -0.694465       -18.8973
  21   2.0000      -0.646279       -17.5862
  22   2.0000      -0.633354       -17.2344
  23   2.0000      -0.624058       -16.9815
  24   2.0000      -0.603373       -16.4186
  25   2.0000      -0.564862       -15.3707
  26   2.0000      -0.554893       -15.0994
  27   2.0000      -0.543520       -14.7899
  28   2.0000      -0.502895       -13.6845
  29   2.0000      -0.473184       -12.8760
  30   2.0000      -0.459209       -12.4957
  31   2.0000      -0.449707       -12.2372
  32   2.0000      -0.398194       -10.8354
  33   0.0000       0.108992         2.9658
  34   0.0000       0.128688         3.5018
  35   0.0000       0.155433         4.2295
  36   0.0000       0.167685         4.5629
  37   0.0000       0.170149         4.6300

MULLIKEN ATOMIC CHARGES
-----------------------
   0 O :   -0.448835
   1 C :    0.091166
   2 C :   -0.194870
   3 C :   -0.182130
   4 C :    0.123464
   5 O :   -0.234182
   6 C :    0.225120
   7 O :   -0.272343
   8 C :   -0.127794
   9 H :    0.329017
  10 H :    0.112328
  11 H :    0.143181
  12 H :    0.149984
  13 H :    0.133819
  14 H :    0.152075
Sum of atomic charges:    0.0000000

LOEWDIN ATOMIC CHARGES
----------------------
   0 O :    0.001365
   1 C :   -0.301155
   2 C :   -0.110177
   3 C :   -0.130166
   4 C :   -0.190418
   5 O :    0.252281
   6 C :   -0.451712
   7 O :    0.149398
   8 C :   -0.145468
   9 H :    0.181304
  10 H :    0.151783
  11 H :    0.145291
  12 H :    0.144447
  13 H :    0.142206
  14 H :    0.161019

  Mayer bond orders larger than 0.1
B(  0-O ,  1-C ) :   0.9992 B(  0-O ,  9-H ) :   0.8210 B(  1-C ,  2-C ) :   0.9345
B(  1-C ,  8-C ) :   0.9199 B(  1-C , 10-H ) :   0.9267 B(  2-C ,  3-C ) :   1.7316
B(  2-C , 11-H ) :   0.9244 B(  3-C ,  4-C ) :   0.9231 B(  3-C , 12-H ) :   0.9125
B(  4-C ,  5-O ) :   0.8466 B(  4-C ,  8-C ) :   0.9231 B(  4-C , 13-H ) :   0.9171
B(  5-O ,  6-C ) :   1.1193 B(  6-C ,  7-O ) :   1.9995 B(  6-C ,  8-C ) :   0.9180
B(  8-C , 14-H ) :   0.8972

MP2 TOTAL ENERGY:     -457.054561540 Eh
FINAL SINGLE POINT ENERGY      -457.054561540462

DIPOLE MOMENT
-------------
                                X             Y             Z
Electronic contribution:     -3.69716       2.16704      -0.05807
Nuclear contribution   :      4.28288      -3.57602       0.44024
                        -----------------------------------------
Total Dipole Moment    :      0.58572      -1.40897       0.38218
                        -----------------------------------------
Magnitude (a.u.)       :      1.57300
Magnitude (Debye)      :      3.99824

                             ****ORCA TERMINATED NORMALLY****
TOTAL RUN TIME: 0 days 0 hours 14 minutes 48 seconds 219 msec
