                         Program Version 3.0.3 - RELEASE   -
|  1> ! RI-MP2 RIJK def2-TZVP def2-TZVP/C def2-TZVP/JK TIGHTSCF
|  2> % maxcore 2000
|  3> % mp2 density relaxed end
|  4> *xyz 0 1
|  5>  C        0.0007162277     1.6120244146    -0.0376790098
|  6>  C        0.0916331765     0.0906244077    -0.0227245471
|  7>  C        0.8417462224    -0.6918968435    -1.1129740347
|  8>  C        2.3178450892    -0.8151020391    -0.7054544833
|  9>  C        1.2709996283    -1.7717453706    -0.1602928548
| 10>  C        1.0351257234    -0.6318213448     0.9626889567
| 11>  O        0.6832970096    -0.7835859177     2.2805553004
| 12>  C        2.4700824284    -0.1314503192     0.6433889418
| 13>  O        3.4082308786    -0.7446016886     1.5199416271
| 14>  H        0.9670859525     2.0831789557    -0.2392579829
| 15>  H       -0.6959623382     1.9502938665    -0.8120898752
| 16>  H       -0.3657007885     1.9857745584     0.9243818864
| 17>  H       -0.9089970860    -0.3447486947     0.0830193153
| 18>  H        0.5542263968    -0.8147313491    -2.1492996216
| 19>  H        3.0922852047    -1.0115069113    -1.4364751522
| 20>  H        1.1604049967    -2.8454930243    -0.2022796878
| 21>  H        1.5141415718    -0.9134332501     2.7625473029
| 22>  H        2.6729486511     0.9417611425     0.7019136984
| 23>  H        3.4521962849    -1.6788631425     1.2795811305
| 24> *
| 25>
| 26>                          ****END OF INPUT****

CARTESIAN COORDINATES (ANGSTROEM)
---------------------------------
  C      0.000716    1.612024   -0.037679
  C      0.091633    0.090624   -0.022725
  C      0.841746   -0.691897   -1.112974
  C      2.317845   -0.815102   -0.705454
  C      1.271000   -1.771745   -0.160293
  C      1.035126   -0.631821    0.962689
  O      0.683297   -0.783586    2.280555
  C      2.470082   -0.131450    0.643389
  O      3.408231   -0.744602    1.519942
  H      0.967086    2.083179   -0.239258
  H     -0.695962    1.950294   -0.812090
  H     -0.365701    1.985775    0.924382
  H     -0.908997   -0.344749    0.083019
  H      0.554226   -0.814731   -2.149300
  H      3.092285   -1.011507   -1.436475
  H      1.160405   -2.845493   -0.202280
  H      1.514142   -0.913433    2.762547
  H      2.672949    0.941761    0.701914
  H      3.452196   -1.678863    1.279581

 Total Charge           Charge          ....    0
 Multiplicity           Mult            ....    1
 Number of Electrons    NEL             ....   68
 Basis Dimension        Dim             ....  339

ORBITAL ENERGIES
----------------

  NO   OCC          E(Eh)            E(eV)
   0   2.0000     -20.567989      -559.6834
   1   2.0000     -20.564215      -559.5807
   2   2.0000     -11.294728      -307.3452
   3   2.0000     -11.285368      -307.0905
   4   2.0000     -11.243719      -305.9572
   5   2.0000     -11.243078      -305.9397
   6   2.0000     -11.238175      -305.8063
   7   2.0000     -11.235280      -305.7275
   8   2.0000     -11.213372      -305.1314
   9   2.0000      -1.393058       -37.9070
  10   2.0000      -1.362438       -37.0738
  11   2.0000      -1.227331       -33.3974
  12   2.0000      -1.023692       -27.8561
  13   2.0000      -0.954592       -25.9758
  14   2.0000      -0.910936       -24.7878
  15   2.0000      -0.839841       -22.8532
  16   2.0000      -0.777301       -21.1514
  17   2.0000      -0.739431       -20.1209
  18   2.0000      -0.732187       -19.9238
  19   2.0000      -0.670278       -18.2392
  20   2.0000      -0.645523       -17.5656
  21   2.0000      -0.639344       -17.3974
  22   2.0000      -0.598885       -16.2965
  23   2.0000      -0.577776       -15.7221
  24   2.0000      -0.570838       -15.5333
  25   2.0000      -0.546040       -14.8585
  26   2.0000      -0.542044       -14.7498
  27   2.0000      -0.530117       -14.4252
  28   2.0000      -0.503073       -13.6893
  29   2.0000      -0.486174       -13.2295
  30   2.0000      -0.435162       -11.8414
  31   2.0000      -0.407242       -11.0816
  32   2.0000      -0.391646       -10.6572
  33   2.0000      -0.382127       -10.3982
  34   0.0000       0.141146         3.8408
  35   0.0000       0.146821         3.9952
  36   0.0000       0.160477         4.3668
  37   0.0000       0.169843         4.6217
  38   0.0000       0.192337         5.2338

MULLIKEN ATOMIC CHARGES
-----------------------
   0 C :   -0.438864
   1 C :    0.022038
   2 C :   -0.171905
   3 C :   -0.188910
   4 C :   -0.297806
   5 C :    0.242794
   6 O :   -0.451062
   7 C :    0.055630
   8 O :   -0.482019
   9 H :    0.127778
  10 H :    0.133627
  11 H :    0.144674
  12 H :    0.099895
  13 H :    0.137393
  14 H :    0.137128
  15 H :    0.154299
  16 H :    0.332680
  17 H :    0.118631
  18 H :    0.323999
Sum of atomic charges:   -0.0000000

LOEWDIN ATOMIC CHARGES
----------------------
   0 C :   -0.292128
   1 C :   -0.197617
   2 C :   -0.138886
   3 C :   -0.159537
   4 C :   -0.121418
   5 C :   -0.300398
   6 O :    0.042350
   7 C :   -0.273177
   8 O :   -0.018539
   9 H :    0.122792
  10 H :    0.125647
  11 H :    0.130424
  12 H :    0.161870
  13 H :    0.140894
  14 H :    0.139756
  15 H :    0.133008
  16 H :    0.189527
  17 H :    0.134625
  18 H :    0.180808

  Mayer bond orders larger than 0.1
B(  0-C ,  1-C ) :   0.8961 B(  0-C ,  9-H ) :   0.9366 B(  0-C , 10-H ) :   0.9388
B(  0-C , 11-H ) :   0.9345 B(  1-C ,  2-C ) :   0.9212 B(  1-C ,  5-C ) :   0.9343
B(  1-C , 12-H ) :   0.9031 B(  2-C ,  3-C ) :   0.7979 B(  2-C ,  4-C ) :   0.8553
B(  2-C , 13-H ) :   0.9216 B(  3-C ,  4-C ) :   0.8283 B(  3-C ,  7-C ) :   0.9284
B(  3-C , 14-H ) :   0.9355 B(  4-C ,  5-C ) :   0.7853 B(  4-C , 15-H ) :   0.9099
B(  5-C ,  6-O ) :   1.0882 B(  5-C ,  7-C ) :   0.9128 B(  6-O , 16-H ) :   0.8106
B(  7-C ,  8-O ) :   0.9182 B(  7-C , 17-H ) :   0.9370 B(  8-O , 18-H ) :   0.8305

MP2 TOTAL ENERGY:     -422.278884827 Eh
FINAL SINGLE POINT ENERGY      -422.278884827326

DIPOLE MOMENT
-------------
                                X             Y             Z
Electronic contribution:      2.27820      -3.67081       2.65399
Nuclear contribution   :     -2.14171       3.33852      -3.30477
                        -----------------------------------------
Total Dipole Moment    :      0.13649      -0.33229      -0.65078
                        -----------------------------------------
Magnitude (a.u.)       :      0.74334
Magnitude (Debye)      :      1.88942

                             ****ORCA TERMINATED NORMALLY****
TOTAL RUN TIME: 0 days 0 hours 17 minutes 32 seconds 943 msec
