                         Program Version 3.0.3 - RELEASE   -
|  1> ! RI-MP2 RIJK def2-TZVP def2-TZVP/C def2-TZVP/JK TIGHTSCF
|  2> % maxcore 2000
|  3> % mp2 density relaxed end
|  4> *xyz 0 1
|  5>  O        0.0927059203     1.3631795541     0.0659286200
|  6>  C        0.0646568914    -0.0131435776     0.0462366921
|  7>  C        0.7473061263    -0.9342943233     1.0349006821
|  8>  N        0.0856227691    -1.9430767485     0.0931333830
|  9>  C       -1.1517175342    -1.0185882476    -0.0413165161
| 10>  C       -1.0641745325    -1.0875241519    -1.5533185463
| 11>  C       -1.8097521262    -1.7813735920    -2.6070919804
| 12>  N       -1.7197347622    -0.2900830020    -2.5786025211
| 13>  C        0.3874260934    -1.0164627253    -1.1178756311
| 14>  H       -0.2760839408     1.6885837398    -0.7642002052
| 15>  H        1.8403093530    -0.9818564777     1.0253136192
| 16>  H        0.3612471908    -0.9763724533     2.0576667634
| 17>  H       -2.0015570367    -1.1242663793     0.6350537321
| 18>  H       -1.2850791777    -2.2483778245    -3.4355177811
| 19>  H       -2.7589053908    -2.2442977448    -2.3507136584
| 20>  H       -2.5941747775     0.0914376825    -2.2229946988
| 21>  H        1.3122245343    -1.1253863585    -1.6846779734
| 22> *
| 23>
| 24>                          ****END OF INPUT****

CARTESIAN COORDINATES (ANGSTROEM)
---------------------------------
  O      0.092706    1.363180    0.065929
  C      0.064657   -0.013144    0.046237
  C      0.747306   -0.934294    1.034901
  N      0.085623   -1.943077    0.093133
  C     -1.151718   -1.018588   -0.041317
  C     -1.064175   -1.087524   -1.553319
  C     -1.809752   -1.781374   -2.607092
  N     -1.719735   -0.290083   -2.578603
  C      0.387426   -1.016463   -1.117876
  H     -0.276084    1.688584   -0.764200
  H      1.840309   -0.981856    1.025314
  H      0.361247   -0.976372    2.057667
  H     -2.001557   -1.124266    0.635054
  H     -1.285079   -2.248378   -3.435518
  H     -2.758905   -2.244298   -2.350714
  H     -2.594175    0.091438   -2.222995
  H      1.312225   -1.125386   -1.684678

 Total Charge           Charge          ....    0
 Multiplicity           Mult            ....    1
 Number of Electrons    NEL             ....   66
 Basis Dimension        Dim             ....  327

ORBITAL ENERGIES
----------------

  NO   OCC          E(Eh)            E(eV)
   0   2.0000     -20.576955      -559.9274
   1   2.0000     -15.577452      -423.8840
   2   2.0000     -15.568259      -423.6339
   3   2.0000     -11.313108      -307.8453
   4   2.0000     -11.280828      -306.9669
   5   2.0000     -11.278709      -306.9093
   6   2.0000     -11.276189      -306.8407
   7   2.0000     -11.264101      -306.5118
   8   2.0000     -11.258801      -306.3676
   9   2.0000      -1.395247       -37.9666
  10   2.0000      -1.323538       -36.0153
  11   2.0000      -1.260242       -34.2929
  12   2.0000      -1.013150       -27.5692
  13   2.0000      -0.923178       -25.1209
  14   2.0000      -0.899922       -24.4881
  15   2.0000      -0.892915       -24.2975
  16   2.0000      -0.804089       -21.8804
  17   2.0000      -0.739647       -20.1268
  18   2.0000      -0.716120       -19.4866
  19   2.0000      -0.697069       -18.9682
  20   2.0000      -0.658930       -17.9304
  21   2.0000      -0.629872       -17.1397
  22   2.0000      -0.610693       -16.6178
  23   2.0000      -0.573096       -15.5947
  24   2.0000      -0.551501       -15.0071
  25   2.0000      -0.529627       -14.4119
  26   2.0000      -0.493306       -13.4235
  27   2.0000      -0.466412       -12.6917
  28   2.0000      -0.461638       -12.5618
  29   2.0000      -0.441993       -12.0273
  30   2.0000      -0.415306       -11.3011
  31   2.0000      -0.404758       -11.0140
  32   2.0000      -0.385120       -10.4797
  33   0.0000       0.126060         3.4303
  34   0.0000       0.150083         4.0840
  35   0.0000       0.153789         4.1848
  36   0.0000       0.178823         4.8660
  37   0.0000       0.189475         5.1559

MULLIKEN ATOMIC CHARGES
-----------------------
   0 O :   -0.439390
   1 C :    0.166547
   2 C :   -0.130555
   3 N :   -0.191989
   4 C :   -0.061559
   5 C :   -0.007335
   6 C :   -0.215054
   7 N :   -0.417476
   8 C :   -0.042225
   9 H :    0.332855
  10 H :    0.116655
  11 H :    0.117479
  12 H :    0.140333
  13 H :    0.129917
  14 H :    0.135787
  15 H :    0.226765
  16 H :    0.139247
Sum of atomic charges:   -0.0000000

LOEWDIN ATOMIC CHARGES
----------------------
   0 O :    0.031139
   1 C :   -0.328483
   2 C :   -0.208855
   3 N :    0.145290
   4 C :   -0.131913
   5 C :   -0.281612
   6 C :   -0.225175
   7 N :   -0.006852
   8 C :   -0.118756
   9 H :    0.188142
  10 H :    0.126065
  11 H :    0.125665
  12 H :    0.129260
  13 H :    0.130397
  14 H :    0.126507
  15 H :    0.167815
  16 H :    0.131365

  Mayer bond orders larger than 0.1
B(  0-O ,  1-C ) :   1.0894 B(  0-O ,  9-H ) :   0.8254 B(  1-C ,  2-C ) :   0.9801
B(  1-C ,  4-C ) :   0.8676 B(  1-C ,  8-C ) :   0.9074 B(  2-C ,  3-N ) :   0.9146
B(  2-C , 10-H ) :   0.9211 B(  2-C , 11-H ) :   0.9233 B(  3-N ,  4-C ) :   0.9732
B(  3-N ,  8-C ) :   0.9700 B(  4-C ,  5-C ) :   0.8683 B(  4-C , 12-H ) :   0.8713
B(  5-C ,  6-C ) :   0.9623 B(  5-C ,  7-N ) :   0.9229 B(  5-C ,  8-C ) :   0.8385
B(  6-C ,  7-N ) :   0.9678 B(  6-C , 13-H ) :   0.9127 B(  6-C , 14-H ) :   0.9233
B(  7-N , 15-H ) :   0.8646 B(  8-C , 16-H ) :   0.8820

MP2 TOTAL ENERGY:     -417.169934927 Eh
FINAL SINGLE POINT ENERGY      -417.169934927449

DIPOLE MOMENT
-------------
                                X             Y             Z
Electronic contribution:      0.83092       1.30630       0.68447
Nuclear contribution   :     -1.38737      -1.22346      -0.78752
                        -----------------------------------------
Total Dipole Moment    :     -0.55645       0.08284      -0.10305
                        -----------------------------------------
Magnitude (a.u.)       :      0.57195
Magnitude (Debye)      :      1.45377

                             ****ORCA TERMINATED NORMALLY****
TOTAL RUN TIME: 0 days 0 hours 16 minutes 35 seconds 864 msec
