                         Program Version 3.0.3 - RELEASE   -
|  1> ! RI-MP2 RIJK def2-TZVP def2-TZVP/C def2-TZVP/JK TIGHTSCF
|  2> % maxcore 2000
|  3> % mp2 density relaxed end
|  4> *xyz 0 1
|  5>  C       -0.0144993848     1.4515439912    -0.0859115339
|  6>  N       -0.0064034386     0.0131132914     0.0583526772
|  7>  N       -0.0413351591    -0.7780736833    -1.0623027317
|  8>  N       -0.0275590129    -2.0412358894    -0.7054964918
|  9>  C        0.0164868281    -2.0425147841     0.6340484110
| 10>  C        0.0313452379    -0.7707191301     1.1615752718
| 11>  C        0.0783549986    -0.9185242379     2.5844260496
| 12>  C        0.0871809214    -2.2722440650     2.7717687199
| 13>  O        0.0500654628    -2.9903105122     1.6003359539
| 14>  H        0.8896476699     1.8893752270     0.3474136440
| 15>  H       -0.0472947576     1.6673084257    -1.1539557431
| 16>  H       -0.8930393465     1.8849842590     0.4012148139
| 17>  H        0.1023767443    -0.1725356959     3.3615920529
| 18>  H        0.1177652065    -2.8699979265     3.6682836163
| 19> *
| 20>
| 21>                          ****END OF INPUT****

CARTESIAN COORDINATES (ANGSTROEM)
---------------------------------
  C     -0.014499    1.451544   -0.085912
  N     -0.006403    0.013113    0.058353
  N     -0.041335   -0.778074   -1.062303
  N     -0.027559   -2.041236   -0.705496
  C      0.016487   -2.042515    0.634048
  C      0.031345   -0.770719    1.161575
  C      0.078355   -0.918524    2.584426
  C      0.087181   -2.272244    2.771769
  O      0.050065   -2.990311    1.600336
  H      0.889648    1.889375    0.347414
  H     -0.047295    1.667308   -1.153956
  H     -0.893039    1.884984    0.401215
  H      0.102377   -0.172536    3.361592
  H      0.117765   -2.869998    3.668284

 Total Charge           Charge          ....    0
 Multiplicity           Mult            ....    1
 Number of Electrons    NEL             ....   64
 Basis Dimension        Dim             ....  309

ORBITAL ENERGIES
----------------

  NO   OCC          E(Eh)            E(eV)
   0   2.0000     -20.638454      -561.6009
   1   2.0000     -15.663047      -426.2132
   2   2.0000     -15.642516      -425.6545
   3   2.0000     -15.603828      -424.6017
   4   2.0000     -11.320755      -308.0534
   5   2.0000     -11.305056      -307.6262
   6   2.0000     -11.288751      -307.1825
   7   2.0000     -11.279888      -306.9414
   8   2.0000     -11.264054      -306.5105
   9   2.0000      -1.480627       -40.2899
  10   2.0000      -1.424775       -38.7701
  11   2.0000      -1.228055       -33.4171
  12   2.0000      -1.114792       -30.3350
  13   2.0000      -1.043370       -28.3915
  14   2.0000      -0.993213       -27.0267
  15   2.0000      -0.884072       -24.0568
  16   2.0000      -0.815205       -22.1828
  17   2.0000      -0.813207       -22.1285
  18   2.0000      -0.718162       -19.5422
  19   2.0000      -0.691273       -18.8105
  20   2.0000      -0.690374       -18.7860
  21   2.0000      -0.641279       -17.4501
  22   2.0000      -0.640408       -17.4264
  23   2.0000      -0.600652       -16.3446
  24   2.0000      -0.586059       -15.9475
  25   2.0000      -0.567755       -15.4494
  26   2.0000      -0.566847       -15.4247
  27   2.0000      -0.508099       -13.8261
  28   2.0000      -0.448555       -12.2058
  29   2.0000      -0.446616       -12.1530
  30   2.0000      -0.374789       -10.1985
  31   2.0000      -0.318891        -8.6775
  32   0.0000       0.099733         2.7139
  33   0.0000       0.128167         3.4876
  34   0.0000       0.164558         4.4779
  35   0.0000       0.176969         4.8156
  36   0.0000       0.182982         4.9792

MULLIKEN ATOMIC CHARGES
-----------------------
   0 C :   -0.323780
   1 N :    0.107016
   2 N :   -0.146311
   3 N :   -0.149478
   4 C :    0.146987
   5 C :   -0.001168
   6 C :   -0.242379
   7 C :    0.026216
   8 O :   -0.217713
   9 H :    0.153998
  10 H :    0.180757
  11 H :    0.154032
  12 H :    0.154069
  13 H :    0.157754
Sum of atomic charges:    0.0000000

LOEWDIN ATOMIC CHARGES
----------------------
   0 C :   -0.272725
   1 N :    0.182169
   2 N :   -0.018218
   3 N :    0.028324
   4 C :   -0.347711
   5 C :   -0.227124
   6 C :   -0.160695
   7 C :   -0.205890
   8 O :    0.349135
   9 H :    0.125885
  10 H :    0.137499
  11 H :    0.125877
  12 H :    0.146736
  13 H :    0.136739

  Mayer bond orders larger than 0.1
B(  0-C ,  1-N ) :   0.8493 B(  0-C ,  9-H ) :   0.9276 B(  0-C , 10-H ) :   0.9225
B(  0-C , 11-H ) :   0.9276 B(  1-N ,  2-N ) :   0.9817 B(  1-N ,  5-C ) :   1.1724
B(  2-N ,  3-N ) :   1.2226 B(  3-N ,  4-C ) :   1.4538 B(  4-C ,  5-C ) :   1.2888
B(  4-C ,  8-O ) :   1.0489 B(  5-C ,  6-C ) :   1.1188 B(  6-C ,  7-C ) :   1.5853
B(  6-C , 12-H ) :   0.9060 B(  7-C ,  8-O ) :   1.0223 B(  7-C , 13-H ) :   0.9322

MP2 TOTAL ENERGY:     -432.134136927 Eh
FINAL SINGLE POINT ENERGY      -432.134136926703

DIPOLE MOMENT
-------------
                                X             Y             Z
Electronic contribution:     -0.02414      -6.09140      -1.13548
Nuclear contribution   :      0.07087       7.53832       2.65426
                        -----------------------------------------
Total Dipole Moment    :      0.04673       1.44692       1.51878
                        -----------------------------------------
Magnitude (a.u.)       :      2.09820
Magnitude (Debye)      :      5.33320

                             ****ORCA TERMINATED NORMALLY****
TOTAL RUN TIME: 0 days 0 hours 16 minutes 47 seconds 915 msec
