                         Program Version 3.0.3 - RELEASE   -
|  1> ! RI-MP2 RIJK def2-TZVP def2-TZVP/C def2-TZVP/JK TIGHTSCF
|  2> % maxcore 2000
|  3> % mp2 density relaxed end
|  4> *xyz 0 1
|  5>  C       -0.2022373839     1.4480154239     0.0454331513
|  6>  C        0.1773851872    -0.0083678463     0.0452256077
|  7>  C        0.3523172487    -0.7437890917    -1.2887654112
|  8>  C        1.2858062191    -1.8856929732    -0.9489635927
|  9>  C        1.6696549520    -1.8556978939     0.3282144564
| 10>  C        1.0221089483    -0.7096047149     1.0401689815
| 11>  C        1.5993733150    -0.1485005143     2.3097868289
| 12>  O        1.5025623449    -1.0899246647     3.3683492709
| 13>  O       -0.4359341551    -0.8310814649     1.0506515393
| 14>  H        0.5290789018     2.0415189491    -0.5129769748
| 15>  H       -1.1786302010     1.5840671160    -0.4330684257
| 16>  H       -0.2712342308     1.8396733066     1.0622017733
| 17>  H       -0.6126349971    -1.0960227765    -1.6736580252
| 18>  H        0.7764192625    -0.0807721746    -2.0543071231
| 19>  H        1.5648366350    -2.6420435484    -1.6738102711
| 20>  H        2.3271357181    -2.5572519112     0.8254718656
| 21>  H        2.6675492143     0.0564755408     2.1810037945
| 22>  H        1.1008671771     0.7963939812     2.5665879302
| 23>  H        0.5707824637    -1.3283409028     3.4374162943
| 24> *
| 25>
| 26>                          ****END OF INPUT****

CARTESIAN COORDINATES (ANGSTROEM)
---------------------------------
  C     -0.202237    1.448015    0.045433
  C      0.177385   -0.008368    0.045226
  C      0.352317   -0.743789   -1.288765
  C      1.285806   -1.885693   -0.948964
  C      1.669655   -1.855698    0.328214
  C      1.022109   -0.709605    1.040169
  C      1.599373   -0.148501    2.309787
  O      1.502562   -1.089925    3.368349
  O     -0.435934   -0.831081    1.050652
  H      0.529079    2.041519   -0.512977
  H     -1.178630    1.584067   -0.433068
  H     -0.271234    1.839673    1.062202
  H     -0.612635   -1.096023   -1.673658
  H      0.776419   -0.080772   -2.054307
  H      1.564837   -2.642044   -1.673810
  H      2.327136   -2.557252    0.825472
  H      2.667549    0.056476    2.181004
  H      1.100867    0.796394    2.566588
  H      0.570782   -1.328341    3.437416

 Total Charge           Charge          ....    0
 Multiplicity           Mult            ....    1
 Number of Electrons    NEL             ....   68
 Basis Dimension        Dim             ....  339

ORBITAL ENERGIES
----------------

  NO   OCC          E(Eh)            E(eV)
   0   2.0000     -20.561903      -559.5178
   1   2.0000     -20.557428      -559.3961
   2   2.0000     -11.295918      -307.3775
   3   2.0000     -11.288708      -307.1814
   4   2.0000     -11.283576      -307.0417
   5   2.0000     -11.239120      -305.8320
   6   2.0000     -11.238442      -305.8135
   7   2.0000     -11.231726      -305.6308
   8   2.0000     -11.229635      -305.5739
   9   2.0000      -1.408992       -38.3406
  10   2.0000      -1.359967       -37.0066
  11   2.0000      -1.112207       -30.2647
  12   2.0000      -1.025307       -27.9000
  13   2.0000      -0.994811       -27.0702
  14   2.0000      -0.927082       -25.2272
  15   2.0000      -0.863739       -23.5035
  16   2.0000      -0.770745       -20.9730
  17   2.0000      -0.753165       -20.4946
  18   2.0000      -0.697965       -18.9926
  19   2.0000      -0.666647       -18.1404
  20   2.0000      -0.628306       -17.0971
  21   2.0000      -0.620406       -16.8821
  22   2.0000      -0.613268       -16.6879
  23   2.0000      -0.596653       -16.2358
  24   2.0000      -0.565067       -15.3762
  25   2.0000      -0.557400       -15.1676
  26   2.0000      -0.543728       -14.7956
  27   2.0000      -0.521198       -14.1825
  28   2.0000      -0.517248       -14.0750
  29   2.0000      -0.498506       -13.5650
  30   2.0000      -0.468543       -12.7497
  31   2.0000      -0.435704       -11.8561
  32   2.0000      -0.415125       -11.2961
  33   2.0000      -0.354934        -9.6582
  34   0.0000       0.134298         3.6544
  35   0.0000       0.134771         3.6673
  36   0.0000       0.161915         4.4059
  37   0.0000       0.165424         4.5014
  38   0.0000       0.188485         5.1289

MULLIKEN ATOMIC CHARGES
-----------------------
   0 C :   -0.413063
   1 C :    0.097727
   2 C :   -0.132319
   3 C :   -0.164858
   4 C :   -0.255175
   5 C :    0.184754
   6 C :    0.020034
   7 O :   -0.472718
   8 O :   -0.353822
   9 H :    0.137188
  10 H :    0.142837
  11 H :    0.139006
  12 H :    0.127401
  13 H :    0.117556
  14 H :    0.133657
  15 H :    0.146116
  16 H :    0.114265
  17 H :    0.105003
  18 H :    0.326411
Sum of atomic charges:   -0.0000000

LOEWDIN ATOMIC CHARGES
----------------------
   0 C :   -0.266848
   1 C :   -0.285115
   2 C :   -0.193758
   3 C :   -0.132981
   4 C :   -0.116273
   5 C :   -0.266864
   6 C :   -0.301974
   7 O :   -0.041441
   8 O :    0.183534
   9 H :    0.132629
  10 H :    0.133789
  11 H :    0.130077
  12 H :    0.151354
  13 H :    0.147062
  14 H :    0.137537
  15 H :    0.145514
  16 H :    0.137792
  17 H :    0.124690
  18 H :    0.181278

  Mayer bond orders larger than 0.1
B(  0-C ,  1-C ) :   0.8704 B(  0-C ,  9-H ) :   0.9280 B(  0-C , 10-H ) :   0.9382
B(  0-C , 11-H ) :   0.9413 B(  1-C ,  2-C ) :   0.9622 B(  1-C ,  5-C ) :   0.8976
B(  1-C ,  8-O ) :   0.9206 B(  2-C ,  3-C ) :   0.9468 B(  2-C , 12-H ) :   0.8907
B(  2-C , 13-H ) :   0.9061 B(  3-C ,  4-C ) :   1.8020 B(  3-C , 14-H ) :   0.9279
B(  4-C ,  5-C ) :   0.9126 B(  4-C , 15-H ) :   0.9250 B(  5-C ,  6-C ) :   0.9552
B(  5-C ,  8-O ) :   0.7874 B(  6-C ,  7-O ) :   0.8999 B(  6-C , 16-H ) :   0.9228
B(  6-C , 17-H ) :   0.9145 B(  7-O , 18-H ) :   0.8373

MP2 TOTAL ENERGY:     -422.313444083 Eh
FINAL SINGLE POINT ENERGY      -422.313444083182

DIPOLE MOMENT
-------------
                                X             Y             Z
Electronic contribution:      0.11745      -4.02701       2.55550
Nuclear contribution   :     -0.09782       4.56586      -3.36639
                        -----------------------------------------
Total Dipole Moment    :      0.01962       0.53885      -0.81089
                        -----------------------------------------
Magnitude (a.u.)       :      0.97380
Magnitude (Debye)      :      2.47519

                             ****ORCA TERMINATED NORMALLY****
TOTAL RUN TIME: 0 days 0 hours 17 minutes 56 seconds 853 msec
