                         Program Version 3.0.3 - RELEASE   -
|  1> ! RI-MP2 RIJK def2-TZVP def2-TZVP/C def2-TZVP/JK TIGHTSCF
|  2> % maxcore 2000
|  3> % mp2 density relaxed end
|  4> *xyz 0 1
|  5>  C       -0.0775336060     1.5441334446    -0.1733746248
|  6>  N        0.1043050533     0.1309543235     0.1008646409
|  7>  C        0.5692315551    -0.2169067064     1.4302251841
|  8>  C        0.1088917365    -0.7465857300    -0.9627590651
|  9>  O        0.0821396460    -0.3826527596    -2.1296720676
| 10>  N        0.1508415718    -2.0969121726    -0.6263013906
| 11>  C       -0.7596969357    -2.7890429002     0.3215072529
| 12>  C       -0.8049990870    -3.9962061491    -0.6480880328
| 13>  C       -0.0631408239    -3.1083359699    -1.6809161246
| 14>  H        0.8650397848     2.0990560747    -0.0641126201
| 15>  H       -0.4306346584     1.6560696095    -1.1970906892
| 16>  H       -0.8090467395     1.9753545529     0.5208357691
| 17>  H       -0.2481431998    -0.2783378383     2.1620159830
| 18>  H        1.0956856942    -1.1710420019     1.4061422282
| 19>  H        1.2741498724     0.5465602172     1.7822525162
| 20>  H       -0.3334615740    -2.9755221252     1.3118027353
| 21>  H       -1.7202425408    -2.2740399952     0.4450981667
| 22>  H       -0.2226968274    -4.8511757013    -0.3012523841
| 23>  H       -1.7991479443    -4.3364248122    -0.9386203365
| 24>  H       -0.6877078331    -2.7271956802    -2.4939557212
| 25>  H        0.8615420960    -3.5105330304    -2.1044146095
| 26> *
| 27>
| 28>                          ****END OF INPUT****

CARTESIAN COORDINATES (ANGSTROEM)
---------------------------------
  C     -0.077534    1.544133   -0.173375
  N      0.104305    0.130954    0.100865
  C      0.569232   -0.216907    1.430225
  C      0.108892   -0.746586   -0.962759
  O      0.082140   -0.382653   -2.129672
  N      0.150842   -2.096912   -0.626301
  C     -0.759697   -2.789043    0.321507
  C     -0.804999   -3.996206   -0.648088
  C     -0.063141   -3.108336   -1.680916
  H      0.865040    2.099056   -0.064113
  H     -0.430635    1.656070   -1.197091
  H     -0.809047    1.975355    0.520836
  H     -0.248143   -0.278338    2.162016
  H      1.095686   -1.171042    1.406142
  H      1.274150    0.546560    1.782253
  H     -0.333462   -2.975522    1.311803
  H     -1.720243   -2.274040    0.445098
  H     -0.222697   -4.851176   -0.301252
  H     -1.799148   -4.336425   -0.938620
  H     -0.687708   -2.727196   -2.493956
  H      0.861542   -3.510533   -2.104415

 Total Charge           Charge          ....    0
 Multiplicity           Mult            ....    1
 Number of Electrons    NEL             ....   70
 Basis Dimension        Dim             ....  351

ORBITAL ENERGIES
----------------

  NO   OCC          E(Eh)            E(eV)
   0   2.0000     -20.498693      -557.7978
   1   2.0000     -15.575357      -423.8270
   2   2.0000     -15.566187      -423.5775
   3   2.0000     -11.359418      -309.1055
   4   2.0000     -11.271646      -306.7171
   5   2.0000     -11.262175      -306.4594
   6   2.0000     -11.255093      -306.2666
   7   2.0000     -11.247846      -306.0695
   8   2.0000     -11.234134      -305.6963
   9   2.0000      -1.381600       -37.5953
  10   2.0000      -1.255369       -34.1603
  11   2.0000      -1.231035       -33.4982
  12   2.0000      -1.024650       -27.8821
  13   2.0000      -0.967528       -26.3278
  14   2.0000      -0.933529       -25.4026
  15   2.0000      -0.912109       -24.8197
  16   2.0000      -0.803218       -21.8567
  17   2.0000      -0.734036       -19.9741
  18   2.0000      -0.709741       -19.3130
  19   2.0000      -0.678500       -18.4629
  20   2.0000      -0.651774       -17.7357
  21   2.0000      -0.642845       -17.4927
  22   2.0000      -0.600715       -16.3463
  23   2.0000      -0.571455       -15.5501
  24   2.0000      -0.567076       -15.4309
  25   2.0000      -0.555480       -15.1154
  26   2.0000      -0.552048       -15.0220
  27   2.0000      -0.547137       -14.8883
  28   2.0000      -0.522218       -14.2103
  29   2.0000      -0.511562       -13.9203
  30   2.0000      -0.493272       -13.4226
  31   2.0000      -0.471132       -12.8202
  32   2.0000      -0.425619       -11.5817
  33   2.0000      -0.379835       -10.3358
  34   2.0000      -0.365947        -9.9579
  35   0.0000       0.128122         3.4864
  36   0.0000       0.146465         3.9855
  37   0.0000       0.164864         4.4862
  38   0.0000       0.171432         4.6649
  39   0.0000       0.184418         5.0183

MULLIKEN ATOMIC CHARGES
-----------------------
   0 C :   -0.323116
   1 N :   -0.129916
   2 C :   -0.331424
   3 C :    0.273500
   4 O :   -0.412076
   5 N :   -0.149264
   6 C :   -0.160329
   7 C :   -0.213223
   8 C :   -0.150542
   9 H :    0.128187
  10 H :    0.177885
  11 H :    0.129430
  12 H :    0.136909
  13 H :    0.159901
  14 H :    0.140701
  15 H :    0.112111
  16 H :    0.118156
  17 H :    0.121490
  18 H :    0.124302
  19 H :    0.132405
  20 H :    0.114913
Sum of atomic charges:   -0.0000000

LOEWDIN ATOMIC CHARGES
----------------------
   0 C :   -0.295833
   1 N :    0.130496
   2 C :   -0.301776
   3 C :   -0.519660
   4 O :    0.053981
   5 N :    0.149365
   6 C :   -0.237360
   7 C :   -0.238634
   8 C :   -0.225632
   9 H :    0.113978
  10 H :    0.134585
  11 H :    0.115125
  12 H :    0.113308
  13 H :    0.129139
  14 H :    0.120592
  15 H :    0.118657
  16 H :    0.125602
  17 H :    0.131723
  18 H :    0.128628
  19 H :    0.130814
  20 H :    0.122904

  Mayer bond orders larger than 0.1
B(  0-C ,  1-N ) :   0.8863 B(  0-C ,  9-H ) :   0.9358 B(  0-C , 10-H ) :   0.9248
B(  0-C , 11-H ) :   0.9312 B(  1-N ,  2-C ) :   0.8808 B(  1-N ,  3-C ) :   1.1518
B(  2-C , 12-H ) :   0.9359 B(  2-C , 13-H ) :   0.9310 B(  2-C , 14-H ) :   0.9262
B(  3-C ,  4-O ) :   1.8688 B(  3-C ,  5-N ) :   1.0733 B(  5-N ,  6-C ) :   0.8929
B(  5-N ,  8-C ) :   0.9080 B(  6-C ,  7-C ) :   0.9434 B(  6-C , 15-H ) :   0.9225
B(  6-C , 16-H ) :   0.9182 B(  7-C ,  8-C ) :   0.9362 B(  7-C , 17-H ) :   0.9243
B(  7-C , 18-H ) :   0.9314 B(  8-C , 19-H ) :   0.9242 B(  8-C , 20-H ) :   0.9286

MP2 TOTAL ENERGY:     -419.708479018 Eh
FINAL SINGLE POINT ENERGY      -419.708479017638

DIPOLE MOMENT
-------------
                                X             Y             Z
Electronic contribution:      0.91288       0.23374      -4.58716
Nuclear contribution   :     -1.17174      -0.66708       5.87396
                        -----------------------------------------
Total Dipole Moment    :     -0.25887      -0.43334       1.28681
                        -----------------------------------------
Magnitude (a.u.)       :      1.38227
Magnitude (Debye)      :      3.51345

                             ****ORCA TERMINATED NORMALLY****
TOTAL RUN TIME: 0 days 0 hours 20 minutes 19 seconds 549 msec
