                         Program Version 3.0.3 - RELEASE   -
|  1> ! RI-MP2 RIJK def2-TZVP def2-TZVP/C def2-TZVP/JK TIGHTSCF
|  2> % maxcore 2000
|  3> % mp2 density relaxed end
|  4> *xyz 0 1
|  5>  C        0.0072138496     1.3931180295    -0.2134468621
|  6>  N        0.0297801071    -0.0480347784    -0.1678725223
|  7>  C       -1.1544853557    -0.8753444240    -0.0999987685
|  8>  C       -2.1282805640    -0.6730540783    -1.2599192966
|  9>  O       -1.4413946441    -0.9030610804    -2.4735446005
| 10>  C       -0.5090107839    -2.2791634132    -0.0805320030
| 11>  O        0.8637204561    -2.0688265518     0.2630372303
| 12>  C        1.1737702664    -0.7437879076     0.1365792397
| 13>  O        2.2837206338    -0.3069783874     0.2850973620
| 14>  H        1.0377353613     1.7375558300    -0.1130427757
| 15>  H       -0.3985008680     1.7531538174    -1.1652415813
| 16>  H       -0.5914413581     1.8132046026     0.6067488141
| 17>  H       -1.7167972641    -0.6790540849     0.8287744356
| 18>  H       -2.9705132597    -1.3705852062    -1.1216565011
| 19>  H       -2.5405414079     0.3469078680    -1.2147125173
| 20>  H       -2.0669793002    -0.8287447550    -3.1996793299
| 21>  H       -0.9568988275    -2.9440090288     0.6607270606
| 22>  H       -0.5611086010    -2.7387936814    -1.0715119540
| 23> *
| 24>
| 25>                          ****END OF INPUT****

CARTESIAN COORDINATES (ANGSTROEM)
---------------------------------
  C      0.007214    1.393118   -0.213447
  N      0.029780   -0.048035   -0.167873
  C     -1.154485   -0.875344   -0.099999
  C     -2.128281   -0.673054   -1.259919
  O     -1.441395   -0.903061   -2.473545
  C     -0.509011   -2.279163   -0.080532
  O      0.863720   -2.068827    0.263037
  C      1.173770   -0.743788    0.136579
  O      2.283721   -0.306978    0.285097
  H      1.037735    1.737556   -0.113043
  H     -0.398501    1.753154   -1.165242
  H     -0.591441    1.813205    0.606749
  H     -1.716797   -0.679054    0.828774
  H     -2.970513   -1.370585   -1.121657
  H     -2.540541    0.346908   -1.214713
  H     -2.066979   -0.828745   -3.199679
  H     -0.956899   -2.944009    0.660727
  H     -0.561109   -2.738794   -1.071512

 Total Charge           Charge          ....    0
 Multiplicity           Mult            ....    1
 Number of Electrons    NEL             ....   70
 Basis Dimension        Dim             ....  333

ORBITAL ENERGIES
----------------

  NO   OCC          E(Eh)            E(eV)
   0   2.0000     -20.593481      -560.3771
   1   2.0000     -20.579332      -559.9921
   2   2.0000     -20.514078      -558.2164
   3   2.0000     -15.587861      -424.1673
   4   2.0000     -11.389460      -309.9230
   5   2.0000     -11.304071      -307.5994
   6   2.0000     -11.298331      -307.4432
   7   2.0000     -11.292543      -307.2857
   8   2.0000     -11.263430      -306.4935
   9   2.0000      -1.460015       -39.7290
  10   2.0000      -1.387057       -37.7437
  11   2.0000      -1.353776       -36.8381
  12   2.0000      -1.255572       -34.1659
  13   2.0000      -1.060452       -28.8564
  14   2.0000      -0.964442       -26.2438
  15   2.0000      -0.947867       -25.7928
  16   2.0000      -0.840695       -22.8765
  17   2.0000      -0.778029       -21.1712
  18   2.0000      -0.747468       -20.3396
  19   2.0000      -0.692556       -18.8454
  20   2.0000      -0.689954       -18.7746
  21   2.0000      -0.667150       -18.1541
  22   2.0000      -0.653524       -17.7833
  23   2.0000      -0.620211       -16.8768
  24   2.0000      -0.609206       -16.5773
  25   2.0000      -0.586839       -15.9687
  26   2.0000      -0.572410       -15.5761
  27   2.0000      -0.569600       -15.4996
  28   2.0000      -0.544534       -14.8175
  29   2.0000      -0.529662       -14.4128
  30   2.0000      -0.506919       -13.7940
  31   2.0000      -0.472259       -12.8508
  32   2.0000      -0.449095       -12.2205
  33   2.0000      -0.444977       -12.1084
  34   2.0000      -0.383224       -10.4281
  35   0.0000       0.110669         3.0115
  36   0.0000       0.141150         3.8409
  37   0.0000       0.154064         4.1923
  38   0.0000       0.167402         4.5552
  39   0.0000       0.185369         5.0442

MULLIKEN ATOMIC CHARGES
-----------------------
   0 C :   -0.343049
   1 N :   -0.130714
   2 C :    0.039930
   3 C :   -0.122200
   4 O :   -0.462172
   5 C :   -0.068739
   6 O :   -0.249639
   7 C :    0.319539
   8 O :   -0.350544
   9 H :    0.183495
  10 H :    0.145024
  11 H :    0.128945
  12 H :    0.104651
  13 H :    0.118126
  14 H :    0.119390
  15 H :    0.319165
  16 H :    0.120782
  17 H :    0.128009
Sum of atomic charges:   -0.0000000

LOEWDIN ATOMIC CHARGES
----------------------
   0 C :   -0.287481
   1 N :    0.178395
   2 C :   -0.267920
   3 C :   -0.336860
   4 O :   -0.032854
   5 C :   -0.239618
   6 O :    0.241108
   7 C :   -0.554744
   8 O :    0.092070
   9 H :    0.139707
  10 H :    0.119129
  11 H :    0.115834
  12 H :    0.146777
  13 H :    0.125119
  14 H :    0.121902
  15 H :    0.178021
  16 H :    0.127473
  17 H :    0.133942

  Mayer bond orders larger than 0.1
B(  0-C ,  1-N ) :   0.8783 B(  0-C ,  9-H ) :   0.9206 B(  0-C , 10-H ) :   0.9312
B(  0-C , 11-H ) :   0.9296 B(  1-N ,  2-C ) :   0.9140 B(  1-N ,  7-C ) :   1.1235
B(  2-C ,  3-C ) :   0.9094 B(  2-C ,  5-C ) :   0.9303 B(  2-C , 12-H ) :   0.9060
B(  3-C ,  4-O ) :   0.9955 B(  3-C , 13-H ) :   0.9271 B(  3-C , 14-H ) :   0.9179
B(  4-O , 15-H ) :   0.8435 B(  5-C ,  6-O ) :   0.8980 B(  5-C , 16-H ) :   0.9273
B(  5-C , 17-H ) :   0.9143 B(  6-O ,  7-C ) :   1.0735 B(  7-C ,  8-O ) :   1.9814

MP2 TOTAL ENERGY:     -475.519759020 Eh
FINAL SINGLE POINT ENERGY      -475.519759020190

DIPOLE MOMENT
-------------
                                X             Y             Z
Electronic contribution:      6.51401      -3.05523       1.28913
Nuclear contribution   :     -9.13512       3.32473      -1.75511
                        -----------------------------------------
Total Dipole Moment    :     -2.62110       0.26950      -0.46598
                        -----------------------------------------
Magnitude (a.u.)       :      2.67581
Magnitude (Debye)      :      6.80137

                             ****ORCA TERMINATED NORMALLY****
TOTAL RUN TIME: 0 days 0 hours 26 minutes 14 seconds 670 msec
