                         Program Version 3.0.3 - RELEASE   -
|  1> ! RI-MP2 RIJK def2-TZVP def2-TZVP/C def2-TZVP/JK TIGHTSCF
|  2> % maxcore 2000
|  3> % mp2 density relaxed end
|  4> *xyz 0 1
|  5>  N        0.1290631236    -3.6823572147    -0.0193825334
|  6>  C        0.0711707286    -2.5216268938    -0.0120744497
|  7>  C        0.0070464127    -1.1603166414    -0.0036060173
|  8>  C       -0.0493546735     0.0481960886     0.0037276708
|  9>  C       -0.1156525834     1.4515136419     0.0122855235
| 10>  N       -1.1776798250     2.2089588447     0.0307726424
| 11>  C       -0.6827718893     3.4948383414     0.0311149790
| 12>  C        0.6762768004     3.4495492878     0.0125286951
| 13>  O        1.0575746720     2.1485367104     0.0002586489
| 14>  H       -1.3325834526     4.3549224582     0.0445921310
| 15>  H        1.4634656564     4.1837774269     0.0059197998
| 16> *
| 17>
| 18>                          ****END OF INPUT****

CARTESIAN COORDINATES (ANGSTROEM)
---------------------------------
  N      0.129063   -3.682357   -0.019383
  C      0.071171   -2.521627   -0.012074
  C      0.007046   -1.160317   -0.003606
  C     -0.049355    0.048196    0.003728
  C     -0.115653    1.451514    0.012286
  N     -1.177680    2.208959    0.030773
  C     -0.682772    3.494838    0.031115
  C      0.676277    3.449549    0.012529
  O      1.057575    2.148537    0.000259
  H     -1.332583    4.354922    0.044592
  H      1.463466    4.183777    0.005920

 Total Charge           Charge          ....    0
 Multiplicity           Mult            ....    1
 Number of Electrons    NEL             ....   60
 Basis Dimension        Dim             ....  291

ORBITAL ENERGIES
----------------

  NO   OCC          E(Eh)            E(eV)
   0   2.0000     -20.675582      -562.6112
   1   2.0000     -15.611330      -424.8059
   2   2.0000     -15.609302      -424.7507
   3   2.0000     -11.386223      -309.8349
   4   2.0000     -11.329788      -308.2992
   5   2.0000     -11.314980      -307.8963
   6   2.0000     -11.314459      -307.8821
   7   2.0000     -11.308805      -307.7282
   8   2.0000     -11.291114      -307.2468
   9   2.0000      -1.524179       -41.4750
  10   2.0000      -1.272773       -34.6339
  11   2.0000      -1.248667       -33.9780
  12   2.0000      -1.130308       -30.7572
  13   2.0000      -1.062596       -28.9147
  14   2.0000      -0.937976       -25.5236
  15   2.0000      -0.876297       -23.8453
  16   2.0000      -0.860975       -23.4283
  17   2.0000      -0.796398       -21.6711
  18   2.0000      -0.699415       -19.0321
  19   2.0000      -0.686605       -18.6835
  20   2.0000      -0.644514       -17.5381
  21   2.0000      -0.609891       -16.5960
  22   2.0000      -0.593078       -16.1385
  23   2.0000      -0.556995       -15.1566
  24   2.0000      -0.550559       -14.9815
  25   2.0000      -0.500283       -13.6134
  26   2.0000      -0.495143       -13.4735
  27   2.0000      -0.449250       -12.2247
  28   2.0000      -0.431934       -11.7535
  29   2.0000      -0.354600        -9.6492
  30   0.0000       0.033177         0.9028
  31   0.0000       0.073900         2.0109
  32   0.0000       0.143718         3.9108
  33   0.0000       0.146884         3.9969
  34   0.0000       0.158389         4.3100

MULLIKEN ATOMIC CHARGES
-----------------------
   0 N :   -0.036169
   1 C :   -0.205095
   2 C :    0.330102
   3 C :    0.067026
   4 C :    0.090597
   5 N :   -0.266868
   6 C :   -0.103429
   7 C :   -0.015793
   8 O :   -0.187270
   9 H :    0.155861
  10 H :    0.171036
Sum of atomic charges:   -0.0000000

LOEWDIN ATOMIC CHARGES
----------------------
   0 N :    0.114925
   1 C :   -0.166139
   2 C :   -0.014380
   3 C :    0.042565
   4 C :   -0.332199
   5 N :    0.154704
   6 C :   -0.232366
   7 C :   -0.229326
   8 O :    0.378444
   9 H :    0.143177
  10 H :    0.140596

  Mayer bond orders larger than 0.1
B(  0-N ,  1-C ) :   2.7318 B(  0-N ,  3-C ) :   0.1096 B(  1-C ,  2-C ) :   0.9660
B(  2-C ,  3-C ) :   2.5739 B(  2-C ,  4-C ) :  -0.1732 B(  3-C ,  4-C ) :   1.1069
B(  4-C ,  5-N ) :   1.5566 B(  4-C ,  8-O ) :   1.0790 B(  5-N ,  6-C ) :   1.2317
B(  6-C ,  7-C ) :   1.5573 B(  6-C ,  9-H ) :   0.9275 B(  7-C ,  8-O ) :   1.0600
B(  7-C , 10-H ) :   0.9165

MP2 TOTAL ENERGY:     -413.692694289 Eh
FINAL SINGLE POINT ENERGY      -413.692694289471

DIPOLE MOMENT
-------------
                                X             Y             Z
Electronic contribution:      0.37577      -4.73011      -0.03090
Nuclear contribution   :      0.11263       6.75329       0.03549
                        -----------------------------------------
Total Dipole Moment    :      0.48839       2.02318       0.00459
                        -----------------------------------------
Magnitude (a.u.)       :      2.08130
Magnitude (Debye)      :      5.29025

                             ****ORCA TERMINATED NORMALLY****
TOTAL RUN TIME: 0 days 0 hours 10 minutes 9 seconds 390 msec
