                         Program Version 3.0.3 - RELEASE   -
|  1> ! RI-MP2 RIJK def2-TZVP def2-TZVP/C def2-TZVP/JK TIGHTSCF
|  2> % maxcore 2000
|  3> % mp2 density relaxed end
|  4> *xyz 0 1
|  5>  O       -0.0368619180     1.4596908600    -0.0287759662
|  6>  C        0.0095132144     0.0349241701     0.0249951076
|  7>  C        0.6838780743    -0.5211100340     1.3130972854
|  8>  C       -0.4969057506    -0.9113684679     2.2117012788
|  9>  C       -1.4342137295     0.3203625069     2.4767684625
| 10>  C       -2.2714570335    -0.1383426737     1.2893928583
| 11>  O       -3.5875692072     0.2029396079     1.0467715323
| 12>  C       -1.5686789239    -1.4915301123     1.2454564760
| 13>  C       -1.4106531081    -0.5050272540     0.1054355390
| 14>  H        0.8629928127     1.7793930803    -0.1484331944
| 15>  H        0.5119705633    -0.3513162968    -0.8735951713
| 16>  H        1.2835951865    -1.4064611272     1.0717518145
| 17>  H        1.3471614889     0.2223331140     1.7681574468
| 18>  H       -0.2317090017    -1.4983977465     3.0907094660
| 19>  H       -1.9844216815     0.1964310046     3.4161187478
| 20>  H       -0.9910683079     1.3187801873     2.4335593670
| 21>  H       -4.1001351578    -0.0109145722     1.8346364445
| 22>  H       -1.9318698448    -2.5064870891     1.1546391358
| 23>  H       -1.9742000056    -0.6742962875    -0.8046227606
| 24> *
| 25>
| 26>                          ****END OF INPUT****

CARTESIAN COORDINATES (ANGSTROEM)
---------------------------------
  O     -0.036862    1.459691   -0.028776
  C      0.009513    0.034924    0.024995
  C      0.683878   -0.521110    1.313097
  C     -0.496906   -0.911368    2.211701
  C     -1.434214    0.320363    2.476768
  C     -2.271457   -0.138343    1.289393
  O     -3.587569    0.202940    1.046772
  C     -1.568679   -1.491530    1.245456
  C     -1.410653   -0.505027    0.105436
  H      0.862993    1.779393   -0.148433
  H      0.511971   -0.351316   -0.873595
  H      1.283595   -1.406461    1.071752
  H      1.347161    0.222333    1.768157
  H     -0.231709   -1.498398    3.090709
  H     -1.984422    0.196431    3.416119
  H     -0.991068    1.318780    2.433559
  H     -4.100135   -0.010915    1.834636
  H     -1.931870   -2.506487    1.154639
  H     -1.974200   -0.674296   -0.804623

 Total Charge           Charge          ....    0
 Multiplicity           Mult            ....    1
 Number of Electrons    NEL             ....   68
 Basis Dimension        Dim             ....  339

ORBITAL ENERGIES
----------------

  NO   OCC          E(Eh)            E(eV)
   0   2.0000     -20.562958      -559.5465
   1   2.0000     -20.549330      -559.1757
   2   2.0000     -11.285650      -307.0981
   3   2.0000     -11.278500      -306.9036
   4   2.0000     -11.234332      -305.7017
   5   2.0000     -11.223973      -305.4198
   6   2.0000     -11.223101      -305.3961
   7   2.0000     -11.220488      -305.3250
   8   2.0000     -11.220038      -305.3128
   9   2.0000      -1.375497       -37.4292
  10   2.0000      -1.354856       -36.8675
  11   2.0000      -1.198434       -32.6110
  12   2.0000      -1.013165       -27.5696
  13   2.0000      -0.993621       -27.0378
  14   2.0000      -0.892143       -24.2764
  15   2.0000      -0.817686       -22.2504
  16   2.0000      -0.762057       -20.7366
  17   2.0000      -0.734852       -19.9964
  18   2.0000      -0.715631       -19.4733
  19   2.0000      -0.680616       -18.5205
  20   2.0000      -0.648422       -17.6445
  21   2.0000      -0.628622       -17.1057
  22   2.0000      -0.592345       -16.1185
  23   2.0000      -0.572746       -15.5852
  24   2.0000      -0.563721       -15.3396
  25   2.0000      -0.547129       -14.8881
  26   2.0000      -0.522724       -14.2240
  27   2.0000      -0.517230       -14.0745
  28   2.0000      -0.484645       -13.1879
  29   2.0000      -0.462716       -12.5911
  30   2.0000      -0.439045       -11.9470
  31   2.0000      -0.427299       -11.6274
  32   2.0000      -0.392322       -10.6756
  33   2.0000      -0.362119        -9.8538
  34   0.0000       0.134375         3.6565
  35   0.0000       0.144768         3.9393
  36   0.0000       0.158163         4.3038
  37   0.0000       0.174844         4.7577
  38   0.0000       0.189882         5.1670

MULLIKEN ATOMIC CHARGES
-----------------------
   0 O :   -0.457725
   1 C :    0.081693
   2 C :   -0.298960
   3 C :    0.019359
   4 C :   -0.207562
   5 C :    0.127121
   6 O :   -0.443368
   7 C :   -0.230052
   8 C :   -0.145253
   9 H :    0.309918
  10 H :    0.087429
  11 H :    0.111661
  12 H :    0.108538
  13 H :    0.120868
  14 H :    0.103400
  15 H :    0.112323
  16 H :    0.322328
  17 H :    0.145116
  18 H :    0.133165
Sum of atomic charges:    0.0000000

LOEWDIN ATOMIC CHARGES
----------------------
   0 O :   -0.020492
   1 C :   -0.308324
   2 C :   -0.220913
   3 C :   -0.183198
   4 C :   -0.175865
   5 C :   -0.316990
   6 O :    0.036788
   7 C :   -0.126611
   8 C :   -0.138773
   9 H :    0.170200
  10 H :    0.132612
  11 H :    0.138505
  12 H :    0.134367
  13 H :    0.139183
  14 H :    0.134344
  15 H :    0.130827
  16 H :    0.183388
  17 H :    0.133850
  18 H :    0.157102

  Mayer bond orders larger than 0.1
B(  0-O ,  1-C ) :   1.0657 B(  0-O ,  9-H ) :   0.8471 B(  1-C ,  2-C ) :   0.9454
B(  1-C ,  8-C ) :   0.8859 B(  1-C , 10-H ) :   0.9447 B(  2-C ,  3-C ) :   0.9047
B(  2-C , 11-H ) :   0.9166 B(  2-C , 12-H ) :   0.9205 B(  3-C ,  4-C ) :   0.9375
B(  3-C ,  7-C ) :   0.8606 B(  3-C , 13-H ) :   0.9170 B(  4-C ,  5-C ) :   1.0005
B(  4-C , 14-H ) :   0.9170 B(  4-C , 15-H ) :   0.8977 B(  5-C ,  6-O ) :   1.0814
B(  5-C ,  7-C ) :   0.8048 B(  5-C ,  8-C ) :   0.8895 B(  6-O , 16-H ) :   0.8357
B(  7-C ,  8-C ) :   0.9003 B(  7-C , 17-H ) :   0.9008 B(  8-C , 18-H ) :   0.9222

MP2 TOTAL ENERGY:     -422.304563364 Eh
FINAL SINGLE POINT ENERGY      -422.304563364296

DIPOLE MOMENT
-------------
                                X             Y             Z
Electronic contribution:     -3.26221       1.03976      -1.68734
Nuclear contribution   :      3.86621      -1.61102       2.20367
                        -----------------------------------------
Total Dipole Moment    :      0.60401      -0.57126       0.51633
                        -----------------------------------------
Magnitude (a.u.)       :      0.97865
Magnitude (Debye)      :      2.48753

                             ****ORCA TERMINATED NORMALLY****
TOTAL RUN TIME: 0 days 0 hours 17 minutes 46 seconds 440 msec
