                         Program Version 3.0.3 - RELEASE   -
|  1> ! RI-MP2 RIJK def2-TZVP def2-TZVP/C def2-TZVP/JK TIGHTSCF
|  2> % maxcore 2000
|  3> % mp2 density relaxed end
|  4> *xyz 0 1
|  5>  C       -0.1183941457     1.5147399167     0.0575807711
|  6>  C       -0.0468478232     0.0232427088    -0.0009250753
|  7>  C       -0.0437016683    -0.7711487744    -1.0747053836
|  8>  C        0.0786850915    -2.2012738539    -0.6796540523
|  9>  C        1.3168293554    -2.6474579167     0.0296560362
| 10>  C        2.6237155851    -1.8932284698     0.0558816792
| 11>  O        3.3868088839    -2.2106006495     1.2158959068
| 12>  N        0.1210573687    -2.2436486663     0.8061451635
| 13>  C        0.0662002827    -0.8306700722     1.2497967790
| 14>  H        0.7926851094     1.9412293862     0.4964736218
| 15>  H       -0.2492183857     1.9513229251    -0.9359594569
| 16>  H       -0.9520694671     1.8457755807     0.6898731327
| 17>  H       -0.1275670919    -0.4461438780    -2.1049928678
| 18>  H       -0.5371664157    -2.9444632186    -1.1824759186
| 19>  H        1.4694993101    -3.7243683378     0.0958198604
| 20>  H        3.2371114607    -2.2086303542    -0.7954777958
| 21>  H        2.4680947239    -0.8122043809    -0.0398354514
| 22>  H        2.8124222817    -2.1044416898     1.9810883677
| 23>  H        0.9468773106    -0.5637916247     1.8523475300
| 24>  H       -0.8040352560    -0.7013999906     1.9082930533
| 25> *
| 26>
| 27>                          ****END OF INPUT****

CARTESIAN COORDINATES (ANGSTROEM)
---------------------------------
  C     -0.118394    1.514740    0.057581
  C     -0.046848    0.023243   -0.000925
  C     -0.043702   -0.771149   -1.074705
  C      0.078685   -2.201274   -0.679654
  C      1.316829   -2.647458    0.029656
  C      2.623716   -1.893228    0.055882
  O      3.386809   -2.210601    1.215896
  N      0.121057   -2.243649    0.806145
  C      0.066200   -0.830670    1.249797
  H      0.792685    1.941229    0.496474
  H     -0.249218    1.951323   -0.935959
  H     -0.952069    1.845776    0.689873
  H     -0.127567   -0.446144   -2.104993
  H     -0.537166   -2.944463   -1.182476
  H      1.469499   -3.724368    0.095820
  H      3.237111   -2.208630   -0.795478
  H      2.468095   -0.812204   -0.039835
  H      2.812422   -2.104442    1.981088
  H      0.946877   -0.563792    1.852348
  H     -0.804035   -0.701400    1.908293

 Total Charge           Charge          ....    0
 Multiplicity           Mult            ....    1
 Number of Electrons    NEL             ....   68
 Basis Dimension        Dim             ....  345

ORBITAL ENERGIES
----------------

  NO   OCC          E(Eh)            E(eV)
   0   2.0000     -20.554904      -559.3274
   1   2.0000     -15.560549      -423.4241
   2   2.0000     -11.277290      -306.8707
   3   2.0000     -11.264280      -306.5166
   4   2.0000     -11.261988      -306.4543
   5   2.0000     -11.260316      -306.4088
   6   2.0000     -11.242808      -305.9324
   7   2.0000     -11.234444      -305.7048
   8   2.0000     -11.228998      -305.5566
   9   2.0000      -1.359257       -36.9873
  10   2.0000      -1.283361       -34.9220
  11   2.0000      -1.091313       -29.6961
  12   2.0000      -1.001573       -27.2542
  13   2.0000      -0.972712       -26.4689
  14   2.0000      -0.943294       -25.6683
  15   2.0000      -0.802455       -21.8359
  16   2.0000      -0.798754       -21.7352
  17   2.0000      -0.735499       -20.0139
  18   2.0000      -0.706910       -19.2360
  19   2.0000      -0.660181       -17.9644
  20   2.0000      -0.642893       -17.4940
  21   2.0000      -0.610617       -16.6157
  22   2.0000      -0.594888       -16.1877
  23   2.0000      -0.588360       -16.0101
  24   2.0000      -0.574686       -15.6380
  25   2.0000      -0.559978       -15.2378
  26   2.0000      -0.534437       -14.5428
  27   2.0000      -0.512509       -13.9461
  28   2.0000      -0.501396       -13.6437
  29   2.0000      -0.485216       -13.2034
  30   2.0000      -0.448022       -12.1913
  31   2.0000      -0.442863       -12.0509
  32   2.0000      -0.396468       -10.7884
  33   2.0000      -0.330266        -8.9870
  34   0.0000       0.126248         3.4354
  35   0.0000       0.140645         3.8272
  36   0.0000       0.157729         4.2920
  37   0.0000       0.166164         4.5215
  38   0.0000       0.179866         4.8944

MULLIKEN ATOMIC CHARGES
-----------------------
   0 C :   -0.428214
   1 C :   -0.026990
   2 C :   -0.217854
   3 C :    0.015331
   4 C :   -0.132118
   5 C :   -0.008630
   6 O :   -0.467815
   7 N :   -0.232711
   8 C :   -0.118022
   9 H :    0.142795
  10 H :    0.141236
  11 H :    0.143802
  12 H :    0.131019
  13 H :    0.135223
  14 H :    0.120913
  15 H :    0.116824
  16 H :    0.122007
  17 H :    0.317040
  18 H :    0.111465
  19 H :    0.134701
Sum of atomic charges:   -0.0000000

LOEWDIN ATOMIC CHARGES
----------------------
   0 C :   -0.273984
   1 C :   -0.194844
   2 C :   -0.132397
   3 C :   -0.205996
   4 C :   -0.246199
   5 C :   -0.326877
   6 O :   -0.049261
   7 N :    0.128486
   8 C :   -0.236074
   9 H :    0.132732
  10 H :    0.132566
  11 H :    0.133321
  12 H :    0.142548
  13 H :    0.141896
  14 H :    0.149023
  15 H :    0.136217
  16 H :    0.126581
  17 H :    0.172424
  18 H :    0.131851
  19 H :    0.137988

  Mayer bond orders larger than 0.1
B(  0-C ,  1-C ) :   0.8940 B(  0-C ,  9-H ) :   0.9248 B(  0-C , 10-H ) :   0.9443
B(  0-C , 11-H ) :   0.9360 B(  1-C ,  2-C ) :   1.7380 B(  1-C ,  8-C ) :   0.9599
B(  2-C ,  3-C ) :   0.9527 B(  2-C , 12-H ) :   0.9221 B(  3-C ,  4-C ) :   0.9054
B(  3-C ,  7-N ) :   0.9071 B(  3-C , 13-H ) :   0.8997 B(  4-C ,  5-C ) :   0.9449
B(  4-C ,  7-N ) :   0.8926 B(  4-C , 14-H ) :   0.9285 B(  5-C ,  6-O ) :   0.9050
B(  5-C , 15-H ) :   0.9235 B(  5-C , 16-H ) :   0.9250 B(  6-O , 17-H ) :   0.8460
B(  7-N ,  8-C ) :   0.9372 B(  8-C , 18-H ) :   0.9267 B(  8-C , 19-H ) :   0.9038

MP2 TOTAL ENERGY:     -402.431802618 Eh
FINAL SINGLE POINT ENERGY      -402.431802617513

DIPOLE MOMENT
-------------
                                X             Y             Z
Electronic contribution:      0.25084      -4.83921       0.13452
Nuclear contribution   :     -0.66926       5.58540      -0.47780
                        -----------------------------------------
Total Dipole Moment    :     -0.41842       0.74619      -0.34328
                        -----------------------------------------
Magnitude (a.u.)       :      0.92181
Magnitude (Debye)      :      2.34304

                             ****ORCA TERMINATED NORMALLY****
TOTAL RUN TIME: 0 days 0 hours 30 minutes 57 seconds 593 msec
