                         Program Version 3.0.3 - RELEASE   -
|  1> ! RI-MP2 RIJK def2-TZVP def2-TZVP/C def2-TZVP/JK TIGHTSCF
|  2> % maxcore 2000
|  3> % mp2 density relaxed end
|  4> *xyz 0 1
|  5>  N       -0.0867667042     1.5050452255     0.1380823752
|  6>  C        0.0368042957     0.0542056595     0.0180274890
|  7>  C        0.7277084999    -0.4883892947    -1.2600732157
|  8>  C       -0.0472593031    -0.1084809154    -2.5354419892
|  9>  C        0.5953758749    -0.6166794128    -3.7443738248
| 10>  N        1.1152691706    -1.0222073298    -4.6929664743
| 11>  C        0.7542155931    -0.4626211539     1.1968199091
| 12>  N        1.3433407747    -0.8819313271     2.0973131052
| 13>  H        0.8131022447     1.9593097871     0.0168780761
| 14>  H       -0.7241578499     1.8731478721    -0.5583809589
| 15>  H       -0.9803867006    -0.3577441368     0.0622921544
| 16>  H        1.7475494375    -0.0934047327    -1.3134847307
| 17>  H        0.8104388626    -1.5774822211    -1.1922116742
| 18>  H       -1.0698487500    -0.5033000608    -2.4929411059
| 19>  H       -0.1296101061     0.9806721409    -2.6244351852
| 20> *
| 21>
| 22>                          ****END OF INPUT****

CARTESIAN COORDINATES (ANGSTROEM)
---------------------------------
  N     -0.086767    1.505045    0.138082
  C      0.036804    0.054206    0.018027
  C      0.727708   -0.488389   -1.260073
  C     -0.047259   -0.108481   -2.535442
  C      0.595376   -0.616679   -3.744374
  N      1.115269   -1.022207   -4.692966
  C      0.754216   -0.462621    1.196820
  N      1.343341   -0.881931    2.097313
  H      0.813102    1.959310    0.016878
  H     -0.724158    1.873148   -0.558381
  H     -0.980387   -0.357744    0.062292
  H      1.747549   -0.093405   -1.313485
  H      0.810439   -1.577482   -1.192212
  H     -1.069849   -0.503300   -2.492941
  H     -0.129610    0.980672   -2.624435

 Total Charge           Charge          ....    0
 Multiplicity           Mult            ....    1
 Number of Electrons    NEL             ....   58
 Basis Dimension        Dim             ....  290

ORBITAL ENERGIES
----------------

  NO   OCC          E(Eh)            E(eV)
   0   2.0000     -15.590578      -424.2412
   1   2.0000     -15.585497      -424.1029
   2   2.0000     -15.583945      -424.0607
   3   2.0000     -11.339886      -308.5740
   4   2.0000     -11.309569      -307.7490
   5   2.0000     -11.289393      -307.2000
   6   2.0000     -11.284691      -307.0720
   7   2.0000     -11.283629      -307.0432
   8   2.0000      -1.255607       -34.1668
   9   2.0000      -1.234784       -33.6002
  10   2.0000      -1.217584       -33.1321
  11   2.0000      -1.113625       -30.3033
  12   2.0000      -1.015621       -27.6365
  13   2.0000      -0.895574       -24.3698
  14   2.0000      -0.768349       -20.9078
  15   2.0000      -0.718631       -19.5549
  16   2.0000      -0.695475       -18.9248
  17   2.0000      -0.669976       -18.2310
  18   2.0000      -0.638256       -17.3678
  19   2.0000      -0.619517       -16.8579
  20   2.0000      -0.585598       -15.9349
  21   2.0000      -0.568111       -15.4591
  22   2.0000      -0.560625       -15.2554
  23   2.0000      -0.553871       -15.0716
  24   2.0000      -0.483766       -13.1639
  25   2.0000      -0.479084       -13.0365
  26   2.0000      -0.474232       -12.9045
  27   2.0000      -0.471053       -12.8180
  28   2.0000      -0.439857       -11.9691
  29   0.0000       0.089576         2.4375
  30   0.0000       0.124840         3.3971
  31   0.0000       0.132747         3.6122
  32   0.0000       0.138341         3.7644
  33   0.0000       0.159912         4.3514

MULLIKEN ATOMIC CHARGES
-----------------------
   0 N :   -0.525503
   1 C :    0.153990
   2 C :   -0.298044
   3 C :   -0.109417
   4 C :   -0.192748
   5 N :   -0.047650
   6 C :   -0.164583
   7 N :   -0.044254
   8 H :    0.242508
   9 H :    0.239302
  10 H :    0.139542
  11 H :    0.150554
  12 H :    0.155209
  13 H :    0.162303
  14 H :    0.138790
Sum of atomic charges:   -0.0000000

LOEWDIN ATOMIC CHARGES
----------------------
   0 N :   -0.118294
   1 C :   -0.319643
   2 C :   -0.219754
   3 C :   -0.248516
   4 C :   -0.192668
   5 N :    0.065745
   6 C :   -0.165971
   7 N :    0.074040
   8 H :    0.163976
   9 H :    0.155807
  10 H :    0.172748
  11 H :    0.151223
  12 H :    0.156498
  13 H :    0.165747
  14 H :    0.159061

  Mayer bond orders larger than 0.1
B(  0-N ,  1-C ) :   0.9170 B(  0-N ,  8-H ) :   0.8843 B(  0-N ,  9-H ) :   0.8963
B(  1-C ,  2-C ) :   0.9341 B(  1-C ,  6-C ) :   0.9365 B(  1-C , 10-H ) :   0.9036
B(  2-C ,  3-C ) :   0.9006 B(  2-C , 11-H ) :   0.9132 B(  2-C , 12-H ) :   0.9207
B(  3-C ,  4-C ) :   0.9523 B(  3-C , 13-H ) :   0.9021 B(  3-C , 14-H ) :   0.9001
B(  4-C ,  5-N ) :   2.8721 B(  6-C ,  7-N ) :   2.8683

MP2 TOTAL ENERGY:     -358.245626530 Eh
FINAL SINGLE POINT ENERGY      -358.245626529923

DIPOLE MOMENT
-------------
                                X             Y             Z
Electronic contribution:      1.95798      -2.54286       0.11930
Nuclear contribution   :     -3.07903       3.51177      -0.46235
                        -----------------------------------------
Total Dipole Moment    :     -1.12105       0.96891      -0.34305
                        -----------------------------------------
Magnitude (a.u.)       :      1.52093
Magnitude (Debye)      :      3.86589

                             ****ORCA TERMINATED NORMALLY****
TOTAL RUN TIME: 0 days 0 hours 9 minutes 34 seconds 646 msec
