                         Program Version 3.0.3 - RELEASE   -
|  1> ! RI-MP2 RIJK def2-TZVP def2-TZVP/C def2-TZVP/JK TIGHTSCF
|  2> % maxcore 2000
|  3> % mp2 density relaxed end
|  4> *xyz 0 1
|  5>  C       -0.0234792738     1.5465003101     0.0228326122
|  6>  C        0.0154733042     0.0001604284     0.0127686609
|  7>  N        0.7557264871    -0.4571992111     1.1993898326
|  8>  C       -1.3845686815    -0.5139025028     0.0017478745
|  9>  N       -2.4669645893    -0.9161849039     0.0589574073
| 10>  C        0.6950352230    -0.4852282389    -1.1929996417
| 11>  C        1.2584269337    -0.8703963719    -2.1904038434
| 12>  C        1.8932727582    -1.3061116484    -3.3121930153
| 13>  C        2.4567589845    -1.6924512850    -4.3070704052
| 14>  H        1.0022086005     1.9184005684     0.0318237642
| 15>  H       -0.5470871055     1.9251309370    -0.8564350487
| 16>  H       -0.5433266953     1.8954697067     0.9196203507
| 17>  H        0.2482143981    -0.1794841494     2.0357995443
| 18>  H        0.8072518645    -1.4718818045     1.2049391362
| 19>  H        2.9516239916    -2.0328297247    -5.1829802686
| 20> *
| 21>
| 22>                          ****END OF INPUT****

CARTESIAN COORDINATES (ANGSTROEM)
---------------------------------
  C     -0.023479    1.546500    0.022833
  C      0.015473    0.000160    0.012769
  N      0.755726   -0.457199    1.199390
  C     -1.384569   -0.513903    0.001748
  N     -2.466965   -0.916185    0.058957
  C      0.695035   -0.485228   -1.193000
  C      1.258427   -0.870396   -2.190404
  C      1.893273   -1.306112   -3.312193
  C      2.456759   -1.692451   -4.307070
  H      1.002209    1.918401    0.031824
  H     -0.547087    1.925131   -0.856435
  H     -0.543327    1.895470    0.919620
  H      0.248214   -0.179484    2.035800
  H      0.807252   -1.471882    1.204939
  H      2.951624   -2.032830   -5.182980

 Total Charge           Charge          ....    0
 Multiplicity           Mult            ....    1
 Number of Electrons    NEL             ....   62
 Basis Dimension        Dim             ....  315

ORBITAL ENERGIES
----------------

  NO   OCC          E(Eh)            E(eV)
   0   2.0000     -15.585309      -424.0978
   1   2.0000     -15.583103      -424.0378
   2   2.0000     -11.360867      -309.1449
   3   2.0000     -11.282747      -307.0192
   4   2.0000     -11.275277      -306.8159
   5   2.0000     -11.271291      -306.7074
   6   2.0000     -11.270276      -306.6798
   7   2.0000     -11.263402      -306.4928
   8   2.0000     -11.256299      -306.2995
   9   2.0000      -1.258430       -34.2436
  10   2.0000      -1.215696       -33.0808
  11   2.0000      -1.106542       -30.1105
  12   2.0000      -1.064588       -28.9689
  13   2.0000      -1.017396       -27.6847
  14   2.0000      -0.925032       -25.1714
  15   2.0000      -0.848251       -23.0821
  16   2.0000      -0.766724       -20.8636
  17   2.0000      -0.722919       -19.6716
  18   2.0000      -0.711429       -19.3590
  19   2.0000      -0.660629       -17.9766
  20   2.0000      -0.596765       -16.2388
  21   2.0000      -0.581984       -15.8366
  22   2.0000      -0.566698       -15.4206
  23   2.0000      -0.561776       -15.2867
  24   2.0000      -0.504446       -13.7267
  25   2.0000      -0.499108       -13.5814
  26   2.0000      -0.486697       -13.2437
  27   2.0000      -0.472996       -12.8709
  28   2.0000      -0.442919       -12.0524
  29   2.0000      -0.374635       -10.1943
  30   2.0000      -0.372432       -10.1344
  31   0.0000       0.091213         2.4820
  32   0.0000       0.096294         2.6203
  33   0.0000       0.115932         3.1547
  34   0.0000       0.148820         4.0496
  35   0.0000       0.157030         4.2730

MULLIKEN ATOMIC CHARGES
-----------------------
   0 C :   -0.400825
   1 C :    0.205989
   2 N :   -0.522953
   3 C :   -0.193770
   4 N :   -0.055026
   5 C :   -0.183202
   6 C :    0.117982
   7 C :    0.007002
   8 C :   -0.120073
   9 H :    0.161431
  10 H :    0.149834
  11 H :    0.147127
  12 H :    0.238830
  13 H :    0.247866
  14 H :    0.199789
Sum of atomic charges:    0.0000000

LOEWDIN ATOMIC CHARGES
----------------------
   0 C :   -0.225697
   1 C :   -0.365592
   2 N :   -0.084091
   3 C :   -0.146942
   4 N :    0.071612
   5 C :    0.031089
   6 C :   -0.033340
   7 C :   -0.091776
   8 C :   -0.030124
   9 H :    0.138799
  10 H :    0.137448
  11 H :    0.132667
  12 H :    0.165419
  13 H :    0.167855
  14 H :    0.132673

  Mayer bond orders larger than 0.1
B(  0-C ,  1-C ) :   0.8681 B(  0-C ,  9-H ) :   0.9384 B(  0-C , 10-H ) :   0.9252
B(  0-C , 11-H ) :   0.9225 B(  1-C ,  2-N ) :   0.8852 B(  1-C ,  3-C ) :   0.9432
B(  1-C ,  5-C ) :   1.1099 B(  1-C ,  6-C ) :  -0.1621 B(  2-N , 12-H ) :   0.8841
B(  2-N , 13-H ) :   0.8823 B(  3-C ,  4-N ) :   2.8584 B(  5-C ,  6-C ) :   2.5037
B(  5-C ,  7-C ) :   0.1056 B(  5-C ,  8-C ) :   0.1172 B(  6-C ,  7-C ) :   1.2654
B(  7-C ,  8-C ) :   2.5370 B(  8-C , 14-H ) :   0.8837

MP2 TOTAL ENERGY:     -378.925180220 Eh
FINAL SINGLE POINT ENERGY      -378.925180220206

DIPOLE MOMENT
-------------
                                X             Y             Z
Electronic contribution:     -0.88683      -4.26848      -3.74193
Nuclear contribution   :      1.80691       4.64428       3.80903
                        -----------------------------------------
Total Dipole Moment    :      0.92007       0.37580       0.06710
                        -----------------------------------------
Magnitude (a.u.)       :      0.99613
Magnitude (Debye)      :      2.53195

                             ****ORCA TERMINATED NORMALLY****
TOTAL RUN TIME: 0 days 0 hours 14 minutes 24 seconds 70 msec
