                         Program Version 3.0.3 - RELEASE   -
|  1> ! RI-MP2 RIJK def2-TZVP def2-TZVP/C def2-TZVP/JK TIGHTSCF
|  2> % maxcore 2000
|  3> % mp2 density relaxed end
|  4> *xyz 0 1
|  5>  C        0.0271661115     1.4880719663     0.1282191253
|  6>  C        0.0466664068    -0.0423229784     0.2357515648
|  7>  C       -1.3465343688    -0.6413916239     0.0986552998
|  8>  C       -2.0788635427    -0.7687589123    -1.2798523945
|  9>  C       -1.1478191483    -1.9671849277    -1.6339295974
| 10>  C       -1.5659262624    -2.1854612002    -0.1545235726
| 11>  C       -3.0197825914    -1.7975396185    -0.5889094483
| 12>  C       -1.1767227451    -3.2952691943     0.7561155496
| 13>  O       -0.4015159896    -4.1752854529     0.4717035649
| 14>  H        1.0286949185     1.9058074790     0.2677827767
| 15>  H       -0.3361561753     1.8127616942    -0.8525760412
| 16>  H       -0.6276872774     1.9312343646     0.8866290072
| 17>  H        0.7335728619    -0.4509955039    -0.5113913203
| 18>  H        0.4559164998    -0.3316359143     1.2124174862
| 19>  H       -1.9954803683    -0.2434668893     0.8890608408
| 20>  H       -2.3816210763     0.0445284232    -1.9405053280
| 21>  H       -1.5445432446    -2.6908787785    -2.3496595969
| 22>  H       -0.0976631194    -1.7599528036    -1.8357323432
| 23>  H       -3.6831218470    -1.4163375683     0.1919626694
| 24>  H       -3.5259979618    -2.5149085616    -1.2393654400
| 25>  H       -1.6608608503    -3.2585219894     1.7609660277
| 26> *
| 27>
| 28>                          ****END OF INPUT****

CARTESIAN COORDINATES (ANGSTROEM)
---------------------------------
  C      0.027166    1.488072    0.128219
  C      0.046666   -0.042323    0.235752
  C     -1.346534   -0.641392    0.098655
  C     -2.078864   -0.768759   -1.279852
  C     -1.147819   -1.967185   -1.633930
  C     -1.565926   -2.185461   -0.154524
  C     -3.019783   -1.797540   -0.588909
  C     -1.176723   -3.295269    0.756116
  O     -0.401516   -4.175285    0.471704
  H      1.028695    1.905807    0.267783
  H     -0.336156    1.812762   -0.852576
  H     -0.627687    1.931234    0.886629
  H      0.733573   -0.450996   -0.511391
  H      0.455916   -0.331636    1.212417
  H     -1.995480   -0.243467    0.889061
  H     -2.381621    0.044528   -1.940505
  H     -1.544543   -2.690879   -2.349660
  H     -0.097663   -1.759953   -1.835732
  H     -3.683122   -1.416338    0.191963
  H     -3.525998   -2.514909   -1.239365
  H     -1.660861   -3.258522    1.760966

 Total Charge           Charge          ....    0
 Multiplicity           Mult            ....    1
 Number of Electrons    NEL             ....   68
 Basis Dimension        Dim             ....  351

ORBITAL ENERGIES
----------------

  NO   OCC          E(Eh)            E(eV)
   0   2.0000     -20.555113      -559.3331
   1   2.0000     -11.327902      -308.2479
   2   2.0000     -11.259394      -306.3837
   3   2.0000     -11.253836      -306.2325
   4   2.0000     -11.250094      -306.1306
   5   2.0000     -11.244580      -305.9806
   6   2.0000     -11.234267      -305.6999
   7   2.0000     -11.226960      -305.5011
   8   2.0000     -11.220131      -305.3153
   9   2.0000      -1.391504       -37.8647
  10   2.0000      -1.222856       -33.2756
  11   2.0000      -1.048599       -28.5338
  12   2.0000      -0.939037       -25.5525
  13   2.0000      -0.918483       -24.9932
  14   2.0000      -0.916322       -24.9344
  15   2.0000      -0.827397       -22.5146
  16   2.0000      -0.789877       -21.4936
  17   2.0000      -0.725636       -19.7456
  18   2.0000      -0.693722       -18.8771
  19   2.0000      -0.650698       -17.7064
  20   2.0000      -0.647237       -17.6122
  21   2.0000      -0.620306       -16.8794
  22   2.0000      -0.590567       -16.0701
  23   2.0000      -0.562095       -15.2954
  24   2.0000      -0.538926       -14.6649
  25   2.0000      -0.524447       -14.2709
  26   2.0000      -0.502786       -13.6815
  27   2.0000      -0.501095       -13.6355
  28   2.0000      -0.493904       -13.4398
  29   2.0000      -0.463850       -12.6220
  30   2.0000      -0.453106       -12.3296
  31   2.0000      -0.447233       -12.1698
  32   2.0000      -0.436937       -11.8897
  33   2.0000      -0.401643       -10.9293
  34   0.0000       0.119661         3.2561
  35   0.0000       0.136063         3.7025
  36   0.0000       0.148962         4.0535
  37   0.0000       0.162230         4.4145
  38   0.0000       0.169703         4.6179

MULLIKEN ATOMIC CHARGES
-----------------------
   0 C :   -0.393632
   1 C :   -0.209194
   2 C :   -0.098299
   3 C :   -0.144361
   4 C :   -0.212362
   5 C :    0.055214
   6 C :   -0.200638
   7 C :    0.043475
   8 O :   -0.259188
   9 H :    0.138123
  10 H :    0.127764
  11 H :    0.124949
  12 H :    0.111082
  13 H :    0.116755
  14 H :    0.098924
  15 H :    0.142295
  16 H :    0.118136
  17 H :    0.123996
  18 H :    0.118851
  19 H :    0.124471
  20 H :    0.073642
Sum of atomic charges:    0.0000000

LOEWDIN ATOMIC CHARGES
----------------------
   0 C :   -0.313643
   1 C :   -0.271402
   2 C :   -0.157564
   3 C :   -0.160124
   4 C :   -0.163430
   5 C :   -0.198676
   6 C :   -0.164634
   7 C :   -0.266074
   8 O :    0.138126
   9 H :    0.122105
  10 H :    0.121560
  11 H :    0.121198
  12 H :    0.138991
  13 H :    0.140870
  14 H :    0.149854
  15 H :    0.124596
  16 H :    0.133173
  17 H :    0.128882
  18 H :    0.130231
  19 H :    0.132001
  20 H :    0.113961

  Mayer bond orders larger than 0.1
B(  0-C ,  1-C ) :   0.9129 B(  0-C ,  9-H ) :   0.9407 B(  0-C , 10-H ) :   0.9397
B(  0-C , 11-H ) :   0.9391 B(  1-C ,  2-C ) :   0.9374 B(  1-C , 12-H ) :   0.9262
B(  1-C , 13-H ) :   0.9320 B(  2-C ,  3-C ) :   0.9004 B(  2-C ,  5-C ) :   0.8412
B(  2-C , 14-H ) :   0.9201 B(  3-C ,  4-C ) :   0.9046 B(  3-C ,  6-C ) :   0.9108
B(  3-C , 15-H ) :   0.8918 B(  4-C ,  5-C ) :   0.8542 B(  4-C , 16-H ) :   0.9269
B(  4-C , 17-H ) :   0.9293 B(  5-C ,  6-C ) :   0.8654 B(  5-C ,  7-C ) :   0.7678
B(  5-C ,  8-O ) :  -0.1262 B(  5-C , 20-H ) :  -0.1099 B(  6-C , 18-H ) :   0.9290
B(  6-C , 19-H ) :   0.9257 B(  7-C ,  8-O ) :   2.0377 B(  7-C , 20-H ) :   0.9793

MP2 TOTAL ENERGY:     -386.374342463 Eh
FINAL SINGLE POINT ENERGY      -386.374342462712

DIPOLE MOMENT
-------------
                                X             Y             Z
Electronic contribution:     -0.76444      -9.17759       1.00023
Nuclear contribution   :      0.22148      10.14051      -1.00002
                        -----------------------------------------
Total Dipole Moment    :     -0.54296       0.96292       0.00021
                        -----------------------------------------
Magnitude (a.u.)       :      1.10545
Magnitude (Debye)      :      2.80984

                             ****ORCA TERMINATED NORMALLY****
TOTAL RUN TIME: 0 days 0 hours 31 minutes 51 seconds 687 msec
