                         Program Version 3.0.3 - RELEASE   -
|  1> ! RI-MP2 RIJK def2-TZVP def2-TZVP/C def2-TZVP/JK TIGHTSCF
|  2> % maxcore 2000
|  3> % mp2 density relaxed end
|  4> *xyz 0 1
|  5>  C       -0.3117283104     1.5072953176     0.1440079619
|  6>  C        0.0254987468     0.0153723341     0.0853308996
|  7>  C        0.5001919233    -0.4282582393    -1.3051286968
|  8>  C        0.8587307638    -1.9102970953    -1.3561358184
|  9>  C        1.4479488536    -2.5427381870    -2.6579034664
| 10>  O        2.0293446580    -1.5241251185    -3.4454964342
| 11>  C        2.4910250590    -3.3351025753    -1.8083617797
| 12>  C        2.1175684507    -2.4184436591    -0.6287216433
| 13>  O        2.6507185655    -2.1387529022     0.4058356133
| 14>  H        0.5629173240     2.1195832088    -0.1018294642
| 15>  H       -1.1046205745     1.7643085862    -0.5676736986
| 16>  H       -0.6521087508     1.7997302913     1.1422302383
| 17>  H        0.8029373857    -0.2231540083     0.8191580592
| 18>  H       -0.8578483675    -0.5719904597     0.3712896709
| 19>  H       -0.2799795945    -0.2238568036    -2.0499531836
| 20>  H        1.3721676343     0.1602698003    -1.6082266355
| 21>  H        0.0093831565    -2.5208384526    -1.0186812169
| 22>  H        0.7492391644    -3.1526731008    -3.2425354846
| 23>  H        2.5313330582    -1.9402015028    -4.1532961076
| 24>  H        2.2069927038    -4.3757423822    -1.6194308646
| 25>  H        3.5303142001    -3.2995085115    -2.1448961989
| 26> *
| 27>
| 28>                          ****END OF INPUT****

CARTESIAN COORDINATES (ANGSTROEM)
---------------------------------
  C     -0.311728    1.507295    0.144008
  C      0.025499    0.015372    0.085331
  C      0.500192   -0.428258   -1.305129
  C      0.858731   -1.910297   -1.356136
  C      1.447949   -2.542738   -2.657903
  O      2.029345   -1.524125   -3.445496
  C      2.491025   -3.335103   -1.808362
  C      2.117568   -2.418444   -0.628722
  O      2.650719   -2.138753    0.405836
  H      0.562917    2.119583   -0.101829
  H     -1.104621    1.764309   -0.567674
  H     -0.652109    1.799730    1.142230
  H      0.802937   -0.223154    0.819158
  H     -0.857848   -0.571990    0.371290
  H     -0.279980   -0.223857   -2.049953
  H      1.372168    0.160270   -1.608227
  H      0.009383   -2.520838   -1.018681
  H      0.749239   -3.152673   -3.242535
  H      2.531333   -1.940202   -4.153296
  H      2.206993   -4.375742   -1.619431
  H      3.530314   -3.299509   -2.144896

 Total Charge           Charge          ....    0
 Multiplicity           Mult            ....    1
 Number of Electrons    NEL             ....   70
 Basis Dimension        Dim             ....  351

ORBITAL ENERGIES
----------------

  NO   OCC          E(Eh)            E(eV)
   0   2.0000     -20.572271      -559.8000
   1   2.0000     -20.551191      -559.2263
   2   2.0000     -11.330792      -308.3265
   3   2.0000     -11.300277      -307.4962
   4   2.0000     -11.242582      -305.9262
   5   2.0000     -11.242476      -305.9233
   6   2.0000     -11.221281      -305.3466
   7   2.0000     -11.213608      -305.1378
   8   2.0000     -11.207617      -304.9748
   9   2.0000      -1.395105       -37.9627
  10   2.0000      -1.380160       -37.5561
  11   2.0000      -1.133199       -30.8359
  12   2.0000      -1.056309       -28.7436
  13   2.0000      -0.968493       -26.3540
  14   2.0000      -0.882186       -24.0055
  15   2.0000      -0.849812       -23.1246
  16   2.0000      -0.799046       -21.7432
  17   2.0000      -0.738605       -20.0985
  18   2.0000      -0.693245       -18.8642
  19   2.0000      -0.671399       -18.2697
  20   2.0000      -0.649136       -17.6639
  21   2.0000      -0.630586       -17.1591
  22   2.0000      -0.602557       -16.3964
  23   2.0000      -0.584291       -15.8994
  24   2.0000      -0.571059       -15.5393
  25   2.0000      -0.563094       -15.3226
  26   2.0000      -0.539750       -14.6873
  27   2.0000      -0.523028       -14.2323
  28   2.0000      -0.513763       -13.9802
  29   2.0000      -0.494347       -13.4519
  30   2.0000      -0.474264       -12.9054
  31   2.0000      -0.466829       -12.7031
  32   2.0000      -0.453372       -12.3369
  33   2.0000      -0.439198       -11.9512
  34   2.0000      -0.390301       -10.6206
  35   0.0000       0.114176         3.1069
  36   0.0000       0.134929         3.6716
  37   0.0000       0.150138         4.0855
  38   0.0000       0.160190         4.3590
  39   0.0000       0.174003         4.7349

MULLIKEN ATOMIC CHARGES
-----------------------
   0 C :   -0.385770
   1 C :   -0.197033
   2 C :   -0.271925
   3 C :    0.018624
   4 C :   -0.002352
   5 O :   -0.455056
   6 C :   -0.182662
   7 C :    0.061054
   8 O :   -0.254421
   9 H :    0.125001
  10 H :    0.118295
  11 H :    0.132981
  12 H :    0.139998
  13 H :    0.096609
  14 H :    0.115564
  15 H :    0.135258
  16 H :    0.123872
  17 H :    0.100854
  18 H :    0.317745
  19 H :    0.135384
  20 H :    0.127979
Sum of atomic charges:   -0.0000000

LOEWDIN ATOMIC CHARGES
----------------------
   0 C :   -0.320866
   1 C :   -0.291863
   2 C :   -0.242451
   3 C :   -0.188633
   4 C :   -0.300269
   5 O :   -0.006688
   6 C :   -0.202207
   7 C :   -0.292222
   8 O :    0.163967
   9 H :    0.121241
  10 H :    0.118981
  11 H :    0.120482
  12 H :    0.141918
  13 H :    0.132586
  14 H :    0.142330
  15 H :    0.147288
  16 H :    0.168878
  17 H :    0.122947
  18 H :    0.178001
  19 H :    0.147729
  20 H :    0.138852

  Mayer bond orders larger than 0.1
B(  0-C ,  1-C ) :   0.9189 B(  0-C ,  9-H ) :   0.9399 B(  0-C , 10-H ) :   0.9390
B(  0-C , 11-H ) :   0.9434 B(  1-C ,  2-C ) :   0.9186 B(  1-C , 12-H ) :   0.9315
B(  1-C , 13-H ) :   0.9297 B(  2-C ,  3-C ) :   0.9005 B(  2-C , 14-H ) :   0.9333
B(  2-C , 15-H ) :   0.9276 B(  3-C ,  4-C ) :   0.8875 B(  3-C ,  6-C ) :  -0.1058
B(  3-C ,  7-C ) :   0.8247 B(  3-C , 16-H ) :   0.8888 B(  4-C ,  5-O ) :   1.0599
B(  4-C ,  6-C ) :   0.9144 B(  4-C , 17-H ) :   0.9539 B(  5-O , 18-H ) :   0.8427
B(  6-C ,  7-C ) :   0.9111 B(  6-C , 19-H ) :   0.8953 B(  6-C , 20-H ) :   0.8972
B(  7-C ,  8-O ) :   2.0258

MP2 TOTAL ENERGY:     -423.526985758 Eh
FINAL SINGLE POINT ENERGY      -423.526985758480

DIPOLE MOMENT
-------------
                                X             Y             Z
Electronic contribution:      6.15405      -6.58410      -1.18642
Nuclear contribution   :     -6.53127       5.85722       0.16038
                        -----------------------------------------
Total Dipole Moment    :     -0.37722      -0.72688      -1.02603
                        -----------------------------------------
Magnitude (a.u.)       :      1.31278
Magnitude (Debye)      :      3.33682

                             ****ORCA TERMINATED NORMALLY****
TOTAL RUN TIME: 0 days 0 hours 18 minutes 29 seconds 348 msec
