                         Program Version 3.0.3 - RELEASE   -
|  1> ! RI-MP2 RIJK def2-TZVP def2-TZVP/C def2-TZVP/JK TIGHTSCF
|  2> % maxcore 2000
|  3> % mp2 density relaxed end
|  4> *xyz 0 1
|  5>  C       -0.1210068879     1.5440524112    -0.1068053557
|  6>  C       -0.2320414470     0.0337769675    -0.3300570886
|  7>  C        1.0330614526    -0.5687988413    -0.9552519521
|  8>  C        0.9338102532    -2.0674518759    -1.1552710516
|  9>  C        0.2638212364    -2.6412481489    -2.3887344219
| 10>  C        1.7519361788    -2.7733258126    -2.1932780883
| 11>  O        2.6247837158    -1.9711984468    -2.9679232522
| 12>  C        2.8003329678    -2.3431667373    -4.2543857702
| 13>  O        3.5376092342    -1.7648632948    -4.9939044652
| 14>  H        0.7112344603     1.7854486687     0.5636090814
| 15>  H        0.0535822528     2.0716451347    -1.0510055892
| 16>  H       -1.0350852151     1.9496224579     0.3376643835
| 17>  H       -0.4377349347    -0.4653056797     0.6262270661
| 18>  H       -1.0924461249    -0.1832511560    -0.9758589873
| 19>  H        1.2407417869    -0.0835163643    -1.9150250350
| 20>  H        1.8972935330    -0.3495303721    -0.3141774147
| 21>  H        0.7910614227    -2.6332884458    -0.2376661860
| 22>  H       -0.3509089115    -3.5306777333    -2.3069972052
| 23>  H       -0.0653355627    -1.9300377589    -3.1396762536
| 24>  H        2.1728666609    -3.7461436588    -1.9554370697
| 25>  H        2.1922819687    -3.2250146737    -4.5305541247
| 26> *
| 27>
| 28>                          ****END OF INPUT****

CARTESIAN COORDINATES (ANGSTROEM)
---------------------------------
  C     -0.121007    1.544052   -0.106805
  C     -0.232041    0.033777   -0.330057
  C      1.033061   -0.568799   -0.955252
  C      0.933810   -2.067452   -1.155271
  C      0.263821   -2.641248   -2.388734
  C      1.751936   -2.773326   -2.193278
  O      2.624784   -1.971198   -2.967923
  C      2.800333   -2.343167   -4.254386
  O      3.537609   -1.764863   -4.993904
  H      0.711234    1.785449    0.563609
  H      0.053582    2.071645   -1.051006
  H     -1.035085    1.949622    0.337664
  H     -0.437735   -0.465306    0.626227
  H     -1.092446   -0.183251   -0.975859
  H      1.240742   -0.083516   -1.915025
  H      1.897294   -0.349530   -0.314177
  H      0.791061   -2.633288   -0.237666
  H     -0.350909   -3.530678   -2.306997
  H     -0.065336   -1.930038   -3.139676
  H      2.172867   -3.746144   -1.955437
  H      2.192282   -3.225015   -4.530554

 Total Charge           Charge          ....    0
 Multiplicity           Mult            ....    1
 Number of Electrons    NEL             ....   70
 Basis Dimension        Dim             ....  351

ORBITAL ENERGIES
----------------

  NO   OCC          E(Eh)            E(eV)
   0   2.0000     -20.610137      -560.8303
   1   2.0000     -20.551592      -559.2373
   2   2.0000     -11.382172      -309.7246
   3   2.0000     -11.307516      -307.6931
   4   2.0000     -11.249610      -306.1174
   5   2.0000     -11.245174      -305.9967
   6   2.0000     -11.228265      -305.5366
   7   2.0000     -11.224781      -305.4418
   8   2.0000     -11.215559      -305.1909
   9   2.0000      -1.464376       -39.8477
  10   2.0000      -1.375585       -37.4316
  11   2.0000      -1.162989       -31.6465
  12   2.0000      -1.059584       -28.8327
  13   2.0000      -0.949954       -25.8496
  14   2.0000      -0.892485       -24.2857
  15   2.0000      -0.831378       -22.6229
  16   2.0000      -0.823050       -22.3963
  17   2.0000      -0.791894       -21.5485
  18   2.0000      -0.726394       -19.7662
  19   2.0000      -0.696157       -18.9434
  20   2.0000      -0.667440       -18.1620
  21   2.0000      -0.637587       -17.3496
  22   2.0000      -0.616437       -16.7741
  23   2.0000      -0.607093       -16.5198
  24   2.0000      -0.581997       -15.8370
  25   2.0000      -0.555882       -15.1263
  26   2.0000      -0.549750       -14.9594
  27   2.0000      -0.529165       -14.3993
  28   2.0000      -0.499951       -13.6044
  29   2.0000      -0.494111       -13.4454
  30   2.0000      -0.478896       -13.0314
  31   2.0000      -0.475415       -12.9367
  32   2.0000      -0.462417       -12.5830
  33   2.0000      -0.422345       -11.4926
  34   2.0000      -0.418703       -11.3935
  35   0.0000       0.129750         3.5307
  36   0.0000       0.134702         3.6654
  37   0.0000       0.152149         4.1402
  38   0.0000       0.160330         4.3628
  39   0.0000       0.167360         4.5541

MULLIKEN ATOMIC CHARGES
-----------------------
   0 C :   -0.385060
   1 C :   -0.191968
   2 C :   -0.257945
   3 C :   -0.058466
   4 C :   -0.299637
   5 C :   -0.010201
   6 O :   -0.210556
   7 C :    0.190890
   8 O :   -0.267829
   9 H :    0.123555
  10 H :    0.125595
  11 H :    0.134244
  12 H :    0.103076
  13 H :    0.111052
  14 H :    0.133021
  15 H :    0.120906
  16 H :    0.126725
  17 H :    0.141179
  18 H :    0.148861
  19 H :    0.134661
  20 H :    0.087897
Sum of atomic charges:    0.0000000

LOEWDIN ATOMIC CHARGES
----------------------
   0 C :   -0.320115
   1 C :   -0.291452
   2 C :   -0.246430
   3 C :   -0.205383
   4 C :   -0.210040
   5 C :   -0.275503
   6 O :    0.267267
   7 C :   -0.440277
   8 O :    0.122623
   9 H :    0.120955
  10 H :    0.121462
  11 H :    0.120873
  12 H :    0.134197
  13 H :    0.135270
  14 H :    0.146269
  15 H :    0.144516
  16 H :    0.153082
  17 H :    0.134034
  18 H :    0.142907
  19 H :    0.138420
  20 H :    0.107323

  Mayer bond orders larger than 0.1
B(  0-C ,  1-C ) :   0.9239 B(  0-C ,  9-H ) :   0.9387 B(  0-C , 10-H ) :   0.9396
B(  0-C , 11-H ) :   0.9431 B(  1-C ,  2-C ) :   0.9267 B(  1-C , 12-H ) :   0.9289
B(  1-C , 13-H ) :   0.9353 B(  2-C ,  3-C ) :   0.9213 B(  2-C , 14-H ) :   0.9291
B(  2-C , 15-H ) :   0.9285 B(  3-C ,  4-C ) :   0.8784 B(  3-C ,  5-C ) :   0.8928
B(  3-C , 16-H ) :   0.9185 B(  4-C ,  5-C ) :   0.9018 B(  4-C , 17-H ) :   0.9215
B(  4-C , 18-H ) :   0.9199 B(  5-C ,  6-O ) :   0.9014 B(  5-C , 19-H ) :   0.9384
B(  6-O ,  7-C ) :   1.0436 B(  7-C ,  8-O ) :   2.0303 B(  7-C , 20-H ) :   0.9220

MP2 TOTAL ENERGY:     -423.524122733 Eh
FINAL SINGLE POINT ENERGY      -423.524122733203

DIPOLE MOMENT
-------------
                                X             Y             Z
Electronic contribution:      9.13023      -6.48755      -9.60081
Nuclear contribution   :    -10.23075       5.75149      10.48673
                        -----------------------------------------
Total Dipole Moment    :     -1.10051      -0.73607       0.88592
                        -----------------------------------------
Magnitude (a.u.)       :      1.59304
Magnitude (Debye)      :      4.04919

                             ****ORCA TERMINATED NORMALLY****
TOTAL RUN TIME: 0 days 0 hours 16 minutes 8 seconds 455 msec
