                         Program Version 3.0.3 - RELEASE   -
|  1> ! RI-MP2 RIJK def2-TZVP def2-TZVP/C def2-TZVP/JK TIGHTSCF
|  2> % maxcore 2000
|  3> % mp2 density relaxed end
|  4> *xyz 0 1
|  5>  C       -0.0146409706     1.6957482476     0.3274041458
|  6>  C       -0.0282660994     0.2136214712     0.0137208529
|  7>  C       -1.3286657260    -0.2765926636    -0.5541726040
|  8>  C       -1.5572786274    -0.4073446626    -1.9991734066
|  9>  O       -1.3294738480    -1.5617318543    -1.1832126792
| 10>  C        1.2475083921    -0.4768326078    -0.4567894711
| 11>  O        2.4395898598     0.2405363500    -0.5379347004
| 12>  C        0.6961770731    -0.7605573174     0.9205401380
| 13>  O        1.4140276866    -0.1993665395     1.9937140679
| 14>  H        0.9554369731     2.0172865649     0.7057452331
| 15>  H       -0.2328963142     2.2768955809    -0.5747470124
| 16>  H       -0.7682333219     1.9452214846     1.0824577119
| 17>  H       -2.2010194516    -0.1005705853     0.0801044668
| 18>  H       -2.5646698323    -0.3165288944    -2.4017320316
| 19>  H       -0.7510795497    -0.1608877570    -2.6879838661
| 20>  H        1.1603284852    -1.2409859850    -1.2217883930
| 21>  H        2.6948505998     0.4383800109     0.3739763053
| 22>  H        0.2227269162    -1.7181341006     1.1266342753
| 23>  H        2.0043622751    -0.8793637827     2.3365262576
| 24> *
| 25>
| 26>                          ****END OF INPUT****

CARTESIAN COORDINATES (ANGSTROEM)
---------------------------------
  C     -0.014641    1.695748    0.327404
  C     -0.028266    0.213621    0.013721
  C     -1.328666   -0.276593   -0.554173
  C     -1.557279   -0.407345   -1.999173
  O     -1.329474   -1.561732   -1.183213
  C      1.247508   -0.476833   -0.456789
  O      2.439590    0.240536   -0.537935
  C      0.696177   -0.760557    0.920540
  O      1.414028   -0.199367    1.993714
  H      0.955437    2.017287    0.705745
  H     -0.232896    2.276896   -0.574747
  H     -0.768233    1.945221    1.082458
  H     -2.201019   -0.100571    0.080104
  H     -2.564670   -0.316529   -2.401732
  H     -0.751080   -0.160888   -2.687984
  H      1.160328   -1.240986   -1.221788
  H      2.694851    0.438380    0.373976
  H      0.222727   -1.718134    1.126634
  H      2.004362   -0.879364    2.336526

 Total Charge           Charge          ....    0
 Multiplicity           Mult            ....    1
 Number of Electrons    NEL             ....   70
 Basis Dimension        Dim             ....  339

ORBITAL ENERGIES
----------------

  NO   OCC          E(Eh)            E(eV)
   0   2.0000     -20.583393      -560.1026
   1   2.0000     -20.572349      -559.8021
   2   2.0000     -20.558989      -559.4385
   3   2.0000     -11.292717      -307.2904
   4   2.0000     -11.287957      -307.1609
   5   2.0000     -11.284913      -307.0781
   6   2.0000     -11.280075      -306.9464
   7   2.0000     -11.243296      -305.9456
   8   2.0000     -11.221791      -305.3605
   9   2.0000      -1.415735       -38.5241
  10   2.0000      -1.397989       -38.0412
  11   2.0000      -1.361058       -37.0363
  12   2.0000      -1.137375       -30.9496
  13   2.0000      -0.980154       -26.6714
  14   2.0000      -0.930637       -25.3239
  15   2.0000      -0.875962       -23.8361
  16   2.0000      -0.831187       -22.6178
  17   2.0000      -0.764000       -20.7895
  18   2.0000      -0.730507       -19.8781
  19   2.0000      -0.709167       -19.2974
  20   2.0000      -0.689939       -18.7742
  21   2.0000      -0.646890       -17.6028
  22   2.0000      -0.627570       -17.0771
  23   2.0000      -0.595593       -16.2069
  24   2.0000      -0.586566       -15.9613
  25   2.0000      -0.558190       -15.1891
  26   2.0000      -0.551205       -14.9991
  27   2.0000      -0.543927       -14.8010
  28   2.0000      -0.530006       -14.4222
  29   2.0000      -0.517504       -14.0820
  30   2.0000      -0.503603       -13.7037
  31   2.0000      -0.465654       -12.6711
  32   2.0000      -0.454526       -12.3683
  33   2.0000      -0.390851       -10.6356
  34   2.0000      -0.377596       -10.2749
  35   0.0000       0.124764         3.3950
  36   0.0000       0.150830         4.1043
  37   0.0000       0.168417         4.5829
  38   0.0000       0.172685         4.6990
  39   0.0000       0.185226         5.0403

MULLIKEN ATOMIC CHARGES
-----------------------
   0 C :   -0.382964
   1 C :    0.016694
   2 C :    0.028995
   3 C :   -0.086374
   4 O :   -0.344413
   5 C :    0.038731
   6 O :   -0.466478
   7 C :   -0.047237
   8 O :   -0.477701
   9 H :    0.127203
  10 H :    0.138011
  11 H :    0.137310
  12 H :    0.129947
  13 H :    0.121347
  14 H :    0.129095
  15 H :    0.148540
  16 H :    0.329237
  17 H :    0.127125
  18 H :    0.332932
Sum of atomic charges:    0.0000000

LOEWDIN ATOMIC CHARGES
----------------------
   0 C :   -0.253338
   1 C :   -0.242891
   2 C :   -0.252287
   3 C :   -0.254889
   4 O :    0.146392
   5 C :   -0.284820
   6 O :    0.003569
   7 C :   -0.280158
   8 O :   -0.006799
   9 H :    0.130518
  10 H :    0.131835
  11 H :    0.130586
  12 H :    0.143120
  13 H :    0.120173
  14 H :    0.124538
  15 H :    0.144177
  16 H :    0.177629
  17 H :    0.138135
  18 H :    0.184511

  Mayer bond orders larger than 0.1
B(  0-C ,  1-C ) :   0.9336 B(  0-C ,  9-H ) :   0.9130 B(  0-C , 10-H ) :   0.9368
B(  0-C , 11-H ) :   0.9438 B(  1-C ,  2-C ) :   0.8891 B(  1-C ,  5-C ) :   0.8509
B(  1-C ,  7-C ) :   0.8445 B(  2-C ,  3-C ) :   0.9790 B(  2-C ,  4-O ) :   0.8841
B(  2-C , 12-H ) :   0.9123 B(  3-C ,  4-O ) :   0.8938 B(  3-C , 13-H ) :   0.9235
B(  3-C , 14-H ) :   0.9071 B(  5-C ,  6-O ) :   0.9780 B(  5-C ,  7-C ) :   0.9116
B(  5-C , 15-H ) :   0.9200 B(  6-O , 16-H ) :   0.8200 B(  7-C ,  8-O ) :   1.0389
B(  7-C , 17-H ) :   0.9286 B(  8-O , 18-H ) :   0.8357

MP2 TOTAL ENERGY:     -459.381107568 Eh
FINAL SINGLE POINT ENERGY      -459.381107567654

DIPOLE MOMENT
-------------
                                X             Y             Z
Electronic contribution:      1.40033      -3.66814       0.24382
Nuclear contribution   :     -1.58087       3.70634       0.18766
                        -----------------------------------------
Total Dipole Moment    :     -0.18054       0.03821       0.43148
                        -----------------------------------------
Magnitude (a.u.)       :      0.46928
Magnitude (Debye)      :      1.19282

                             ****ORCA TERMINATED NORMALLY****
TOTAL RUN TIME: 0 days 0 hours 17 minutes 34 seconds 0 msec
