                         Program Version 3.0.3 - RELEASE   -
|  1> ! RI-MP2 RIJK def2-TZVP def2-TZVP/C def2-TZVP/JK TIGHTSCF
|  2> % maxcore 2000
|  3> % mp2 density relaxed end
|  4> *xyz 0 1
|  5>  O        0.0345190555     1.4465007737     0.0132870392
|  6>  C        0.0121059752     0.0396349461     0.0319081683
|  7>  C       -1.3577416841    -0.6130529214    -0.3037494721
|  8>  C       -1.5068395209    -0.1010338854    -1.7552188357
|  9>  O       -0.1433693853    -0.0533668092    -2.2546682651
| 10>  C        0.6850803122    -0.6008028743    -1.1958151215
| 11>  C        0.3748774589    -2.0848146009    -1.0890275318
| 12>  C        0.1600768708    -2.7044620027     0.2715914212
| 13>  C       -1.0135420983    -2.0965675047    -0.4528488947
| 14>  H        0.0440212051     1.7078603177    -0.9163782721
| 15>  H        0.4161652260    -0.2644534530     0.9957992259
| 16>  H       -2.1858015828    -0.3569466369     0.3577862944
| 17>  H       -2.1067286759    -0.7719053325    -2.3794464035
| 18>  H       -1.9364074651     0.9056084746    -1.8057426632
| 19>  H        1.7160606649    -0.3123025462    -1.4030663743
| 20>  H        0.6263681509    -2.7161204695    -1.9331102329
| 21>  H        0.1742873568    -3.7892376219     0.2874708881
| 22>  H        0.5761426321    -2.2623076923     1.1686503121
| 23>  H       -1.7900023160    -2.7589445812    -0.8208522422
| 24> *
| 25>
| 26>                          ****END OF INPUT****

CARTESIAN COORDINATES (ANGSTROEM)
---------------------------------
  O      0.034519    1.446501    0.013287
  C      0.012106    0.039635    0.031908
  C     -1.357742   -0.613053   -0.303749
  C     -1.506840   -0.101034   -1.755219
  O     -0.143369   -0.053367   -2.254668
  C      0.685080   -0.600803   -1.195815
  C      0.374877   -2.084815   -1.089028
  C      0.160077   -2.704462    0.271591
  C     -1.013542   -2.096568   -0.452849
  H      0.044021    1.707860   -0.916378
  H      0.416165   -0.264453    0.995799
  H     -2.185802   -0.356947    0.357786
  H     -2.106729   -0.771905   -2.379446
  H     -1.936407    0.905608   -1.805743
  H      1.716061   -0.312303   -1.403066
  H      0.626368   -2.716120   -1.933110
  H      0.174287   -3.789238    0.287471
  H      0.576143   -2.262308    1.168650
  H     -1.790002   -2.758945   -0.820852

 Total Charge           Charge          ....    0
 Multiplicity           Mult            ....    1
 Number of Electrons    NEL             ....   68
 Basis Dimension        Dim             ....  339

ORBITAL ENERGIES
----------------

  NO   OCC          E(Eh)            E(eV)
   0   2.0000     -20.557427      -559.3960
   1   2.0000     -20.555129      -559.3335
   2   2.0000     -11.285929      -307.1057
   3   2.0000     -11.281402      -306.9826
   4   2.0000     -11.277586      -306.8787
   5   2.0000     -11.241263      -305.8903
   6   2.0000     -11.239320      -305.8374
   7   2.0000     -11.238945      -305.8272
   8   2.0000     -11.236746      -305.7674
   9   2.0000      -1.393344       -37.9148
  10   2.0000      -1.348456       -36.6933
  11   2.0000      -1.177942       -32.0534
  12   2.0000      -1.035027       -28.1645
  13   2.0000      -0.995325       -27.0842
  14   2.0000      -0.868072       -23.6214
  15   2.0000      -0.851199       -23.1623
  16   2.0000      -0.782445       -21.2914
  17   2.0000      -0.750107       -20.4114
  18   2.0000      -0.729163       -19.8415
  19   2.0000      -0.695981       -18.9386
  20   2.0000      -0.667484       -18.1632
  21   2.0000      -0.630657       -17.1610
  22   2.0000      -0.587556       -15.9882
  23   2.0000      -0.573555       -15.6072
  24   2.0000      -0.567532       -15.4433
  25   2.0000      -0.562520       -15.3070
  26   2.0000      -0.537082       -14.6147
  27   2.0000      -0.519568       -14.1382
  28   2.0000      -0.494883       -13.4664
  29   2.0000      -0.488736       -13.2992
  30   2.0000      -0.458725       -12.4825
  31   2.0000      -0.409866       -11.1530
  32   2.0000      -0.405763       -11.0414
  33   2.0000      -0.398310       -10.8386
  34   0.0000       0.143724         3.9109
  35   0.0000       0.157936         4.2977
  36   0.0000       0.160689         4.3726
  37   0.0000       0.169400         4.6096
  38   0.0000       0.191171         5.2020

MULLIKEN ATOMIC CHARGES
-----------------------
   0 O :   -0.460119
   1 C :   -0.033764
   2 C :    0.038801
   3 C :   -0.144143
   4 O :   -0.352082
   5 C :    0.119786
   6 C :   -0.172428
   7 C :   -0.261884
   8 C :   -0.194995
   9 H :    0.331648
  10 H :    0.111738
  11 H :    0.131320
  12 H :    0.110413
  13 H :    0.125218
  14 H :    0.129128
  15 H :    0.126528
  16 H :    0.134177
  17 H :    0.132067
  18 H :    0.128592
Sum of atomic charges:   -0.0000000

LOEWDIN ATOMIC CHARGES
----------------------
   0 O :   -0.001234
   1 C :   -0.297414
   2 C :   -0.204191
   3 C :   -0.258799
   4 O :    0.137986
   5 C :   -0.260961
   6 C :   -0.171204
   7 C :   -0.201098
   8 C :   -0.171348
   9 H :    0.182202
  10 H :    0.144716
  11 H :    0.148279
  12 H :    0.126379
  13 H :    0.121592
  14 H :    0.143072
  15 H :    0.145149
  16 H :    0.140998
  17 H :    0.131234
  18 H :    0.144641

  Mayer bond orders larger than 0.1
B(  0-O ,  1-C ) :   0.9955 B(  0-O ,  9-H ) :   0.8193 B(  1-C ,  2-C ) :   0.8586
B(  1-C ,  5-C ) :   0.9538 B(  1-C , 10-H ) :   0.9437 B(  2-C ,  3-C ) :   0.8955
B(  2-C ,  8-C ) :   0.8792 B(  2-C , 11-H ) :   0.9036 B(  3-C ,  4-O ) :   0.9120
B(  3-C , 12-H ) :   0.9156 B(  3-C , 13-H ) :   0.9365 B(  4-O ,  5-C ) :   0.8645
B(  5-C ,  6-C ) :   0.9456 B(  5-C , 14-H ) :   0.9172 B(  6-C ,  7-C ) :   0.8857
B(  6-C ,  8-C ) :   0.8733 B(  6-C , 15-H ) :   0.9249 B(  7-C ,  8-C ) :   0.9048
B(  7-C , 16-H ) :   0.9299 B(  7-C , 17-H ) :   0.9136 B(  8-C , 18-H ) :   0.9251

MP2 TOTAL ENERGY:     -422.316526898 Eh
FINAL SINGLE POINT ENERGY      -422.316526898379

DIPOLE MOMENT
-------------
                                X             Y             Z
Electronic contribution:      1.10725       2.78560      -1.07942
Nuclear contribution   :     -1.35476      -3.49327       1.10284
                        -----------------------------------------
Total Dipole Moment    :     -0.24752      -0.70767       0.02342
                        -----------------------------------------
Magnitude (a.u.)       :      0.75007
Magnitude (Debye)      :      1.90653

                             ****ORCA TERMINATED NORMALLY****
TOTAL RUN TIME: 0 days 0 hours 18 minutes 45 seconds 566 msec
