                         Program Version 3.0.3 - RELEASE   -
|  1> ! RI-MP2 RIJK def2-TZVP def2-TZVP/C def2-TZVP/JK TIGHTSCF
|  2> % maxcore 2000
|  3> % mp2 density relaxed end
|  4> *xyz 0 1
|  5>  C       -0.0003758205     1.5746099625     0.0987511852
|  6>  C        0.0384544626     0.0445540730     0.0799647616
|  7>  C       -1.3444924162    -0.5880135011     0.0935918008
|  8>  C       -1.3696154008    -2.1331044266     0.1028164960
|  9>  O       -2.3993836878    -2.4732555024     1.0233683093
| 10>  C       -2.9950761202    -1.2625334873     1.4693207293
| 11>  C       -3.4074091546    -1.3767775894     2.9192720145
| 12>  O       -2.0192567006    -0.2624237637     1.3058582191
| 13>  H        1.0102529385     1.9932817711     0.1073647717
| 14>  H       -0.5180833320     1.9681075251    -0.7830261681
| 15>  H       -0.5285140973     1.9343727366     0.9856182790
| 16>  H        0.5670395382    -0.3093991827    -0.8143520436
| 17>  H        0.5938082773    -0.3313113916     0.9477569461
| 18>  H       -1.9346109913    -0.2138000819    -0.7605592357
| 19>  H       -1.5844730330    -2.5469760335    -0.8901682087
| 20>  H       -0.4195553542    -2.5520431863     0.4581856039
| 21>  H       -3.8672486540    -1.0349005913     0.8256729171
| 22>  H       -2.5291477180    -1.5837668348     3.5353612496
| 23>  H       -3.8712725657    -0.4446865595     3.2523136641
| 24>  H       -4.1276270903    -2.1902064560     3.0365004790
| 25> *
| 26>
| 27>                          ****END OF INPUT****

CARTESIAN COORDINATES (ANGSTROEM)
---------------------------------
  C     -0.000376    1.574610    0.098751
  C      0.038454    0.044554    0.079965
  C     -1.344492   -0.588014    0.093592
  C     -1.369615   -2.133104    0.102816
  O     -2.399384   -2.473256    1.023368
  C     -2.995076   -1.262533    1.469321
  C     -3.407409   -1.376778    2.919272
  O     -2.019257   -0.262424    1.305858
  H      1.010253    1.993282    0.107365
  H     -0.518083    1.968108   -0.783026
  H     -0.528514    1.934373    0.985618
  H      0.567040   -0.309399   -0.814352
  H      0.593808   -0.331311    0.947757
  H     -1.934611   -0.213800   -0.760559
  H     -1.584473   -2.546976   -0.890168
  H     -0.419555   -2.552043    0.458186
  H     -3.867249   -1.034901    0.825673
  H     -2.529148   -1.583767    3.535361
  H     -3.871273   -0.444687    3.252314
  H     -4.127627   -2.190206    3.036500

 Total Charge           Charge          ....    0
 Multiplicity           Mult            ....    1
 Number of Electrons    NEL             ....   64
 Basis Dimension        Dim             ....  320

ORBITAL ENERGIES
----------------

  NO   OCC          E(Eh)            E(eV)
   0   2.0000     -20.560860      -559.4895
   1   2.0000     -20.555591      -559.3461
   2   2.0000     -11.328573      -308.2662
   3   2.0000     -11.284146      -307.0572
   4   2.0000     -11.276986      -306.8624
   5   2.0000     -11.227780      -305.5234
   6   2.0000     -11.214272      -305.1559
   7   2.0000     -11.213729      -305.1411
   8   2.0000      -1.435945       -39.0741
   9   2.0000      -1.328729       -36.1566
  10   2.0000      -1.080798       -29.4100
  11   2.0000      -1.015581       -27.6354
  12   2.0000      -0.950486       -25.8640
  13   2.0000      -0.869017       -23.6472
  14   2.0000      -0.822239       -22.3743
  15   2.0000      -0.802797       -21.8452
  16   2.0000      -0.711642       -19.3648
  17   2.0000      -0.666357       -18.1325
  18   2.0000      -0.660006       -17.9597
  19   2.0000      -0.617751       -16.8099
  20   2.0000      -0.595474       -16.2037
  21   2.0000      -0.577176       -15.7058
  22   2.0000      -0.562639       -15.3102
  23   2.0000      -0.541264       -14.7285
  24   2.0000      -0.535337       -14.5673
  25   2.0000      -0.525046       -14.2872
  26   2.0000      -0.513129       -13.9629
  27   2.0000      -0.493914       -13.4401
  28   2.0000      -0.485773       -13.2186
  29   2.0000      -0.463365       -12.6088
  30   2.0000      -0.435658       -11.8549
  31   2.0000      -0.419097       -11.4042
  32   0.0000       0.139522         3.7966
  33   0.0000       0.158341         4.3087
  34   0.0000       0.163042         4.4366
  35   0.0000       0.163848         4.4585
  36   0.0000       0.198589         5.4039

MULLIKEN ATOMIC CHARGES
-----------------------
   0 C :   -0.392694
   1 C :   -0.199628
   2 C :    0.020058
   3 C :   -0.001142
   4 O :   -0.316310
   5 C :    0.201778
   6 C :   -0.348716
   7 O :   -0.304523
   8 H :    0.133054
   9 H :    0.118339
  10 H :    0.146107
  11 H :    0.110698
  12 H :    0.113798
  13 H :    0.079392
  14 H :    0.097375
  15 H :    0.094753
  16 H :    0.057207
  17 H :    0.125628
  18 H :    0.131103
  19 H :    0.133722
Sum of atomic charges:    0.0000000

LOEWDIN ATOMIC CHARGES
----------------------
   0 C :   -0.315420
   1 C :   -0.276565
   2 C :   -0.319696
   3 C :   -0.281351
   4 O :    0.160904
   5 C :   -0.423807
   6 C :   -0.288072
   7 O :    0.201031
   8 H :    0.121078
   9 H :    0.120776
  10 H :    0.126863
  11 H :    0.141840
  12 H :    0.142004
  13 H :    0.136429
  14 H :    0.121153
  15 H :    0.123980
  16 H :    0.121019
  17 H :    0.128591
  18 H :    0.128933
  19 H :    0.130310

  Mayer bond orders larger than 0.1
B(  0-C ,  1-C ) :   0.9227 B(  0-C ,  8-H ) :   0.9395 B(  0-C ,  9-H ) :   0.9365
B(  0-C , 10-H ) :   0.9374 B(  1-C ,  2-C ) :   0.9264 B(  1-C , 11-H ) :   0.9305
B(  1-C , 12-H ) :   0.9279 B(  2-C ,  3-C ) :   0.9403 B(  2-C ,  7-O ) :   0.9246
B(  2-C , 13-H ) :   0.9297 B(  3-C ,  4-O ) :   0.9521 B(  3-C , 14-H ) :   0.9148
B(  3-C , 15-H ) :   0.9179 B(  4-O ,  5-C ) :   0.9650 B(  5-C ,  6-C ) :   0.9219
B(  5-C ,  7-O ) :   0.9836 B(  5-C , 16-H ) :   0.9264 B(  6-C , 17-H ) :   0.9320
B(  6-C , 18-H ) :   0.9332 B(  6-C , 19-H ) :   0.9325

MP2 TOTAL ENERGY:     -385.522020639 Eh
FINAL SINGLE POINT ENERGY      -385.522020639310

DIPOLE MOMENT
-------------
                                X             Y             Z
Electronic contribution:     -2.76654      -3.93038       0.41610
Nuclear contribution   :      2.94045       4.11657      -0.82795
                        -----------------------------------------
Total Dipole Moment    :      0.17391       0.18619      -0.41185
                        -----------------------------------------
Magnitude (a.u.)       :      0.48428
Magnitude (Debye)      :      1.23095

                             ****ORCA TERMINATED NORMALLY****
TOTAL RUN TIME: 0 days 0 hours 12 minutes 43 seconds 847 msec
