                         Program Version 3.0.3 - RELEASE   -
|  1> ! RI-MP2 RIJK def2-TZVP def2-TZVP/C def2-TZVP/JK TIGHTSCF
|  2> % maxcore 2000
|  3> % mp2 density relaxed end
|  4> *xyz 0 1
|  5>  N        0.1055572749     1.2967821186    -0.0820995307
|  6>  C       -0.0360842826    -0.0425081702    -0.0309970913
|  7>  N       -1.1580648110    -0.6478801350    -0.0045795145
|  8>  C       -1.1663903795    -2.0561955126     0.0014673936
|  9>  O       -2.1911565131    -2.6838746258     0.0161406206
| 10>  N        0.0934355223    -2.7207446882    -0.0056529876
| 11>  C        1.1396106504    -2.0054491222    -0.0232689510
| 12>  O        2.3754272694    -2.4888380692    -0.0283630479
| 13>  O        1.2032689369    -0.6518616664    -0.0397542705
| 14>  H        1.0069475709     1.7081402882     0.0881410243
| 15>  H       -0.7240427821     1.8490142298     0.0526672034
| 16>  H        2.2851160836    -3.4531539671    -0.0168921085
| 17> *
| 18>
| 19>                          ****END OF INPUT****

CARTESIAN COORDINATES (ANGSTROEM)
---------------------------------
  N      0.105557    1.296782   -0.082100
  C     -0.036084   -0.042508   -0.030997
  N     -1.158065   -0.647880   -0.004580
  C     -1.166390   -2.056196    0.001467
  O     -2.191157   -2.683875    0.016141
  N      0.093436   -2.720745   -0.005653
  C      1.139611   -2.005449   -0.023269
  O      2.375427   -2.488838   -0.028363
  O      1.203269   -0.651862   -0.039754
  H      1.006948    1.708140    0.088141
  H     -0.724043    1.849014    0.052667
  H      2.285116   -3.453154   -0.016892

 Total Charge           Charge          ....    0
 Multiplicity           Mult            ....    1
 Number of Electrons    NEL             ....   66
 Basis Dimension        Dim             ....  297

ORBITAL ENERGIES
----------------

  NO   OCC          E(Eh)            E(eV)
   0   2.0000     -20.684271      -562.8476
   1   2.0000     -20.651281      -561.9499
   2   2.0000     -20.523875      -558.4830
   3   2.0000     -15.624634      -425.1679
   4   2.0000     -15.577512      -423.8856
   5   2.0000     -15.567423      -423.6111
   6   2.0000     -11.454160      -311.6835
   7   2.0000     -11.433826      -311.1302
   8   2.0000     -11.381221      -309.6988
   9   2.0000      -1.556010       -42.3412
  10   2.0000      -1.465975       -39.8912
  11   2.0000      -1.396720       -38.0067
  12   2.0000      -1.300923       -35.3999
  13   2.0000      -1.263501       -34.3816
  14   2.0000      -1.202372       -32.7182
  15   2.0000      -0.971464       -26.4349
  16   2.0000      -0.905138       -24.6301
  17   2.0000      -0.817750       -22.2521
  18   2.0000      -0.807564       -21.9749
  19   2.0000      -0.743144       -20.2220
  20   2.0000      -0.737316       -20.0634
  21   2.0000      -0.718261       -19.5449
  22   2.0000      -0.709163       -19.2973
  23   2.0000      -0.663500       -18.0548
  24   2.0000      -0.631656       -17.1882
  25   2.0000      -0.620698       -16.8900
  26   2.0000      -0.578153       -15.7324
  27   2.0000      -0.536098       -14.5880
  28   2.0000      -0.516394       -14.0518
  29   2.0000      -0.464976       -12.6527
  30   2.0000      -0.433976       -11.8091
  31   2.0000      -0.431859       -11.7515
  32   2.0000      -0.406579       -11.0636
  33   0.0000       0.110556         3.0084
  34   0.0000       0.127400         3.4667
  35   0.0000       0.131406         3.5757
  36   0.0000       0.148545         4.0421
  37   0.0000       0.165874         4.5137

MULLIKEN ATOMIC CHARGES
-----------------------
   0 N :   -0.480874
   1 C :    0.373640
   2 N :   -0.284575
   3 C :    0.241005
   4 O :   -0.267181
   5 N :   -0.283727
   6 C :    0.378382
   7 O :   -0.379381
   8 O :   -0.230699
   9 H :    0.280938
  10 H :    0.287696
  11 H :    0.364775
Sum of atomic charges:    0.0000000

LOEWDIN ATOMIC CHARGES
----------------------
   0 N :    0.010608
   1 C :   -0.433229
   2 N :    0.116754
   3 C :   -0.495228
   4 O :    0.140973
   5 N :    0.109476
   6 C :   -0.498504
   7 O :    0.128708
   8 O :    0.328147
   9 H :    0.183248
  10 H :    0.190246
  11 H :    0.218802

  Mayer bond orders larger than 0.1
B(  0-N ,  1-C ) :   1.2029 B(  0-N ,  9-H ) :   0.8584 B(  0-N , 10-H ) :   0.8551
B(  1-C ,  2-N ) :   1.7097 B(  1-C ,  8-O ) :   0.9731 B(  2-N ,  3-C ) :   1.0817
B(  3-C ,  4-O ) :   2.0523 B(  3-C ,  5-N ) :   1.0347 B(  5-N ,  6-C ) :   1.7188
B(  6-C ,  7-O ) :   1.1852 B(  6-C ,  8-O ) :   1.0470 B(  7-O , 11-H ) :   0.7993

MP2 TOTAL ENERGY:     -505.238321181 Eh
FINAL SINGLE POINT ENERGY      -505.238321181178

DIPOLE MOMENT
-------------
                                X             Y             Z
Electronic contribution:     -0.35477      -2.30421      -0.02184
Nuclear contribution   :      2.18838       3.81827       0.17366
                        -----------------------------------------
Total Dipole Moment    :      1.83361       1.51406       0.15182
                        -----------------------------------------
Magnitude (a.u.)       :      2.38276
Magnitude (Debye)      :      6.05650

                             ****ORCA TERMINATED NORMALLY****
TOTAL RUN TIME: 0 days 0 hours 10 minutes 50 seconds 362 msec
