                         Program Version 3.0.3 - RELEASE   -
|  1> ! RI-MP2 RIJK def2-TZVP def2-TZVP/C def2-TZVP/JK TIGHTSCF
|  2> % maxcore 2000
|  3> % mp2 density relaxed end
|  4> *xyz 0 1
|  5>  C       -0.4594641051     1.6466343392     0.1820400110
|  6>  C        0.0558121751     0.1988060199     0.1641123599
|  7>  O        0.7371922459    -0.0903960517     1.3526869939
|  8>  C       -1.0564400646    -0.8197452269    -0.0600301958
|  9>  O       -1.2544572029    -1.6979637038     0.7450649713
| 10>  C       -1.8891489941    -0.7317545810    -1.3635491842
| 11>  C       -2.2757685119    -2.1347864680    -1.8684988463
| 12>  C       -3.0763098606     0.0888424401    -1.1096250080
| 13>  N       -4.0148783288     0.7319945471    -0.9058204419
| 14>  H        0.3856452080     2.3080154538     0.3860229487
| 15>  H       -0.9054319943     1.9405913528    -0.7720077105
| 16>  H       -1.2014382860     1.7790841714     0.9735101892
| 17>  H        0.7398012752     0.0864160451    -0.6987312046
| 18>  H        0.3106402253    -0.8782278652     1.7233315370
| 19>  H       -1.2908781039    -0.2092938464    -2.1192234704
| 20>  H       -2.9045115266    -2.0589263958    -2.7577304082
| 21>  H       -1.3734702592    -2.6976325710    -2.1201966718
| 22>  H       -2.8149393414    -2.6760307595    -1.0902540195
| 23> *
| 24>
| 25>                          ****END OF INPUT****

CARTESIAN COORDINATES (ANGSTROEM)
---------------------------------
  C     -0.459464    1.646634    0.182040
  C      0.055812    0.198806    0.164112
  O      0.737192   -0.090396    1.352687
  C     -1.056440   -0.819745   -0.060030
  O     -1.254457   -1.697964    0.745065
  C     -1.889149   -0.731755   -1.363549
  C     -2.275769   -2.134786   -1.868499
  C     -3.076310    0.088842   -1.109625
  N     -4.014878    0.731995   -0.905820
  H      0.385645    2.308015    0.386023
  H     -0.905432    1.940591   -0.772008
  H     -1.201438    1.779084    0.973510
  H      0.739801    0.086416   -0.698731
  H      0.310640   -0.878228    1.723332
  H     -1.290878   -0.209294   -2.119223
  H     -2.904512   -2.058926   -2.757730
  H     -1.373470   -2.697633   -2.120197
  H     -2.814939   -2.676031   -1.090254

 Total Charge           Charge          ....    0
 Multiplicity           Mult            ....    1
 Number of Electrons    NEL             ....   68
 Basis Dimension        Dim             ....  333

ORBITAL ENERGIES
----------------

  NO   OCC          E(Eh)            E(eV)
   0   2.0000     -20.590575      -560.2980
   1   2.0000     -20.567084      -559.6588
   2   2.0000     -15.587950      -424.1697
   3   2.0000     -11.371247      -309.4274
   4   2.0000     -11.317268      -307.9585
   5   2.0000     -11.316066      -307.9258
   6   2.0000     -11.291538      -307.2584
   7   2.0000     -11.259348      -306.3824
   8   2.0000     -11.240458      -305.8684
   9   2.0000      -1.442839       -39.2617
  10   2.0000      -1.376506       -37.4566
  11   2.0000      -1.237393       -33.6712
  12   2.0000      -1.122005       -30.5313
  13   2.0000      -1.049982       -28.5715
  14   2.0000      -0.946594       -25.7581
  15   2.0000      -0.898558       -24.4510
  16   2.0000      -0.793058       -21.5802
  17   2.0000      -0.751100       -20.4385
  18   2.0000      -0.729964       -19.8633
  19   2.0000      -0.685537       -18.6544
  20   2.0000      -0.664622       -18.0853
  21   2.0000      -0.619128       -16.8473
  22   2.0000      -0.602618       -16.3981
  23   2.0000      -0.586016       -15.9463
  24   2.0000      -0.570223       -15.5166
  25   2.0000      -0.568246       -15.4628
  26   2.0000      -0.562389       -15.3034
  27   2.0000      -0.552347       -15.0301
  28   2.0000      -0.547082       -14.8869
  29   2.0000      -0.537487       -14.6258
  30   2.0000      -0.494023       -13.4431
  31   2.0000      -0.474315       -12.9068
  32   2.0000      -0.461501       -12.5581
  33   2.0000      -0.438383       -11.9290
  34   0.0000       0.097578         2.6552
  35   0.0000       0.105967         2.8835
  36   0.0000       0.152562         4.1514
  37   0.0000       0.155637         4.2351
  38   0.0000       0.169035         4.5997

MULLIKEN ATOMIC CHARGES
-----------------------
   0 C :   -0.366505
   1 C :    0.038709
   2 O :   -0.470546
   3 C :    0.221117
   4 O :   -0.298121
   5 C :    0.056150
   6 C :   -0.391234
   7 C :   -0.230192
   8 N :   -0.046124
   9 H :    0.152611
  10 H :    0.131434
  11 H :    0.139992
  12 H :    0.107033
  13 H :    0.336633
  14 H :    0.150952
  15 H :    0.156833
  16 H :    0.146506
  17 H :    0.164752
Sum of atomic charges:   -0.0000000

LOEWDIN ATOMIC CHARGES
----------------------
   0 C :   -0.276936
   1 C :   -0.363015
   2 O :    0.000919
   3 C :   -0.268031
   4 O :    0.175220
   5 C :   -0.233696
   6 C :   -0.255544
   7 C :   -0.170141
   8 N :    0.074895
   9 H :    0.133589
  10 H :    0.127407
  11 H :    0.132633
  12 H :    0.152423
  13 H :    0.183583
  14 H :    0.182082
  15 H :    0.133708
  16 H :    0.132113
  17 H :    0.138791

  Mayer bond orders larger than 0.1
B(  0-C ,  1-C ) :   0.8640 B(  0-C ,  9-H ) :   0.9264 B(  0-C , 10-H ) :   0.9205
B(  0-C , 11-H ) :   0.9238 B(  1-C ,  2-O ) :   1.0778 B(  1-C ,  3-C ) :   0.9553
B(  1-C , 12-H ) :   0.9284 B(  2-O , 13-H ) :   0.8048 B(  3-C ,  4-O ) :   1.9034
B(  3-C ,  5-C ) :   0.8187 B(  5-C ,  6-C ) :   0.8847 B(  5-C ,  7-C ) :   0.9086
B(  5-C , 14-H ) :   0.9084 B(  6-C , 15-H ) :   0.9321 B(  6-C , 16-H ) :   0.9347
B(  6-C , 17-H ) :   0.9228 B(  7-C ,  8-N ) :   2.8571

MP2 TOTAL ENERGY:     -438.398387738 Eh
FINAL SINGLE POINT ENERGY      -438.398387737520

DIPOLE MOMENT
-------------
                                X             Y             Z
Electronic contribution:     -2.57607      -0.96807       2.67806
Nuclear contribution   :      3.35562       0.50964      -3.75730
                        -----------------------------------------
Total Dipole Moment    :      0.77955      -0.45843      -1.07924
                        -----------------------------------------
Magnitude (a.u.)       :      1.40805
Magnitude (Debye)      :      3.57899

                             ****ORCA TERMINATED NORMALLY****
TOTAL RUN TIME: 0 days 0 hours 18 minutes 27 seconds 754 msec
