                         Program Version 3.0.3 - RELEASE   -
|  1> ! RI-MP2 RIJK def2-TZVP def2-TZVP/C def2-TZVP/JK TIGHTSCF
|  2> % maxcore 2000
|  3> % mp2 density relaxed end
|  4> *xyz 0 1
|  5>  C        0.0021861065     1.0106358494     0.4187214386
|  6>  O       -0.2349049114     0.0136930465    -0.5613558903
|  7>  C       -1.3938418658    -0.7077896391    -0.3302039298
|  8>  C       -1.4004034794    -2.1353438782    -0.8114703000
|  9>  C       -1.3957792309    -1.8337321008     0.6748559858
| 10>  O       -0.2044330910    -2.0118244402     1.3783166753
| 11>  C       -2.6496088268    -2.0997500767     1.5022422344
| 12>  C       -2.6949226812    -3.4848017927     1.9646049775
| 13>  C       -2.6632736087    -4.6296609564     2.3315583472
| 14>  H        0.9127156237     1.5360907376     0.1216119354
| 15>  H       -0.8256238889     1.7351161662     0.4635702977
| 16>  H        0.1448450090     0.5670722432     1.4110369269
| 17>  H       -2.3165600014    -0.1277588138    -0.4201680780
| 18>  H       -2.2922262397    -2.5353731075    -1.2814444092
| 19>  H       -0.4574773056    -2.4811655370    -1.2193531291
| 20>  H       -0.1536891128    -2.9440487473     1.6240487111
| 21>  H       -2.6561642921    -1.4241289009     2.3671724462
| 22>  H       -3.5437817036    -1.8715444957     0.9102230067
| 23>  H       -2.6691681301    -5.6394636767     2.6601672734
| 24> *
| 25>
| 26>                          ****END OF INPUT****

CARTESIAN COORDINATES (ANGSTROEM)
---------------------------------
  C      0.002186    1.010636    0.418721
  O     -0.234905    0.013693   -0.561356
  C     -1.393842   -0.707790   -0.330204
  C     -1.400403   -2.135344   -0.811470
  C     -1.395779   -1.833732    0.674856
  O     -0.204433   -2.011824    1.378317
  C     -2.649609   -2.099750    1.502242
  C     -2.694923   -3.484802    1.964605
  C     -2.663274   -4.629661    2.331558
  H      0.912716    1.536091    0.121612
  H     -0.825624    1.735116    0.463570
  H      0.144845    0.567072    1.411037
  H     -2.316560   -0.127759   -0.420168
  H     -2.292226   -2.535373   -1.281444
  H     -0.457477   -2.481166   -1.219353
  H     -0.153689   -2.944049    1.624049
  H     -2.656164   -1.424129    2.367172
  H     -3.543782   -1.871544    0.910223
  H     -2.669168   -5.639464    2.660167

 Total Charge           Charge          ....    0
 Multiplicity           Mult            ....    1
 Number of Electrons    NEL             ....   68
 Basis Dimension        Dim             ....  339

ORBITAL ENERGIES
----------------

  NO   OCC          E(Eh)            E(eV)
   0   2.0000     -20.564844      -559.5979
   1   2.0000     -20.558716      -559.4311
   2   2.0000     -11.297016      -307.4074
   3   2.0000     -11.284977      -307.0798
   4   2.0000     -11.265251      -306.5431
   5   2.0000     -11.263720      -306.5014
   6   2.0000     -11.243830      -305.9602
   7   2.0000     -11.230897      -305.6082
   8   2.0000     -11.225733      -305.4677
   9   2.0000      -1.393241       -37.9120
  10   2.0000      -1.368056       -37.2267
  11   2.0000      -1.135265       -30.8921
  12   2.0000      -1.066118       -29.0105
  13   2.0000      -0.977615       -26.6022
  14   2.0000      -0.925096       -25.1731
  15   2.0000      -0.828302       -22.5392
  16   2.0000      -0.792116       -21.5546
  17   2.0000      -0.732445       -19.9308
  18   2.0000      -0.703416       -19.1409
  19   2.0000      -0.680287       -18.5115
  20   2.0000      -0.659553       -17.9474
  21   2.0000      -0.630093       -17.1457
  22   2.0000      -0.625169       -17.0117
  23   2.0000      -0.612567       -16.6688
  24   2.0000      -0.601705       -16.3732
  25   2.0000      -0.566719       -15.4212
  26   2.0000      -0.538543       -14.6545
  27   2.0000      -0.506930       -13.7943
  28   2.0000      -0.502767       -13.6810
  29   2.0000      -0.459795       -12.5117
  30   2.0000      -0.420883       -11.4528
  31   2.0000      -0.398115       -10.8333
  32   2.0000      -0.390240       -10.6190
  33   2.0000      -0.383060       -10.4236
  34   0.0000       0.129084         3.5126
  35   0.0000       0.153544         4.1781
  36   0.0000       0.160647         4.3714
  37   0.0000       0.165851         4.5130
  38   0.0000       0.174805         4.7567

MULLIKEN ATOMIC CHARGES
-----------------------
   0 C :   -0.216704
   1 O :   -0.296198
   2 C :    0.033767
   3 C :   -0.292070
   4 C :    0.214216
   5 O :   -0.465512
   6 C :   -0.325952
   7 C :   -0.061768
   8 C :   -0.160712
   9 H :    0.138055
  10 H :    0.104558
  11 H :    0.137656
  12 H :    0.098330
  13 H :    0.134181
  14 H :    0.140491
  15 H :    0.331665
  16 H :    0.144304
  17 H :    0.149715
  18 H :    0.191977
Sum of atomic charges:   -0.0000000

LOEWDIN ATOMIC CHARGES
----------------------
   0 C :   -0.340606
   1 O :    0.177667
   2 C :   -0.292032
   3 C :   -0.186371
   4 C :   -0.351146
   5 O :    0.040596
   6 C :   -0.214203
   7 C :   -0.110877
   8 C :   -0.105753
   9 H :    0.113250
  10 H :    0.100411
  11 H :    0.108624
  12 H :    0.134345
  13 H :    0.135795
  14 H :    0.147220
  15 H :    0.188695
  16 H :    0.163403
  17 H :    0.163405
  18 H :    0.127576

  Mayer bond orders larger than 0.1
B(  0-C ,  1-O ) :   0.8900 B(  0-C ,  9-H ) :   0.9408 B(  0-C , 10-H ) :   0.9320
B(  0-C , 11-H ) :   0.9341 B(  1-O ,  2-C ) :   1.0505 B(  2-C ,  3-C ) :   0.8926
B(  2-C ,  4-C ) :   0.8409 B(  2-C , 12-H ) :   0.9617 B(  3-C ,  4-C ) :   0.8831
B(  3-C , 13-H ) :   0.9071 B(  3-C , 14-H ) :   0.9158 B(  4-C ,  5-O ) :   0.9845
B(  4-C ,  6-C ) :   0.9092 B(  5-O , 15-H ) :   0.8304 B(  6-C ,  7-C ) :   1.0661
B(  6-C , 16-H ) :   0.9088 B(  6-C , 17-H ) :   0.9387 B(  7-C ,  8-C ) :   2.6139
B(  8-C , 18-H ) :   0.9070

MP2 TOTAL ENERGY:     -422.243809101 Eh
FINAL SINGLE POINT ENERGY      -422.243809101453

DIPOLE MOMENT
-------------
                                X             Y             Z
Electronic contribution:     -0.01330      -3.58836       0.65325
Nuclear contribution   :     -0.51277       3.41417      -0.38802
                        -----------------------------------------
Total Dipole Moment    :     -0.52607      -0.17419       0.26523
                        -----------------------------------------
Magnitude (a.u.)       :      0.61436
Magnitude (Debye)      :      1.56158

                             ****ORCA TERMINATED NORMALLY****
TOTAL RUN TIME: 0 days 0 hours 28 minutes 35 seconds 419 msec
