                         Program Version 3.0.3 - RELEASE   -
|  1> ! RI-MP2 RIJK def2-TZVP def2-TZVP/C def2-TZVP/JK TIGHTSCF
|  2> % maxcore 2000
|  3> % mp2 density relaxed end
|  4> *xyz 0 1
|  5>  C       -0.0215744178     1.4276424889     0.0517578958
|  6>  N       -0.1271769650    -0.0235210065     0.0969226286
|  7>  C        0.6009192045    -0.7084436119     1.0451840833
|  8>  N        1.2046325946    -0.0775799373     2.0324916277
|  9>  O        1.7662314758    -1.1198850493     2.8204837592
| 10>  C        1.4798871157    -2.2944189389     2.2479211978
| 11>  N        2.0162352186    -3.4068148541     2.8623241753
| 12>  C        0.7388513049    -2.1322408408     1.1128576246
| 13>  C        0.1804276480    -3.1558373344     0.1774757748
| 14>  H        0.9998762118     1.7803902593    -0.1482130397
| 15>  H       -0.6920985332     1.8067493235    -0.7229698772
| 16>  H       -0.3294032834     1.8391537071     1.0158862262
| 17>  H       -0.1352607161    -0.4731266336    -0.8061496837
| 18>  H        2.1924085650    -3.2695890769     3.8485953718
| 19>  H        1.5076118856    -4.2612625359     2.6854934666
| 20>  H       -0.8613777181    -2.9311266451    -0.0800835137
| 21>  H        0.7417751017    -3.2262240078    -0.7639548402
| 22>  H        0.1900174774    -4.1559738062     0.6238904028
| 23> *
| 24>
| 25>                          ****END OF INPUT****

CARTESIAN COORDINATES (ANGSTROEM)
---------------------------------
  C     -0.021574    1.427642    0.051758
  N     -0.127177   -0.023521    0.096923
  C      0.600919   -0.708444    1.045184
  N      1.204633   -0.077580    2.032492
  O      1.766231   -1.119885    2.820484
  C      1.479887   -2.294419    2.247921
  N      2.016235   -3.406815    2.862324
  C      0.738851   -2.132241    1.112858
  C      0.180428   -3.155837    0.177476
  H      0.999876    1.780390   -0.148213
  H     -0.692099    1.806749   -0.722970
  H     -0.329403    1.839154    1.015886
  H     -0.135261   -0.473127   -0.806150
  H      2.192409   -3.269589    3.848595
  H      1.507612   -4.261263    2.685493
  H     -0.861378   -2.931127   -0.080084
  H      0.741775   -3.226224   -0.763955
  H      0.190017   -4.155974    0.623890

 Total Charge           Charge          ....    0
 Multiplicity           Mult            ....    1
 Number of Electrons    NEL             ....   68
 Basis Dimension        Dim             ....  333

ORBITAL ENERGIES
----------------

  NO   OCC          E(Eh)            E(eV)
   0   2.0000     -20.613834      -560.9309
   1   2.0000     -15.588334      -424.1801
   2   2.0000     -15.574441      -423.8021
   3   2.0000     -15.573892      -423.7871
   4   2.0000     -11.341251      -308.6111
   5   2.0000     -11.300502      -307.5023
   6   2.0000     -11.250757      -306.1487
   7   2.0000     -11.238150      -305.8056
   8   2.0000     -11.216325      -305.2117
   9   2.0000      -1.466120       -39.8952
  10   2.0000      -1.257969       -34.2311
  11   2.0000      -1.229930       -33.4681
  12   2.0000      -1.109990       -30.2044
  13   2.0000      -1.060214       -28.8499
  14   2.0000      -0.948104       -25.7992
  15   2.0000      -0.929312       -25.2879
  16   2.0000      -0.800195       -21.7744
  17   2.0000      -0.783239       -21.3130
  18   2.0000      -0.720172       -19.5969
  19   2.0000      -0.691606       -18.8196
  20   2.0000      -0.662872       -18.0377
  21   2.0000      -0.647382       -17.6162
  22   2.0000      -0.609579       -16.5875
  23   2.0000      -0.596523       -16.2322
  24   2.0000      -0.576571       -15.6893
  25   2.0000      -0.574313       -15.6279
  26   2.0000      -0.560934       -15.2638
  27   2.0000      -0.535077       -14.5602
  28   2.0000      -0.528767       -14.3885
  29   2.0000      -0.496922       -13.5219
  30   2.0000      -0.463070       -12.6008
  31   2.0000      -0.449646       -12.2355
  32   2.0000      -0.347341        -9.4516
  33   2.0000      -0.315632        -8.5888
  34   0.0000       0.117638         3.2011
  35   0.0000       0.136037         3.7017
  36   0.0000       0.165228         4.4961
  37   0.0000       0.172248         4.6871
  38   0.0000       0.186581         5.0771

MULLIKEN ATOMIC CHARGES
-----------------------
   0 C :   -0.282050
   1 N :   -0.353208
   2 C :    0.210485
   3 N :   -0.208656
   4 O :   -0.146788
   5 C :    0.261522
   6 N :   -0.512518
   7 C :   -0.139070
   8 C :   -0.421672
   9 H :    0.130602
  10 H :    0.132442
  11 H :    0.152565
  12 H :    0.233958
  13 H :    0.264217
  14 H :    0.253008
  15 H :    0.155677
  16 H :    0.151579
  17 H :    0.117907
Sum of atomic charges:    0.0000000

LOEWDIN ATOMIC CHARGES
----------------------
   0 C :   -0.322593
   1 N :    0.046387
   2 C :   -0.355393
   3 N :    0.009831
   4 O :    0.259001
   5 C :   -0.370624
   6 N :   -0.059676
   7 C :   -0.204801
   8 C :   -0.279569
   9 H :    0.110274
  10 H :    0.115163
  11 H :    0.125207
  12 H :    0.183598
  13 H :    0.178186
  14 H :    0.174039
  15 H :    0.133366
  16 H :    0.129597
  17 H :    0.128010

  Mayer bond orders larger than 0.1
B(  0-C ,  1-N ) :   0.9038 B(  0-C ,  9-H ) :   0.9359 B(  0-C , 10-H ) :   0.9320
B(  0-C , 11-H ) :   0.9340 B(  1-N ,  2-C ) :   1.0794 B(  1-N , 12-H ) :   0.8706
B(  2-C ,  3-N ) :   1.5977 B(  2-C ,  7-C ) :   1.1636 B(  3-N ,  4-O ) :   0.8066
B(  4-O ,  5-C ) :   1.1655 B(  5-C ,  6-N ) :   1.0795 B(  5-C ,  7-C ) :   1.5088
B(  6-N , 13-H ) :   0.8670 B(  6-N , 14-H ) :   0.8729 B(  7-C ,  8-C ) :   0.8560
B(  8-C , 15-H ) :   0.9452 B(  8-C , 16-H ) :   0.9372 B(  8-C , 17-H ) :   0.9306

MP2 TOTAL ENERGY:     -434.536777759 Eh
FINAL SINGLE POINT ENERGY      -434.536777759266

DIPOLE MOMENT
-------------
                                X             Y             Z
Electronic contribution:      3.46028       0.18288       5.76668
Nuclear contribution   :     -3.96590      -1.29982      -6.38660
                        -----------------------------------------
Total Dipole Moment    :     -0.50562      -1.11693      -0.61992
                        -----------------------------------------
Magnitude (a.u.)       :      1.37386
Magnitude (Debye)      :      3.49208

                             ****ORCA TERMINATED NORMALLY****
TOTAL RUN TIME: 0 days 0 hours 17 minutes 55 seconds 533 msec
