                         Program Version 3.0.3 - RELEASE   -
|  1> ! RI-MP2 RIJK def2-TZVP def2-TZVP/C def2-TZVP/JK TIGHTSCF
|  2> % maxcore 2000
|  3> % mp2 density relaxed end
|  4> *xyz 0 1
|  5>  O       -0.0926449357     1.4306683386    -0.0497205615
|  6>  C       -0.0246073018     0.0260639414     0.0214697307
|  7>  C        0.2452110792    -0.6432526235     1.4435669346
|  8>  C       -1.1123955760    -1.3364878063     1.3145244171
|  9>  N       -2.1050353967    -0.2413165231     1.2535366696
| 10>  C       -1.4008419803    -0.6597476265     0.0205281421
| 11>  C        0.8569524667    -0.5231588556    -1.0060408436
| 12>  C        1.6086745408    -0.9362610257    -1.8490693359
| 13>  H        0.7952324990     1.7623646985    -0.2209290666
| 14>  H        1.1080912361    -1.3095946220     1.4362682986
| 15>  H        0.3103247939     0.0771031475     2.2613223874
| 16>  H       -1.3834361134    -2.3316204990     1.6414178328
| 17>  H       -3.0310847632    -0.6667225823     1.2083761975
| 18>  H       -1.9421280872    -0.9945295022    -0.8552794743
| 19>  H        2.2648334386    -1.3066034998    -2.5979293185
| 20> *
| 21>
| 22>                          ****END OF INPUT****

CARTESIAN COORDINATES (ANGSTROEM)
---------------------------------
  O     -0.092645    1.430668   -0.049721
  C     -0.024607    0.026064    0.021470
  C      0.245211   -0.643253    1.443567
  C     -1.112396   -1.336488    1.314524
  N     -2.105035   -0.241317    1.253537
  C     -1.400842   -0.659748    0.020528
  C      0.856952   -0.523159   -1.006041
  C      1.608675   -0.936261   -1.849069
  H      0.795232    1.762365   -0.220929
  H      1.108091   -1.309595    1.436268
  H      0.310325    0.077103    2.261322
  H     -1.383436   -2.331620    1.641418
  H     -3.031085   -0.666723    1.208376
  H     -1.942128   -0.994530   -0.855279
  H      2.264833   -1.306603   -2.597929

 Total Charge           Charge          ....    0
 Multiplicity           Mult            ....    1
 Number of Electrons    NEL             ....   58
 Basis Dimension        Dim             ....  290

ORBITAL ENERGIES
----------------

  NO   OCC          E(Eh)            E(eV)
   0   2.0000     -20.562577      -559.5362
   1   2.0000     -15.565330      -423.5542
   2   2.0000     -11.321115      -308.0632
   3   2.0000     -11.268274      -306.6253
   4   2.0000     -11.267534      -306.6052
   5   2.0000     -11.241982      -305.9099
   6   2.0000     -11.236031      -305.7480
   7   2.0000     -11.235585      -305.7358
   8   2.0000      -1.377328       -37.4790
   9   2.0000      -1.282821       -34.9073
  10   2.0000      -1.077337       -29.3158
  11   2.0000      -1.017458       -27.6864
  12   2.0000      -0.915896       -24.9228
  13   2.0000      -0.851958       -23.1830
  14   2.0000      -0.785805       -21.3828
  15   2.0000      -0.746726       -20.3194
  16   2.0000      -0.715486       -19.4694
  17   2.0000      -0.698866       -19.0171
  18   2.0000      -0.625296       -17.0152
  19   2.0000      -0.605155       -16.4671
  20   2.0000      -0.583340       -15.8735
  21   2.0000      -0.545097       -14.8329
  22   2.0000      -0.514831       -14.0093
  23   2.0000      -0.500150       -13.6098
  24   2.0000      -0.468694       -12.7538
  25   2.0000      -0.446328       -12.1452
  26   2.0000      -0.404074       -10.9954
  27   2.0000      -0.386157       -10.5079
  28   2.0000      -0.372419       -10.1340
  29   0.0000       0.137117         3.7311
  30   0.0000       0.146298         3.9810
  31   0.0000       0.157757         4.2928
  32   0.0000       0.164765         4.4835
  33   0.0000       0.170400         4.6368

MULLIKEN ATOMIC CHARGES
-----------------------
   0 O :   -0.449414
   1 C :    0.326334
   2 C :   -0.175699
   3 C :   -0.151078
   4 N :   -0.352426
   5 C :   -0.078379
   6 C :   -0.223125
   7 C :   -0.160503
   8 H :    0.320689
   9 H :    0.133967
  10 H :    0.108581
  11 H :    0.140471
  12 H :    0.218035
  13 H :    0.147299
  14 H :    0.195247
Sum of atomic charges:   -0.0000000

LOEWDIN ATOMIC CHARGES
----------------------
   0 O :    0.037375
   1 C :   -0.332716
   2 C :   -0.163821
   3 C :   -0.234383
   4 N :    0.014127
   5 C :   -0.189613
   6 C :   -0.073655
   7 C :   -0.083460
   8 H :    0.182668
   9 H :    0.138597
  10 H :    0.137688
  11 H :    0.129232
  12 H :    0.174399
  13 H :    0.134787
  14 H :    0.128775

  Mayer bond orders larger than 0.1
B(  0-O ,  1-C ) :   0.9406 B(  0-O ,  8-H ) :   0.8357 B(  1-C ,  2-C ) :   0.9115
B(  1-C ,  5-C ) :   0.8220 B(  1-C ,  6-C ) :   1.1298 B(  2-C ,  3-C ) :   0.9760
B(  2-C ,  9-H ) :   0.9197 B(  2-C , 10-H ) :   0.8838 B(  3-C ,  4-N ) :   1.0017
B(  3-C ,  5-C ) :   0.9141 B(  3-C , 11-H ) :   0.9199 B(  4-N ,  5-C ) :   0.9573
B(  4-N , 12-H ) :   0.8680 B(  5-C , 13-H ) :   0.9117 B(  6-C ,  7-C ) :   2.5675
B(  7-C , 14-H ) :   0.8898

MP2 TOTAL ENERGY:     -361.946330611 Eh
FINAL SINGLE POINT ENERGY      -361.946330611071

DIPOLE MOMENT
-------------
                                X             Y             Z
Electronic contribution:      0.27730       1.50802      -1.79805
Nuclear contribution   :      0.08320      -2.38935       1.55495
                        -----------------------------------------
Total Dipole Moment    :      0.36049      -0.88133      -0.24310
                        -----------------------------------------
Magnitude (a.u.)       :      0.98275
Magnitude (Debye)      :      2.49795

                             ****ORCA TERMINATED NORMALLY****
TOTAL RUN TIME: 0 days 0 hours 11 minutes 52 seconds 562 msec
