                         Program Version 3.0.3 - RELEASE   -
|  1> ! RI-MP2 RIJK def2-TZVP def2-TZVP/C def2-TZVP/JK TIGHTSCF
|  2> % maxcore 2000
|  3> % mp2 density relaxed end
|  4> *xyz 0 1
|  5>  C       -0.0458893211     1.4605573538     0.0256652991
|  6>  C        0.0704027107    -0.0493726198    -0.0020968629
|  7>  C        0.7506008984    -0.6626281569    -1.1968272989
|  8>  C        1.4417791304    -0.6387067061     0.1737851868
|  9>  C        1.4006554033    -2.1898539166     0.2230058506
| 10>  C        0.4167331097    -2.8799351763     1.1245774885
| 11>  C       -0.6717034941    -3.2792182014     0.4613578464
| 12>  C       -0.6369883805    -2.9468586309    -1.0183828582
| 13>  C        0.7100192891    -2.2031235234    -1.1838481872
| 14>  H        0.8290286327     1.9341695165    -0.4331461191
| 15>  H       -0.9317965767     1.8003678157    -0.5220619908
| 16>  H       -0.1242772981     1.8331834607     1.0528721817
| 17>  H       -0.7737085957    -0.5695460843     0.4454830403
| 18>  H        0.9735133522    -0.0627179631    -2.0726517276
| 19>  H        2.2791875411    -0.0322378781     0.5003610745
| 20>  H        2.4042957164    -2.6240625725     0.2532602601
| 21>  H        0.5762237189    -3.0163314391     2.1892168174
| 22>  H       -1.5160474677    -3.7914675994     0.9129554346
| 23>  H       -0.6913411518    -3.8550067290    -1.6324850858
| 24>  H       -1.4926873755    -2.3254122275    -1.3145238893
| 25>  H        1.3327471486    -2.6297243023    -1.9717807303
| 26> *
| 27>
| 28>                          ****END OF INPUT****

CARTESIAN COORDINATES (ANGSTROEM)
---------------------------------
  C     -0.045889    1.460557    0.025665
  C      0.070403   -0.049373   -0.002097
  C      0.750601   -0.662628   -1.196827
  C      1.441779   -0.638707    0.173785
  C      1.400655   -2.189854    0.223006
  C      0.416733   -2.879935    1.124577
  C     -0.671703   -3.279218    0.461358
  C     -0.636988   -2.946859   -1.018383
  C      0.710019   -2.203124   -1.183848
  H      0.829029    1.934170   -0.433146
  H     -0.931797    1.800368   -0.522062
  H     -0.124277    1.833183    1.052872
  H     -0.773709   -0.569546    0.445483
  H      0.973513   -0.062718   -2.072652
  H      2.279188   -0.032238    0.500361
  H      2.404296   -2.624063    0.253260
  H      0.576224   -3.016331    2.189217
  H     -1.516047   -3.791468    0.912955
  H     -0.691341   -3.855007   -1.632485
  H     -1.492687   -2.325412   -1.314524
  H      1.332747   -2.629724   -1.971781

 Total Charge           Charge          ....    0
 Multiplicity           Mult            ....    1
 Number of Electrons    NEL             ....   66
 Basis Dimension        Dim             ....  351

ORBITAL ENERGIES
----------------

  NO   OCC          E(Eh)            E(eV)
   0   2.0000     -11.226354      -305.4846
   1   2.0000     -11.224474      -305.4335
   2   2.0000     -11.223886      -305.4175
   3   2.0000     -11.223036      -305.3943
   4   2.0000     -11.222500      -305.3797
   5   2.0000     -11.221171      -305.3436
   6   2.0000     -11.218935      -305.2827
   7   2.0000     -11.216170      -305.2075
   8   2.0000     -11.214126      -305.1519
   9   2.0000      -1.193961       -32.4893
  10   2.0000      -1.093037       -29.7431
  11   2.0000      -0.991317       -26.9751
  12   2.0000      -0.962709       -26.1966
  13   2.0000      -0.906106       -24.6564
  14   2.0000      -0.834987       -22.7212
  15   2.0000      -0.774471       -21.0744
  16   2.0000      -0.728284       -19.8176
  17   2.0000      -0.704065       -19.1586
  18   2.0000      -0.671492       -18.2722
  19   2.0000      -0.656327       -17.8596
  20   2.0000      -0.616235       -16.7686
  21   2.0000      -0.565064       -15.3762
  22   2.0000      -0.560141       -15.2422
  23   2.0000      -0.536351       -14.5949
  24   2.0000      -0.521730       -14.1970
  25   2.0000      -0.511779       -13.9262
  26   2.0000      -0.502279       -13.6677
  27   2.0000      -0.491294       -13.3688
  28   2.0000      -0.461429       -12.5561
  29   2.0000      -0.442626       -12.0445
  30   2.0000      -0.391561       -10.6549
  31   2.0000      -0.357742        -9.7346
  32   2.0000      -0.339681        -9.2432
  33   0.0000       0.146453         3.9852
  34   0.0000       0.153439         4.1753
  35   0.0000       0.158520         4.3136
  36   0.0000       0.165528         4.5042
  37   0.0000       0.173884         4.7316

MULLIKEN ATOMIC CHARGES
-----------------------
   0 C :   -0.441685
   1 C :   -0.000515
   2 C :   -0.220864
   3 C :   -0.217485
   4 C :    0.032783
   5 C :   -0.207663
   6 C :   -0.208329
   7 C :   -0.208130
   8 C :   -0.016343
   9 H :    0.128166
  10 H :    0.134943
  11 H :    0.135816
  12 H :    0.131480
  13 H :    0.120901
  14 H :    0.121996
  15 H :    0.113836
  16 H :    0.122451
  17 H :    0.120142
  18 H :    0.121046
  19 H :    0.126168
  20 H :    0.111287
Sum of atomic charges:    0.0000000

LOEWDIN ATOMIC CHARGES
----------------------
   0 C :   -0.288413
   1 C :   -0.215834
   2 C :   -0.148851
   3 C :   -0.141418
   4 C :   -0.164892
   5 C :   -0.145552
   6 C :   -0.159494
   7 C :   -0.225806
   8 C :   -0.154581
   9 H :    0.127649
  10 H :    0.124738
  11 H :    0.125024
  12 H :    0.151000
  13 H :    0.135419
  14 H :    0.134773
  15 H :    0.148703
  16 H :    0.136984
  17 H :    0.134538
  18 H :    0.137153
  19 H :    0.142175
  20 H :    0.146685

  Mayer bond orders larger than 0.1
B(  0-C ,  1-C ) :   0.8750 B(  0-C ,  9-H ) :   0.9358 B(  0-C , 10-H ) :   0.9440
B(  0-C , 11-H ) :   0.9442 B(  1-C ,  2-C ) :   0.8685 B(  1-C ,  3-C ) :   0.8811
B(  1-C , 12-H ) :   0.9194 B(  2-C ,  3-C ) :   0.8225 B(  2-C ,  8-C ) :   0.9282
B(  2-C , 13-H ) :   0.9314 B(  3-C ,  4-C ) :   0.8946 B(  3-C , 14-H ) :   0.9285
B(  4-C ,  5-C ) :   0.9113 B(  4-C ,  8-C ) :   0.9989 B(  4-C , 15-H ) :   0.9166
B(  5-C ,  6-C ) :   1.7881 B(  5-C , 16-H ) :   0.9273 B(  6-C ,  7-C ) :   0.9567
B(  6-C , 17-H ) :   0.9317 B(  7-C ,  8-C ) :   0.9076 B(  7-C , 18-H ) :   0.9177
B(  7-C , 19-H ) :   0.9135 B(  8-C , 20-H ) :   0.9238

MP2 TOTAL ENERGY:     -349.283233424 Eh
FINAL SINGLE POINT ENERGY      -349.283233424258

DIPOLE MOMENT
-------------
                                X             Y             Z
Electronic contribution:      1.47401      -3.76833       0.55202
Nuclear contribution   :     -1.44762       3.80823      -0.62057
                        -----------------------------------------
Total Dipole Moment    :      0.02639       0.03991      -0.06855
                        -----------------------------------------
Magnitude (a.u.)       :      0.08360
Magnitude (Debye)      :      0.21248

                             ****ORCA TERMINATED NORMALLY****
TOTAL RUN TIME: 0 days 0 hours 20 minutes 45 seconds 362 msec
