                         Program Version 3.0.3 - RELEASE   -
|  1> ! RI-MP2 RIJK def2-TZVP def2-TZVP/C def2-TZVP/JK TIGHTSCF
|  2> % maxcore 2000
|  3> % mp2 density relaxed end
|  4> *xyz 0 1
|  5>  C       -0.0331537187     1.4981455891     0.1111675736
|  6>  C        0.0142717470    -0.0083940135     0.0421383011
|  7>  C        0.9200604964    -0.7644785387    -0.9754690065
|  8>  C        0.8326143168    -1.9082093115     0.0427928077
|  9>  C       -0.6901195966    -2.1385368552     0.4492920038
| 10>  C       -0.3191487768    -1.7526806330     1.9093722595
| 11>  C        0.7245739933    -0.8787381756     1.1985895147
| 12>  O        1.8663901868    -0.3579333041     1.7970503804
| 13>  C       -1.2950943076    -0.8183416398    -0.0747013643
| 14>  H        0.9633697802     1.9144404405     0.2986673914
| 15>  H       -0.3960026610     1.9281974955    -0.8295738816
| 16>  H       -0.7024854954     1.8450577403     0.9080869356
| 17>  H        0.5376539926    -0.9036822022    -1.9920904598
| 18>  H        1.9330711776    -0.3547893671    -1.0098840364
| 19>  H        1.5032466934    -2.7655914283     0.0768530121
| 20>  H       -1.2022858587    -3.0725743900     0.2266441562
| 21>  H       -1.0959746925    -1.2994645094     2.5354046264
| 22>  H        0.1740502794    -2.5656593330     2.4502383668
| 23>  H        1.6178957316     0.4293946126     2.2942719520
| 24>  H       -2.1032653755    -0.4496075903     0.5656242119
| 25>  H       -1.6647772623    -0.8662599165    -1.1039914347
| 26> *
| 27>
| 28>                          ****END OF INPUT****

CARTESIAN COORDINATES (ANGSTROEM)
---------------------------------
  C     -0.033154    1.498146    0.111168
  C      0.014272   -0.008394    0.042138
  C      0.920060   -0.764479   -0.975469
  C      0.832614   -1.908209    0.042793
  C     -0.690120   -2.138537    0.449292
  C     -0.319149   -1.752681    1.909372
  C      0.724574   -0.878738    1.198590
  O      1.866390   -0.357933    1.797050
  C     -1.295094   -0.818342   -0.074701
  H      0.963370    1.914440    0.298667
  H     -0.396003    1.928197   -0.829574
  H     -0.702485    1.845058    0.908087
  H      0.537654   -0.903682   -1.992090
  H      1.933071   -0.354789   -1.009884
  H      1.503247   -2.765591    0.076853
  H     -1.202286   -3.072574    0.226644
  H     -1.095975   -1.299465    2.535405
  H      0.174050   -2.565659    2.450238
  H      1.617896    0.429395    2.294272
  H     -2.103265   -0.449608    0.565624
  H     -1.664777   -0.866260   -1.103991

 Total Charge           Charge          ....    0
 Multiplicity           Mult            ....    1
 Number of Electrons    NEL             ....   68
 Basis Dimension        Dim             ....  351

ORBITAL ENERGIES
----------------

  NO   OCC          E(Eh)            E(eV)
   0   2.0000     -20.560250      -559.4728
   1   2.0000     -11.279507      -306.9310
   2   2.0000     -11.234792      -305.7142
   3   2.0000     -11.231483      -305.6242
   4   2.0000     -11.222987      -305.3930
   5   2.0000     -11.217798      -305.2518
   6   2.0000     -11.217144      -305.2340
   7   2.0000     -11.216575      -305.2185
   8   2.0000     -11.213918      -305.1462
   9   2.0000      -1.371209       -37.3125
  10   2.0000      -1.204875       -32.7863
  11   2.0000      -1.031925       -28.0801
  12   2.0000      -0.980885       -26.6912
  13   2.0000      -0.943839       -25.6832
  14   2.0000      -0.858326       -23.3562
  15   2.0000      -0.830211       -22.5912
  16   2.0000      -0.752559       -20.4782
  17   2.0000      -0.723604       -19.6903
  18   2.0000      -0.663887       -18.0653
  19   2.0000      -0.648156       -17.6372
  20   2.0000      -0.626407       -17.0454
  21   2.0000      -0.610527       -16.6133
  22   2.0000      -0.597319       -16.2539
  23   2.0000      -0.561511       -15.2795
  24   2.0000      -0.552701       -15.0398
  25   2.0000      -0.532932       -14.5018
  26   2.0000      -0.514195       -13.9919
  27   2.0000      -0.501055       -13.6344
  28   2.0000      -0.468312       -12.7434
  29   2.0000      -0.458336       -12.4719
  30   2.0000      -0.434672       -11.8280
  31   2.0000      -0.423253       -11.5173
  32   2.0000      -0.393420       -10.7055
  33   2.0000      -0.383003       -10.4220
  34   0.0000       0.128869         3.5067
  35   0.0000       0.154828         4.2131
  36   0.0000       0.164452         4.4750
  37   0.0000       0.177643         4.8339
  38   0.0000       0.193219         5.2577

MULLIKEN ATOMIC CHARGES
-----------------------
   0 C :   -0.449026
   1 C :    0.036612
   2 C :   -0.241418
   3 C :   -0.115511
   4 C :   -0.094832
   5 C :   -0.257348
   6 C :    0.156484
   7 O :   -0.458911
   8 C :   -0.244207
   9 H :    0.138325
  10 H :    0.139719
  11 H :    0.131831
  12 H :    0.110661
  13 H :    0.115474
  14 H :    0.125420
  15 H :    0.129644
  16 H :    0.108344
  17 H :    0.117824
  18 H :    0.322439
  19 H :    0.111107
  20 H :    0.117368
Sum of atomic charges:    0.0000000

LOEWDIN ATOMIC CHARGES
----------------------
   0 C :   -0.285063
   1 C :   -0.223843
   2 C :   -0.184135
   3 C :   -0.133596
   4 C :   -0.169363
   5 C :   -0.192987
   6 C :   -0.293139
   7 O :    0.028418
   8 C :   -0.184171
   9 H :    0.126811
  10 H :    0.131631
  11 H :    0.126076
  12 H :    0.124384
  13 H :    0.143975
  14 H :    0.135755
  15 H :    0.131277
  16 H :    0.122659
  17 H :    0.141758
  18 H :    0.182463
  19 H :    0.135817
  20 H :    0.135272

  Mayer bond orders larger than 0.1
B(  0-C ,  1-C ) :   0.8309 B(  0-C ,  9-H ) :   0.9484 B(  0-C , 10-H ) :   0.9397
B(  0-C , 11-H ) :   0.9407 B(  1-C ,  2-C ) :   0.9426 B(  1-C ,  6-C ) :   0.8539
B(  1-C ,  8-C ) :   0.9119 B(  2-C ,  3-C ) :   0.9582 B(  2-C , 12-H ) :   0.9151
B(  2-C , 13-H ) :   0.9054 B(  3-C ,  4-C ) :   0.8820 B(  3-C ,  6-C ) :   0.8885
B(  3-C , 14-H ) :   0.9010 B(  4-C ,  5-C ) :   0.9035 B(  4-C ,  8-C ) :   0.9237
B(  4-C , 15-H ) :   0.9155 B(  5-C ,  6-C ) :   0.9636 B(  5-C , 16-H ) :   0.9175
B(  5-C , 17-H ) :   0.9203 B(  6-C ,  7-O ) :   1.0227 B(  7-O , 18-H ) :   0.8359
B(  8-C , 19-H ) :   0.9290 B(  8-C , 20-H ) :   0.9142

MP2 TOTAL ENERGY:     -386.400213761 Eh
FINAL SINGLE POINT ENERGY      -386.400213761389

DIPOLE MOMENT
-------------
                                X             Y             Z
Electronic contribution:      2.74116      -2.37634       1.84579
Nuclear contribution   :     -3.21966       2.68137      -1.78816
                        -----------------------------------------
Total Dipole Moment    :     -0.47850       0.30503       0.05763
                        -----------------------------------------
Magnitude (a.u.)       :      0.57038
Magnitude (Debye)      :      1.44978

                             ****ORCA TERMINATED NORMALLY****
TOTAL RUN TIME: 0 days 0 hours 20 minutes 52 seconds 162 msec
