                         Program Version 3.0.3 - RELEASE   -
|  1> ! RI-MP2 RIJK def2-TZVP def2-TZVP/C def2-TZVP/JK TIGHTSCF
|  2> % maxcore 2000
|  3> % mp2 density relaxed end
|  4> *xyz 0 1
|  5>  O        0.2189500421     1.4445281287    -0.1526305282
|  6>  C        0.0599343073     0.0631025820    -0.0801529590
|  7>  C       -1.3651660690    -0.6135621348     0.0119849933
|  8>  C       -0.6918317313    -1.7367019233     0.8710112642
|  9>  C        0.0333352875    -2.7691271698    -0.0271240611
| 10>  C        0.4887136562    -2.1124035556    -1.3503122977
| 11>  C        0.9003025816    -0.6348729101    -1.1713510578
| 12>  C        0.2959108349    -0.6325358074     1.2578837528
| 13>  O        0.8193626448    -0.2624144268     2.2737974407
| 14>  H        0.2972688488     1.7745496758     0.7513331183
| 15>  H       -2.0514557462    -0.0040653431     0.6034785749
| 16>  H       -1.8379112664    -0.9045886406    -0.9268704228
| 17>  H       -1.2612139070    -2.1972904668     1.6789510521
| 18>  H        0.8871890971    -3.1791789607     0.5242748356
| 19>  H       -0.6335597705    -3.6112585892    -0.2397218211
| 20>  H        1.3072410858    -2.6835672694    -1.7979917289
| 21>  H       -0.3369029351    -2.1628900857    -2.0668588144
| 22>  H        0.7650068781    -0.0804860577    -2.1061651377
| 23>  H        1.9575573015    -0.5400705254    -0.8999304033
| 24> *
| 25>
| 26>                          ****END OF INPUT****

CARTESIAN COORDINATES (ANGSTROEM)
---------------------------------
  O      0.218950    1.444528   -0.152631
  C      0.059934    0.063103   -0.080153
  C     -1.365166   -0.613562    0.011985
  C     -0.691832   -1.736702    0.871011
  C      0.033335   -2.769127   -0.027124
  C      0.488714   -2.112404   -1.350312
  C      0.900303   -0.634873   -1.171351
  C      0.295911   -0.632536    1.257884
  O      0.819363   -0.262414    2.273797
  H      0.297269    1.774550    0.751333
  H     -2.051456   -0.004065    0.603479
  H     -1.837911   -0.904589   -0.926870
  H     -1.261214   -2.197290    1.678951
  H      0.887189   -3.179179    0.524275
  H     -0.633560   -3.611259   -0.239722
  H      1.307241   -2.683567   -1.797992
  H     -0.336903   -2.162890   -2.066859
  H      0.765007   -0.080486   -2.106165
  H      1.957557   -0.540071   -0.899930

 Total Charge           Charge          ....    0
 Multiplicity           Mult            ....    1
 Number of Electrons    NEL             ....   68
 Basis Dimension        Dim             ....  339

ORBITAL ENERGIES
----------------

  NO   OCC          E(Eh)            E(eV)
   0   2.0000     -20.569202      -559.7164
   1   2.0000     -20.558604      -559.4280
   2   2.0000     -11.330646      -308.3226
   3   2.0000     -11.301683      -307.5344
   4   2.0000     -11.252902      -306.2070
   5   2.0000     -11.244392      -305.9755
   6   2.0000     -11.243736      -305.9576
   7   2.0000     -11.237171      -305.7790
   8   2.0000     -11.236595      -305.7633
   9   2.0000      -1.405636       -38.2493
  10   2.0000      -1.376250       -37.4497
  11   2.0000      -1.172686       -31.9104
  12   2.0000      -1.042176       -28.3591
  13   2.0000      -1.003086       -27.2954
  14   2.0000      -0.883641       -24.0451
  15   2.0000      -0.835000       -22.7215
  16   2.0000      -0.827256       -22.5108
  17   2.0000      -0.732621       -19.9356
  18   2.0000      -0.694999       -18.9119
  19   2.0000      -0.668884       -18.2012
  20   2.0000      -0.659741       -17.9525
  21   2.0000      -0.626780       -17.0555
  22   2.0000      -0.597952       -16.2711
  23   2.0000      -0.575240       -15.6531
  24   2.0000      -0.564580       -15.3630
  25   2.0000      -0.559422       -15.2226
  26   2.0000      -0.550746       -14.9866
  27   2.0000      -0.540248       -14.7009
  28   2.0000      -0.508545       -13.8382
  29   2.0000      -0.490646       -13.3512
  30   2.0000      -0.471234       -12.8229
  31   2.0000      -0.463883       -12.6229
  32   2.0000      -0.425564       -11.5802
  33   2.0000      -0.389723       -10.6049
  34   0.0000       0.121822         3.3150
  35   0.0000       0.139893         3.8067
  36   0.0000       0.155439         4.2297
  37   0.0000       0.162259         4.4153
  38   0.0000       0.170184         4.6310

MULLIKEN ATOMIC CHARGES
-----------------------
   0 O :   -0.452943
   1 C :    0.291594
   2 C :   -0.326944
   3 C :    0.067966
   4 C :   -0.295986
   5 C :   -0.236562
   6 C :   -0.264338
   7 C :   -0.015903
   8 O :   -0.264240
   9 H :    0.333034
  10 H :    0.127057
  11 H :    0.134728
  12 H :    0.128374
  13 H :    0.129731
  14 H :    0.128714
  15 H :    0.135576
  16 H :    0.125041
  17 H :    0.131713
  18 H :    0.123387
Sum of atomic charges:   -0.0000000

LOEWDIN ATOMIC CHARGES
----------------------
   0 O :    0.033417
   1 C :   -0.337780
   2 C :   -0.164589
   3 C :   -0.179039
   4 C :   -0.229110
   5 C :   -0.253345
   6 C :   -0.206085
   7 C :   -0.283653
   8 O :    0.154125
   9 H :    0.189554
  10 H :    0.141931
  11 H :    0.134715
  12 H :    0.146941
  13 H :    0.142765
  14 H :    0.140253
  15 H :    0.139686
  16 H :    0.138219
  17 H :    0.147359
  18 H :    0.144636

  Mayer bond orders larger than 0.1
B(  0-O ,  1-C ) :   1.1044 B(  0-O ,  9-H ) :   0.8263 B(  1-C ,  2-C ) :   0.8599
B(  1-C ,  6-C ) :   0.8457 B(  1-C ,  7-C ) :   0.8228 B(  2-C ,  3-C ) :   0.8913
B(  2-C , 10-H ) :   0.9143 B(  2-C , 11-H ) :   0.9154 B(  3-C ,  4-C ) :   0.8475
B(  3-C ,  7-C ) :   0.8374 B(  3-C , 12-H ) :   0.9086 B(  4-C ,  5-C ) :   0.9338
B(  4-C , 13-H ) :   0.9337 B(  4-C , 14-H ) :   0.9243 B(  5-C ,  6-C ) :   0.9170
B(  5-C , 15-H ) :   0.9265 B(  5-C , 16-H ) :   0.9338 B(  6-C , 17-H ) :   0.9221
B(  6-C , 18-H ) :   0.9269 B(  7-C ,  8-O ) :   2.0355

MP2 TOTAL ENERGY:     -422.343809083 Eh
FINAL SINGLE POINT ENERGY      -422.343809082822

DIPOLE MOMENT
-------------
                                X             Y             Z
Electronic contribution:      1.28263       4.85549       5.40673
Nuclear contribution   :     -1.75664      -5.56124      -5.92874
                        -----------------------------------------
Total Dipole Moment    :     -0.47401      -0.70575      -0.52201
                        -----------------------------------------
Magnitude (a.u.)       :      0.99763
Magnitude (Debye)      :      2.53577

                             ****ORCA TERMINATED NORMALLY****
TOTAL RUN TIME: 0 days 0 hours 19 minutes 0 seconds 171 msec
