                         Program Version 3.0.3 - RELEASE   -
|  1> ! RI-MP2 RIJK def2-TZVP def2-TZVP/C def2-TZVP/JK TIGHTSCF
|  2> % maxcore 2000
|  3> % mp2 density relaxed end
|  4> *xyz 0 1
|  5>  N        0.0817255456    -1.1017078138     0.0511987661
|  6>  C        0.0105609243     0.0516023905     0.0329889776
|  7>  C       -0.0471326954     1.4871708326     0.0217273928
|  8>  N       -1.1438236320     2.1338386384     0.0964525703
|  9>  C       -0.7948228672     3.5647980134     0.0532988516
| 10>  C        0.7332709828     3.6051502790     0.0336847246
| 11>  C        1.4680713467     2.9612975280     1.1467330730
| 12>  N        1.1885224607     2.1952993824    -0.1025765886
| 13>  H       -1.2219714721     4.0070572800    -0.8537737178
| 14>  H       -1.2501308227     4.0772462639     0.9074280774
| 15>  H        1.2413027499     4.3254504587    -0.5978340064
| 16>  H        2.5180587290     3.1833030132     1.3032687218
| 17>  H        0.9145588005     2.6729431737     2.0365083175
| 18> *
| 19>
| 20>                          ****END OF INPUT****

CARTESIAN COORDINATES (ANGSTROEM)
---------------------------------
  N      0.081726   -1.101708    0.051199
  C      0.010561    0.051602    0.032989
  C     -0.047133    1.487171    0.021727
  N     -1.143824    2.133839    0.096453
  C     -0.794823    3.564798    0.053299
  C      0.733271    3.605150    0.033685
  C      1.468071    2.961298    1.146733
  N      1.188522    2.195299   -0.102577
  H     -1.221971    4.007057   -0.853774
  H     -1.250131    4.077246    0.907428
  H      1.241303    4.325450   -0.597834
  H      2.518059    3.183303    1.303269
  H      0.914559    2.672943    2.036508

 Total Charge           Charge          ....    0
 Multiplicity           Mult            ....    1
 Number of Electrons    NEL             ....   56
 Basis Dimension        Dim             ....  278

ORBITAL ENERGIES
----------------

  NO   OCC          E(Eh)            E(eV)
   0   2.0000     -15.609006      -424.7426
   1   2.0000     -15.598977      -424.4697
   2   2.0000     -15.594363      -424.3442
   3   2.0000     -11.362235      -309.1821
   4   2.0000     -11.299054      -307.4629
   5   2.0000     -11.298157      -307.4385
   6   2.0000     -11.290970      -307.2429
   7   2.0000     -11.290116      -307.2197
   8   2.0000      -1.366983       -37.1975
   9   2.0000      -1.239204       -33.7204
  10   2.0000      -1.223273       -33.2869
  11   2.0000      -1.057428       -28.7741
  12   2.0000      -0.935378       -25.4529
  13   2.0000      -0.877997       -23.8915
  14   2.0000      -0.845239       -23.0001
  15   2.0000      -0.744571       -20.2608
  16   2.0000      -0.693342       -18.8668
  17   2.0000      -0.631789       -17.1919
  18   2.0000      -0.622216       -16.9314
  19   2.0000      -0.593161       -16.1407
  20   2.0000      -0.575727       -15.6663
  21   2.0000      -0.558588       -15.1999
  22   2.0000      -0.534852       -14.5541
  23   2.0000      -0.502178       -13.6649
  24   2.0000      -0.482227       -13.1221
  25   2.0000      -0.473910       -12.8957
  26   2.0000      -0.443465       -12.0673
  27   2.0000      -0.399273       -10.8648
  28   0.0000       0.076929         2.0933
  29   0.0000       0.134235         3.6527
  30   0.0000       0.156514         4.2590
  31   0.0000       0.163215         4.4413
  32   0.0000       0.167580         4.5601

MULLIKEN ATOMIC CHARGES
-----------------------
   0 N :   -0.035858
   1 C :   -0.147758
   2 C :    0.239530
   3 N :   -0.194752
   4 C :   -0.120029
   5 C :   -0.083420
   6 C :   -0.165983
   7 N :   -0.226616
   8 H :    0.140364
   9 H :    0.144645
  10 H :    0.151089
  11 H :    0.149886
  12 H :    0.148904
Sum of atomic charges:    0.0000000

LOEWDIN ATOMIC CHARGES
----------------------
   0 N :    0.102510
   1 C :   -0.125644
   2 C :   -0.314039
   3 N :    0.155859
   4 C :   -0.250373
   5 C :   -0.225340
   6 C :   -0.205472
   7 N :    0.160131
   8 H :    0.143267
   9 H :    0.142642
  10 H :    0.145949
  11 H :    0.134091
  12 H :    0.136418

  Mayer bond orders larger than 0.1
B(  0-N ,  1-C ) :   2.8312 B(  1-C ,  2-C ) :   0.9317 B(  2-C ,  3-N ) :   1.8142
B(  2-C ,  7-N ) :   0.9929 B(  3-N ,  4-C ) :   0.9217 B(  4-C ,  5-C ) :   0.9537
B(  4-C ,  8-H ) :   0.9194 B(  4-C ,  9-H ) :   0.9146 B(  5-C ,  6-C ) :   0.9402
B(  5-C ,  7-N ) :   0.8694 B(  5-C , 10-H ) :   0.9068 B(  6-C ,  7-N ) :   0.8320
B(  6-C , 11-H ) :   0.9269 B(  6-C , 12-H ) :   0.9101

MP2 TOTAL ENERGY:     -357.006416394 Eh
FINAL SINGLE POINT ENERGY      -357.006416394072

DIPOLE MOMENT
-------------
                                X             Y             Z
Electronic contribution:     -0.80851      -6.14397      -1.41913
Nuclear contribution   :      1.16791       8.19871       1.79133
                        -----------------------------------------
Total Dipole Moment    :      0.35940       2.05473       0.37220
                        -----------------------------------------
Magnitude (a.u.)       :      2.11888
Magnitude (Debye)      :      5.38576

                             ****ORCA TERMINATED NORMALLY****
TOTAL RUN TIME: 0 days 0 hours 17 minutes 42 seconds 26 msec
