                         Program Version 3.0.3 - RELEASE   -
|  1> ! RI-MP2 RIJK def2-TZVP def2-TZVP/C def2-TZVP/JK TIGHTSCF
|  2> % maxcore 2000
|  3> % mp2 density relaxed end
|  4> *xyz 0 1
|  5>  C       -0.0055394259     1.4674760417     0.3558791991
|  6>  N        0.0644343576     0.0369432273     0.1484821282
|  7>  C       -1.0312902507    -0.6004611917     0.0739996206
|  8>  N       -1.0684981807    -1.9600994872    -0.1118237389
|  9>  C       -2.1736122315    -2.9039377054    -0.3532643946
| 10>  C       -1.0937275456    -4.0175098117    -0.5196103824
| 11>  O       -1.1008701338    -4.6408411066    -1.7772035452
| 12>  C       -0.0597483241    -2.9045303655    -0.3428830765
| 13>  N        1.1952112065    -2.8896078732    -0.4533287577
| 14>  H        0.5236447468     1.7345414667     1.2782187760
| 15>  H        0.5053224157     1.9857499524    -0.4640389682
| 16>  H       -1.0351759451     1.8552416879     0.4227236560
| 17>  H       -2.0271432294    -0.1407467563     0.1535603136
| 18>  H       -2.8606418013    -3.0165618931     0.4898738251
| 19>  H       -2.7247744959    -2.7151055686    -1.2785713861
| 20>  H       -1.0970926249    -4.7479737002     0.3001272013
| 21>  H       -0.1787080139    -4.7678596370    -2.0302906905
| 22>  H        1.5529624864    -1.9406584997    -0.3282543897
| 23> *
| 24>
| 25>                          ****END OF INPUT****

CARTESIAN COORDINATES (ANGSTROEM)
---------------------------------
  C     -0.005539    1.467476    0.355879
  N      0.064434    0.036943    0.148482
  C     -1.031290   -0.600461    0.074000
  N     -1.068498   -1.960099   -0.111824
  C     -2.173612   -2.903938   -0.353264
  C     -1.093728   -4.017510   -0.519610
  O     -1.100870   -4.640841   -1.777204
  C     -0.059748   -2.904530   -0.342883
  N      1.195211   -2.889608   -0.453329
  H      0.523645    1.734541    1.278219
  H      0.505322    1.985750   -0.464039
  H     -1.035176    1.855242    0.422724
  H     -2.027143   -0.140747    0.153560
  H     -2.860642   -3.016562    0.489874
  H     -2.724774   -2.715106   -1.278571
  H     -1.097093   -4.747974    0.300127
  H     -0.178708   -4.767860   -2.030291
  H      1.552962   -1.940658   -0.328254

 Total Charge           Charge          ....    0
 Multiplicity           Mult            ....    1
 Number of Electrons    NEL             ....   68
 Basis Dimension        Dim             ....  333

ORBITAL ENERGIES
----------------

  NO   OCC          E(Eh)            E(eV)
   0   2.0000     -20.572910      -559.8173
   1   2.0000     -15.603745      -424.5995
   2   2.0000     -15.551997      -423.1914
   3   2.0000     -15.535061      -422.7305
   4   2.0000     -11.324908      -308.1664
   5   2.0000     -11.319585      -308.0216
   6   2.0000     -11.306309      -307.6603
   7   2.0000     -11.287575      -307.1505
   8   2.0000     -11.251915      -306.1802
   9   2.0000      -1.387522       -37.7564
  10   2.0000      -1.324046       -36.0291
  11   2.0000      -1.228147       -33.4196
  12   2.0000      -1.179587       -32.0982
  13   2.0000      -1.040496       -28.3133
  14   2.0000      -0.930425       -25.3182
  15   2.0000      -0.905465       -24.6390
  16   2.0000      -0.837802       -22.7977
  17   2.0000      -0.753746       -20.5105
  18   2.0000      -0.712513       -19.3885
  19   2.0000      -0.700140       -19.0518
  20   2.0000      -0.673691       -18.3321
  21   2.0000      -0.651475       -17.7275
  22   2.0000      -0.611706       -16.6454
  23   2.0000      -0.599257       -16.3066
  24   2.0000      -0.591695       -16.1008
  25   2.0000      -0.583924       -15.8894
  26   2.0000      -0.550993       -14.9933
  27   2.0000      -0.528504       -14.3813
  28   2.0000      -0.501323       -13.6417
  29   2.0000      -0.470142       -12.7932
  30   2.0000      -0.445476       -12.1220
  31   2.0000      -0.436072       -11.8661
  32   2.0000      -0.403244       -10.9728
  33   2.0000      -0.346706        -9.4344
  34   0.0000       0.119877         3.2620
  35   0.0000       0.141191         3.8420
  36   0.0000       0.152965         4.1624
  37   0.0000       0.157180         4.2771
  38   0.0000       0.176879         4.8131

MULLIKEN ATOMIC CHARGES
-----------------------
   0 C :   -0.268607
   1 N :   -0.284614
   2 C :    0.047224
   3 N :   -0.046583
   4 C :   -0.155564
   5 C :    0.147000
   6 O :   -0.484910
   7 C :    0.003908
   8 N :   -0.381373
   9 H :    0.140077
  10 H :    0.140229
  11 H :    0.093248
  12 H :    0.095235
  13 H :    0.127434
  14 H :    0.130762
  15 H :    0.107890
  16 H :    0.340724
  17 H :    0.247921
Sum of atomic charges:    0.0000000

LOEWDIN ATOMIC CHARGES
----------------------
   0 C :   -0.338295
   1 N :    0.047517
   2 C :   -0.296359
   3 N :    0.221230
   4 C :   -0.186787
   5 C :   -0.282025
   6 O :   -0.008936
   7 C :   -0.330851
   8 N :   -0.047620
   9 H :    0.118330
  10 H :    0.118385
  11 H :    0.103242
  12 H :    0.123722
  13 H :    0.125563
  14 H :    0.133303
  15 H :    0.137197
  16 H :    0.190962
  17 H :    0.171421

  Mayer bond orders larger than 0.1
B(  0-C ,  1-N ) :   0.8987 B(  0-C ,  9-H ) :   0.9317 B(  0-C , 10-H ) :   0.9319
B(  0-C , 11-H ) :   0.9280 B(  1-N ,  2-C ) :   1.7679 B(  2-C ,  3-N ) :   1.0499
B(  2-C , 12-H ) :   0.9146 B(  3-N ,  4-C ) :   0.9023 B(  3-N ,  7-C ) :   0.9922
B(  4-C ,  5-C ) :   0.9119 B(  4-C , 13-H ) :   0.9138 B(  4-C , 14-H ) :   0.9125
B(  5-C ,  6-O ) :   0.9793 B(  5-C ,  7-C ) :   0.9188 B(  5-C , 15-H ) :   0.9316
B(  6-O , 16-H ) :   0.8277 B(  7-C ,  8-N ) :   2.0273 B(  8-N , 17-H ) :   0.8505

MP2 TOTAL ENERGY:     -434.526014205 Eh
FINAL SINGLE POINT ENERGY      -434.526014204637

DIPOLE MOMENT
-------------
                                X             Y             Z
Electronic contribution:      0.91160      -5.57490      -1.25609
Nuclear contribution   :     -1.92049       6.28255       1.61609
                        -----------------------------------------
Total Dipole Moment    :     -1.00889       0.70765       0.35999
                        -----------------------------------------
Magnitude (a.u.)       :      1.28383
Magnitude (Debye)      :      3.26325

                             ****ORCA TERMINATED NORMALLY****
TOTAL RUN TIME: 0 days 0 hours 14 minutes 42 seconds 529 msec
