                         Program Version 3.0.3 - RELEASE   -
|  1> ! RI-MP2 RIJK def2-TZVP def2-TZVP/C def2-TZVP/JK TIGHTSCF
|  2> % maxcore 2000
|  3> % mp2 density relaxed end
|  4> *xyz 0 1
|  5>  C       -0.1953837503     1.2097427963    -0.3807046372
|  6>  C        1.2257310299     1.1095646479     0.1162913509
|  7>  C        0.3481054321    -0.1178786176     0.0881341974
|  8>  C       -0.1453305132    -0.7350658696     1.3657331603
|  9>  C       -1.4264567614    -1.6393546159     1.3354842657
| 10>  C       -0.6515144768    -2.7757584466     2.0618656077
| 11>  C        0.0633837682    -3.7434558846     1.1105600690
| 12>  O        1.1675381658    -2.8234932904     0.9320109477
| 13>  C        0.6507619306    -1.9324264443     1.9466512426
| 14>  H       -0.9179170263     1.7156867583     0.2518333777
| 15>  H       -0.3621543061     1.3530235026    -1.4427386253
| 16>  H        2.0319364650     1.1818331410    -0.6052239974
| 17>  H        1.4562921392     1.5486530318     1.0817826044
| 18>  H        0.5782279315    -0.8450440871    -0.6843240654
| 19>  H       -0.2510899244     0.0380549125     2.1366571569
| 20>  H       -2.2744411463    -1.2346133544     1.8919595440
| 21>  H       -1.7725353440    -1.9075053994     0.3326453409
| 22>  H       -1.0610977456    -3.1657295532     2.9922383969
| 23>  H        0.4016643351    -4.6787118412     1.5765355374
| 24>  H       -0.4437302613    -3.9771777030     0.1657283231
| 25>  H        1.3801374783    -1.7518852431     2.7418533427
| 26> *
| 27>
| 28>                          ****END OF INPUT****

CARTESIAN COORDINATES (ANGSTROEM)
---------------------------------
  C     -0.195384    1.209743   -0.380705
  C      1.225731    1.109565    0.116291
  C      0.348105   -0.117879    0.088134
  C     -0.145331   -0.735066    1.365733
  C     -1.426457   -1.639355    1.335484
  C     -0.651514   -2.775758    2.061866
  C      0.063384   -3.743456    1.110560
  O      1.167538   -2.823493    0.932011
  C      0.650762   -1.932426    1.946651
  H     -0.917917    1.715687    0.251833
  H     -0.362154    1.353024   -1.442739
  H      2.031936    1.181833   -0.605224
  H      1.456292    1.548653    1.081783
  H      0.578228   -0.845044   -0.684324
  H     -0.251090    0.038055    2.136657
  H     -2.274441   -1.234613    1.891960
  H     -1.772535   -1.907505    0.332645
  H     -1.061098   -3.165730    2.992238
  H      0.401664   -4.678712    1.576536
  H     -0.443730   -3.977178    0.165728
  H      1.380137   -1.751885    2.741853

 Total Charge           Charge          ....    0
 Multiplicity           Mult            ....    1
 Number of Electrons    NEL             ....   68
 Basis Dimension        Dim             ....  351

ORBITAL ENERGIES
----------------

  NO   OCC          E(Eh)            E(eV)
   0   2.0000     -20.543656      -559.0213
   1   2.0000     -11.276333      -306.8446
   2   2.0000     -11.275851      -306.8315
   3   2.0000     -11.230912      -305.6086
   4   2.0000     -11.228932      -305.5548
   5   2.0000     -11.223848      -305.4164
   6   2.0000     -11.222537      -305.3807
   7   2.0000     -11.219597      -305.3008
   8   2.0000     -11.218645      -305.2749
   9   2.0000      -1.375352       -37.4252
  10   2.0000      -1.144255       -31.1368
  11   2.0000      -1.095544       -29.8113
  12   2.0000      -0.972803       -26.4713
  13   2.0000      -0.888897       -24.1881
  14   2.0000      -0.866926       -23.5903
  15   2.0000      -0.815910       -22.2020
  16   2.0000      -0.776683       -21.1346
  17   2.0000      -0.713696       -19.4207
  18   2.0000      -0.702938       -19.1279
  19   2.0000      -0.659689       -17.9510
  20   2.0000      -0.641200       -17.4479
  21   2.0000      -0.631452       -17.1827
  22   2.0000      -0.581571       -15.8253
  23   2.0000      -0.573683       -15.6107
  24   2.0000      -0.552342       -15.0300
  25   2.0000      -0.514853       -14.0099
  26   2.0000      -0.507125       -13.7996
  27   2.0000      -0.496272       -13.5043
  28   2.0000      -0.480296       -13.0695
  29   2.0000      -0.445793       -12.1307
  30   2.0000      -0.429471       -11.6865
  31   2.0000      -0.416149       -11.3240
  32   2.0000      -0.393593       -10.7102
  33   2.0000      -0.381661       -10.3855
  34   0.0000       0.142656         3.8819
  35   0.0000       0.152161         4.1405
  36   0.0000       0.163757         4.4561
  37   0.0000       0.168313         4.5800
  38   0.0000       0.180951         4.9239

MULLIKEN ATOMIC CHARGES
-----------------------
   0 C :   -0.250786
   1 C :   -0.263053
   2 C :   -0.129291
   3 C :   -0.097208
   4 C :   -0.239521
   5 C :   -0.159847
   6 C :   -0.036994
   7 O :   -0.354873
   8 C :    0.142054
   9 H :    0.121594
  10 H :    0.128049
  11 H :    0.129730
  12 H :    0.122576
  13 H :    0.131381
  14 H :    0.096550
  15 H :    0.122557
  16 H :    0.110477
  17 H :    0.123783
  18 H :    0.099214
  19 H :    0.096517
  20 H :    0.107091
Sum of atomic charges:   -0.0000000

LOEWDIN ATOMIC CHARGES
----------------------
   0 C :   -0.229480
   1 C :   -0.226986
   2 C :   -0.213709
   3 C :   -0.201473
   4 C :   -0.189508
   5 C :   -0.195804
   6 C :   -0.255746
   7 O :    0.135575
   8 C :   -0.210896
   9 H :    0.131279
  10 H :    0.129857
  11 H :    0.130848
  12 H :    0.130795
  13 H :    0.153407
  14 H :    0.156195
  15 H :    0.129562
  16 H :    0.134343
  17 H :    0.133660
  18 H :    0.118025
  19 H :    0.116237
  20 H :    0.123819

  Mayer bond orders larger than 0.1
B(  0-C ,  1-C ) :   0.9130 B(  0-C ,  2-C ) :   0.8616 B(  0-C ,  9-H ) :   0.9254
B(  0-C , 10-H ) :   0.9298 B(  1-C ,  2-C ) :   0.8818 B(  1-C , 11-H ) :   0.9299
B(  1-C , 12-H ) :   0.9297 B(  2-C ,  3-C ) :   0.9073 B(  2-C , 13-H ) :   0.9216
B(  3-C ,  4-C ) :   0.9383 B(  3-C ,  8-C ) :   0.9182 B(  3-C , 14-H ) :   0.8910
B(  4-C ,  5-C ) :   0.9316 B(  4-C , 15-H ) :   0.9196 B(  4-C , 16-H ) :   0.9117
B(  5-C ,  6-C ) :   0.9835 B(  5-C ,  8-C ) :   0.9130 B(  5-C , 17-H ) :   0.9116
B(  6-C ,  7-O ) :   0.9266 B(  6-C , 18-H ) :   0.9210 B(  6-C , 19-H ) :   0.9096
B(  7-O ,  8-C ) :   0.9295 B(  8-C , 20-H ) :   0.9331

MP2 TOTAL ENERGY:     -386.355372526 Eh
FINAL SINGLE POINT ENERGY      -386.355372525745

DIPOLE MOMENT
-------------
                                X             Y             Z
Electronic contribution:      2.01088      -3.52485       1.21734
Nuclear contribution   :     -2.58127       3.53658      -0.83583
                        -----------------------------------------
Total Dipole Moment    :     -0.57040       0.01172       0.38151
                        -----------------------------------------
Magnitude (a.u.)       :      0.68632
Magnitude (Debye)      :      1.74450

                             ****ORCA TERMINATED NORMALLY****
TOTAL RUN TIME: 0 days 0 hours 17 minutes 36 seconds 431 msec
