                         Program Version 3.0.3 - RELEASE   -
|  1> ! RI-MP2 RIJK def2-TZVP def2-TZVP/C def2-TZVP/JK TIGHTSCF
|  2> % maxcore 2000
|  3> % mp2 density relaxed end
|  4> *xyz 0 1
|  5>  C        0.0130051203     1.7014923543     0.0545915856
|  6>  C       -0.0856551003     0.1732009827    -0.0155002760
|  7>  C        0.4032480822    -0.4964829714     1.2739709103
|  8>  N       -1.4527105867    -0.2385262840    -0.3198517950
|  9>  C       -1.8112518176    -0.9154182288    -1.4301518171
| 10>  O       -1.0831413256    -1.2860959801    -2.3357266725
| 11>  C       -3.3134371506    -1.2140159727    -1.4874697392
| 12>  O       -4.0955595361    -0.8808213958    -0.6343964819
| 13>  H        1.0459500598     2.0093829377     0.2428602047
| 14>  H       -0.3176959347     2.1576632014    -0.8822419858
| 15>  H       -0.6070014760     2.0984758983     0.8669407715
| 16>  H        0.5098035792    -0.1886754177    -0.8584721954
| 17>  H       -0.2018817146    -0.1837657495     2.1330042882
| 18>  H        0.3469715340    -1.5853347115     1.1942959175
| 19>  H        1.4414516811    -0.2184074985     1.4789494116
| 20>  H       -2.2025268121    -0.0167968469     0.3222609614
| 21>  H       -3.6023241824    -1.7706509376    -2.4007227680
| 22> *
| 23>
| 24>                          ****END OF INPUT****

CARTESIAN COORDINATES (ANGSTROEM)
---------------------------------
  C      0.013005    1.701492    0.054592
  C     -0.085655    0.173201   -0.015500
  C      0.403248   -0.496483    1.273971
  N     -1.452711   -0.238526   -0.319852
  C     -1.811252   -0.915418   -1.430152
  O     -1.083141   -1.286096   -2.335727
  C     -3.313437   -1.214016   -1.487470
  O     -4.095560   -0.880821   -0.634396
  H      1.045950    2.009383    0.242860
  H     -0.317696    2.157663   -0.882242
  H     -0.607001    2.098476    0.866941
  H      0.509804   -0.188675   -0.858472
  H     -0.201882   -0.183766    2.133004
  H      0.346972   -1.585335    1.194296
  H      1.441452   -0.218407    1.478949
  H     -2.202527   -0.016797    0.322261
  H     -3.602324   -1.770651   -2.400723

 Total Charge           Charge          ....    0
 Multiplicity           Mult            ....    1
 Number of Electrons    NEL             ....   62
 Basis Dimension        Dim             ....  302

ORBITAL ENERGIES
----------------

  NO   OCC          E(Eh)            E(eV)
   0   2.0000     -20.595504      -560.4322
   1   2.0000     -20.541009      -558.9493
   2   2.0000     -15.596058      -424.3903
   3   2.0000     -11.366700      -309.3036
   4   2.0000     -11.358234      -309.0733
   5   2.0000     -11.280641      -306.9619
   6   2.0000     -11.228881      -305.5534
   7   2.0000     -11.228852      -305.5526
   8   2.0000      -1.434539       -39.0358
   9   2.0000      -1.396275       -37.9946
  10   2.0000      -1.251750       -34.0619
  11   2.0000      -1.065384       -28.9906
  12   2.0000      -0.948616       -25.8132
  13   2.0000      -0.936088       -25.4722
  14   2.0000      -0.835137       -22.7252
  15   2.0000      -0.799281       -21.7495
  16   2.0000      -0.725162       -19.7327
  17   2.0000      -0.692134       -18.8339
  18   2.0000      -0.657942       -17.9035
  19   2.0000      -0.627598       -17.0778
  20   2.0000      -0.624053       -16.9814
  21   2.0000      -0.610933       -16.6243
  22   2.0000      -0.576195       -15.6791
  23   2.0000      -0.553112       -15.0510
  24   2.0000      -0.542338       -14.7578
  25   2.0000      -0.533832       -14.5263
  26   2.0000      -0.513775       -13.9805
  27   2.0000      -0.504991       -13.7415
  28   2.0000      -0.490872       -13.3573
  29   2.0000      -0.425992       -11.5918
  30   2.0000      -0.402539       -10.9536
  31   0.0000       0.069795         1.8992
  32   0.0000       0.125187         3.4065
  33   0.0000       0.171099         4.6558
  34   0.0000       0.176541         4.8039
  35   0.0000       0.178730         4.8635

MULLIKEN ATOMIC CHARGES
-----------------------
   0 C :   -0.383868
   1 C :    0.031113
   2 C :   -0.383880
   3 N :   -0.300897
   4 C :    0.263348
   5 O :   -0.366418
   6 C :    0.105091
   7 O :   -0.271925
   8 H :    0.132642
   9 H :    0.145744
  10 H :    0.120355
  11 H :    0.136111
  12 H :    0.120381
  13 H :    0.145719
  14 H :    0.132662
  15 H :    0.253888
  16 H :    0.119934
Sum of atomic charges:    0.0000000

LOEWDIN ATOMIC CHARGES
----------------------
   0 C :   -0.292167
   1 C :   -0.318007
   2 C :   -0.292178
   3 N :    0.158002
   4 C :   -0.481011
   5 O :    0.088960
   6 C :   -0.242409
   7 O :    0.141439
   8 H :    0.127872
   9 H :    0.127345
  10 H :    0.122734
  11 H :    0.159941
  12 H :    0.122738
  13 H :    0.127332
  14 H :    0.127881
  15 H :    0.197046
  16 H :    0.124480

  Mayer bond orders larger than 0.1
B(  0-C ,  1-C ) :   0.9341 B(  0-C ,  8-H ) :   0.9364 B(  0-C ,  9-H ) :   0.9372
B(  0-C , 10-H ) :   0.9259 B(  1-C ,  2-C ) :   0.9340 B(  1-C ,  3-N ) :   0.7848
B(  1-C , 11-H ) :   0.9244 B(  2-C , 12-H ) :   0.9259 B(  2-C , 13-H ) :   0.9372
B(  2-C , 14-H ) :   0.9364 B(  3-N ,  4-C ) :   1.2164 B(  3-N , 15-H ) :   0.8473
B(  4-C ,  5-O ) :   1.8640 B(  4-C ,  6-C ) :   0.8553 B(  6-C ,  7-O ) :   1.9274
B(  6-C , 16-H ) :   0.9251

MP2 TOTAL ENERGY:     -400.391263227 Eh
FINAL SINGLE POINT ENERGY      -400.391263227309

DIPOLE MOMENT
-------------
                                X             Y             Z
Electronic contribution:     -8.32990      -4.92993      -6.23381
Nuclear contribution   :      8.65685       5.41896       7.01455
                        -----------------------------------------
Total Dipole Moment    :      0.32695       0.48903       0.78074
                        -----------------------------------------
Magnitude (a.u.)       :      0.97755
Magnitude (Debye)      :      2.48473

                             ****ORCA TERMINATED NORMALLY****
TOTAL RUN TIME: 0 days 0 hours 11 minutes 21 seconds 778 msec
