                         Program Version 3.0.3 - RELEASE   -
|  1> ! RI-MP2 RIJK def2-TZVP def2-TZVP/C def2-TZVP/JK TIGHTSCF
|  2> % maxcore 2000
|  3> % mp2 density relaxed end
|  4> *xyz 0 1
|  5>  C        0.0084177063     1.4453324962    -0.0825299468
|  6>  C        1.3532862378     0.7493819058     0.0105140849
|  7>  O        2.1139313355     0.4704110147    -1.1225992536
|  8>  C        2.2886471401    -0.9449925267    -1.2603646080
|  9>  C        0.9545519471    -1.7126797425    -0.9783010136
| 10>  C        0.7529418175    -2.2139048909     0.4903587900
| 11>  C       -0.1002741683    -1.0769482584     1.1463616447
| 12>  C        0.0677963384    -0.0389827876     0.0625070000
| 13>  O       -0.0910123730    -0.7536016737    -1.1476824395
| 14>  H       -0.2822149582     2.0538664036     0.7669959511
| 15>  H       -0.3157975990     1.8102816481    -1.0504292415
| 16>  H        1.9243106193     0.8896284875     0.9296183523
| 17>  H        2.6064242079    -1.0995970454    -2.2950050312
| 18>  H        3.0926630694    -1.3003270305    -0.5972931852
| 19>  H        0.8202335727    -2.5105988428    -1.7115403801
| 20>  H        0.2277327120    -3.1716540626     0.5054257900
| 21>  H        1.7088602014    -2.3524351864     1.0029741783
| 22>  H       -1.1434449687    -1.3813196773     1.2710184872
| 23>  H        0.2881379518    -0.7555069412     2.1153709211
| 24> *
| 25>
| 26>                          ****END OF INPUT****

CARTESIAN COORDINATES (ANGSTROEM)
---------------------------------
  C      0.008418    1.445332   -0.082530
  C      1.353286    0.749382    0.010514
  O      2.113931    0.470411   -1.122599
  C      2.288647   -0.944993   -1.260365
  C      0.954552   -1.712680   -0.978301
  C      0.752942   -2.213905    0.490359
  C     -0.100274   -1.076948    1.146362
  C      0.067796   -0.038983    0.062507
  O     -0.091012   -0.753602   -1.147682
  H     -0.282215    2.053866    0.766996
  H     -0.315798    1.810282   -1.050429
  H      1.924311    0.889628    0.929618
  H      2.606424   -1.099597   -2.295005
  H      3.092663   -1.300327   -0.597293
  H      0.820234   -2.510599   -1.711540
  H      0.227733   -3.171654    0.505426
  H      1.708860   -2.352435    1.002974
  H     -1.143445   -1.381320    1.271018
  H      0.288138   -0.755507    2.115371

 Total Charge           Charge          ....    0
 Multiplicity           Mult            ....    1
 Number of Electrons    NEL             ....   68
 Basis Dimension        Dim             ....  339

ORBITAL ENERGIES
----------------

  NO   OCC          E(Eh)            E(eV)
   0   2.0000     -20.558244      -559.4183
   1   2.0000     -20.557132      -559.3880
   2   2.0000     -11.285687      -307.0991
   3   2.0000     -11.281751      -306.9921
   4   2.0000     -11.277647      -306.8804
   5   2.0000     -11.273614      -306.7706
   6   2.0000     -11.235655      -305.7377
   7   2.0000     -11.233745      -305.6857
   8   2.0000     -11.232325      -305.6471
   9   2.0000      -1.415624       -38.5211
  10   2.0000      -1.357325       -36.9347
  11   2.0000      -1.129899       -30.7461
  12   2.0000      -1.057532       -28.7769
  13   2.0000      -0.972526       -26.4638
  14   2.0000      -0.904262       -24.6062
  15   2.0000      -0.831990       -22.6396
  16   2.0000      -0.795217       -21.6389
  17   2.0000      -0.741772       -20.1846
  18   2.0000      -0.700835       -19.0707
  19   2.0000      -0.681302       -18.5392
  20   2.0000      -0.672034       -18.2870
  21   2.0000      -0.620672       -16.8894
  22   2.0000      -0.609036       -16.5727
  23   2.0000      -0.586753       -15.9664
  24   2.0000      -0.562930       -15.3181
  25   2.0000      -0.545283       -14.8379
  26   2.0000      -0.526490       -14.3265
  27   2.0000      -0.511753       -13.9255
  28   2.0000      -0.497630       -13.5412
  29   2.0000      -0.485578       -13.2132
  30   2.0000      -0.460301       -12.5254
  31   2.0000      -0.443205       -12.0602
  32   2.0000      -0.404750       -11.0138
  33   2.0000      -0.370466       -10.0809
  34   0.0000       0.135965         3.6998
  35   0.0000       0.153425         4.1749
  36   0.0000       0.166177         4.5219
  37   0.0000       0.177100         4.8191
  38   0.0000       0.194258         5.2860

MULLIKEN ATOMIC CHARGES
-----------------------
   0 C :   -0.256086
   1 C :   -0.044234
   2 O :   -0.297239
   3 C :   -0.060996
   4 C :    0.028693
   5 C :   -0.210649
   6 C :   -0.296579
   7 C :    0.261351
   8 O :   -0.306343
   9 H :    0.137656
  10 H :    0.147781
  11 H :    0.098141
  12 H :    0.123607
  13 H :    0.083702
  14 H :    0.120610
  15 H :    0.124913
  16 H :    0.110954
  17 H :    0.117203
  18 H :    0.117515
Sum of atomic charges:    0.0000000

LOEWDIN ATOMIC CHARGES
----------------------
   0 C :   -0.174542
   1 C :   -0.274973
   2 O :    0.187532
   3 C :   -0.274824
   4 C :   -0.289970
   5 C :   -0.222980
   6 C :   -0.216099
   7 C :   -0.326824
   8 O :    0.237017
   9 H :    0.140869
  10 H :    0.150185
  11 H :    0.133868
  12 H :    0.128133
  13 H :    0.118508
  14 H :    0.140468
  15 H :    0.133900
  16 H :    0.133831
  17 H :    0.137674
  18 H :    0.138226

  Mayer bond orders larger than 0.1
B(  0-C ,  1-C ) :   0.9002 B(  0-C ,  7-C ) :   0.9121 B(  0-C ,  9-H ) :   0.9128
B(  0-C , 10-H ) :   0.8962 B(  1-C ,  2-O ) :   1.0144 B(  1-C ,  7-C ) :   0.8070
B(  1-C , 11-H ) :   0.9431 B(  2-O ,  3-C ) :   0.9298 B(  3-C ,  4-C ) :   0.9332
B(  3-C , 12-H ) :   0.9296 B(  3-C , 13-H ) :   0.9145 B(  4-C ,  5-C ) :   0.9393
B(  4-C ,  8-O ) :   0.9365 B(  4-C , 14-H ) :   0.9099 B(  5-C ,  6-C ) :   0.9701
B(  5-C , 15-H ) :   0.9321 B(  5-C , 16-H ) :   0.9161 B(  6-C ,  7-C ) :   0.9246
B(  6-C , 17-H ) :   0.9185 B(  6-C , 18-H ) :   0.9180 B(  7-C ,  8-O ) :   0.9448

MP2 TOTAL ENERGY:     -422.294716299 Eh
FINAL SINGLE POINT ENERGY      -422.294716298842

DIPOLE MOMENT
-------------
                                X             Y             Z
Electronic contribution:     -0.41745       2.48800      -3.32308
Nuclear contribution   :      0.54746      -3.01417       4.03273
                        -----------------------------------------
Total Dipole Moment    :      0.13001      -0.52618       0.70965
                        -----------------------------------------
Magnitude (a.u.)       :      0.89296
Magnitude (Debye)      :      2.26971

                             ****ORCA TERMINATED NORMALLY****
TOTAL RUN TIME: 0 days 0 hours 18 minutes 14 seconds 452 msec
