                         Program Version 3.0.3 - RELEASE   -
|  1> ! RI-MP2 RIJK def2-TZVP def2-TZVP/C def2-TZVP/JK TIGHTSCF
|  2> % maxcore 2000
|  3> % mp2 density relaxed end
|  4> *xyz 0 1
|  5>  C       -0.1387874118     0.9846861795    -1.4727834349
|  6>  C       -0.1012307562    -0.3376192932    -0.7005744811
|  7>  C       -1.5005353407    -0.8765552282    -0.3803414176
|  8>  C       -1.5336038265    -2.2687065324     0.2821436096
|  9>  C       -0.7780291435    -2.3442988812     1.6292586051
| 10>  C       -1.2902699334    -1.4121858679     2.7339716964
| 11>  C       -2.9676271394    -2.7585033392     0.4107315129
| 12>  C       -3.6565108069    -3.4234000900    -0.7541815390
| 13>  C       -3.2760181908    -4.2332207151     0.4623759430
| 14>  H        0.8694562497     1.3527495811    -1.6877912506
| 15>  H       -0.6629509220     0.8703141048    -2.4282590340
| 16>  H       -0.6615729417     1.7609169524    -0.9026007550
| 17>  H        0.4506080391    -1.0866516936    -1.2848168780
| 18>  H        0.4687540760    -0.1967408251     0.2258083551
| 19>  H       -2.0312834540    -0.1528836672     0.2535463638
| 20>  H       -2.0798946644    -0.9327396225    -1.3113079033
| 21>  H       -1.0197806843    -2.9636167932    -0.3998449037
| 22>  H       -0.8310871342    -3.3803228541     1.9856148583
| 23>  H        0.2851950749    -2.1409808984     1.4553081877
| 24>  H       -1.2027532004    -0.3571891595     2.4545846280
| 25>  H       -2.3405158717    -1.6056783382     2.9743459935
| 26>  H       -0.7137753186    -1.5541277042     3.6535786199
| 27>  H       -3.6058226918    -2.1251840669     1.0223454852
| 28>  H       -4.7063944382    -3.2147089772    -0.9285094985
| 29>  H       -3.0799804758    -3.5777168744    -1.6610716999
| 30>  H       -2.4464728688    -4.9266770199     0.3644723285
| 31>  H       -4.0650503149    -4.5798382559     1.1208504286
| 32> *
| 33>
| 34>                          ****END OF INPUT****

CARTESIAN COORDINATES (ANGSTROEM)
---------------------------------
  C     -0.138787    0.984686   -1.472783
  C     -0.101231   -0.337619   -0.700574
  C     -1.500535   -0.876555   -0.380341
  C     -1.533604   -2.268707    0.282144
  C     -0.778029   -2.344299    1.629259
  C     -1.290270   -1.412186    2.733972
  C     -2.967627   -2.758503    0.410732
  C     -3.656511   -3.423400   -0.754182
  C     -3.276018   -4.233221    0.462376
  H      0.869456    1.352750   -1.687791
  H     -0.662951    0.870314   -2.428259
  H     -0.661573    1.760917   -0.902601
  H      0.450608   -1.086652   -1.284817
  H      0.468754   -0.196741    0.225808
  H     -2.031283   -0.152884    0.253546
  H     -2.079895   -0.932740   -1.311308
  H     -1.019781   -2.963617   -0.399845
  H     -0.831087   -3.380323    1.985615
  H      0.285195   -2.140981    1.455308
  H     -1.202753   -0.357189    2.454585
  H     -2.340516   -1.605678    2.974346
  H     -0.713775   -1.554128    3.653579
  H     -3.605823   -2.125184    1.022345
  H     -4.706394   -3.214709   -0.928509
  H     -3.079980   -3.577717   -1.661072
  H     -2.446473   -4.926677    0.364472
  H     -4.065050   -4.579838    1.120850

 Total Charge           Charge          ....    0
 Multiplicity           Mult            ....    1
 Number of Electrons    NEL             ....   72
 Basis Dimension        Dim             ....  387

ORBITAL ENERGIES
----------------

  NO   OCC          E(Eh)            E(eV)
   0   2.0000     -11.222490      -305.3795
   1   2.0000     -11.221867      -305.3625
   2   2.0000     -11.218560      -305.2725
   3   2.0000     -11.217948      -305.2559
   4   2.0000     -11.214908      -305.1732
   5   2.0000     -11.213060      -305.1229
   6   2.0000     -11.210577      -305.0553
   7   2.0000     -11.209439      -305.0243
   8   2.0000     -11.208452      -304.9975
   9   2.0000      -1.143585       -31.1185
  10   2.0000      -1.075283       -29.2599
  11   2.0000      -1.028360       -27.9831
  12   2.0000      -0.961093       -26.1527
  13   2.0000      -0.883929       -24.0529
  14   2.0000      -0.833116       -22.6702
  15   2.0000      -0.814513       -22.1640
  16   2.0000      -0.788166       -21.4471
  17   2.0000      -0.741699       -20.1827
  18   2.0000      -0.659533       -17.9468
  19   2.0000      -0.633583       -17.2407
  20   2.0000      -0.630322       -17.1519
  21   2.0000      -0.593083       -16.1386
  22   2.0000      -0.583911       -15.8890
  23   2.0000      -0.569753       -15.5038
  24   2.0000      -0.538473       -14.6526
  25   2.0000      -0.526493       -14.3266
  26   2.0000      -0.524752       -14.2792
  27   2.0000      -0.508390       -13.8340
  28   2.0000      -0.491150       -13.3649
  29   2.0000      -0.488622       -13.2961
  30   2.0000      -0.474380       -12.9085
  31   2.0000      -0.455863       -12.4047
  32   2.0000      -0.451181       -12.2772
  33   2.0000      -0.442701       -12.0465
  34   2.0000      -0.405105       -11.0235
  35   2.0000      -0.394684       -10.7399
  36   0.0000       0.134651         3.6640
  37   0.0000       0.145483         3.9588
  38   0.0000       0.154478         4.2035
  39   0.0000       0.161094         4.3836
  40   0.0000       0.178049         4.8450

MULLIKEN ATOMIC CHARGES
-----------------------
   0 C :   -0.385224
   1 C :   -0.194948
   2 C :   -0.294969
   3 C :    0.006173
   4 C :   -0.198420
   5 C :   -0.442228
   6 C :   -0.133886
   7 C :   -0.261078
   8 C :   -0.251098
   9 H :    0.132398
  10 H :    0.122068
  11 H :    0.121328
  12 H :    0.105571
  13 H :    0.110320
  14 H :    0.115704
  15 H :    0.119477
  16 H :    0.079489
  17 H :    0.114170
  18 H :    0.122799
  19 H :    0.128064
  20 H :    0.130166
  21 H :    0.135089
  22 H :    0.117921
  23 H :    0.126343
  24 H :    0.123626
  25 H :    0.124539
  26 H :    0.126606
Sum of atomic charges:   -0.0000000

LOEWDIN ATOMIC CHARGES
----------------------
   0 C :   -0.321653
   1 C :   -0.295404
   2 C :   -0.245299
   3 C :   -0.246707
   4 C :   -0.267768
   5 C :   -0.318900
   6 C :   -0.212186
   7 C :   -0.231496
   8 C :   -0.231333
   9 H :    0.119474
  10 H :    0.119763
  11 H :    0.120079
  12 H :    0.134546
  13 H :    0.133674
  14 H :    0.137872
  15 H :    0.142600
  16 H :    0.157636
  17 H :    0.138876
  18 H :    0.134946
  19 H :    0.119185
  20 H :    0.120245
  21 H :    0.121583
  22 H :    0.148159
  23 H :    0.129067
  24 H :    0.131754
  25 H :    0.132071
  26 H :    0.129214

  Mayer bond orders larger than 0.1
B(  0-C ,  1-C ) :   0.9215 B(  0-C ,  9-H ) :   0.9440 B(  0-C , 10-H ) :   0.9413
B(  0-C , 11-H ) :   0.9387 B(  1-C ,  2-C ) :   0.9242 B(  1-C , 12-H ) :   0.9334
B(  1-C , 13-H ) :   0.9339 B(  2-C ,  3-C ) :   0.9214 B(  2-C , 14-H ) :   0.9282
B(  2-C , 15-H ) :   0.9332 B(  3-C ,  4-C ) :   0.8840 B(  3-C ,  6-C ) :   0.9176
B(  3-C , 16-H ) :   0.9175 B(  4-C ,  5-C ) :   0.9115 B(  4-C , 17-H ) :   0.9336
B(  4-C , 18-H ) :   0.9398 B(  5-C , 19-H ) :   0.9389 B(  5-C , 20-H ) :   0.9389
B(  5-C , 21-H ) :   0.9396 B(  6-C ,  7-C ) :   0.8959 B(  6-C ,  8-C ) :   0.8838
B(  6-C , 22-H ) :   0.9250 B(  7-C ,  8-C ) :   0.9146 B(  7-C , 23-H ) :   0.9305
B(  7-C , 24-H ) :   0.9255 B(  8-C , 25-H ) :   0.9258 B(  8-C , 26-H ) :   0.9313

MP2 TOTAL ENERGY:     -352.904707548 Eh
FINAL SINGLE POINT ENERGY      -352.904707548293

DIPOLE MOMENT
-------------
                                X             Y             Z
Electronic contribution:     -2.46605      -3.63516      -0.37349
Nuclear contribution   :      2.49991       3.63795       0.38966
                        -----------------------------------------
Total Dipole Moment    :      0.03386       0.00279       0.01617
                        -----------------------------------------
Magnitude (a.u.)       :      0.03763
Magnitude (Debye)      :      0.09564

                             ****ORCA TERMINATED NORMALLY****
TOTAL RUN TIME: 0 days 0 hours 22 minutes 6 seconds 222 msec
