                         Program Version 3.0.3 - RELEASE   -
|  1> ! RI-MP2 RIJK def2-TZVP def2-TZVP/C def2-TZVP/JK TIGHTSCF
|  2> % maxcore 2000
|  3> % mp2 density relaxed end
|  4> *xyz 0 1
|  5>  C       -0.1537425283     1.2148911396     0.4259060761
|  6>  O       -0.2390857732    -0.1590203480     0.0932333132
|  7>  C        0.5168279195    -0.5297589141    -1.0257134334
|  8>  C        2.0873719038    -0.3859729044    -1.0320131485
|  9>  C        2.1722107626    -1.8969711774    -1.2514014092
| 10>  N        1.5469958518    -2.5076655272    -0.0573784512
| 11>  C        0.6943031437    -2.0509198842    -1.1786668375
| 12>  C       -0.1317731543     0.0182038085    -2.2962684074
| 13>  O        0.4446404462     0.3140110479    -3.3101295809
| 14>  H        0.8696009441     1.5027947981     0.7018714599
| 15>  H       -0.4862135728     1.8669771439    -0.3960022629
| 16>  H       -0.8097134099     1.3730759117     1.2843218321
| 17>  H        2.4227355107     0.2115418986    -1.8804040044
| 18>  H        2.5301192214    -0.0398306156    -0.0969320336
| 19>  H        2.8850759879    -2.4383370428    -1.8591211236
| 20>  H        1.6231710564    -3.5206965776    -0.1546312309
| 21>  H        0.0234938078    -2.7313027927    -1.6886896783
| 22>  H       -1.2393238173     0.0973714855    -2.2023658696
| 23> *
| 24>
| 25>                          ****END OF INPUT****

CARTESIAN COORDINATES (ANGSTROEM)
---------------------------------
  C     -0.153743    1.214891    0.425906
  O     -0.239086   -0.159020    0.093233
  C      0.516828   -0.529759   -1.025713
  C      2.087372   -0.385973   -1.032013
  C      2.172211   -1.896971   -1.251401
  N      1.546996   -2.507666   -0.057378
  C      0.694303   -2.050920   -1.178667
  C     -0.131773    0.018204   -2.296268
  O      0.444640    0.314011   -3.310130
  H      0.869601    1.502795    0.701871
  H     -0.486214    1.866977   -0.396002
  H     -0.809713    1.373076    1.284322
  H      2.422736    0.211542   -1.880404
  H      2.530119   -0.039831   -0.096932
  H      2.885076   -2.438337   -1.859121
  H      1.623171   -3.520697   -0.154631
  H      0.023494   -2.731303   -1.688690
  H     -1.239324    0.097371   -2.202366

 Total Charge           Charge          ....    0
 Multiplicity           Mult            ....    1
 Number of Electrons    NEL             ....   68
 Basis Dimension        Dim             ....  333

ORBITAL ENERGIES
----------------

  NO   OCC          E(Eh)            E(eV)
   0   2.0000     -20.570131      -559.7417
   1   2.0000     -20.567492      -559.6699
   2   2.0000     -15.570457      -423.6937
   3   2.0000     -11.336395      -308.4790
   4   2.0000     -11.307735      -307.6991
   5   2.0000     -11.281536      -306.9862
   6   2.0000     -11.273946      -306.7797
   7   2.0000     -11.272030      -306.7275
   8   2.0000     -11.236187      -305.7522
   9   2.0000      -1.410560       -38.3833
  10   2.0000      -1.391362       -37.8609
  11   2.0000      -1.288315       -35.0568
  12   2.0000      -1.066829       -29.0299
  13   2.0000      -0.966430       -26.2979
  14   2.0000      -0.910606       -24.7788
  15   2.0000      -0.868690       -23.6383
  16   2.0000      -0.819195       -22.2914
  17   2.0000      -0.742050       -20.1922
  18   2.0000      -0.730357       -19.8740
  19   2.0000      -0.696867       -18.9627
  20   2.0000      -0.663222       -18.0472
  21   2.0000      -0.651821       -17.7370
  22   2.0000      -0.628268       -17.0960
  23   2.0000      -0.598715       -16.2919
  24   2.0000      -0.582289       -15.8449
  25   2.0000      -0.553518       -15.0620
  26   2.0000      -0.536184       -14.5903
  27   2.0000      -0.515112       -14.0169
  28   2.0000      -0.504099       -13.7172
  29   2.0000      -0.481711       -13.1080
  30   2.0000      -0.475950       -12.9513
  31   2.0000      -0.440987       -11.9999
  32   2.0000      -0.405040       -11.0217
  33   2.0000      -0.376456       -10.2439
  34   0.0000       0.118340         3.2202
  35   0.0000       0.138997         3.7823
  36   0.0000       0.149191         4.0597
  37   0.0000       0.169980         4.6254
  38   0.0000       0.185945         5.0598

MULLIKEN ATOMIC CHARGES
-----------------------
   0 C :   -0.226546
   1 O :   -0.300518
   2 C :    0.315162
   3 C :   -0.222315
   4 C :   -0.113733
   5 N :   -0.366253
   6 C :   -0.103467
   7 C :    0.008072
   8 O :   -0.260246
   9 H :    0.121069
  10 H :    0.117101
  11 H :    0.148562
  12 H :    0.146457
  13 H :    0.118242
  14 H :    0.145136
  15 H :    0.219476
  16 H :    0.151056
  17 H :    0.102742
Sum of atomic charges:    0.0000000

LOEWDIN ATOMIC CHARGES
----------------------
   0 C :   -0.340815
   1 O :    0.195786
   2 C :   -0.332930
   3 C :   -0.173429
   4 C :   -0.227506
   5 N :    0.014052
   6 C :   -0.194650
   7 C :   -0.257007
   8 O :    0.146725
   9 H :    0.105903
  10 H :    0.104544
  11 H :    0.116899
  12 H :    0.143882
  13 H :    0.137496
  14 H :    0.131251
  15 H :    0.174635
  16 H :    0.134188
  17 H :    0.120977

  Mayer bond orders larger than 0.1
B(  0-C ,  1-O ) :   0.8952 B(  0-C ,  9-H ) :   0.9315 B(  0-C , 10-H ) :   0.9281
B(  0-C , 11-H ) :   0.9406 B(  1-O ,  2-C ) :   0.9994 B(  2-C ,  3-C ) :   0.9610
B(  2-C ,  6-C ) :   0.8334 B(  2-C ,  7-C ) :   0.8172 B(  3-C ,  4-C ) :   0.9739
B(  3-C , 12-H ) :   0.9027 B(  3-C , 13-H ) :   0.8991 B(  4-C ,  5-N ) :   0.9852
B(  4-C ,  6-C ) :   0.9064 B(  4-C , 14-H ) :   0.9165 B(  5-N ,  6-C ) :   0.9766
B(  5-N , 15-H ) :   0.8695 B(  6-C , 16-H ) :   0.9036 B(  7-C ,  8-O ) :   1.9902
B(  7-C , 17-H ) :   0.9331

MP2 TOTAL ENERGY:     -438.302840561 Eh
FINAL SINGLE POINT ENERGY      -438.302840561074

DIPOLE MOMENT
-------------
                                X             Y             Z
Electronic contribution:     -0.96155      -2.09307      -2.97580
Nuclear contribution   :      1.00404       1.86966       3.05050
                        -----------------------------------------
Total Dipole Moment    :      0.04248      -0.22341       0.07470
                        -----------------------------------------
Magnitude (a.u.)       :      0.23937
Magnitude (Debye)      :      0.60842

                             ****ORCA TERMINATED NORMALLY****
TOTAL RUN TIME: 0 days 0 hours 18 minutes 11 seconds 902 msec
