                         Program Version 3.0.3 - RELEASE   -
|  1> ! RI-MP2 RIJK def2-TZVP def2-TZVP/C def2-TZVP/JK TIGHTSCF
|  2> % maxcore 2000
|  3> % mp2 density relaxed end
|  4> *xyz 0 1
|  5>  C        0.4574272112     0.6199400586     0.8500064811
|  6>  C       -0.1456292012     0.5961637004    -0.5571836651
|  7>  N        0.6693035858    -0.1336242000    -1.5181640592
|  8>  C        0.4845322168    -1.4625020398    -1.7584256677
|  9>  O       -0.4061310754    -2.0982023003    -1.2146454937
| 10>  C        1.4324552050    -2.1476281408    -2.7713273918
| 11>  C        2.0778095684    -3.3431628655    -2.0411086096
| 12>  C        0.5461816875    -2.6665884708    -3.9231229417
| 13>  C        2.5300824725    -1.2310110739    -3.3355542969
| 14>  H        0.5594044409    -0.3984959382     1.2342800987
| 15>  H        1.4463317908     1.0908557676     0.8521348801
| 16>  H       -0.1867019454     1.1830466590     1.5331308264
| 17>  H       -1.1207128649     0.1047714478    -0.5371200002
| 18>  H       -0.2864541571     1.6161020195    -0.9317332113
| 19>  H        1.4536835429     0.3378410867    -1.9331292564
| 20>  H        1.3048429280    -3.9750567874    -1.5996425320
| 21>  H        2.6707332739    -3.9417593638    -2.7405938094
| 22>  H        2.7421981392    -3.0062914616    -1.2376665189
| 23>  H        0.0945716304    -1.8389441186    -4.4809704504
| 24>  H        1.1423543739    -3.2607063044    -4.6238129083
| 25>  H       -0.2585917072    -3.2890529746    -3.5267944788
| 26>  H        3.1952997995    -0.8539012260    -2.5500995826
| 27>  H        3.1540108485    -1.7897758124    -4.0405996070
| 28>  H        2.1131973059    -0.3787850815    -3.8841475153
| 29> *
| 30>
| 31>                          ****END OF INPUT****

CARTESIAN COORDINATES (ANGSTROEM)
---------------------------------
  C      0.457427    0.619940    0.850006
  C     -0.145629    0.596164   -0.557184
  N      0.669304   -0.133624   -1.518164
  C      0.484532   -1.462502   -1.758426
  O     -0.406131   -2.098202   -1.214645
  C      1.432455   -2.147628   -2.771327
  C      2.077810   -3.343163   -2.041109
  C      0.546182   -2.666588   -3.923123
  C      2.530082   -1.231011   -3.335554
  H      0.559404   -0.398496    1.234280
  H      1.446332    1.090856    0.852135
  H     -0.186702    1.183047    1.533131
  H     -1.120713    0.104771   -0.537120
  H     -0.286454    1.616102   -0.931733
  H      1.453684    0.337841   -1.933129
  H      1.304843   -3.975057   -1.599643
  H      2.670733   -3.941759   -2.740594
  H      2.742198   -3.006291   -1.237667
  H      0.094572   -1.838944   -4.480970
  H      1.142354   -3.260706   -4.623813
  H     -0.258592   -3.289053   -3.526794
  H      3.195300   -0.853901   -2.550100
  H      3.154011   -1.789776   -4.040600
  H      2.113197   -0.378785   -3.884148

 Total Charge           Charge          ....    0
 Multiplicity           Mult            ....    1
 Number of Electrons    NEL             ....   72
 Basis Dimension        Dim             ....  369

ORBITAL ENERGIES
----------------

  NO   OCC          E(Eh)            E(eV)
   0   2.0000     -20.503315      -557.9236
   1   2.0000     -15.577311      -423.8802
   2   2.0000     -11.337225      -308.5016
   3   2.0000     -11.259786      -306.3944
   4   2.0000     -11.249878      -306.1247
   5   2.0000     -11.228673      -305.5477
   6   2.0000     -11.216287      -305.2107
   7   2.0000     -11.215164      -305.1801
   8   2.0000     -11.214429      -305.1601
   9   2.0000      -1.371371       -37.3169
  10   2.0000      -1.224529       -33.3211
  11   2.0000      -1.101656       -29.9776
  12   2.0000      -1.012678       -27.5564
  13   2.0000      -0.941977       -25.6325
  14   2.0000      -0.932893       -25.3853
  15   2.0000      -0.877332       -23.8734
  16   2.0000      -0.811299       -22.0766
  17   2.0000      -0.767851       -20.8943
  18   2.0000      -0.678640       -18.4667
  19   2.0000      -0.646951       -17.6044
  20   2.0000      -0.620990       -16.8980
  21   2.0000      -0.612067       -16.6552
  22   2.0000      -0.598219       -16.2784
  23   2.0000      -0.584412       -15.9027
  24   2.0000      -0.581940       -15.8354
  25   2.0000      -0.552043       -15.0218
  26   2.0000      -0.548209       -14.9175
  27   2.0000      -0.528748       -14.3880
  28   2.0000      -0.519939       -14.1483
  29   2.0000      -0.509492       -13.8640
  30   2.0000      -0.505498       -13.7553
  31   2.0000      -0.493636       -13.4325
  32   2.0000      -0.471272       -12.8240
  33   2.0000      -0.465118       -12.6565
  34   2.0000      -0.405120       -11.0239
  35   2.0000      -0.385092       -10.4789
  36   0.0000       0.119770         3.2591
  37   0.0000       0.149134         4.0581
  38   0.0000       0.165789         4.5114
  39   0.0000       0.173640         4.7250
  40   0.0000       0.181807         4.9472

MULLIKEN ATOMIC CHARGES
-----------------------
   0 C :   -0.384388
   1 C :   -0.117237
   2 N :   -0.304730
   3 C :    0.240787
   4 O :   -0.394558
   5 C :    0.138282
   6 C :   -0.419569
   7 C :   -0.423599
   8 C :   -0.483749
   9 H :    0.148923
  10 H :    0.111465
  11 H :    0.127286
  12 H :    0.146591
  13 H :    0.122818
  14 H :    0.241011
  15 H :    0.160324
  16 H :    0.127124
  17 H :    0.124888
  18 H :    0.127339
  19 H :    0.127462
  20 H :    0.159206
  21 H :    0.140884
  22 H :    0.142269
  23 H :    0.141170
Sum of atomic charges:   -0.0000000

LOEWDIN ATOMIC CHARGES
----------------------
   0 C :   -0.319744
   1 C :   -0.302599
   2 N :    0.114736
   3 C :   -0.414494
   4 O :    0.075308
   5 C :   -0.316075
   6 C :   -0.263024
   7 C :   -0.261928
   8 C :   -0.284627
   9 H :    0.127651
  10 H :    0.116428
  11 H :    0.123433
  12 H :    0.144535
  13 H :    0.129519
  14 H :    0.185151
  15 H :    0.134706
  16 H :    0.124242
  17 H :    0.125107
  18 H :    0.125602
  19 H :    0.124350
  20 H :    0.134641
  21 H :    0.122639
  22 H :    0.131516
  23 H :    0.122926

  Mayer bond orders larger than 0.1
B(  0-C ,  1-C ) :   0.9152 B(  0-C ,  9-H ) :   0.9393 B(  0-C , 10-H ) :   0.9346
B(  0-C , 11-H ) :   0.9344 B(  1-C ,  2-N ) :   0.8536 B(  1-C , 12-H ) :   0.9233
B(  1-C , 13-H ) :   0.9356 B(  2-N ,  3-C ) :   1.1755 B(  2-N , 14-H ) :   0.8709
B(  3-C ,  4-O ) :   1.8799 B(  3-C ,  5-C ) :   0.8791 B(  5-C ,  6-C ) :   0.9088
B(  5-C ,  7-C ) :   0.8982 B(  5-C ,  8-C ) :   0.8582 B(  6-C , 15-H ) :   0.9305
B(  6-C , 16-H ) :   0.9349 B(  6-C , 17-H ) :   0.9313 B(  7-C , 18-H ) :   0.9312
B(  7-C , 19-H ) :   0.9345 B(  7-C , 20-H ) :   0.9313 B(  8-C , 21-H ) :   0.9408
B(  8-C , 22-H ) :   0.9278 B(  8-C , 23-H ) :   0.9392

MP2 TOTAL ENERGY:     -404.908290226 Eh
FINAL SINGLE POINT ENERGY      -404.908290225699

DIPOLE MOMENT
-------------
                                X             Y             Z
Electronic contribution:     -4.08459      -0.26632       1.08805
Nuclear contribution   :      4.93959       1.21710      -1.42951
                        -----------------------------------------
Total Dipole Moment    :      0.85500       0.95079      -0.34146
                        -----------------------------------------
Magnitude (a.u.)       :      1.32349
Magnitude (Debye)      :      3.36404

                             ****ORCA TERMINATED NORMALLY****
TOTAL RUN TIME: 0 days 0 hours 21 minutes 20 seconds 205 msec
