                         Program Version 3.0.3 - RELEASE   -
|  1> ! RI-MP2 RIJK def2-TZVP def2-TZVP/C def2-TZVP/JK TIGHTSCF
|  2> % maxcore 2000
|  3> % mp2 density relaxed end
|  4> *xyz 0 1
|  5>  C        0.0428547992     1.4104270003    -0.4175714784
|  6>  C        0.0454333171     0.0113765650     0.1732589441
|  7>  O        1.0257719939    -0.4590896539     0.7067147398
|  8>  C       -1.2547188022    -0.7776442202     0.0894347871
|  9>  C       -2.2103720820    -0.3589230061     1.2040942811
| 10>  C       -1.8807297955    -1.0889999362    -1.3178385905
| 11>  C       -0.6694578456    -1.9879034947    -1.6585959056
| 12>  C       -1.1471074083    -2.3036737864    -0.2215172166
| 13>  O       -2.5430118880    -2.2714627838    -0.7295830502
| 14>  H        0.9735763468     1.9206582845    -0.1664422681
| 15>  H       -0.0522562083     1.3477529186    -1.5085117384
| 16>  H       -0.8121976345     1.9921685665    -0.0590000476
| 17>  H       -2.4845056537     0.6982183706     1.1238693212
| 18>  H       -3.1191331144    -0.9597330651     1.1462708547
| 19>  H       -1.7443006282    -0.5088745332     2.1832865415
| 20>  H       -2.4827158306    -0.4493485277    -1.9652230954
| 21>  H       -0.8824945372    -2.7691098396    -2.3877625251
| 22>  H        0.3141263645    -1.5337916009    -1.7929128033
| 23>  H       -0.8693799130    -3.1217526376     0.4416415397
| 24> *
| 25>
| 26>                          ****END OF INPUT****

CARTESIAN COORDINATES (ANGSTROEM)
---------------------------------
  C      0.042855    1.410427   -0.417571
  C      0.045433    0.011377    0.173259
  O      1.025772   -0.459090    0.706715
  C     -1.254719   -0.777644    0.089435
  C     -2.210372   -0.358923    1.204094
  C     -1.880730   -1.089000   -1.317839
  C     -0.669458   -1.987903   -1.658596
  C     -1.147107   -2.303674   -0.221517
  O     -2.543012   -2.271463   -0.729583
  H      0.973576    1.920658   -0.166442
  H     -0.052256    1.347753   -1.508512
  H     -0.812198    1.992169   -0.059000
  H     -2.484506    0.698218    1.123869
  H     -3.119133   -0.959733    1.146271
  H     -1.744301   -0.508875    2.183287
  H     -2.482716   -0.449349   -1.965223
  H     -0.882495   -2.769110   -2.387763
  H      0.314126   -1.533792   -1.792913
  H     -0.869380   -3.121753    0.441642

 Total Charge           Charge          ....    0
 Multiplicity           Mult            ....    1
 Number of Electrons    NEL             ....   68
 Basis Dimension        Dim             ....  339

ORBITAL ENERGIES
----------------

  NO   OCC          E(Eh)            E(eV)
   0   2.0000     -20.556080      -559.3594
   1   2.0000     -20.552120      -559.2516
   2   2.0000     -11.337648      -308.5131
   3   2.0000     -11.312391      -307.8258
   4   2.0000     -11.307285      -307.6869
   5   2.0000     -11.263317      -306.4904
   6   2.0000     -11.244631      -305.9820
   7   2.0000     -11.242920      -305.9354
   8   2.0000     -11.227569      -305.5177
   9   2.0000      -1.406963       -38.2854
  10   2.0000      -1.393034       -37.9064
  11   2.0000      -1.104624       -30.0584
  12   2.0000      -1.025905       -27.9163
  13   2.0000      -0.999288       -27.1920
  14   2.0000      -0.893426       -24.3114
  15   2.0000      -0.881605       -23.9897
  16   2.0000      -0.810176       -22.0460
  17   2.0000      -0.713926       -19.4269
  18   2.0000      -0.700142       -19.0518
  19   2.0000      -0.668826       -18.1997
  20   2.0000      -0.637879       -17.3576
  21   2.0000      -0.631048       -17.1717
  22   2.0000      -0.594489       -16.1769
  23   2.0000      -0.587127       -15.9765
  24   2.0000      -0.569111       -15.4863
  25   2.0000      -0.553738       -15.0680
  26   2.0000      -0.546362       -14.8673
  27   2.0000      -0.520180       -14.1548
  28   2.0000      -0.504450       -13.7268
  29   2.0000      -0.493760       -13.4359
  30   2.0000      -0.472947       -12.8695
  31   2.0000      -0.448921       -12.2158
  32   2.0000      -0.425464       -11.5775
  33   2.0000      -0.405078       -11.0227
  34   0.0000       0.127430         3.4675
  35   0.0000       0.137803         3.7498
  36   0.0000       0.154959         4.2166
  37   0.0000       0.170911         4.6507
  38   0.0000       0.173340         4.7168

MULLIKEN ATOMIC CHARGES
-----------------------
   0 C :   -0.423041
   1 C :    0.154192
   2 O :   -0.275802
   3 C :    0.165352
   4 C :   -0.463088
   5 C :   -0.075698
   6 C :   -0.175212
   7 C :   -0.022514
   8 O :   -0.318997
   9 H :    0.155739
  10 H :    0.148555
  11 H :    0.146639
  12 H :    0.128780
  13 H :    0.170908
  14 H :    0.149601
  15 H :    0.136164
  16 H :    0.127421
  17 H :    0.126512
  18 H :    0.144489
Sum of atomic charges:   -0.0000000

LOEWDIN ATOMIC CHARGES
----------------------
   0 C :   -0.272126
   1 C :   -0.317900
   2 O :    0.157916
   3 C :   -0.211765
   4 C :   -0.261113
   5 C :   -0.194941
   6 C :   -0.192583
   7 C :   -0.173531
   8 O :    0.132029
   9 H :    0.134580
  10 H :    0.139601
  11 H :    0.135833
  12 H :    0.125852
  13 H :    0.139595
  14 H :    0.133929
  15 H :    0.125516
  16 H :    0.135306
  17 H :    0.134056
  18 H :    0.129746

  Mayer bond orders larger than 0.1
B(  0-C ,  1-C ) :   0.9133 B(  0-C ,  9-H ) :   0.9375 B(  0-C , 10-H ) :   0.9106
B(  0-C , 11-H ) :   0.9143 B(  1-C ,  2-O ) :   2.0338 B(  1-C ,  3-C ) :   0.8534
B(  3-C ,  4-C ) :   0.8771 B(  3-C ,  5-C ) :   0.8800 B(  3-C ,  7-C ) :   0.8936
B(  4-C , 12-H ) :   0.9263 B(  4-C , 13-H ) :   0.9305 B(  4-C , 14-H ) :   0.9363
B(  5-C ,  6-C ) :   0.9210 B(  5-C ,  8-O ) :   0.9076 B(  5-C , 15-H ) :   0.8858
B(  6-C ,  7-C ) :   0.9201 B(  6-C , 16-H ) :   0.9235 B(  6-C , 17-H ) :   0.9180
B(  7-C ,  8-O ) :   0.8846 B(  7-C , 18-H ) :   0.8783

MP2 TOTAL ENERGY:     -422.264599081 Eh
FINAL SINGLE POINT ENERGY      -422.264599081200

DIPOLE MOMENT
-------------
                                X             Y             Z
Electronic contribution:      1.29565      -4.13182       0.16871
Nuclear contribution   :     -1.50310       4.86412      -0.62350
                        -----------------------------------------
Total Dipole Moment    :     -0.20744       0.73230      -0.45479
                        -----------------------------------------
Magnitude (a.u.)       :      0.88664
Magnitude (Debye)      :      2.25366

                             ****ORCA TERMINATED NORMALLY****
TOTAL RUN TIME: 0 days 0 hours 20 minutes 15 seconds 56 msec
