                         Program Version 3.0.3 - RELEASE   -
|  1> ! RI-MP2 RIJK def2-TZVP def2-TZVP/C def2-TZVP/JK TIGHTSCF
|  2> % maxcore 2000
|  3> % mp2 density relaxed end
|  4> *xyz 0 1
|  5>  C       -0.1867461827     1.3806257057     0.0086182404
|  6>  O       -0.0032523201    -0.0396158647    -0.0250213286
|  7>  C        0.5982470829    -0.5009389751    -1.1416302113
|  8>  O        0.9655244276     0.2070447680    -2.0551708761
|  9>  N        0.7267452295    -1.8688032590    -1.1200775093
| 10>  C        0.3288288494    -2.7270682649    -0.0141900528
| 11>  C        1.4039212278    -2.4872603723    -2.2410788947
| 12>  C        2.7168566532    -3.0457988203    -1.8730172430
| 13>  N        3.7351417298    -3.4978641043    -1.5677377057
| 14>  H        0.7749143458     1.8956277727    -0.0485393682
| 15>  H       -0.8139249235     1.7094855433    -0.8232828909
| 16>  H       -0.6753161419     1.5884723229     0.9606596816
| 17>  H       -0.2024109981    -2.1387368140     0.7285213215
| 18>  H       -0.3313530929    -3.5245751305    -0.3763857893
| 19>  H        1.2045260884    -3.1911385566     0.4551681939
| 20>  H        0.7925501679    -3.2982429393    -2.6576929843
| 21>  H        1.5382535770    -1.7241194116    -3.0106692834
| 22> *
| 23>
| 24>                          ****END OF INPUT****

CARTESIAN COORDINATES (ANGSTROEM)
---------------------------------
  C     -0.186746    1.380626    0.008618
  O     -0.003252   -0.039616   -0.025021
  C      0.598247   -0.500939   -1.141630
  O      0.965524    0.207045   -2.055171
  N      0.726745   -1.868803   -1.120078
  C      0.328829   -2.727068   -0.014190
  C      1.403921   -2.487260   -2.241079
  C      2.716857   -3.045799   -1.873017
  N      3.735142   -3.497864   -1.567738
  H      0.774914    1.895628   -0.048539
  H     -0.813925    1.709486   -0.823283
  H     -0.675316    1.588472    0.960660
  H     -0.202411   -2.138737    0.728521
  H     -0.331353   -3.524575   -0.376386
  H      1.204526   -3.191139    0.455168
  H      0.792550   -3.298243   -2.657693
  H      1.538254   -1.724119   -3.010669

 Total Charge           Charge          ....    0
 Multiplicity           Mult            ....    1
 Number of Electrons    NEL             ....   68
 Basis Dimension        Dim             ....  327

ORBITAL ENERGIES
----------------

  NO   OCC          E(Eh)            E(eV)
   0   2.0000     -20.615195      -560.9680
   1   2.0000     -20.538469      -558.8802
   2   2.0000     -15.614615      -424.8953
   3   2.0000     -15.578380      -423.9093
   4   2.0000     -11.417285      -310.6801
   5   2.0000     -11.323507      -308.1283
   6   2.0000     -11.294705      -307.3446
   7   2.0000     -11.279221      -306.9232
   8   2.0000     -11.278694      -306.9089
   9   2.0000      -1.479669       -40.2638
  10   2.0000      -1.370642       -37.2971
  11   2.0000      -1.281949       -34.8836
  12   2.0000      -1.222057       -33.2539
  13   2.0000      -1.039325       -28.2815
  14   2.0000      -0.992655       -27.0115
  15   2.0000      -0.942624       -25.6501
  16   2.0000      -0.795395       -21.6438
  17   2.0000      -0.755612       -20.5613
  18   2.0000      -0.731607       -19.9080
  19   2.0000      -0.703284       -19.1373
  20   2.0000      -0.683543       -18.6002
  21   2.0000      -0.655406       -17.8345
  22   2.0000      -0.623787       -16.9741
  23   2.0000      -0.611154       -16.6303
  24   2.0000      -0.597034       -16.2461
  25   2.0000      -0.575203       -15.6521
  26   2.0000      -0.566717       -15.4212
  27   2.0000      -0.561130       -15.2691
  28   2.0000      -0.539482       -14.6800
  29   2.0000      -0.481091       -13.0912
  30   2.0000      -0.479725       -13.0540
  31   2.0000      -0.471548       -12.8315
  32   2.0000      -0.462189       -12.5768
  33   2.0000      -0.410275       -11.1641
  34   0.0000       0.121576         3.3083
  35   0.0000       0.150541         4.0964
  36   0.0000       0.162249         4.4150
  37   0.0000       0.165830         4.5125
  38   0.0000       0.177253         4.8233

MULLIKEN ATOMIC CHARGES
-----------------------
   0 C :   -0.212330
   1 O :   -0.297244
   2 C :    0.409492
   3 O :   -0.400947
   4 N :   -0.131300
   5 C :   -0.332742
   6 C :   -0.070751
   7 C :   -0.175029
   8 N :   -0.059651
   9 H :    0.144536
  10 H :    0.141226
  11 H :    0.142628
  12 H :    0.175782
  13 H :    0.136077
  14 H :    0.156897
  15 H :    0.167952
  16 H :    0.205403
Sum of atomic charges:   -0.0000000

LOEWDIN ATOMIC CHARGES
----------------------
   0 C :   -0.303977
   1 O :    0.215737
   2 C :   -0.564852
   3 O :    0.074559
   4 N :    0.164120
   5 C :   -0.283118
   6 C :   -0.240402
   7 C :   -0.185617
   8 N :    0.065849
   9 H :    0.115929
  10 H :    0.114885
  11 H :    0.114966
  12 H :    0.132448
  13 H :    0.120164
  14 H :    0.124320
  15 H :    0.158928
  16 H :    0.176061

  Mayer bond orders larger than 0.1
B(  0-C ,  1-O ) :   0.8446 B(  0-C ,  9-H ) :   0.9404 B(  0-C , 10-H ) :   0.9403
B(  0-C , 11-H ) :   0.9324 B(  1-O ,  2-C ) :   1.0823 B(  2-C ,  3-O ) :   1.8295
B(  2-C ,  4-N ) :   1.1594 B(  4-N ,  5-C ) :   0.8787 B(  4-N ,  6-C ) :   0.8960
B(  5-C , 12-H ) :   0.9248 B(  5-C , 13-H ) :   0.9298 B(  5-C , 14-H ) :   0.9266
B(  6-C ,  7-C ) :   0.8860 B(  6-C , 15-H ) :   0.9264 B(  6-C , 16-H ) :   0.8898
B(  7-C ,  8-N ) :   2.8540

MP2 TOTAL ENERGY:     -454.450868372 Eh
FINAL SINGLE POINT ENERGY      -454.450868371553

DIPOLE MOMENT
-------------
                                X             Y             Z
Electronic contribution:      4.39968      -1.69059      -3.20748
Nuclear contribution   :     -5.97705       1.83192       3.65942
                        -----------------------------------------
Total Dipole Moment    :     -1.57737       0.14132       0.45193
                        -----------------------------------------
Magnitude (a.u.)       :      1.64691
Magnitude (Debye)      :      4.18612

                             ****ORCA TERMINATED NORMALLY****
TOTAL RUN TIME: 0 days 0 hours 14 minutes 25 seconds 260 msec
