                         Program Version 3.0.3 - RELEASE   -
|  1> ! RI-MP2 RIJK def2-TZVP def2-TZVP/C def2-TZVP/JK TIGHTSCF
|  2> % maxcore 2000
|  3> % mp2 density relaxed end
|  4> *xyz 0 1
|  5>  C       -0.9180648404     0.9991703549     0.5669350037
|  6>  C       -0.2309240167    -0.2767830743     0.2135205101
|  7>  N       -0.1748400071    -0.7168741933    -1.0475170063
|  8>  N        0.5414854704    -1.8279507122    -0.9742783121
|  9>  N        0.9644323898    -2.1809162390     0.2318141438
| 10>  C        0.4820811246    -1.2095784518     1.0064328521
| 11>  N        0.7847007695    -1.2240235562     2.3729408388
| 12>  C       -0.0505317592    -0.8614814035     3.3960683317
| 13>  O       -1.1574740549    -0.3901426006     3.2767109849
| 14>  H       -0.2157750349     1.7114322119     1.0142128223
| 15>  H       -1.3357058466     1.4475064610    -0.3365349928
| 16>  H       -1.7074439431     0.8277071693     1.3006347846
| 17>  H        0.7561159298    -2.3769769705    -1.7899431734
| 18>  H        1.6141964585    -1.7437368965     2.6208809834
| 19>  H        0.4286851106    -1.0445286692     4.3769919191
| 20> *
| 21>
| 22>                          ****END OF INPUT****

CARTESIAN COORDINATES (ANGSTROEM)
---------------------------------
  C     -0.918065    0.999170    0.566935
  C     -0.230924   -0.276783    0.213521
  N     -0.174840   -0.716874   -1.047517
  N      0.541485   -1.827951   -0.974278
  N      0.964432   -2.180916    0.231814
  C      0.482081   -1.209578    1.006433
  N      0.784701   -1.224024    2.372941
  C     -0.050532   -0.861481    3.396068
  O     -1.157474   -0.390143    3.276711
  H     -0.215775    1.711432    1.014213
  H     -1.335706    1.447506   -0.336535
  H     -1.707444    0.827707    1.300635
  H      0.756116   -2.376977   -1.789943
  H      1.614196   -1.743737    2.620881
  H      0.428685   -1.044529    4.376992

 Total Charge           Charge          ....    0
 Multiplicity           Mult            ....    1
 Number of Electrons    NEL             ....   66
 Basis Dimension        Dim             ....  315

ORBITAL ENERGIES
----------------

  NO   OCC          E(Eh)            E(eV)
   0   2.0000     -20.542909      -559.0010
   1   2.0000     -15.677166      -426.5974
   2   2.0000     -15.617874      -424.9840
   3   2.0000     -15.617194      -424.9655
   4   2.0000     -15.615333      -424.9148
   5   2.0000     -11.369490      -309.3796
   6   2.0000     -11.312180      -307.8201
   7   2.0000     -11.273322      -306.7627
   8   2.0000     -11.220981      -305.3384
   9   2.0000      -1.451878       -39.5076
  10   2.0000      -1.403932       -38.2029
  11   2.0000      -1.272812       -34.6350
  12   2.0000      -1.193038       -32.4642
  13   2.0000      -1.108527       -30.1646
  14   2.0000      -0.976922       -26.5834
  15   2.0000      -0.906791       -24.6750
  16   2.0000      -0.842467       -22.9247
  17   2.0000      -0.784126       -21.3372
  18   2.0000      -0.751351       -20.4453
  19   2.0000      -0.740385       -20.1469
  20   2.0000      -0.675641       -18.3851
  21   2.0000      -0.658762       -17.9258
  22   2.0000      -0.626735       -17.0543
  23   2.0000      -0.595309       -16.1992
  24   2.0000      -0.585036       -15.9197
  25   2.0000      -0.562582       -15.3086
  26   2.0000      -0.551500       -15.0071
  27   2.0000      -0.505179       -13.7466
  28   2.0000      -0.478359       -13.0168
  29   2.0000      -0.467819       -12.7300
  30   2.0000      -0.450842       -12.2680
  31   2.0000      -0.392277       -10.6744
  32   2.0000      -0.345537        -9.4026
  33   0.0000       0.122085         3.3221
  34   0.0000       0.134803         3.6682
  35   0.0000       0.138604         3.7716
  36   0.0000       0.159156         4.3309
  37   0.0000       0.160306         4.3621

MULLIKEN ATOMIC CHARGES
-----------------------
   0 C :   -0.426657
   1 C :    0.018826
   2 N :   -0.186270
   3 N :    0.002155
   4 N :   -0.195250
   5 C :    0.167570
   6 N :   -0.327368
   7 C :    0.208926
   8 O :   -0.346579
   9 H :    0.138193
  10 H :    0.150914
  11 H :    0.180616
  12 H :    0.271060
  13 H :    0.254656
  14 H :    0.089206
Sum of atomic charges:    0.0000000

LOEWDIN ATOMIC CHARGES
----------------------
   0 C :   -0.273723
   1 C :   -0.273299
   2 N :    0.048696
   3 N :    0.062919
   4 N :    0.033710
   5 C :   -0.317246
   6 N :    0.132407
   7 C :   -0.414585
   8 O :    0.084958
   9 H :    0.134934
  10 H :    0.135673
  11 H :    0.140577
  12 H :    0.188748
  13 H :    0.201634
  14 H :    0.114599

  Mayer bond orders larger than 0.1
B(  0-C ,  1-C ) :   0.8755 B(  0-C ,  9-H ) :   0.9313 B(  0-C , 10-H ) :   0.9381
B(  0-C , 11-H ) :   0.9257 B(  1-C ,  2-N ) :   1.5232 B(  1-C ,  5-C ) :   1.3459
B(  2-N ,  3-N ) :   1.1343 B(  3-N ,  4-N ) :   1.1370 B(  3-N , 12-H ) :   0.8734
B(  4-N ,  5-C ) :   1.5054 B(  5-C ,  6-N ) :   0.9407 B(  6-N ,  7-C ) :   1.1001
B(  6-N , 13-H ) :   0.8589 B(  7-C ,  8-O ) :   1.8943 B(  7-C , 14-H ) :   0.9283

MP2 TOTAL ENERGY:     -449.426788471 Eh
FINAL SINGLE POINT ENERGY      -449.426788471469

DIPOLE MOMENT
-------------
                                X             Y             Z
Electronic contribution:      1.63236      -4.10949      -1.05291
Nuclear contribution   :     -0.52845       3.66122       0.94955
                        -----------------------------------------
Total Dipole Moment    :      1.10391      -0.44827      -0.10337
                        -----------------------------------------
Magnitude (a.u.)       :      1.19593
Magnitude (Debye)      :      3.03980

                             ****ORCA TERMINATED NORMALLY****
TOTAL RUN TIME: 0 days 0 hours 13 minutes 41 seconds 599 msec
