                         Program Version 3.0.3 - RELEASE   -
|  1> ! RI-MP2 RIJK def2-TZVP def2-TZVP/C def2-TZVP/JK TIGHTSCF
|  2> % maxcore 2000
|  3> % mp2 density relaxed end
|  4> *xyz 0 1
|  5>  C       -0.2815691916     1.4528250531     0.0531579432
|  6>  N        0.1362982275     0.0581195041     0.0147389571
|  7>  C        1.2401402658    -0.3829496494    -0.8716893908
|  8>  C        1.8983513397    -1.1267247656     0.2946305124
|  9>  C        2.2077167327    -0.1683941612     1.4069919716
| 10>  O        2.6121618783     1.1444664318     1.1822866378
| 11>  C        0.7615429335    -0.5441373992     1.1815261048
| 12>  C       -0.0304058689    -1.1513525146     2.2107130744
| 13>  N       -0.6626023289    -1.6335958497     3.0513724094
| 14>  H        0.5436623949     2.1577669405     0.2174929410
| 15>  H       -0.7819643855     1.6963422086    -0.8896832498
| 16>  H       -1.0137255161     1.5755641076     0.8573209084
| 17>  H        0.8871053905    -1.0300885826    -1.6796831586
| 18>  H        1.8474517570     0.4285350571    -1.2911390739
| 19>  H        2.2642312849    -2.1445049799     0.2750801745
| 20>  H        2.6386466992    -0.6443110848     2.2891625479
| 21>  H        3.5138264668     1.1284559143     0.8408738307
| 22> *
| 23>
| 24>                          ****END OF INPUT****

CARTESIAN COORDINATES (ANGSTROEM)
---------------------------------
  C     -0.281569    1.452825    0.053158
  N      0.136298    0.058120    0.014739
  C      1.240140   -0.382950   -0.871689
  C      1.898351   -1.126725    0.294631
  C      2.207717   -0.168394    1.406992
  O      2.612162    1.144466    1.182287
  C      0.761543   -0.544137    1.181526
  C     -0.030406   -1.151353    2.210713
  N     -0.662602   -1.633596    3.051372
  H      0.543662    2.157767    0.217493
  H     -0.781964    1.696342   -0.889683
  H     -1.013726    1.575564    0.857321
  H      0.887105   -1.030089   -1.679683
  H      1.847452    0.428535   -1.291139
  H      2.264231   -2.144505    0.275080
  H      2.638647   -0.644311    2.289163
  H      3.513826    1.128456    0.840874

 Total Charge           Charge          ....    0
 Multiplicity           Mult            ....    1
 Number of Electrons    NEL             ....   66
 Basis Dimension        Dim             ....  327

ORBITAL ENERGIES
----------------

  NO   OCC          E(Eh)            E(eV)
   0   2.0000     -20.590882      -560.3064
   1   2.0000     -15.573884      -423.7869
   2   2.0000     -15.570183      -423.6862
   3   2.0000     -11.322386      -308.0978
   4   2.0000     -11.315603      -307.9132
   5   2.0000     -11.279282      -306.9249
   6   2.0000     -11.273114      -306.7570
   7   2.0000     -11.272583      -306.7426
   8   2.0000     -11.247726      -306.0662
   9   2.0000      -1.405379       -38.2423
  10   2.0000      -1.294869       -35.2352
  11   2.0000      -1.213288       -33.0152
  12   2.0000      -1.115416       -30.3520
  13   2.0000      -0.992524       -27.0080
  14   2.0000      -0.932847       -25.3841
  15   2.0000      -0.844275       -22.9739
  16   2.0000      -0.816184       -22.2095
  17   2.0000      -0.749940       -20.4069
  18   2.0000      -0.714089       -19.4314
  19   2.0000      -0.662653       -18.0317
  20   2.0000      -0.650033       -17.6883
  21   2.0000      -0.622588       -16.9415
  22   2.0000      -0.609222       -16.5778
  23   2.0000      -0.565521       -15.3886
  24   2.0000      -0.561600       -15.2819
  25   2.0000      -0.536997       -14.6124
  26   2.0000      -0.521827       -14.1996
  27   2.0000      -0.515455       -14.0262
  28   2.0000      -0.503610       -13.7039
  29   2.0000      -0.477961       -13.0060
  30   2.0000      -0.447251       -12.1703
  31   2.0000      -0.405585       -11.0365
  32   2.0000      -0.366628        -9.9765
  33   0.0000       0.116883         3.1805
  34   0.0000       0.135165         3.6780
  35   0.0000       0.145753         3.9661
  36   0.0000       0.160351         4.3634
  37   0.0000       0.174878         4.7587

MULLIKEN ATOMIC CHARGES
-----------------------
   0 C :   -0.324997
   1 N :   -0.160307
   2 C :   -0.115040
   3 C :   -0.184884
   4 C :   -0.002605
   5 O :   -0.457389
   6 C :    0.256851
   7 C :   -0.245901
   8 N :   -0.044855
   9 H :    0.141765
  10 H :    0.137440
  11 H :    0.145780
  12 H :    0.132792
  13 H :    0.104536
  14 H :    0.155661
  15 H :    0.133687
  16 H :    0.327466
Sum of atomic charges:    0.0000000

LOEWDIN ATOMIC CHARGES
----------------------
   0 C :   -0.320409
   1 N :    0.132665
   2 C :   -0.213563
   3 C :   -0.129097
   4 C :   -0.278675
   5 O :    0.014475
   6 C :   -0.225568
   7 C :   -0.148174
   8 N :    0.073601
   9 H :    0.110933
  10 H :    0.118905
  11 H :    0.125635
  12 H :    0.132058
  13 H :    0.126085
  14 H :    0.143856
  15 H :    0.151567
  16 H :    0.185704

  Mayer bond orders larger than 0.1
B(  0-C ,  1-N ) :   0.8726 B(  0-C ,  9-H ) :   0.9240 B(  0-C , 10-H ) :   0.9345
B(  0-C , 11-H ) :   0.9346 B(  1-N ,  2-C ) :   0.9440 B(  1-N ,  6-C ) :   0.9773
B(  2-C ,  3-C ) :   0.9547 B(  2-C , 12-H ) :   0.9235 B(  2-C , 13-H ) :   0.9050
B(  3-C ,  4-C ) :   0.8840 B(  3-C ,  6-C ) :   0.8227 B(  3-C , 14-H ) :   0.9022
B(  4-C ,  5-O ) :   1.0873 B(  4-C ,  6-C ) :   0.7899 B(  4-C , 15-H ) :   0.9503
B(  5-O ,  6-C ) :  -0.1225 B(  5-O , 16-H ) :   0.8338 B(  6-C ,  7-C ) :   0.9440
B(  7-C ,  8-N ) :   2.8734

MP2 TOTAL ENERGY:     -417.256314778 Eh
FINAL SINGLE POINT ENERGY      -417.256314778317

DIPOLE MOMENT
-------------
                                X             Y             Z
Electronic contribution:     -0.82038      -3.99450       5.01167
Nuclear contribution   :      2.40638       4.41395      -6.29054
                        -----------------------------------------
Total Dipole Moment    :      1.58600       0.41945      -1.27887
                        -----------------------------------------
Magnitude (a.u.)       :      2.08011
Magnitude (Debye)      :      5.28722

                             ****ORCA TERMINATED NORMALLY****
TOTAL RUN TIME: 0 days 0 hours 17 minutes 13 seconds 289 msec
