                         Program Version 3.0.3 - RELEASE   -
|  1> ! RI-MP2 RIJK def2-TZVP def2-TZVP/C def2-TZVP/JK TIGHTSCF
|  2> % maxcore 2000
|  3> % mp2 density relaxed end
|  4> *xyz 0 1
|  5>  C        0.0853195274     1.4777427182     0.0641512936
|  6>  N       -0.1283969415     0.0470452560    -0.1532913009
|  7>  C        0.6911479634    -0.5300867817    -1.2144824199
|  8>  C        2.1386641601    -0.5257143793    -0.8802102177
|  9>  N        3.2544526821    -0.4930994071    -0.5787006979
| 10>  C        0.2059302090    -1.9456532427    -1.5281713233
| 11>  O        0.0240213747    -2.7324179906    -0.3846279801
| 12>  C       -0.7109491945    -2.1682766302    -2.7008375808
| 13>  C        0.7250132547    -2.6576711259    -2.7349848297
| 14>  H        1.1324301348     1.7471308672     0.2719701710
| 15>  H       -0.2410381309     2.0328234949    -0.8218237980
| 16>  H       -0.5298068425     1.8033922523     0.9068952327
| 17>  H        0.0735199018    -0.4595061323     0.7031697060
| 18>  H        0.5673534236     0.0867708988    -2.1120342458
| 19>  H       -0.8209054599    -2.4751375028     0.0027855577
| 20>  H       -1.4865930836    -2.9154193926    -2.5750724077
| 21>  H       -0.9904315298    -1.3213058906    -3.3179134468
| 22>  H        1.4366850846    -2.1451653459    -3.3732530384
| 23>  H        0.8954224363    -3.7218188556    -2.6250869940
| 24> *
| 25>
| 26>                          ****END OF INPUT****

CARTESIAN COORDINATES (ANGSTROEM)
---------------------------------
  C      0.085320    1.477743    0.064151
  N     -0.128397    0.047045   -0.153291
  C      0.691148   -0.530087   -1.214482
  C      2.138664   -0.525714   -0.880210
  N      3.254453   -0.493099   -0.578701
  C      0.205930   -1.945653   -1.528171
  O      0.024021   -2.732418   -0.384628
  C     -0.710949   -2.168277   -2.700838
  C      0.725013   -2.657671   -2.734985
  H      1.132430    1.747131    0.271970
  H     -0.241038    2.032823   -0.821824
  H     -0.529807    1.803392    0.906895
  H      0.073520   -0.459506    0.703170
  H      0.567353    0.086771   -2.112034
  H     -0.820905   -2.475138    0.002786
  H     -1.486593   -2.915419   -2.575072
  H     -0.990432   -1.321306   -3.317913
  H      1.436685   -2.145165   -3.373253
  H      0.895422   -3.721819   -2.625087

 Total Charge           Charge          ....    0
 Multiplicity           Mult            ....    1
 Number of Electrons    NEL             ....   68
 Basis Dimension        Dim             ....  339

ORBITAL ENERGIES
----------------

  NO   OCC          E(Eh)            E(eV)
   0   2.0000     -20.579494      -559.9965
   1   2.0000     -15.575822      -423.8397
   2   2.0000     -15.569331      -423.6630
   3   2.0000     -11.317313      -307.9597
   4   2.0000     -11.310674      -307.7791
   5   2.0000     -11.268527      -306.6322
   6   2.0000     -11.262117      -306.4578
   7   2.0000     -11.243858      -305.9609
   8   2.0000     -11.240597      -305.8722
   9   2.0000      -1.394331       -37.9417
  10   2.0000      -1.247802       -33.9544
  11   2.0000      -1.207570       -32.8596
  12   2.0000      -1.149679       -31.2844
  13   2.0000      -1.012185       -27.5430
  14   2.0000      -0.903782       -24.5931
  15   2.0000      -0.850081       -23.1319
  16   2.0000      -0.815397       -22.1881
  17   2.0000      -0.742720       -20.2104
  18   2.0000      -0.718191       -19.5430
  19   2.0000      -0.683231       -18.5916
  20   2.0000      -0.656063       -17.8524
  21   2.0000      -0.626451       -17.0466
  22   2.0000      -0.606852       -16.5133
  23   2.0000      -0.592470       -16.1219
  24   2.0000      -0.563616       -15.3368
  25   2.0000      -0.552945       -15.0464
  26   2.0000      -0.543857       -14.7991
  27   2.0000      -0.532982       -14.5032
  28   2.0000      -0.522109       -14.2073
  29   2.0000      -0.470138       -12.7931
  30   2.0000      -0.462510       -12.5855
  31   2.0000      -0.433023       -11.7831
  32   2.0000      -0.422496       -11.4967
  33   2.0000      -0.408343       -11.1116
  34   0.0000       0.122170         3.3244
  35   0.0000       0.139521         3.7965
  36   0.0000       0.154055         4.1920
  37   0.0000       0.162418         4.4196
  38   0.0000       0.171201         4.6586

MULLIKEN ATOMIC CHARGES
-----------------------
   0 C :   -0.318467
   1 N :   -0.378894
   2 C :    0.087400
   3 C :   -0.228630
   4 N :   -0.055287
   5 C :    0.288751
   6 O :   -0.480708
   7 C :   -0.312181
   8 C :   -0.268673
   9 H :    0.140268
  10 H :    0.131814
  11 H :    0.142610
  12 H :    0.222384
  13 H :    0.135995
  14 H :    0.331670
  15 H :    0.142026
  16 H :    0.129381
  17 H :    0.147495
  18 H :    0.143045
Sum of atomic charges:   -0.0000000

LOEWDIN ATOMIC CHARGES
----------------------
   0 C :   -0.339151
   1 N :   -0.010074
   2 C :   -0.271133
   3 C :   -0.170205
   4 N :    0.061660
   5 C :   -0.352239
   6 O :    0.037223
   7 C :   -0.205759
   8 C :   -0.191594
   9 H :    0.109863
  10 H :    0.117372
  11 H :    0.119210
  12 H :    0.175840
  13 H :    0.177510
  14 H :    0.185091
  15 H :    0.138208
  16 H :    0.134454
  17 H :    0.139736
  18 H :    0.143989

  Mayer bond orders larger than 0.1
B(  0-C ,  1-N ) :   0.9282 B(  0-C ,  9-H ) :   0.9283 B(  0-C , 10-H ) :   0.9373
B(  0-C , 11-H ) :   0.9358 B(  1-N ,  2-C ) :   0.9574 B(  1-N , 12-H ) :   0.8770
B(  2-C ,  3-C ) :   0.8980 B(  2-C ,  5-C ) :   0.8525 B(  2-C , 13-H ) :   0.9159
B(  3-C ,  4-N ) :   2.8645 B(  5-C ,  6-O ) :   0.9643 B(  5-C ,  7-C ) :   0.8789
B(  5-C ,  8-C ) :   0.8740 B(  6-O , 14-H ) :   0.8320 B(  7-C ,  8-C ) :   0.9097
B(  7-C , 15-H ) :   0.9263 B(  7-C , 16-H ) :   0.9137 B(  8-C , 17-H ) :   0.9292
B(  8-C , 18-H ) :   0.9186

MP2 TOTAL ENERGY:     -418.486801343 Eh
FINAL SINGLE POINT ENERGY      -418.486801343344

DIPOLE MOMENT
-------------
                                X             Y             Z
Electronic contribution:      4.52971      -2.62524       1.55915
Nuclear contribution   :     -6.05258       3.01110      -1.89801
                        -----------------------------------------
Total Dipole Moment    :     -1.52287       0.38586      -0.33885
                        -----------------------------------------
Magnitude (a.u.)       :      1.60712
Magnitude (Debye)      :      4.08497

                             ****ORCA TERMINATED NORMALLY****
TOTAL RUN TIME: 0 days 0 hours 17 minutes 56 seconds 23 msec
