                         Program Version 3.0.3 - RELEASE   -
|  1> ! RI-MP2 RIJK def2-TZVP def2-TZVP/C def2-TZVP/JK TIGHTSCF
|  2> % maxcore 2000
|  3> % mp2 density relaxed end
|  4> *xyz 0 1
|  5>  C        0.1016338344     1.3857291273     0.3597160778
|  6>  N        0.0332675507    -0.0369789793     0.0736324292
|  7>  C       -1.0831591231    -0.5595478219    -0.2092344934
|  8>  O       -1.0545115755    -1.9266395311    -0.4687374022
|  9>  C       -2.1871084944    -2.5942290969    -0.7821891162
| 10>  C       -1.9483052806    -4.0457049694    -1.0237339637
| 11>  C       -3.3737454762    -1.9538230150    -0.8517405945
| 12>  N       -3.4896044118    -0.5973951157    -0.6086097325
| 13>  C       -2.4133770950     0.0459042477    -0.3090126584
| 14>  H       -0.2213562932     2.0045017470    -0.4895724049
| 15>  H       -0.5048477142     1.6725290944     1.2305914790
| 16>  H        1.1386770523     1.6489734979     0.5813958194
| 17>  H       -1.5139343502    -4.5151592767    -0.1345285468
| 18>  H       -2.8817945285    -4.5524405123    -1.2736753784
| 19>  H       -1.2355648586    -4.1849277145    -1.8437158240
| 20>  H       -4.2804663682    -2.4883021652    -1.1026868265
| 21>  H       -2.4900203578     1.1121104938    -0.1156175139
| 22> *
| 23>
| 24>                          ****END OF INPUT****

CARTESIAN COORDINATES (ANGSTROEM)
---------------------------------
  C      0.101634    1.385729    0.359716
  N      0.033268   -0.036979    0.073632
  C     -1.083159   -0.559548   -0.209234
  O     -1.054512   -1.926640   -0.468737
  C     -2.187108   -2.594229   -0.782189
  C     -1.948305   -4.045705   -1.023734
  C     -3.373745   -1.953823   -0.851741
  N     -3.489604   -0.597395   -0.608610
  C     -2.413377    0.045904   -0.309013
  H     -0.221356    2.004502   -0.489572
  H     -0.504848    1.672529    1.230591
  H      1.138677    1.648973    0.581396
  H     -1.513934   -4.515159   -0.134529
  H     -2.881795   -4.552441   -1.273675
  H     -1.235565   -4.184928   -1.843716
  H     -4.280466   -2.488302   -1.102687
  H     -2.490020    1.112110   -0.115618

 Total Charge           Charge          ....    0
 Multiplicity           Mult            ....    1
 Number of Electrons    NEL             ....   66
 Basis Dimension        Dim             ....  327

ORBITAL ENERGIES
----------------

  NO   OCC          E(Eh)            E(eV)
   0   2.0000     -20.624660      -561.2255
   1   2.0000     -15.600355      -424.5072
   2   2.0000     -15.550289      -423.1449
   3   2.0000     -11.351927      -308.9016
   4   2.0000     -11.327616      -308.2401
   5   2.0000     -11.294726      -307.3451
   6   2.0000     -11.256804      -306.3132
   7   2.0000     -11.253597      -306.2259
   8   2.0000     -11.245798      -306.0137
   9   2.0000      -1.464682       -39.8560
  10   2.0000      -1.265352       -34.4320
  11   2.0000      -1.233979       -33.5783
  12   2.0000      -1.079202       -29.3666
  13   2.0000      -0.979727       -26.6597
  14   2.0000      -0.957347       -26.0507
  15   2.0000      -0.900818       -24.5125
  16   2.0000      -0.843619       -22.9560
  17   2.0000      -0.740178       -20.1413
  18   2.0000      -0.729845       -19.8601
  19   2.0000      -0.665581       -18.1114
  20   2.0000      -0.659126       -17.9357
  21   2.0000      -0.617210       -16.7952
  22   2.0000      -0.597509       -16.2590
  23   2.0000      -0.579460       -15.7679
  24   2.0000      -0.577198       -15.7064
  25   2.0000      -0.571298       -15.5458
  26   2.0000      -0.569686       -15.5019
  27   2.0000      -0.556325       -15.1384
  28   2.0000      -0.505980       -13.7684
  29   2.0000      -0.464035       -12.6270
  30   2.0000      -0.433602       -11.7989
  31   2.0000      -0.402910       -10.9637
  32   2.0000      -0.312700        -8.5090
  33   0.0000       0.061495         1.6734
  34   0.0000       0.136584         3.7166
  35   0.0000       0.145078         3.9478
  36   0.0000       0.158185         4.3044
  37   0.0000       0.178925         4.8688

MULLIKEN ATOMIC CHARGES
-----------------------
   0 C :   -0.315975
   1 N :   -0.177906
   2 C :    0.158245
   3 O :   -0.186340
   4 C :    0.221103
   5 C :   -0.415334
   6 C :   -0.121250
   7 N :   -0.201102
   8 C :   -0.125723
   9 H :    0.134478
  10 H :    0.134346
  11 H :    0.151052
  12 H :    0.155824
  13 H :    0.145315
  14 H :    0.155824
  15 H :    0.139955
  16 H :    0.147485
Sum of atomic charges:    0.0000000

LOEWDIN ATOMIC CHARGES
----------------------
   0 C :   -0.339058
   1 N :    0.084890
   2 C :   -0.351081
   3 O :    0.364889
   4 C :   -0.270840
   5 C :   -0.258040
   6 C :   -0.239721
   7 N :    0.146820
   8 C :   -0.191552
   9 H :    0.113415
  10 H :    0.113360
  11 H :    0.118433
  12 H :    0.139865
  13 H :    0.137491
  14 H :    0.139866
  15 H :    0.145621
  16 H :    0.145642

  Mayer bond orders larger than 0.1
B(  0-C ,  1-N ) :   0.8742 B(  0-C ,  9-H ) :   0.9271 B(  0-C , 10-H ) :   0.9271
B(  0-C , 11-H ) :   0.9456 B(  1-N ,  2-C ) :   1.9024 B(  2-C ,  3-O ) :   0.9960
B(  2-C ,  8-C ) :   1.0312 B(  3-O ,  4-C ) :   1.0276 B(  4-C ,  5-C ) :   0.9027
B(  4-C ,  6-C ) :   1.5554 B(  5-C , 12-H ) :   0.9211 B(  5-C , 13-H ) :   0.9481
B(  5-C , 14-H ) :   0.9210 B(  6-C ,  7-N ) :   1.1095 B(  6-C , 15-H ) :   0.9404
B(  7-N ,  8-C ) :   1.6856 B(  8-C , 16-H ) :   0.9255

MP2 TOTAL ENERGY:     -417.298501545 Eh
FINAL SINGLE POINT ENERGY      -417.298501544686

DIPOLE MOMENT
-------------
                                X             Y             Z
Electronic contribution:     -1.67938      -0.12798      -0.29840
Nuclear contribution   :      1.35624      -0.15524       0.19099
                        -----------------------------------------
Total Dipole Moment    :     -0.32314      -0.28322      -0.10741
                        -----------------------------------------
Magnitude (a.u.)       :      0.44291
Magnitude (Debye)      :      1.12578

                             ****ORCA TERMINATED NORMALLY****
TOTAL RUN TIME: 0 days 0 hours 15 minutes 21 seconds 899 msec
