                         Program Version 3.0.3 - RELEASE   -
|  1> ! RI-MP2 RIJK def2-TZVP def2-TZVP/C def2-TZVP/JK TIGHTSCF
|  2> % maxcore 2000
|  3> % mp2 density relaxed end
|  4> *xyz 0 1
|  5>  C       -0.4599131081     1.1510041576    -0.0055389616
|  6>  O        0.4032295159     0.0311536052     0.1200796414
|  7>  C        0.8052955056    -0.5749327999    -1.0981510493
|  8>  C        2.3062195349    -0.8397503448    -1.0243820379
|  9>  C        0.0008379939    -1.8994180525    -1.2986057089
| 10>  N        0.0063142109    -2.7992836065    -0.1470449174
| 11>  C       -1.3945325081    -1.5860527216    -1.6590938857
| 12>  N       -2.4763519882    -1.3084564785    -1.9558580386
| 13>  H        0.0133934348     1.9544202888    -0.5881713554
| 14>  H       -1.4156625480     0.8886590425    -0.4731780394
| 15>  H       -0.6471344348     1.5160214798     1.0071026317
| 16>  H        0.5934445993     0.0925830787    -1.9451607016
| 17>  H        2.5431443022    -1.4841906917    -0.1727920047
| 18>  H        2.6697824177    -1.3175189005    -1.9397419668
| 19>  H        2.8415574447     0.1027004890    -0.8878422506
| 20>  H        0.4305626694    -2.4344539549    -2.1544791522
| 21>  H        0.9269247842    -3.2133265528    -0.0446888884
| 22>  H       -0.1656594463    -2.2432286679     0.6872506852
| 23> *
| 24>
| 25>                          ****END OF INPUT****

CARTESIAN COORDINATES (ANGSTROEM)
---------------------------------
  C     -0.459913    1.151004   -0.005539
  O      0.403230    0.031154    0.120080
  C      0.805296   -0.574933   -1.098151
  C      2.306220   -0.839750   -1.024382
  C      0.000838   -1.899418   -1.298606
  N      0.006314   -2.799284   -0.147045
  C     -1.394533   -1.586053   -1.659094
  N     -2.476352   -1.308456   -1.955858
  H      0.013393    1.954420   -0.588171
  H     -1.415663    0.888659   -0.473178
  H     -0.647134    1.516021    1.007103
  H      0.593445    0.092583   -1.945161
  H      2.543144   -1.484191   -0.172792
  H      2.669782   -1.317519   -1.939742
  H      2.841557    0.102700   -0.887842
  H      0.430563   -2.434454   -2.154479
  H      0.926925   -3.213327   -0.044689
  H     -0.165659   -2.243229    0.687251

 Total Charge           Charge          ....    0
 Multiplicity           Mult            ....    1
 Number of Electrons    NEL             ....   62
 Basis Dimension        Dim             ....  308

ORBITAL ENERGIES
----------------

  NO   OCC          E(Eh)            E(eV)
   0   2.0000     -20.571645      -559.7829
   1   2.0000     -15.568302      -423.6350
   2   2.0000     -15.564876      -423.5418
   3   2.0000     -11.313524      -307.8566
   4   2.0000     -11.309168      -307.7381
   5   2.0000     -11.279396      -306.9280
   6   2.0000     -11.269926      -306.6703
   7   2.0000     -11.237117      -305.7775
   8   2.0000      -1.392433       -37.8900
   9   2.0000      -1.231500       -33.5108
  10   2.0000      -1.199305       -32.6348
  11   2.0000      -1.059567       -28.8323
  12   2.0000      -0.971216       -26.4281
  13   2.0000      -0.933556       -25.4033
  14   2.0000      -0.828766       -22.5519
  15   2.0000      -0.731331       -19.9005
  16   2.0000      -0.701031       -19.0760
  17   2.0000      -0.677598       -18.4384
  18   2.0000      -0.648092       -17.6355
  19   2.0000      -0.635361       -17.2890
  20   2.0000      -0.599575       -16.3153
  21   2.0000      -0.584233       -15.8978
  22   2.0000      -0.565438       -15.3864
  23   2.0000      -0.556485       -15.1427
  24   2.0000      -0.544276       -14.8105
  25   2.0000      -0.522468       -14.2171
  26   2.0000      -0.493779       -13.4364
  27   2.0000      -0.474203       -12.9037
  28   2.0000      -0.463416       -12.6102
  29   2.0000      -0.443987       -12.0815
  30   2.0000      -0.410105       -11.1595
  31   0.0000       0.115014         3.1297
  32   0.0000       0.144652         3.9362
  33   0.0000       0.154535         4.2051
  34   0.0000       0.167630         4.5614
  35   0.0000       0.185278         5.0417

MULLIKEN ATOMIC CHARGES
-----------------------
   0 C :   -0.233766
   1 O :   -0.331233
   2 C :    0.049612
   3 C :   -0.381613
   4 C :    0.127842
   5 N :   -0.517377
   6 C :   -0.168363
   7 N :   -0.060886
   8 H :    0.119295
   9 H :    0.146901
  10 H :    0.139831
  11 H :    0.099679
  12 H :    0.122599
  13 H :    0.130371
  14 H :    0.145171
  15 H :    0.132298
  16 H :    0.230893
  17 H :    0.248746
Sum of atomic charges:    0.0000000

LOEWDIN ATOMIC CHARGES
----------------------
   0 C :   -0.346943
   1 O :    0.150915
   2 C :   -0.330194
   3 C :   -0.292184
   4 C :   -0.305677
   5 N :   -0.120619
   6 C :   -0.168247
   7 N :    0.060232
   8 H :    0.104481
   9 H :    0.111014
  10 H :    0.115088
  11 H :    0.146794
  12 H :    0.123880
  13 H :    0.126898
  14 H :    0.130770
  15 H :    0.172160
  16 H :    0.156617
  17 H :    0.165014

  Mayer bond orders larger than 0.1
B(  0-C ,  1-O ) :   0.8957 B(  0-C ,  8-H ) :   0.9377 B(  0-C ,  9-H ) :   0.9278
B(  0-C , 10-H ) :   0.9385 B(  1-O ,  2-C ) :   0.8426 B(  2-C ,  3-C ) :   0.9099
B(  2-C ,  4-C ) :   0.9245 B(  2-C , 11-H ) :   0.9195 B(  3-C , 12-H ) :   0.9343
B(  3-C , 13-H ) :   0.9346 B(  3-C , 14-H ) :   0.9368 B(  4-C ,  5-N ) :   0.9712
B(  4-C ,  6-C ) :   0.9162 B(  4-C , 15-H ) :   0.9037 B(  5-N , 16-H ) :   0.8984
B(  5-N , 17-H ) :   0.8815 B(  6-C ,  7-N ) :   2.8628

MP2 TOTAL ENERGY:     -380.486256832 Eh
FINAL SINGLE POINT ENERGY      -380.486256832358

DIPOLE MOMENT
-------------
                                X             Y             Z
Electronic contribution:     -6.07503      -2.75224      -1.59762
Nuclear contribution   :      7.72842       3.14107       1.72564
                        -----------------------------------------
Total Dipole Moment    :      1.65339       0.38883       0.12802
                        -----------------------------------------
Magnitude (a.u.)       :      1.70332
Magnitude (Debye)      :      4.32949

                             ****ORCA TERMINATED NORMALLY****
TOTAL RUN TIME: 0 days 0 hours 13 minutes 46 seconds 198 msec
