                         Program Version 3.0.3 - RELEASE   -
|  1> ! RI-MP2 RIJK def2-TZVP def2-TZVP/C def2-TZVP/JK TIGHTSCF
|  2> % maxcore 2000
|  3> % mp2 density relaxed end
|  4> *xyz 0 1
|  5>  C       -0.2794451484     1.4045288939    -0.0980855169
|  6>  N       -0.1088152789    -0.0293460713    -0.2194490315
|  7>  C        0.8095060478    -0.5631202668    -1.0684799791
|  8>  N        1.6348629844     0.1593347756    -1.7218238010
|  9>  C        0.7697992514    -2.1108535848    -1.0529324457
| 10>  O       -0.5266140288    -2.6436524932    -0.8291120669
| 11>  C        1.3757577854    -2.6673298480    -2.2740536387
| 12>  N        1.8208211415    -3.1163791832    -3.2409926126
| 13>  H        0.6762337086     1.8733871023     0.1500991573
| 14>  H       -0.6355466752     1.8571358063    -1.0319698017
| 15>  H       -0.9983378872     1.6084768744     0.6979751333
| 16>  H       -0.8294976640    -0.6471981388     0.1133435040
| 17>  H        2.2612209093    -0.4057446916    -2.2912119986
| 18>  H        1.3651884334    -2.4468656096    -0.1956765292
| 19>  H       -1.0560941194    -2.4909375751    -1.6214933828
| 20> *
| 21>
| 22>                          ****END OF INPUT****

CARTESIAN COORDINATES (ANGSTROEM)
---------------------------------
  C     -0.279445    1.404529   -0.098086
  N     -0.108815   -0.029346   -0.219449
  C      0.809506   -0.563120   -1.068480
  N      1.634863    0.159335   -1.721824
  C      0.769799   -2.110854   -1.052932
  O     -0.526614   -2.643652   -0.829112
  C      1.375758   -2.667330   -2.274054
  N      1.820821   -3.116379   -3.240993
  H      0.676234    1.873387    0.150099
  H     -0.635547    1.857136   -1.031970
  H     -0.998338    1.608477    0.697975
  H     -0.829498   -0.647198    0.113344
  H      2.261221   -0.405745   -2.291212
  H      1.365188   -2.446866   -0.195677
  H     -1.056094   -2.490938   -1.621493

 Total Charge           Charge          ....    0
 Multiplicity           Mult            ....    1
 Number of Electrons    NEL             ....   60
 Basis Dimension        Dim             ....  290

ORBITAL ENERGIES
----------------

  NO   OCC          E(Eh)            E(eV)
   0   2.0000     -20.618298      -561.0524
   1   2.0000     -15.597600      -424.4323
   2   2.0000     -15.587487      -424.1571
   3   2.0000     -15.537402      -422.7942
   4   2.0000     -11.368530      -309.3534
   5   2.0000     -11.337934      -308.5209
   6   2.0000     -11.294352      -307.3350
   7   2.0000     -11.263703      -306.5009
   8   2.0000      -1.428122       -38.8612
   9   2.0000      -1.289086       -35.0778
  10   2.0000      -1.241153       -33.7735
  11   2.0000      -1.171448       -31.8767
  12   2.0000      -1.037797       -28.2399
  13   2.0000      -0.954183       -25.9647
  14   2.0000      -0.809458       -22.0265
  15   2.0000      -0.790617       -21.5138
  16   2.0000      -0.753629       -20.5073
  17   2.0000      -0.686480       -18.6801
  18   2.0000      -0.653909       -17.7938
  19   2.0000      -0.626562       -17.0496
  20   2.0000      -0.613003       -16.6807
  21   2.0000      -0.605181       -16.4678
  22   2.0000      -0.579299       -15.7635
  23   2.0000      -0.564169       -15.3518
  24   2.0000      -0.537803       -14.6344
  25   2.0000      -0.496228       -13.5030
  26   2.0000      -0.489944       -13.3321
  27   2.0000      -0.487123       -13.2553
  28   2.0000      -0.429566       -11.6891
  29   2.0000      -0.368337       -10.0230
  30   0.0000       0.099389         2.7045
  31   0.0000       0.141266         3.8440
  32   0.0000       0.145679         3.9641
  33   0.0000       0.159451         4.3389
  34   0.0000       0.171675         4.6715

MULLIKEN ATOMIC CHARGES
-----------------------
   0 C :   -0.258724
   1 N :   -0.321310
   2 C :    0.044160
   3 N :   -0.392259
   4 C :    0.277187
   5 O :   -0.465428
   6 C :   -0.240682
   7 N :   -0.039250
   8 H :    0.153810
   9 H :    0.136823
  10 H :    0.135536
  11 H :    0.254103
  12 H :    0.224111
  13 H :    0.155261
  14 H :    0.336662
Sum of atomic charges:    0.0000000

LOEWDIN ATOMIC CHARGES
----------------------
   0 C :   -0.311272
   1 N :    0.076369
   2 C :   -0.389483
   3 N :   -0.068735
   4 C :   -0.299983
   5 O :    0.007600
   6 C :   -0.178053
   7 N :    0.081713
   8 H :    0.125929
   9 H :    0.117181
  10 H :    0.118205
  11 H :    0.185466
  12 H :    0.166527
  13 H :    0.179201
  14 H :    0.189335

  Mayer bond orders larger than 0.1
B(  0-C ,  1-N ) :   0.8771 B(  0-C ,  8-H ) :   0.9339 B(  0-C ,  9-H ) :   0.9357
B(  0-C , 10-H ) :   0.9298 B(  1-N ,  2-C ) :   1.1642 B(  1-N , 11-H ) :   0.8610
B(  2-C ,  3-N ) :   1.9170 B(  2-C ,  4-C ) :   0.8897 B(  3-N , 12-H ) :   0.8620
B(  4-C ,  5-O ) :   0.8669 B(  4-C ,  6-C ) :   0.9249 B(  4-C , 13-H ) :   0.8813
B(  5-O , 14-H ) :   0.8304 B(  6-C ,  7-N ) :   2.8333

MP2 TOTAL ENERGY:     -395.339867717 Eh
FINAL SINGLE POINT ENERGY      -395.339867717078

DIPOLE MOMENT
-------------
                                X             Y             Z
Electronic contribution:      2.29124      -6.80129      -3.43252
Nuclear contribution   :     -3.41840       7.03681       4.44065
                        -----------------------------------------
Total Dipole Moment    :     -1.12716       0.23552       1.00813
                        -----------------------------------------
Magnitude (a.u.)       :      1.53045
Magnitude (Debye)      :      3.89010

                             ****ORCA TERMINATED NORMALLY****
TOTAL RUN TIME: 0 days 0 hours 9 minutes 57 seconds 591 msec
