                         Program Version 3.0.3 - RELEASE   -
|  1> ! RI-MP2 RIJK def2-TZVP def2-TZVP/C def2-TZVP/JK TIGHTSCF
|  2> % maxcore 2000
|  3> % mp2 density relaxed end
|  4> *xyz 0 1
|  5>  O       -0.1185179176     1.2691762811    -0.2044943610
|  6>  C       -0.1401050297    -0.1088374570     0.0065959598
|  7>  C       -0.4378602974    -0.6603194723     1.4092654236
|  8>  C       -0.6273195808     0.2596623718     2.5489495783
|  9>  O       -0.3081447644    -0.0067294083     3.6850156392
| 10>  C       -1.4702816778    -0.7181216192     0.2584190883
| 11>  C       -2.7220012148     0.1029516191     0.2585430192
| 12>  C       -3.8473139645    -0.2723334040    -0.6762226428
| 13>  C       -4.0033625691    -0.4731736617     0.8099528064
| 14>  H        0.7261116850     1.6120301104     0.1063964684
| 15>  H        0.5853317304    -0.6746732915    -0.5774421937
| 16>  H        0.0415740765    -1.5942766357     1.6834431478
| 17>  H       -1.0821059086     1.2409467889     2.3011945629
| 18>  H       -1.6034059446    -1.7239638565    -0.1316484080
| 19>  H       -2.5662165257     1.1654017678     0.4010319077
| 20>  H       -4.4017291989     0.5275875087    -1.1538115416
| 21>  H       -3.7192742763    -1.1538250685    -1.2962627574
| 22>  H       -3.9777692382    -1.4895171122     1.1889601010
| 23>  H       -4.6682393134     0.1865512393     1.3561061120
| 24> *
| 25>
| 26>                          ****END OF INPUT****

CARTESIAN COORDINATES (ANGSTROEM)
---------------------------------
  O     -0.118518    1.269176   -0.204494
  C     -0.140105   -0.108837    0.006596
  C     -0.437860   -0.660319    1.409265
  C     -0.627320    0.259662    2.548950
  O     -0.308145   -0.006729    3.685016
  C     -1.470282   -0.718122    0.258419
  C     -2.722001    0.102952    0.258543
  C     -3.847314   -0.272333   -0.676223
  C     -4.003363   -0.473174    0.809953
  H      0.726112    1.612030    0.106396
  H      0.585332   -0.674673   -0.577442
  H      0.041574   -1.594277    1.683443
  H     -1.082106    1.240947    2.301195
  H     -1.603406   -1.723964   -0.131648
  H     -2.566217    1.165402    0.401032
  H     -4.401729    0.527588   -1.153812
  H     -3.719274   -1.153825   -1.296263
  H     -3.977769   -1.489517    1.188960
  H     -4.668239    0.186551    1.356106

 Total Charge           Charge          ....    0
 Multiplicity           Mult            ....    1
 Number of Electrons    NEL             ....   68
 Basis Dimension        Dim             ....  339

ORBITAL ENERGIES
----------------

  NO   OCC          E(Eh)            E(eV)
   0   2.0000     -20.585271      -560.1537
   1   2.0000     -20.545738      -559.0779
   2   2.0000     -11.326813      -308.2183
   3   2.0000     -11.309559      -307.7487
   4   2.0000     -11.259471      -306.3858
   5   2.0000     -11.245269      -305.9993
   6   2.0000     -11.242669      -305.9286
   7   2.0000     -11.232076      -305.6403
   8   2.0000     -11.230987      -305.6107
   9   2.0000      -1.397239       -38.0208
  10   2.0000      -1.383422       -37.6448
  11   2.0000      -1.173792       -31.9405
  12   2.0000      -1.126553       -30.6551
  13   2.0000      -0.926812       -25.2198
  14   2.0000      -0.875898       -23.8344
  15   2.0000      -0.828571       -22.5466
  16   2.0000      -0.805416       -21.9165
  17   2.0000      -0.758388       -20.6368
  18   2.0000      -0.720325       -19.6011
  19   2.0000      -0.710131       -19.3237
  20   2.0000      -0.660931       -17.9849
  21   2.0000      -0.637070       -17.3355
  22   2.0000      -0.623442       -16.9647
  23   2.0000      -0.604767       -16.4566
  24   2.0000      -0.589464       -16.0401
  25   2.0000      -0.560036       -15.2394
  26   2.0000      -0.524091       -14.2612
  27   2.0000      -0.521135       -14.1808
  28   2.0000      -0.502537       -13.6747
  29   2.0000      -0.482963       -13.1421
  30   2.0000      -0.444617       -12.0986
  31   2.0000      -0.425335       -11.5739
  32   2.0000      -0.400950       -10.9104
  33   2.0000      -0.382342       -10.4041
  34   0.0000       0.118472         3.2238
  35   0.0000       0.137046         3.7292
  36   0.0000       0.145924         3.9708
  37   0.0000       0.159816         4.3488
  38   0.0000       0.172020         4.6809

MULLIKEN ATOMIC CHARGES
-----------------------
   0 O :   -0.464330
   1 C :    0.019584
   2 C :   -0.087072
   3 C :    0.038969
   4 O :   -0.276757
   5 C :   -0.084961
   6 C :   -0.136149
   7 C :   -0.254772
   8 C :   -0.254727
   9 H :    0.330438
  10 H :    0.125683
  11 H :    0.135258
  12 H :    0.095994
  13 H :    0.134738
  14 H :    0.153884
  15 H :    0.132672
  16 H :    0.127345
  17 H :    0.130727
  18 H :    0.133476
Sum of atomic charges:    0.0000000

LOEWDIN ATOMIC CHARGES
----------------------
   0 O :    0.012586
   1 C :   -0.287744
   2 C :   -0.183275
   3 C :   -0.291475
   4 O :    0.118945
   5 C :   -0.159493
   6 C :   -0.209930
   7 C :   -0.220614
   8 C :   -0.222719
   9 H :    0.186033
  10 H :    0.135906
  11 H :    0.155188
  12 H :    0.117566
  13 H :    0.161654
  14 H :    0.155602
  15 H :    0.132332
  16 H :    0.132283
  17 H :    0.134711
  18 H :    0.132446

  Mayer bond orders larger than 0.1
B(  0-O ,  1-C ) :   1.0527 B(  0-O ,  9-H ) :   0.8367 B(  1-C ,  2-C ) :   0.8166
B(  1-C ,  5-C ) :   0.8638 B(  1-C , 10-H ) :   0.9480 B(  2-C ,  3-C ) :   0.9083
B(  2-C ,  5-C ) :   0.7959 B(  2-C , 11-H ) :   0.9148 B(  3-C ,  4-O ) :   1.9717
B(  3-C , 12-H ) :   0.9544 B(  5-C ,  6-C ) :   0.9333 B(  5-C , 13-H ) :   0.9045
B(  6-C ,  7-C ) :   0.8896 B(  6-C ,  8-C ) :   0.8775 B(  6-C , 14-H ) :   0.9089
B(  7-C ,  8-C ) :   0.9060 B(  7-C , 15-H ) :   0.9291 B(  7-C , 16-H ) :   0.9315
B(  8-C , 17-H ) :   0.9244 B(  8-C , 18-H ) :   0.9298

MP2 TOTAL ENERGY:     -422.287455859 Eh
FINAL SINGLE POINT ENERGY      -422.287455859235

DIPOLE MOMENT
-------------
                                X             Y             Z
Electronic contribution:      5.57838       1.33612       3.82393
Nuclear contribution   :     -5.46021      -1.45526      -4.89176
                        -----------------------------------------
Total Dipole Moment    :      0.11817      -0.11914      -1.06783
                        -----------------------------------------
Magnitude (a.u.)       :      1.08093
Magnitude (Debye)      :      2.74752

                             ****ORCA TERMINATED NORMALLY****
TOTAL RUN TIME: 0 days 0 hours 16 minutes 42 seconds 873 msec
