                         Program Version 3.0.3 - RELEASE   -
|  1> ! RI-MP2 RIJK def2-TZVP def2-TZVP/C def2-TZVP/JK TIGHTSCF
|  2> % maxcore 2000
|  3> % mp2 density relaxed end
|  4> *xyz 0 1
|  5>  O        0.0989907043     1.4393679563     0.0221542372
|  6>  C        0.0549763781     0.0332057235     0.0502699945
|  7>  C       -1.3974415216    -0.5085240866     0.0360848316
|  8>  C       -2.0682615012    -0.0524739663    -1.1813300035
|  9>  N       -2.5374211054     0.3379123383    -2.1633272405
| 10>  C       -1.4272449592    -2.0637493160     0.1541908319
| 11>  O       -0.6983854823    -2.4800149059     1.2994324734
| 12>  C       -2.7961398333    -2.5751512356     0.1598237465
| 13>  C       -3.9271498787    -2.9758574191     0.2222863018
| 14>  H       -0.2335066477     1.7366746515    -0.8326897089
| 15>  H        0.6141002486    -0.4182707732    -0.7832551736
| 16>  H        0.5238621865    -0.2853758672     0.9822345037
| 17>  H       -1.9298400839    -0.0850240620     0.8958590871
| 18>  H       -0.8851931291    -2.4770204690    -0.7050391343
| 19>  H       -1.2937290294    -2.4485051177     2.0568011008
| 20>  H       -4.9254084058    -3.3388270811     0.2536574923
| 21> *
| 22>
| 23>                          ****END OF INPUT****

CARTESIAN COORDINATES (ANGSTROEM)
---------------------------------
  O      0.098991    1.439368    0.022154
  C      0.054976    0.033206    0.050270
  C     -1.397442   -0.508524    0.036085
  C     -2.068262   -0.052474   -1.181330
  N     -2.537421    0.337912   -2.163327
  C     -1.427245   -2.063749    0.154191
  O     -0.698385   -2.480015    1.299432
  C     -2.796140   -2.575151    0.159824
  C     -3.927150   -2.975857    0.222286
  H     -0.233507    1.736675   -0.832690
  H      0.614100   -0.418271   -0.783255
  H      0.523862   -0.285376    0.982235
  H     -1.929840   -0.085024    0.895859
  H     -0.885193   -2.477020   -0.705039
  H     -1.293729   -2.448505    2.056801
  H     -4.925408   -3.338827    0.253657

 Total Charge           Charge          ....    0
 Multiplicity           Mult            ....    1
 Number of Electrons    NEL             ....   66
 Basis Dimension        Dim             ....  321

ORBITAL ENERGIES
----------------

  NO   OCC          E(Eh)            E(eV)
   0   2.0000     -20.595504      -560.4322
   1   2.0000     -20.576727      -559.9212
   2   2.0000     -15.583699      -424.0540
   3   2.0000     -11.349965      -308.8483
   4   2.0000     -11.306422      -307.6634
   5   2.0000     -11.299954      -307.4874
   6   2.0000     -11.284922      -307.0783
   7   2.0000     -11.259423      -306.3845
   8   2.0000     -11.255485      -306.2773
   9   2.0000      -1.405751       -38.2524
  10   2.0000      -1.385111       -37.6908
  11   2.0000      -1.232933       -33.5498
  12   2.0000      -1.118410       -30.4335
  13   2.0000      -1.055818       -28.7303
  14   2.0000      -0.955896       -26.0112
  15   2.0000      -0.896023       -24.3820
  16   2.0000      -0.781967       -21.2784
  17   2.0000      -0.743885       -20.2421
  18   2.0000      -0.721140       -19.6232
  19   2.0000      -0.711525       -19.3616
  20   2.0000      -0.673902       -18.3378
  21   2.0000      -0.644777       -17.5453
  22   2.0000      -0.615405       -16.7460
  23   2.0000      -0.601480       -16.3671
  24   2.0000      -0.571856       -15.5610
  25   2.0000      -0.564476       -15.3602
  26   2.0000      -0.527036       -14.3414
  27   2.0000      -0.509986       -13.8774
  28   2.0000      -0.492351       -13.3975
  29   2.0000      -0.468345       -12.7443
  30   2.0000      -0.456921       -12.4335
  31   2.0000      -0.423749       -11.5308
  32   2.0000      -0.414055       -11.2670
  33   0.0000       0.112158         3.0520
  34   0.0000       0.135181         3.6785
  35   0.0000       0.141056         3.8383
  36   0.0000       0.150675         4.1001
  37   0.0000       0.157457         4.2846

MULLIKEN ATOMIC CHARGES
-----------------------
   0 O :   -0.464863
   1 C :   -0.025894
   2 C :    0.096170
   3 C :   -0.258374
   4 N :   -0.048690
   5 C :   -0.057441
   6 O :   -0.449208
   7 C :   -0.078542
   8 C :   -0.097082
   9 H :    0.331521
  10 H :    0.112216
  11 H :    0.145388
  12 H :    0.121650
  13 H :    0.137767
  14 H :    0.331213
  15 H :    0.204168
Sum of atomic charges:    0.0000000

LOEWDIN ATOMIC CHARGES
----------------------
   0 O :   -0.024240
   1 C :   -0.309321
   2 C :   -0.226618
   3 C :   -0.177047
   4 N :    0.070126
   5 C :   -0.302613
   6 O :    0.010582
   7 C :   -0.094758
   8 C :   -0.061292
   9 H :    0.181948
  10 H :    0.126282
  11 H :    0.138761
  12 H :    0.180205
  13 H :    0.169654
  14 H :    0.185769
  15 H :    0.132562

  Mayer bond orders larger than 0.1
B(  0-O ,  1-C ) :   0.9475 B(  0-O ,  9-H ) :   0.8360 B(  1-C ,  2-C ) :   0.8894
B(  1-C , 10-H ) :   0.9218 B(  1-C , 11-H ) :   0.9237 B(  2-C ,  3-C ) :   0.9002
B(  2-C ,  5-C ) :   0.8936 B(  2-C , 12-H ) :   0.8719 B(  3-C ,  4-N ) :   2.8565
B(  5-C ,  6-O ) :   0.9369 B(  5-C ,  7-C ) :   1.1380 B(  5-C , 13-H ) :   0.9023
B(  6-O , 14-H ) :   0.8320 B(  7-C ,  8-C ) :   2.5941 B(  8-C , 15-H ) :   0.8862

MP2 TOTAL ENERGY:     -437.131364003 Eh
FINAL SINGLE POINT ENERGY      -437.131364002582

DIPOLE MOMENT
-------------
                                X             Y             Z
Electronic contribution:     -2.65553      -0.00678      -1.68836
Nuclear contribution   :      2.49087      -0.69924       2.49768
                        -----------------------------------------
Total Dipole Moment    :     -0.16466      -0.70602       0.80932
                        -----------------------------------------
Magnitude (a.u.)       :      1.08654
Magnitude (Debye)      :      2.76178

                             ****ORCA TERMINATED NORMALLY****
TOTAL RUN TIME: 0 days 0 hours 14 minutes 31 seconds 62 msec
