                         Program Version 3.0.3 - RELEASE   -
|  1> ! RI-MP2 RIJK def2-TZVP def2-TZVP/C def2-TZVP/JK TIGHTSCF
|  2> % maxcore 2000
|  3> % mp2 density relaxed end
|  4> *xyz 0 1
|  5>  C        0.2270273520    -1.3101790794     1.1549551086
|  6>  O       -0.0904919005    -0.4879923233     0.0544950918
|  7>  C        0.6175447919    -0.7615209123    -1.1344824233
|  8>  C        2.0032200436    -0.1199570030    -1.1181273440
|  9>  C        0.6463921283    -2.2230398649    -1.6287952795
| 10>  N       -0.7595214849    -2.6642754945    -1.7874122105
| 11>  C       -0.1196606744    -1.8543287351    -2.8503727973
| 12>  C       -0.2287703765    -0.3846214396    -2.4199884565
| 13>  C       -1.6178202135     0.2038052286    -2.2282138992
| 14>  H        0.0313551204    -2.3688136971     0.9375699090
| 15>  H        1.2741107221    -1.2030185020     1.4763538426
| 16>  H       -0.4180118998    -0.9966001329     1.9795149431
| 17>  H        2.6163002247    -0.5143405318    -0.3005104869
| 18>  H        2.5355849418    -0.3129587586    -2.0547008868
| 19>  H        1.9118527851     0.9622771601    -0.9855672191
| 20>  H        1.4489284972    -2.9415383401    -1.5060467127
| 21>  H       -0.7289067394    -3.6363218974    -2.0942669537
| 22>  H       -0.0246800923    -2.2432948468    -3.8571401189
| 23>  H        0.3763264906     0.2523321612    -3.0732826418
| 24>  H       -2.2307474889    -0.4596917249    -1.6166420359
| 25>  H       -1.5650137780     1.1761073849    -1.7292281648
| 26>  H       -2.1103435194     0.3458864589    -3.1968538840
| 27> *
| 28>
| 29>                          ****END OF INPUT****

CARTESIAN COORDINATES (ANGSTROEM)
---------------------------------
  C      0.227027   -1.310179    1.154955
  O     -0.090492   -0.487992    0.054495
  C      0.617545   -0.761521   -1.134482
  C      2.003220   -0.119957   -1.118127
  C      0.646392   -2.223040   -1.628795
  N     -0.759521   -2.664275   -1.787412
  C     -0.119661   -1.854329   -2.850373
  C     -0.228770   -0.384621   -2.419988
  C     -1.617820    0.203805   -2.228214
  H      0.031355   -2.368814    0.937570
  H      1.274111   -1.203019    1.476354
  H     -0.418012   -0.996600    1.979515
  H      2.616300   -0.514341   -0.300510
  H      2.535585   -0.312959   -2.054701
  H      1.911853    0.962277   -0.985567
  H      1.448928   -2.941538   -1.506047
  H     -0.728907   -3.636322   -2.094267
  H     -0.024680   -2.243295   -3.857140
  H      0.376326    0.252332   -3.073283
  H     -2.230747   -0.459692   -1.616642
  H     -1.565014    1.176107   -1.729228
  H     -2.110344    0.345886   -3.196854

 Total Charge           Charge          ....    0
 Multiplicity           Mult            ....    1
 Number of Electrons    NEL             ....   70
 Basis Dimension        Dim             ....  357

ORBITAL ENERGIES
----------------

  NO   OCC          E(Eh)            E(eV)
   0   2.0000     -20.543277      -559.0110
   1   2.0000     -15.559541      -423.3966
   2   2.0000     -11.285342      -307.0898
   3   2.0000     -11.261051      -306.4288
   4   2.0000     -11.258596      -306.3620
   5   2.0000     -11.256053      -306.2928
   6   2.0000     -11.226305      -305.4833
   7   2.0000     -11.215292      -305.1836
   8   2.0000     -11.195975      -304.6580
   9   2.0000      -1.369788       -37.2738
  10   2.0000      -1.273669       -34.6583
  11   2.0000      -1.070008       -29.1164
  12   2.0000      -0.989684       -26.9307
  13   2.0000      -0.922031       -25.0897
  14   2.0000      -0.920234       -25.0408
  15   2.0000      -0.848041       -23.0764
  16   2.0000      -0.797536       -21.7021
  17   2.0000      -0.724327       -19.7099
  18   2.0000      -0.710065       -19.3218
  19   2.0000      -0.641361       -17.4523
  20   2.0000      -0.635524       -17.2935
  21   2.0000      -0.629535       -17.1305
  22   2.0000      -0.591695       -16.1008
  23   2.0000      -0.555130       -15.1059
  24   2.0000      -0.551510       -15.0074
  25   2.0000      -0.542004       -14.7487
  26   2.0000      -0.535120       -14.5613
  27   2.0000      -0.516592       -14.0572
  28   2.0000      -0.502150       -13.6642
  29   2.0000      -0.489270       -13.3137
  30   2.0000      -0.465312       -12.6618
  31   2.0000      -0.455659       -12.3991
  32   2.0000      -0.418306       -11.3827
  33   2.0000      -0.399065       -10.8591
  34   2.0000      -0.362286        -9.8583
  35   0.0000       0.133307         3.6275
  36   0.0000       0.151919         4.1339
  37   0.0000       0.159672         4.3449
  38   0.0000       0.174446         4.7469
  39   0.0000       0.192286         5.2324

MULLIKEN ATOMIC CHARGES
-----------------------
   0 C :   -0.221712
   1 O :   -0.315086
   2 C :    0.369067
   3 C :   -0.455451
   4 C :   -0.222947
   5 N :   -0.379163
   6 C :   -0.064334
   7 C :   -0.042744
   8 C :   -0.434463
   9 H :    0.124041
  10 H :    0.103321
  11 H :    0.139827
  12 H :    0.126720
  13 H :    0.135842
  14 H :    0.142822
  15 H :    0.134808
  16 H :    0.213554
  17 H :    0.135270
  18 H :    0.106195
  19 H :    0.157193
  20 H :    0.126995
  21 H :    0.120243
Sum of atomic charges:    0.0000000

LOEWDIN ATOMIC CHARGES
----------------------
   0 C :   -0.351057
   1 O :    0.191849
   2 C :   -0.324688
   3 C :   -0.271232
   4 C :   -0.217209
   5 N :    0.007608
   6 C :   -0.212360
   7 C :   -0.193593
   8 C :   -0.295002
   9 H :    0.107269
  10 H :    0.098865
  11 H :    0.114173
  12 H :    0.123805
  13 H :    0.129568
  14 H :    0.130308
  15 H :    0.129955
  16 H :    0.171653
  17 H :    0.128181
  18 H :    0.152078
  19 H :    0.132441
  20 H :    0.125709
  21 H :    0.121678

  Mayer bond orders larger than 0.1
B(  0-C ,  1-O ) :   0.9102 B(  0-C ,  9-H ) :   0.9337 B(  0-C , 10-H ) :   0.9291
B(  0-C , 11-H ) :   0.9436 B(  1-O ,  2-C ) :   0.9708 B(  2-C ,  3-C ) :   0.8954
B(  2-C ,  4-C ) :   0.8881 B(  2-C ,  7-C ) :   0.9367 B(  3-C , 12-H ) :   0.9279
B(  3-C , 13-H ) :   0.9346 B(  3-C , 14-H ) :   0.9446 B(  4-C ,  5-N ) :   0.9584
B(  4-C ,  6-C ) :   0.8696 B(  4-C , 15-H ) :   0.9231 B(  5-N ,  6-C ) :   0.9232
B(  5-N , 16-H ) :   0.8665 B(  6-C ,  7-C ) :   0.9218 B(  6-C , 17-H ) :   0.9120
B(  7-C ,  8-C ) :   0.8736 B(  7-C , 18-H ) :   0.9305 B(  8-C , 19-H ) :   0.9380
B(  8-C , 20-H ) :   0.9344 B(  8-C , 21-H ) :   0.9343

MP2 TOTAL ENERGY:     -403.606974204 Eh
FINAL SINGLE POINT ENERGY      -403.606974203740

DIPOLE MOMENT
-------------
                                X             Y             Z
Electronic contribution:     -1.25164      -2.24363      -0.99194
Nuclear contribution   :      2.01495       1.70786       0.62925
                        -----------------------------------------
Total Dipole Moment    :      0.76331      -0.53577      -0.36269
                        -----------------------------------------
Magnitude (a.u.)       :      1.00062
Magnitude (Debye)      :      2.54337

                             ****ORCA TERMINATED NORMALLY****
TOTAL RUN TIME: 0 days 0 hours 22 minutes 8 seconds 649 msec
