                         Program Version 3.0.3 - RELEASE   -
|  1> ! RI-MP2 RIJK def2-TZVP def2-TZVP/C def2-TZVP/JK TIGHTSCF
|  2> % maxcore 2000
|  3> % mp2 density relaxed end
|  4> *xyz 0 1
|  5>  C        0.0264623509     1.3527631328    -1.0920644177
|  6>  N       -0.0771462156     0.1160595517    -0.3305242295
|  7>  C        0.5631727891     0.1930691842     0.9766591375
|  8>  C       -1.3192165135    -0.5106369403    -0.3812925871
|  9>  N       -2.3713981294     0.0438760549    -0.9910919075
| 10>  N       -3.3125941965    -0.8936987367    -0.8816426461
| 11>  N       -2.9671272595    -2.0049332332    -0.2527489601
| 12>  C       -1.6929777319    -1.8028525743     0.0855523803
| 13>  C       -0.8983807565    -2.8553349132     0.7864251387
| 14>  H        1.0792928358     1.6461113629    -1.1422601058
| 15>  H       -0.3493150781     1.1943643979    -2.1042038234
| 16>  H       -0.5476460949     2.1803381844    -0.6454236907
| 17>  H        0.0847412258     0.9323021934     1.6415102232
| 18>  H        0.5428994015    -0.7769378325     1.4744626845
| 19>  H        1.6104675769     0.4815625551     0.8447905623
| 20>  H       -4.2225763507    -0.7776847422    -1.2935417754
| 21>  H       -1.4236600756    -3.8108863671     0.7263266815
| 22>  H        0.0896880992    -2.9714137025     0.3289126240
| 23>  H       -0.7444680069    -2.6267349454     1.8478571911
| 24> *
| 25>
| 26>                          ****END OF INPUT****

CARTESIAN COORDINATES (ANGSTROEM)
---------------------------------
  C      0.026462    1.352763   -1.092064
  N     -0.077146    0.116060   -0.330524
  C      0.563173    0.193069    0.976659
  C     -1.319217   -0.510637   -0.381293
  N     -2.371398    0.043876   -0.991092
  N     -3.312594   -0.893699   -0.881643
  N     -2.967127   -2.004933   -0.252749
  C     -1.692978   -1.802853    0.085552
  C     -0.898381   -2.855335    0.786425
  H      1.079293    1.646111   -1.142260
  H     -0.349315    1.194364   -2.104204
  H     -0.547646    2.180338   -0.645424
  H      0.084741    0.932302    1.641510
  H      0.542899   -0.776938    1.474463
  H      1.610468    0.481563    0.844791
  H     -4.222576   -0.777685   -1.293542
  H     -1.423660   -3.810886    0.726327
  H      0.089688   -2.971414    0.328913
  H     -0.744468   -2.626735    1.847857

 Total Charge           Charge          ....    0
 Multiplicity           Mult            ....    1
 Number of Electrons    NEL             ....   68
 Basis Dimension        Dim             ....  339

ORBITAL ENERGIES
----------------

  NO   OCC          E(Eh)            E(eV)
   0   2.0000     -15.658529      -426.0902
   1   2.0000     -15.605981      -424.6603
   2   2.0000     -15.593401      -424.3180
   3   2.0000     -15.568007      -423.6270
   4   2.0000     -11.289569      -307.2048
   5   2.0000     -11.259048      -306.3743
   6   2.0000     -11.256269      -306.2987
   7   2.0000     -11.246282      -306.0269
   8   2.0000     -11.229974      -305.5831
   9   2.0000      -1.432481       -38.9798
  10   2.0000      -1.256038       -34.1785
  11   2.0000      -1.176419       -32.0120
  12   2.0000      -1.092618       -29.7317
  13   2.0000      -0.979230       -26.6462
  14   2.0000      -0.958551       -26.0835
  15   2.0000      -0.909126       -24.7386
  16   2.0000      -0.806080       -21.9346
  17   2.0000      -0.777640       -21.1607
  18   2.0000      -0.733669       -19.9642
  19   2.0000      -0.657678       -17.8963
  20   2.0000      -0.656351       -17.8602
  21   2.0000      -0.622134       -16.9291
  22   2.0000      -0.604448       -16.4479
  23   2.0000      -0.582287       -15.8448
  24   2.0000      -0.570654       -15.5283
  25   2.0000      -0.558821       -15.2063
  26   2.0000      -0.547434       -14.8964
  27   2.0000      -0.541867       -14.7450
  28   2.0000      -0.523825       -14.2540
  29   2.0000      -0.481456       -13.1011
  30   2.0000      -0.459657       -12.5079
  31   2.0000      -0.429940       -11.6993
  32   2.0000      -0.378484       -10.2991
  33   2.0000      -0.313473        -8.5300
  34   0.0000       0.134411         3.6575
  35   0.0000       0.146232         3.9792
  36   0.0000       0.148662         4.0453
  37   0.0000       0.162955         4.4342
  38   0.0000       0.185293         5.0421

MULLIKEN ATOMIC CHARGES
-----------------------
   0 C :   -0.303120
   1 N :   -0.158368
   2 C :   -0.298702
   3 C :    0.099141
   4 N :   -0.202145
   5 N :   -0.027783
   6 N :   -0.186799
   7 C :    0.026489
   8 C :   -0.470617
   9 H :    0.130589
  10 H :    0.149512
  11 H :    0.122751
  12 H :    0.120383
  13 H :    0.138941
  14 H :    0.134773
  15 H :    0.263521
  16 H :    0.159735
  17 H :    0.156789
  18 H :    0.144908
Sum of atomic charges:    0.0000000

LOEWDIN ATOMIC CHARGES
----------------------
   0 C :   -0.307516
   1 N :    0.100650
   2 C :   -0.302511
   3 C :   -0.324171
   4 N :    0.030359
   5 N :    0.050158
   6 N :    0.037421
   7 C :   -0.288044
   8 C :   -0.282361
   9 H :    0.117206
  10 H :    0.124939
  11 H :    0.109274
  12 H :    0.108665
  13 H :    0.121010
  14 H :    0.119547
  15 H :    0.184334
  16 H :    0.137786
  17 H :    0.134636
  18 H :    0.128619

  Mayer bond orders larger than 0.1
B(  0-C ,  1-N ) :   0.9043 B(  0-C ,  9-H ) :   0.9323 B(  0-C , 10-H ) :   0.9343
B(  0-C , 11-H ) :   0.9310 B(  1-N ,  2-C ) :   0.8990 B(  1-N ,  3-C ) :   1.0950
B(  2-C , 12-H ) :   0.9255 B(  2-C , 13-H ) :   0.9382 B(  2-C , 14-H ) :   0.9375
B(  3-C ,  4-N ) :   1.4851 B(  3-C ,  7-C ) :   1.3013 B(  4-N ,  5-N ) :   1.1001
B(  5-N ,  6-N ) :   1.1331 B(  5-N , 15-H ) :   0.8799 B(  6-N ,  7-C ) :   1.5466
B(  7-C ,  8-C ) :   0.8559 B(  8-C , 16-H ) :   0.9386 B(  8-C , 17-H ) :   0.9444
B(  8-C , 18-H ) :   0.9319

MP2 TOTAL ENERGY:     -414.683887372 Eh
FINAL SINGLE POINT ENERGY      -414.683887371979

DIPOLE MOMENT
-------------
                                X             Y             Z
Electronic contribution:     -8.38709      -1.94312      -3.48365
Nuclear contribution   :      8.68858       2.17904       3.66322
                        -----------------------------------------
Total Dipole Moment    :      0.30149       0.23592       0.17957
                        -----------------------------------------
Magnitude (a.u.)       :      0.42285
Magnitude (Debye)      :      1.07479

                             ****ORCA TERMINATED NORMALLY****
TOTAL RUN TIME: 0 days 0 hours 19 minutes 19 seconds 719 msec
