                         Program Version 3.0.3 - RELEASE   -
|  1> ! RI-MP2 RIJK def2-TZVP def2-TZVP/C def2-TZVP/JK TIGHTSCF
|  2> % maxcore 2000
|  3> % mp2 density relaxed end
|  4> *xyz 0 1
|  5>  C       -0.0620500944     1.5639394448     0.0205438788
|  6>  C       -0.0943160168     0.0358152101    -0.0531020036
|  7>  C        0.7848262098    -0.5176893787    -1.1909653986
|  8>  C        0.7633666371    -2.0138223097    -1.2790079957
|  9>  N        1.7686856083    -2.7124191953    -0.8051956463
| 10>  O        1.4418089607    -4.0485266580    -1.0159021467
| 11>  C        0.2443781123    -4.1042933447    -1.6176407515
| 12>  C       -0.2599965942    -2.8607486138    -1.8223538619
| 13>  C       -1.5508925935    -2.4663287050    -2.4675822246
| 14>  H        0.9572464603     1.9299606077     0.1853783898
| 15>  H       -0.4289125451     2.0149196451    -0.9083584602
| 16>  H       -0.6858082564     1.9343066645     0.8397185364
| 17>  H        0.2497570808    -0.3933286662     0.8949089540
| 18>  H       -1.1280978713    -0.3056781486    -0.1873488109
| 19>  H        0.4519422867    -0.0927973845    -2.1467345258
| 20>  H        1.8205739041    -0.1969654154    -1.0408534478
| 21>  H       -0.1228916648    -5.0936501008    -1.8457955827
| 22>  H       -2.2333887325    -1.9859757858    -1.7575361195
| 23>  H       -1.3896518279    -1.7580945186    -3.2880324761
| 24>  H       -2.0653162433    -3.3382757271    -2.8802048973
| 25> *
| 26>
| 27>                          ****END OF INPUT****

CARTESIAN COORDINATES (ANGSTROEM)
---------------------------------
  C     -0.062050    1.563939    0.020544
  C     -0.094316    0.035815   -0.053102
  C      0.784826   -0.517689   -1.190965
  C      0.763367   -2.013822   -1.279008
  N      1.768686   -2.712419   -0.805196
  O      1.441809   -4.048527   -1.015902
  C      0.244378   -4.104293   -1.617641
  C     -0.259997   -2.860749   -1.822354
  C     -1.550893   -2.466329   -2.467582
  H      0.957246    1.929961    0.185378
  H     -0.428913    2.014920   -0.908358
  H     -0.685808    1.934307    0.839719
  H      0.249757   -0.393329    0.894909
  H     -1.128098   -0.305678   -0.187349
  H      0.451942   -0.092797   -2.146735
  H      1.820574   -0.196965   -1.040853
  H     -0.122892   -5.093650   -1.845796
  H     -2.233389   -1.985976   -1.757536
  H     -1.389652   -1.758095   -3.288032
  H     -2.065316   -3.338276   -2.880205

 Total Charge           Charge          ....    0
 Multiplicity           Mult            ....    1
 Number of Electrons    NEL             ....   68
 Basis Dimension        Dim             ....  345

ORBITAL ENERGIES
----------------

  NO   OCC          E(Eh)            E(eV)
   0   2.0000     -20.632349      -561.4348
   1   2.0000     -15.608687      -424.7340
   2   2.0000     -11.302077      -307.5451
   3   2.0000     -11.274667      -306.7993
   4   2.0000     -11.241243      -305.8898
   5   2.0000     -11.238728      -305.8214
   6   2.0000     -11.238688      -305.8203
   7   2.0000     -11.231689      -305.6298
   8   2.0000     -11.220345      -305.3211
   9   2.0000      -1.482588       -40.3433
  10   2.0000      -1.169193       -31.8154
  11   2.0000      -1.087937       -29.6043
  12   2.0000      -1.063467       -28.9384
  13   2.0000      -0.963490       -26.2179
  14   2.0000      -0.948095       -25.7990
  15   2.0000      -0.827197       -22.5092
  16   2.0000      -0.808015       -21.9872
  17   2.0000      -0.765303       -20.8250
  18   2.0000      -0.698885       -19.0176
  19   2.0000      -0.652434       -17.7536
  20   2.0000      -0.642737       -17.4898
  21   2.0000      -0.600879       -16.3508
  22   2.0000      -0.592916       -16.1341
  23   2.0000      -0.581099       -15.8125
  24   2.0000      -0.575496       -15.6600
  25   2.0000      -0.557785       -15.1781
  26   2.0000      -0.547900       -14.9091
  27   2.0000      -0.527395       -14.3511
  28   2.0000      -0.499220       -13.5845
  29   2.0000      -0.493480       -13.4283
  30   2.0000      -0.481096       -13.0913
  31   2.0000      -0.462387       -12.5822
  32   2.0000      -0.397508       -10.8167
  33   2.0000      -0.352377        -9.5887
  34   0.0000       0.124517         3.3883
  35   0.0000       0.129999         3.5375
  36   0.0000       0.149559         4.0697
  37   0.0000       0.169602         4.6151
  38   0.0000       0.172960         4.7065

MULLIKEN ATOMIC CHARGES
-----------------------
   0 C :   -0.386591
   1 C :   -0.207932
   2 C :   -0.280628
   3 C :    0.122088
   4 N :   -0.111094
   5 O :   -0.113631
   6 C :   -0.014468
   7 C :   -0.084240
   8 C :   -0.398714
   9 H :    0.127941
  10 H :    0.121359
  11 H :    0.135630
  12 H :    0.127269
  13 H :    0.105113
  14 H :    0.123491
  15 H :    0.141890
  16 H :    0.154078
  17 H :    0.147483
  18 H :    0.147176
  19 H :    0.143777
Sum of atomic charges:    0.0000000

LOEWDIN ATOMIC CHARGES
----------------------
   0 C :   -0.319124
   1 C :   -0.284091
   2 C :   -0.225965
   3 C :   -0.259077
   4 N :    0.057058
   5 O :    0.271020
   6 C :   -0.247434
   7 C :   -0.200374
   8 C :   -0.266794
   9 H :    0.122392
  10 H :    0.120133
  11 H :    0.122068
  12 H :    0.140143
  13 H :    0.133499
  14 H :    0.146743
  15 H :    0.152921
  16 H :    0.137911
  17 H :    0.131112
  18 H :    0.133706
  19 H :    0.134154

  Mayer bond orders larger than 0.1
B(  0-C ,  1-C ) :   0.9161 B(  0-C ,  9-H ) :   0.9391 B(  0-C , 10-H ) :   0.9384
B(  0-C , 11-H ) :   0.9412 B(  1-C ,  2-C ) :   0.9159 B(  1-C , 12-H ) :   0.9338
B(  1-C , 13-H ) :   0.9347 B(  2-C ,  3-C ) :   0.8955 B(  2-C , 14-H ) :   0.9350
B(  2-C , 15-H ) :   0.9269 B(  3-C ,  4-N ) :   1.6082 B(  3-C ,  7-C ) :   1.1783
B(  4-N ,  5-O ) :   0.8811 B(  4-N ,  6-C ) :   0.1029 B(  5-O ,  6-C ) :   1.1193
B(  6-C ,  7-C ) :   1.5471 B(  6-C , 16-H ) :   0.9210 B(  7-C ,  8-C ) :   0.8706
B(  8-C , 17-H ) :   0.9329 B(  8-C , 18-H ) :   0.9370 B(  8-C , 19-H ) :   0.9395

MP2 TOTAL ENERGY:     -402.459116051 Eh
FINAL SINGLE POINT ENERGY      -402.459116050925

DIPOLE MOMENT
-------------
                                X             Y             Z
Electronic contribution:      6.51377     -12.15800      -0.70683
Nuclear contribution   :     -7.65856      12.46847       0.22538
                        -----------------------------------------
Total Dipole Moment    :     -1.14479       0.31048      -0.48145
                        -----------------------------------------
Magnitude (a.u.)       :      1.28013
Magnitude (Debye)      :      3.25382

                             ****ORCA TERMINATED NORMALLY****
TOTAL RUN TIME: 0 days 0 hours 19 minutes 42 seconds 890 msec
