                         Program Version 3.0.3 - RELEASE   -
|  1> ! RI-MP2 RIJK def2-TZVP def2-TZVP/C def2-TZVP/JK TIGHTSCF
|  2> % maxcore 2000
|  3> % mp2 density relaxed end
|  4> *xyz 0 1
|  5>  C        0.0219288951     1.5733140158     0.0646911144
|  6>  C        0.0600832991     0.0561559296     0.0361284008
|  7>  C       -1.2556282116    -0.5408938601    -0.4416940909
|  8>  C        1.2952916390    -0.7309889972    -0.3577075546
|  9>  C        2.6720380059    -0.0775743919    -0.3753489092
| 10>  C        2.9198276351     0.4904652210     1.0501859481
| 11>  C        1.8469581123    -0.1431685706     1.9795131903
| 12>  C        0.7933671698    -0.7708749713     1.0747006057
| 13>  H        0.9502737626     2.0293340500     0.4087931156
| 14>  H       -0.1880106979     1.9696159739    -0.9361949885
| 15>  H       -0.7806518759     1.9231598451     0.7252938384
| 16>  H       -1.4993444117    -0.1986635310    -1.4548520970
| 17>  H       -1.2185870010    -1.6346095974    -0.4602163791
| 18>  H       -2.0838499990    -0.2466529349     0.2144109055
| 19>  H        1.1435961694    -1.5766696356    -1.0219614857
| 20>  H        3.4169154561    -0.8439906383    -0.6166485560
| 21>  H        2.7680042348     0.6996300882    -1.1421871293
| 22>  H        3.9314169105     0.2623109965     1.3982987589
| 23>  H        2.8423401975     1.5805819437     1.0533415406
| 24>  H        2.2919198134    -0.9335374849     2.5941489430
| 25>  H        1.4302896433     0.5931472225     2.6763250082
| 26>  H        0.2752618032    -1.6456772432     1.4563996508
| 27> *
| 28>
| 29>                          ****END OF INPUT****

CARTESIAN COORDINATES (ANGSTROEM)
---------------------------------
  C      0.021929    1.573314    0.064691
  C      0.060083    0.056156    0.036128
  C     -1.255628   -0.540894   -0.441694
  C      1.295292   -0.730989   -0.357708
  C      2.672038   -0.077574   -0.375349
  C      2.919828    0.490465    1.050186
  C      1.846958   -0.143169    1.979513
  C      0.793367   -0.770875    1.074701
  H      0.950274    2.029334    0.408793
  H     -0.188011    1.969616   -0.936195
  H     -0.780652    1.923160    0.725294
  H     -1.499344   -0.198664   -1.454852
  H     -1.218587   -1.634610   -0.460216
  H     -2.083850   -0.246653    0.214411
  H      1.143596   -1.576670   -1.021961
  H      3.416915   -0.843991   -0.616649
  H      2.768004    0.699630   -1.142187
  H      3.931417    0.262311    1.398299
  H      2.842340    1.580582    1.053342
  H      2.291920   -0.933537    2.594149
  H      1.430290    0.593147    2.676325
  H      0.275262   -1.645677    1.456400

 Total Charge           Charge          ....    0
 Multiplicity           Mult            ....    1
 Number of Electrons    NEL             ....   62
 Basis Dimension        Dim             ....  332

ORBITAL ENERGIES
----------------

  NO   OCC          E(Eh)            E(eV)
   0   2.0000     -11.229268      -305.5639
   1   2.0000     -11.216099      -305.2056
   2   2.0000     -11.215830      -305.1982
   3   2.0000     -11.215525      -305.1900
   4   2.0000     -11.215042      -305.1768
   5   2.0000     -11.214414      -305.1597
   6   2.0000     -11.210495      -305.0531
   7   2.0000     -11.209925      -305.0376
   8   2.0000      -1.168907       -31.8076
   9   2.0000      -1.043999       -28.4087
  10   2.0000      -0.961679       -26.1686
  11   2.0000      -0.955135       -25.9905
  12   2.0000      -0.925999       -25.1977
  13   2.0000      -0.804427       -21.8896
  14   2.0000      -0.749077       -20.3834
  15   2.0000      -0.709287       -19.3007
  16   2.0000      -0.663895       -18.0655
  17   2.0000      -0.632502       -17.2113
  18   2.0000      -0.590287       -16.0625
  19   2.0000      -0.586853       -15.9691
  20   2.0000      -0.546333       -14.8665
  21   2.0000      -0.545353       -14.8398
  22   2.0000      -0.535838       -14.5809
  23   2.0000      -0.527510       -14.3543
  24   2.0000      -0.498386       -13.5618
  25   2.0000      -0.485414       -13.2088
  26   2.0000      -0.469707       -12.7814
  27   2.0000      -0.465151       -12.6574
  28   2.0000      -0.448720       -12.2103
  29   2.0000      -0.376762       -10.2522
  30   2.0000      -0.373933       -10.1752
  31   0.0000       0.131934         3.5901
  32   0.0000       0.161881         4.4050
  33   0.0000       0.166030         4.5179
  34   0.0000       0.174583         4.7507
  35   0.0000       0.191013         5.1977

MULLIKEN ATOMIC CHARGES
-----------------------
   0 C :   -0.395377
   1 C :    0.114036
   2 C :   -0.428076
   3 C :   -0.132546
   4 C :   -0.245370
   5 C :   -0.244285
   6 C :   -0.245894
   7 C :   -0.132680
   8 H :    0.130321
   9 H :    0.128183
  10 H :    0.128109
  11 H :    0.128905
  12 H :    0.127994
  13 H :    0.128927
  14 H :    0.119536
  15 H :    0.117469
  16 H :    0.114812
  17 H :    0.115459
  18 H :    0.118468
  19 H :    0.117452
  20 H :    0.115007
  21 H :    0.119551
Sum of atomic charges:    0.0000000

LOEWDIN ATOMIC CHARGES
----------------------
   0 C :   -0.262972
   1 C :   -0.257570
   2 C :   -0.266342
   3 C :   -0.172395
   4 C :   -0.235784
   5 C :   -0.251443
   6 C :   -0.235835
   7 C :   -0.172392
   8 H :    0.127403
   9 H :    0.128153
  10 H :    0.128166
  11 H :    0.124995
  12 H :    0.126813
  13 H :    0.124965
  14 H :    0.143707
  15 H :    0.138569
  16 H :    0.135646
  17 H :    0.131185
  18 H :    0.127205
  19 H :    0.138578
  20 H :    0.135640
  21 H :    0.143709

  Mayer bond orders larger than 0.1
B(  0-C ,  1-C ) :   0.9083 B(  0-C ,  8-H ) :   0.9351 B(  0-C ,  9-H ) :   0.9375
B(  0-C , 10-H ) :   0.9374 B(  1-C ,  2-C ) :   0.8868 B(  1-C ,  3-C ) :   0.8628
B(  1-C ,  7-C ) :   0.8631 B(  2-C , 11-H ) :   0.9431 B(  2-C , 12-H ) :   0.9316
B(  2-C , 13-H ) :   0.9432 B(  3-C ,  4-C ) :   0.9309 B(  3-C ,  7-C ) :   0.8426
B(  3-C , 14-H ) :   0.9266 B(  4-C ,  5-C ) :   0.9397 B(  4-C , 15-H ) :   0.9281
B(  4-C , 16-H ) :   0.9332 B(  5-C ,  6-C ) :   0.9395 B(  5-C , 17-H ) :   0.9330
B(  5-C , 18-H ) :   0.9367 B(  6-C ,  7-C ) :   0.9307 B(  6-C , 19-H ) :   0.9281
B(  6-C , 20-H ) :   0.9334 B(  7-C , 21-H ) :   0.9266

MP2 TOTAL ENERGY:     -312.503194579 Eh
FINAL SINGLE POINT ENERGY      -312.503194578870

DIPOLE MOMENT
-------------
                                X             Y             Z
Electronic contribution:      1.14524      -1.84056       0.35085
Nuclear contribution   :     -1.09592       1.82358      -0.33406
                        -----------------------------------------
Total Dipole Moment    :      0.04932      -0.01698       0.01679
                        -----------------------------------------
Magnitude (a.u.)       :      0.05480
Magnitude (Debye)      :      0.13929

                             ****ORCA TERMINATED NORMALLY****
TOTAL RUN TIME: 0 days 0 hours 17 minutes 8 seconds 45 msec
