                         Program Version 3.0.3 - RELEASE   -
|  1> ! RI-MP2 RIJK def2-TZVP def2-TZVP/C def2-TZVP/JK TIGHTSCF
|  2> % maxcore 2000
|  3> % mp2 density relaxed end
|  4> *xyz 0 1
|  5>  O       -0.0317808624     1.4241737657    -0.0417357457
|  6>  C        0.0520601690     0.0103740146    -0.0420147530
|  7>  C        0.7381087825    -0.4816837453    -1.2512615461
|  8>  N        1.3087060599    -0.8052564936    -2.2019552864
|  9>  C        0.7251994495    -0.5155448934     1.2341969932
| 10>  C       -0.0106597284    -0.1868478955     2.5489395381
| 11>  O       -0.2219610685    -1.6134154826     2.7925227233
| 12>  C        0.4234771562    -1.9547243240     1.6216760433
| 13>  N        0.6408063071    -3.0652070454     1.0891533840
| 14>  H        0.8502133654     1.7842692452    -0.1925058356
| 15>  H       -0.9845188433    -0.3432503303    -0.0693984709
| 16>  H        1.7909609630    -0.2747424732     1.2298308770
| 17>  H        0.5912448735     0.2620771377     3.3411393844
| 18>  H       -0.9596499923     0.3429623975     2.4415602514
| 19>  H        0.2645885789    -3.8355223574     1.6440244529
| 20> *
| 21>
| 22>                          ****END OF INPUT****

CARTESIAN COORDINATES (ANGSTROEM)
---------------------------------
  O     -0.031781    1.424174   -0.041736
  C      0.052060    0.010374   -0.042015
  C      0.738109   -0.481684   -1.251262
  N      1.308706   -0.805256   -2.201955
  C      0.725199   -0.515545    1.234197
  C     -0.010660   -0.186848    2.548940
  O     -0.221961   -1.613415    2.792523
  C      0.423477   -1.954724    1.621676
  N      0.640806   -3.065207    1.089153
  H      0.850213    1.784269   -0.192506
  H     -0.984519   -0.343250   -0.069398
  H      1.790961   -0.274742    1.229831
  H      0.591245    0.262077    3.341139
  H     -0.959650    0.342962    2.441560
  H      0.264589   -3.835522    1.644024

 Total Charge           Charge          ....    0
 Multiplicity           Mult            ....    1
 Number of Electrons    NEL             ....   66
 Basis Dimension        Dim             ....  315

ORBITAL ENERGIES
----------------

  NO   OCC          E(Eh)            E(eV)
   0   2.0000     -20.611245      -560.8605
   1   2.0000     -20.609843      -560.8223
   2   2.0000     -15.588937      -424.1965
   3   2.0000     -15.556961      -423.3264
   4   2.0000     -11.365045      -309.2586
   5   2.0000     -11.360822      -309.1437
   6   2.0000     -11.323343      -308.1238
   7   2.0000     -11.289172      -307.1940
   8   2.0000     -11.284964      -307.0795
   9   2.0000      -1.454539       -39.5800
  10   2.0000      -1.419326       -38.6218
  11   2.0000      -1.232307       -33.5328
  12   2.0000      -1.217491       -33.1296
  13   2.0000      -1.105299       -30.0767
  14   2.0000      -0.987631       -26.8748
  15   2.0000      -0.915974       -24.9249
  16   2.0000      -0.795994       -21.6601
  17   2.0000      -0.775370       -21.0989
  18   2.0000      -0.725434       -19.7401
  19   2.0000      -0.721883       -19.6434
  20   2.0000      -0.691685       -18.8217
  21   2.0000      -0.662885       -18.0380
  22   2.0000      -0.629770       -17.1369
  23   2.0000      -0.593090       -16.1388
  24   2.0000      -0.569821       -15.5056
  25   2.0000      -0.551708       -15.0127
  26   2.0000      -0.544098       -14.8056
  27   2.0000      -0.531283       -14.4569
  28   2.0000      -0.513658       -13.9774
  29   2.0000      -0.481360       -13.0985
  30   2.0000      -0.473754       -12.8915
  31   2.0000      -0.452297       -12.3076
  32   2.0000      -0.421939       -11.4815
  33   0.0000       0.103810         2.8248
  34   0.0000       0.137138         3.7317
  35   0.0000       0.142394         3.8747
  36   0.0000       0.153709         4.1826
  37   0.0000       0.159964         4.3528

MULLIKEN ATOMIC CHARGES
-----------------------
   0 O :   -0.441717
   1 C :    0.152549
   2 C :   -0.187105
   3 N :   -0.045170
   4 C :   -0.045665
   5 C :   -0.017715
   6 O :   -0.258315
   7 C :    0.076766
   8 N :   -0.349815
   9 H :    0.331980
  10 H :    0.147902
  11 H :    0.144634
  12 H :    0.122675
  13 H :    0.133088
  14 H :    0.235910
Sum of atomic charges:    0.0000000

LOEWDIN ATOMIC CHARGES
----------------------
   0 O :    0.016779
   1 C :   -0.314958
   2 C :   -0.163600
   3 N :    0.085250
   4 C :   -0.175897
   5 C :   -0.204091
   6 O :    0.213658
   7 C :   -0.385645
   8 N :   -0.033775
   9 H :    0.187050
  10 H :    0.175506
  11 H :    0.165177
  12 H :    0.126281
  13 H :    0.130607
  14 H :    0.177658

  Mayer bond orders larger than 0.1
B(  0-O ,  1-C ) :   0.9317 B(  0-O ,  9-H ) :   0.8319 B(  1-C ,  2-C ) :   0.9375
B(  1-C ,  4-C ) :   0.9187 B(  1-C , 10-H ) :   0.9001 B(  2-C ,  3-N ) :   2.8374
B(  4-C ,  5-C ) :   0.9434 B(  4-C ,  7-C ) :   0.8975 B(  4-C , 11-H ) :   0.8851
B(  5-C ,  6-O ) :   0.8888 B(  5-C , 12-H ) :   0.9183 B(  5-C , 13-H ) :   0.9124
B(  6-O ,  7-C ) :   1.0685 B(  7-C ,  8-N ) :   2.0508 B(  8-N , 14-H ) :   0.8403

MP2 TOTAL ENERGY:     -453.204854916 Eh
FINAL SINGLE POINT ENERGY      -453.204854915879

DIPOLE MOMENT
-------------
                                X             Y             Z
Electronic contribution:      0.50057      -1.41753      -2.65521
Nuclear contribution   :     -0.69281       2.39544       4.03192
                        -----------------------------------------
Total Dipole Moment    :     -0.19225       0.97792       1.37671
                        -----------------------------------------
Magnitude (a.u.)       :      1.69959
Magnitude (Debye)      :      4.32002

                             ****ORCA TERMINATED NORMALLY****
TOTAL RUN TIME: 0 days 0 hours 16 minutes 2 seconds 897 msec
