                         Program Version 3.0.3 - RELEASE   -
|  1> ! RI-MP2 RIJK def2-TZVP def2-TZVP/C def2-TZVP/JK TIGHTSCF
|  2> % maxcore 2000
|  3> % mp2 density relaxed end
|  4> *xyz 0 1
|  5>  C       -0.0372124619     1.4836641722    -0.3995906876
|  6>  C        0.0050584361     0.0121232963    -0.0475510208
|  7>  C        1.2931527805    -0.7365205642     0.0141273125
|  8>  N        0.5132491354    -0.4983520248     1.2279386995
|  9>  C        1.0636734881     0.4298902386     2.2094232340
| 10>  C        1.8668625840    -0.3491219589     3.2520352888
| 11>  C        2.5262126486     0.5740244298     4.2716275689
| 12>  N        2.7681961918     0.0045754030     5.4889879463
| 13>  O        2.8282402185     1.7267023636     4.0244980959
| 14>  H        0.8821839606     2.0067626083    -0.1274239252
| 15>  H       -0.1790358165     1.6014525432    -1.4792043348
| 16>  H       -0.8738598169     1.9861728786     0.0986378373
| 17>  H       -0.8725833621    -0.5383962620    -0.3859058698
| 18>  H        1.3634312199    -1.7687435968    -0.3198928905
| 19>  H        2.2035931230    -0.1525299697    -0.1246702017
| 20>  H        1.7134144512     1.2057755595     1.7833071793
| 21>  H        0.2299383075     0.9456185049     2.6996670539
| 22>  H        1.2286639752    -1.0912650856     3.7433047186
| 23>  H        2.6640918154    -0.9115061434     2.7473693885
| 24>  H        2.5488172954    -0.9551261116     5.6879230606
| 25>  H        3.2621237361     0.5454310191     6.1797041064
| 26> *
| 27>
| 28>                          ****END OF INPUT****

CARTESIAN COORDINATES (ANGSTROEM)
---------------------------------
  C     -0.037212    1.483664   -0.399591
  C      0.005058    0.012123   -0.047551
  C      1.293153   -0.736521    0.014127
  N      0.513249   -0.498352    1.227939
  C      1.063673    0.429890    2.209423
  C      1.866863   -0.349122    3.252035
  C      2.526213    0.574024    4.271628
  N      2.768196    0.004575    5.488988
  O      2.828240    1.726702    4.024498
  H      0.882184    2.006763   -0.127424
  H     -0.179036    1.601453   -1.479204
  H     -0.873860    1.986173    0.098638
  H     -0.872583   -0.538396   -0.385906
  H      1.363431   -1.768744   -0.319893
  H      2.203593   -0.152530   -0.124670
  H      1.713414    1.205776    1.783307
  H      0.229938    0.945619    2.699667
  H      1.228664   -1.091265    3.743305
  H      2.664092   -0.911506    2.747369
  H      2.548817   -0.955126    5.687923
  H      3.262124    0.545431    6.179704

 Total Charge           Charge          ....    0
 Multiplicity           Mult            ....    1
 Number of Electrons    NEL             ....   70
 Basis Dimension        Dim             ....  351

ORBITAL ENERGIES
----------------

  NO   OCC          E(Eh)            E(eV)
   0   2.0000     -20.514218      -558.2203
   1   2.0000     -15.581362      -423.9904
   2   2.0000     -15.553266      -423.2259
   3   2.0000     -11.348967      -308.8211
   4   2.0000     -11.257941      -306.3441
   5   2.0000     -11.249846      -306.1239
   6   2.0000     -11.248314      -306.0822
   7   2.0000     -11.236422      -305.7586
   8   2.0000     -11.220929      -305.3370
   9   2.0000      -1.379025       -37.5252
  10   2.0000      -1.269027       -34.5320
  11   2.0000      -1.208558       -32.8865
  12   2.0000      -1.058532       -28.8041
  13   2.0000      -0.985420       -26.8147
  14   2.0000      -0.927144       -25.2289
  15   2.0000      -0.827121       -22.5071
  16   2.0000      -0.789748       -21.4901
  17   2.0000      -0.767548       -20.8861
  18   2.0000      -0.721677       -19.6378
  19   2.0000      -0.679578       -18.4923
  20   2.0000      -0.662422       -18.0254
  21   2.0000      -0.635240       -17.2858
  22   2.0000      -0.623194       -16.9580
  23   2.0000      -0.589188       -16.0326
  24   2.0000      -0.576364       -15.6837
  25   2.0000      -0.566474       -15.4145
  26   2.0000      -0.541932       -14.7467
  27   2.0000      -0.521056       -14.1787
  28   2.0000      -0.508662       -13.8414
  29   2.0000      -0.502676       -13.6785
  30   2.0000      -0.450787       -12.2665
  31   2.0000      -0.440809       -11.9950
  32   2.0000      -0.423042       -11.5116
  33   2.0000      -0.414234       -11.2719
  34   2.0000      -0.363500        -9.8913
  35   0.0000       0.125456         3.4138
  36   0.0000       0.145231         3.9519
  37   0.0000       0.161343         4.3904
  38   0.0000       0.175021         4.7626
  39   0.0000       0.180442         4.9101

MULLIKEN ATOMIC CHARGES
-----------------------
   0 C :   -0.388814
   1 C :   -0.019714
   2 C :   -0.205254
   3 N :   -0.217203
   4 C :   -0.186435
   5 C :   -0.215247
   6 C :    0.275207
   7 N :   -0.480608
   8 O :   -0.358146
   9 H :    0.130797
  10 H :    0.139063
  11 H :    0.133263
  12 H :    0.114152
  13 H :    0.126159
  14 H :    0.120363
  15 H :    0.130682
  16 H :    0.119447
  17 H :    0.129633
  18 H :    0.134962
  19 H :    0.259213
  20 H :    0.258482
Sum of atomic charges:    0.0000000

LOEWDIN ATOMIC CHARGES
----------------------
   0 C :   -0.301145
   1 C :   -0.282454
   2 C :   -0.253277
   3 N :    0.104739
   4 C :   -0.287125
   5 C :   -0.236581
   6 C :   -0.476798
   7 N :   -0.022691
   8 O :    0.079125
   9 H :    0.125747
  10 H :    0.130046
  11 H :    0.126788
  12 H :    0.140097
  13 H :    0.121666
  14 H :    0.124843
  15 H :    0.131092
  16 H :    0.137704
  17 H :    0.143180
  18 H :    0.153603
  19 H :    0.169418
  20 H :    0.172022

  Mayer bond orders larger than 0.1
B(  0-C ,  1-C ) :   0.9160 B(  0-C ,  9-H ) :   0.9350 B(  0-C , 10-H ) :   0.9318
B(  0-C , 11-H ) :   0.9367 B(  1-C ,  2-C ) :   0.9402 B(  1-C ,  3-N ) :   0.8990
B(  1-C , 12-H ) :   0.9249 B(  2-C ,  3-N ) :   0.8843 B(  2-C , 13-H ) :   0.9217
B(  2-C , 14-H ) :   0.9175 B(  3-N ,  4-C ) :   0.9065 B(  4-C ,  5-C ) :   0.9371
B(  4-C , 15-H ) :   0.9401 B(  4-C , 16-H ) :   0.9224 B(  5-C ,  6-C ) :   0.8936
B(  5-C , 17-H ) :   0.9248 B(  5-C , 18-H ) :   0.8925 B(  6-C ,  7-N ) :   1.1600
B(  6-C ,  8-O ) :   1.9578 B(  7-N , 19-H ) :   0.8713 B(  7-N , 20-H ) :   0.8582

MP2 TOTAL ENERGY:     -419.706253589 Eh
FINAL SINGLE POINT ENERGY      -419.706253588639

DIPOLE MOMENT
-------------
                                X             Y             Z
Electronic contribution:      3.05005       0.00272       6.54686
Nuclear contribution   :     -3.03610      -0.85455      -6.27258
                        -----------------------------------------
Total Dipole Moment    :      0.01395      -0.85183       0.27428
                        -----------------------------------------
Magnitude (a.u.)       :      0.89501
Magnitude (Debye)      :      2.27493

                             ****ORCA TERMINATED NORMALLY****
TOTAL RUN TIME: 0 days 0 hours 15 minutes 58 seconds 169 msec
