                         Program Version 3.0.3 - RELEASE   -
|  1> ! RI-MP2 RIJK def2-TZVP def2-TZVP/C def2-TZVP/JK TIGHTSCF
|  2> % maxcore 2000
|  3> % mp2 density relaxed end
|  4> *xyz 0 1
|  5>  O        0.0497869708     1.4335981594    -0.2763963857
|  6>  C        0.0167452292     0.0614456764    -0.0188752957
|  7>  C        0.4806838387    -0.9168393655    -1.1292710699
|  8>  C       -0.8443923486    -1.7190025215    -0.9687959228
|  9>  C       -1.3765544700    -0.6661820354     0.0636829626
| 10>  C       -1.0386690904    -1.0735307159     1.4958341919
| 11>  O       -1.6191901645    -1.6851444241     2.3455103879
| 12>  C        0.3436900244    -0.3885731611     1.4410335761
| 13>  H        0.9680202532     1.7260857651    -0.2570683881
| 14>  H        0.5415463579    -0.4085749405    -2.0944360897
| 15>  H        1.4149532413    -1.4565637859    -0.9519010740
| 16>  H       -1.4480066384    -1.7661308811    -1.8759997428
| 17>  H       -0.7439927767    -2.7319536824    -0.5726491788
| 18>  H       -2.3365516472    -0.1941946571    -0.1428851386
| 19>  H        1.2163159479    -1.0245532238     1.6163658799
| 20>  H        0.3793245623     0.4691331635     2.1212046577
| 21> *
| 22>
| 23>                          ****END OF INPUT****

CARTESIAN COORDINATES (ANGSTROEM)
---------------------------------
  O      0.049787    1.433598   -0.276396
  C      0.016745    0.061446   -0.018875
  C      0.480684   -0.916839   -1.129271
  C     -0.844392   -1.719003   -0.968796
  C     -1.376554   -0.666182    0.063683
  C     -1.038669   -1.073531    1.495834
  O     -1.619190   -1.685144    2.345510
  C      0.343690   -0.388573    1.441034
  H      0.968020    1.726086   -0.257068
  H      0.541546   -0.408575   -2.094436
  H      1.414953   -1.456564   -0.951901
  H     -1.448007   -1.766131   -1.876000
  H     -0.743993   -2.731954   -0.572649
  H     -2.336552   -0.194195   -0.142885
  H      1.216316   -1.024553    1.616366
  H      0.379325    0.469133    2.121205

 Total Charge           Charge          ....    0
 Multiplicity           Mult            ....    1
 Number of Electrons    NEL             ....   60
 Basis Dimension        Dim             ....  296

ORBITAL ENERGIES
----------------

  NO   OCC          E(Eh)            E(eV)
   0   2.0000     -20.574915      -559.8719
   1   2.0000     -20.551045      -559.2224
   2   2.0000     -11.332212      -308.3652
   3   2.0000     -11.304219      -307.6034
   4   2.0000     -11.245463      -306.0046
   5   2.0000     -11.242228      -305.9166
   6   2.0000     -11.242099      -305.9131
   7   2.0000     -11.237176      -305.7791
   8   2.0000      -1.394880       -37.9566
   9   2.0000      -1.385090       -37.6902
  10   2.0000      -1.170709       -31.8566
  11   2.0000      -1.025133       -27.8953
  12   2.0000      -0.934915       -25.4403
  13   2.0000      -0.867174       -23.5970
  14   2.0000      -0.793546       -21.5935
  15   2.0000      -0.715576       -19.4718
  16   2.0000      -0.709664       -19.3110
  17   2.0000      -0.666592       -18.1389
  18   2.0000      -0.654861       -17.8197
  19   2.0000      -0.633598       -17.2411
  20   2.0000      -0.600948       -16.3526
  21   2.0000      -0.591535       -16.0965
  22   2.0000      -0.570592       -15.5266
  23   2.0000      -0.544481       -14.8161
  24   2.0000      -0.508234       -13.8298
  25   2.0000      -0.499499       -13.5921
  26   2.0000      -0.478266       -13.0143
  27   2.0000      -0.437909       -11.9161
  28   2.0000      -0.420999       -11.4560
  29   2.0000      -0.394252       -10.7281
  30   0.0000       0.120894         3.2897
  31   0.0000       0.124165         3.3787
  32   0.0000       0.150644         4.0992
  33   0.0000       0.171065         4.6549
  34   0.0000       0.177661         4.8344

MULLIKEN ATOMIC CHARGES
-----------------------
   0 O :   -0.459290
   1 C :    0.248903
   2 C :   -0.279680
   3 C :   -0.264101
   4 C :   -0.034066
   5 C :    0.064510
   6 O :   -0.252443
   7 C :   -0.260881
   8 H :    0.322318
   9 H :    0.118717
  10 H :    0.117571
  11 H :    0.130181
  12 H :    0.137953
  13 H :    0.137866
  14 H :    0.136280
  15 H :    0.136161
Sum of atomic charges:   -0.0000000

LOEWDIN ATOMIC CHARGES
----------------------
   0 O :    0.017141
   1 C :   -0.326548
   2 C :   -0.208778
   3 C :   -0.200632
   4 C :   -0.127730
   5 C :   -0.297143
   6 O :    0.162827
   7 C :   -0.177819
   8 H :    0.182836
   9 H :    0.138598
  10 H :    0.127307
  11 H :    0.135580
  12 H :    0.134846
  13 H :    0.146721
  14 H :    0.139250
  15 H :    0.153542

  Mayer bond orders larger than 0.1
B(  0-O ,  1-C ) :   1.0343 B(  0-O ,  8-H ) :   0.8364 B(  1-C ,  2-C ) :   0.9424
B(  1-C ,  4-C ) :   0.8989 B(  1-C ,  7-C ) :   0.9368 B(  2-C ,  3-C ) :   0.9598
B(  2-C ,  9-H ) :   0.9095 B(  2-C , 10-H ) :   0.9119 B(  3-C ,  4-C ) :   0.8798
B(  3-C , 11-H ) :   0.9197 B(  3-C , 12-H ) :   0.9267 B(  4-C ,  5-C ) :   0.8626
B(  4-C ,  7-C ) :  -0.1146 B(  4-C , 13-H ) :   0.8728 B(  5-C ,  6-O ) :   2.0339
B(  5-C ,  7-C ) :   0.9165 B(  7-C , 14-H ) :   0.8883 B(  7-C , 15-H ) :   0.8847

MP2 TOTAL ENERGY:     -383.089948072 Eh
FINAL SINGLE POINT ENERGY      -383.089948071507

DIPOLE MOMENT
-------------
                                X             Y             Z
Electronic contribution:     -2.57321       0.87542       3.98066
Nuclear contribution   :      3.60886      -0.62640      -4.78502
                        -----------------------------------------
Total Dipole Moment    :      1.03565       0.24902      -0.80436
                        -----------------------------------------
Magnitude (a.u.)       :      1.33476
Magnitude (Debye)      :      3.39269

                             ****ORCA TERMINATED NORMALLY****
TOTAL RUN TIME: 0 days 0 hours 12 minutes 12 seconds 83 msec
