                         Program Version 3.0.3 - RELEASE   -
|  1> ! RI-MP2 RIJK def2-TZVP def2-TZVP/C def2-TZVP/JK TIGHTSCF
|  2> % maxcore 2000
|  3> % mp2 density relaxed end
|  4> *xyz 0 1
|  5>  O       -0.0759910098     1.3944858993     0.0007633229
|  6>  C       -0.0311614875     0.0095531886     0.0202042049
|  7>  C        0.1775946103    -0.8616512073     1.3070441658
|  8>  C       -0.4291238752    -1.9288379026     0.3520492210
|  9>  C       -1.3351208196    -0.7960729794    -0.2108665083
| 10>  O        0.5833676819    -2.0906766401    -0.6581482143
| 11>  C        0.9156878265    -0.7209159667    -0.9578691061
| 12>  C       -0.9517681821    -3.2491005767     0.8243196544
| 13>  O       -1.8367557965    -3.3577222028     1.6347546778
| 14>  H        0.8120569409     1.7384357542     0.1494687039
| 15>  H        1.1936410300    -1.0464875827     1.6637454316
| 16>  H       -0.4973221261    -0.5883384617     2.1176662428
| 17>  H       -2.1347166262    -0.5204598914     0.4759256671
| 18>  H       -1.6991346087    -0.9158269006    -1.2332109470
| 19>  H        0.7015333532    -0.4896389606    -2.0073554873
| 20>  H        1.9781777223    -0.5330772636    -0.7554219200
| 21>  H       -0.4511314734    -4.1295879859     0.3664909507
| 22> *
| 23>
| 24>                          ****END OF INPUT****

CARTESIAN COORDINATES (ANGSTROEM)
---------------------------------
  O     -0.075991    1.394486    0.000763
  C     -0.031161    0.009553    0.020204
  C      0.177595   -0.861651    1.307044
  C     -0.429124   -1.928838    0.352049
  C     -1.335121   -0.796073   -0.210867
  O      0.583368   -2.090677   -0.658148
  C      0.915688   -0.720916   -0.957869
  C     -0.951768   -3.249101    0.824320
  O     -1.836756   -3.357722    1.634755
  H      0.812057    1.738436    0.149469
  H      1.193641   -1.046488    1.663745
  H     -0.497322   -0.588338    2.117666
  H     -2.134717   -0.520460    0.475926
  H     -1.699135   -0.915827   -1.233211
  H      0.701533   -0.489639   -2.007355
  H      1.978178   -0.533077   -0.755422
  H     -0.451131   -4.129588    0.366491

 Total Charge           Charge          ....    0
 Multiplicity           Mult            ....    1
 Number of Electrons    NEL             ....   68
 Basis Dimension        Dim             ....  327

ORBITAL ENERGIES
----------------

  NO   OCC          E(Eh)            E(eV)
   0   2.0000     -20.583876      -560.1158
   1   2.0000     -20.574071      -559.8489
   2   2.0000     -20.564748      -559.5952
   3   2.0000     -11.338031      -308.5235
   4   2.0000     -11.314799      -307.8913
   5   2.0000     -11.310900      -307.7852
   6   2.0000     -11.292099      -307.2736
   7   2.0000     -11.245875      -306.0158
   8   2.0000     -11.243940      -305.9632
   9   2.0000      -1.416808       -38.5533
  10   2.0000      -1.400835       -38.1187
  11   2.0000      -1.387296       -37.7503
  12   2.0000      -1.137474       -30.9523
  13   2.0000      -1.011833       -27.5334
  14   2.0000      -0.932654       -25.3788
  15   2.0000      -0.887462       -24.1491
  16   2.0000      -0.807502       -21.9732
  17   2.0000      -0.773134       -21.0380
  18   2.0000      -0.728125       -19.8133
  19   2.0000      -0.685523       -18.6540
  20   2.0000      -0.669020       -18.2050
  21   2.0000      -0.654723       -17.8159
  22   2.0000      -0.646205       -17.5841
  23   2.0000      -0.595557       -16.2059
  24   2.0000      -0.590308       -16.0631
  25   2.0000      -0.563596       -15.3362
  26   2.0000      -0.557759       -15.1774
  27   2.0000      -0.544499       -14.8166
  28   2.0000      -0.535397       -14.5689
  29   2.0000      -0.510370       -13.8879
  30   2.0000      -0.465005       -12.6534
  31   2.0000      -0.445349       -12.1186
  32   2.0000      -0.420776       -11.4499
  33   2.0000      -0.412026       -11.2118
  34   0.0000       0.112620         3.0645
  35   0.0000       0.120258         3.2724
  36   0.0000       0.151902         4.1335
  37   0.0000       0.178904         4.8682
  38   0.0000       0.186250         5.0681

MULLIKEN ATOMIC CHARGES
-----------------------
   0 O :   -0.450520
   1 C :    0.150829
   2 C :   -0.266134
   3 C :    0.229183
   4 C :   -0.236458
   5 O :   -0.322373
   6 C :   -0.069940
   7 C :    0.029491
   8 O :   -0.264952
   9 H :    0.324908
  10 H :    0.127494
  11 H :    0.142524
  12 H :    0.143658
  13 H :    0.129343
  14 H :    0.118795
  15 H :    0.108027
  16 H :    0.106125
Sum of atomic charges:   -0.0000000

LOEWDIN ATOMIC CHARGES
----------------------
   0 O :    0.032764
   1 C :   -0.375397
   2 C :   -0.154730
   3 C :   -0.312558
   4 C :   -0.141394
   5 O :    0.175690
   6 C :   -0.248466
   7 C :   -0.247309
   8 O :    0.145288
   9 H :    0.185960
  10 H :    0.132767
  11 H :    0.148976
  12 H :    0.151579
  13 H :    0.136555
  14 H :    0.127190
  15 H :    0.122759
  16 H :    0.120326

  Mayer bond orders larger than 0.1
B(  0-O ,  1-C ) :   1.0260 B(  0-O ,  9-H ) :   0.8332 B(  1-C ,  2-C ) :   0.8995
B(  1-C ,  4-C ) :   0.9113 B(  1-C ,  6-C ) :   0.9425 B(  2-C ,  3-C ) :   0.8961
B(  2-C , 10-H ) :   0.9129 B(  2-C , 11-H ) :   0.9105 B(  3-C ,  4-C ) :   0.8880
B(  3-C ,  5-O ) :   0.9335 B(  3-C ,  7-C ) :   0.7524 B(  3-C , 16-H ) :  -0.1031
B(  4-C , 12-H ) :   0.9117 B(  4-C , 13-H ) :   0.9137 B(  5-O ,  6-C ) :   0.9194
B(  6-C , 14-H ) :   0.9259 B(  6-C , 15-H ) :   0.9151 B(  7-C ,  8-O ) :   2.0213
B(  7-C , 16-H ) :   0.9805

MP2 TOTAL ENERGY:     -458.212359550 Eh
FINAL SINGLE POINT ENERGY      -458.212359549508

DIPOLE MOMENT
-------------
                                X             Y             Z
Electronic contribution:     -1.36852      -2.70965       0.89049
Nuclear contribution   :      2.31896       3.40423      -1.16860
                        -----------------------------------------
Total Dipole Moment    :      0.95043       0.69457      -0.27811
                        -----------------------------------------
Magnitude (a.u.)       :      1.20958
Magnitude (Debye)      :      3.07452

                             ****ORCA TERMINATED NORMALLY****
TOTAL RUN TIME: 0 days 0 hours 16 minutes 16 seconds 101 msec
