                         Program Version 3.0.3 - RELEASE   -
|  1> ! RI-MP2 RIJK def2-TZVP def2-TZVP/C def2-TZVP/JK TIGHTSCF
|  2> % maxcore 2000
|  3> % mp2 density relaxed end
|  4> *xyz 0 1
|  5>  C       -0.1441967170     1.5204876231    -0.0054934560
|  6>  C       -0.0295717243    -0.0133886166     0.0009417408
|  7>  C       -1.3654774389    -0.5694834449    -0.1680577218
|  8>  C       -2.4826979612    -0.9947279124    -0.3091663176
|  9>  C        1.1283173542    -0.6144269132    -0.8931467525
| 10>  C        2.1009293616    -0.2521974832     0.2646982515
| 11>  C        0.8747879753    -0.6248262941     1.1453321457
| 12>  C        0.7673656176    -2.1389852307     0.8799605631
| 13>  C        0.9610657555    -2.1310405655    -0.6774031503
| 14>  H        0.8186520141     2.0188802327     0.1169667855
| 15>  H       -0.5845763186     1.8604388404    -0.9477561378
| 16>  H       -0.8026481022     1.8514825676     0.8033585818
| 17>  H       -3.4661185822    -1.3753085864    -0.4336279548
| 18>  H        1.2776398774    -0.2592004853    -1.9136994916
| 19>  H        2.9920154184    -0.8767219450     0.3723388978
| 20>  H        2.3874305678     0.7969741193     0.3056792726
| 21>  H        0.7691353347    -0.2800659892     2.1748895615
| 22>  H        1.5509595180    -2.6957659730     1.4012783731
| 23>  H       -0.2003262426    -2.5482521357     1.1768001217
| 24>  H        0.0960841117    -2.5361009718    -1.2063401948
| 25>  H        1.8491867609    -2.6835282360    -0.9964557581
| 26> *
| 27>
| 28>                          ****END OF INPUT****

CARTESIAN COORDINATES (ANGSTROEM)
---------------------------------
  C     -0.144197    1.520488   -0.005493
  C     -0.029572   -0.013389    0.000942
  C     -1.365477   -0.569483   -0.168058
  C     -2.482698   -0.994728   -0.309166
  C      1.128317   -0.614427   -0.893147
  C      2.100929   -0.252197    0.264698
  C      0.874788   -0.624826    1.145332
  C      0.767366   -2.138985    0.879961
  C      0.961066   -2.131041   -0.677403
  H      0.818652    2.018880    0.116967
  H     -0.584576    1.860439   -0.947756
  H     -0.802648    1.851483    0.803359
  H     -3.466119   -1.375309   -0.433628
  H      1.277640   -0.259200   -1.913699
  H      2.992015   -0.876722    0.372339
  H      2.387431    0.796974    0.305679
  H      0.769135   -0.280066    2.174890
  H      1.550960   -2.695766    1.401278
  H     -0.200326   -2.548252    1.176800
  H      0.096084   -2.536101   -1.206340
  H      1.849187   -2.683528   -0.996456

 Total Charge           Charge          ....    0
 Multiplicity           Mult            ....    1
 Number of Electrons    NEL             ....   66
 Basis Dimension        Dim             ....  351

ORBITAL ENERGIES
----------------

  NO   OCC          E(Eh)            E(eV)
   0   2.0000     -11.257665      -306.3366
   1   2.0000     -11.236363      -305.7570
   2   2.0000     -11.236355      -305.7568
   3   2.0000     -11.225374      -305.4580
   4   2.0000     -11.221997      -305.3661
   5   2.0000     -11.218827      -305.2798
   6   2.0000     -11.216992      -305.2299
   7   2.0000     -11.216469      -305.2156
   8   2.0000     -11.215100      -305.1784
   9   2.0000      -1.193032       -32.4640
  10   2.0000      -1.045153       -28.4400
  11   2.0000      -0.997036       -27.1307
  12   2.0000      -0.946933       -25.7674
  13   2.0000      -0.937632       -25.5143
  14   2.0000      -0.872573       -23.7439
  15   2.0000      -0.761028       -20.7086
  16   2.0000      -0.760559       -20.6959
  17   2.0000      -0.697873       -18.9901
  18   2.0000      -0.677185       -18.4271
  19   2.0000      -0.656446       -17.8628
  20   2.0000      -0.618222       -16.8227
  21   2.0000      -0.580075       -15.7847
  22   2.0000      -0.547504       -14.8983
  23   2.0000      -0.529779       -14.4160
  24   2.0000      -0.525423       -14.2975
  25   2.0000      -0.495373       -13.4798
  26   2.0000      -0.485375       -13.2077
  27   2.0000      -0.458089       -12.4652
  28   2.0000      -0.454425       -12.3655
  29   2.0000      -0.440985       -11.9998
  30   2.0000      -0.432260       -11.7624
  31   2.0000      -0.378902       -10.3105
  32   2.0000      -0.367758       -10.0072
  33   0.0000       0.137809         3.7500
  34   0.0000       0.156566         4.2604
  35   0.0000       0.162800         4.4300
  36   0.0000       0.163153         4.4396
  37   0.0000       0.178282         4.8513

MULLIKEN ATOMIC CHARGES
-----------------------
   0 C :   -0.405784
   1 C :   -0.080405
   2 C :   -0.045824
   3 C :   -0.155340
   4 C :   -0.023704
   5 C :   -0.293597
   6 C :   -0.023713
   7 C :   -0.267023
   8 C :   -0.267025
   9 H :    0.124144
  10 H :    0.138938
  11 H :    0.138943
  12 H :    0.187039
  13 H :    0.120970
  14 H :    0.113516
  15 H :    0.120764
  16 H :    0.120970
  17 H :    0.118291
  18 H :    0.130275
  19 H :    0.130274
  20 H :    0.118291
Sum of atomic charges:    0.0000000

LOEWDIN ATOMIC CHARGES
----------------------
   0 C :   -0.247663
   1 C :   -0.216499
   2 C :   -0.066858
   3 C :   -0.099259
   4 C :   -0.158041
   5 C :   -0.196520
   6 C :   -0.158040
   7 C :   -0.220201
   8 C :   -0.220202
   9 H :    0.124294
  10 H :    0.131448
  11 H :    0.131450
  12 H :    0.125849
  13 H :    0.135374
  14 H :    0.129819
  15 H :    0.130597
  16 H :    0.135374
  17 H :    0.131934
  18 H :    0.137605
  19 H :    0.137605
  20 H :    0.131934

  Mayer bond orders larger than 0.1
B(  0-C ,  1-C ) :   0.9274 B(  0-C ,  9-H ) :   0.9253 B(  0-C , 10-H ) :   0.9378
B(  0-C , 11-H ) :   0.9378 B(  1-C ,  2-C ) :   1.1813 B(  1-C ,  3-C ) :  -0.1073
B(  1-C ,  4-C ) :   0.8589 B(  1-C ,  6-C ) :   0.8589 B(  2-C ,  3-C ) :   2.5845
B(  3-C , 12-H ) :   0.8815 B(  4-C ,  5-C ) :   0.9122 B(  4-C ,  8-C ) :   0.9180
B(  4-C , 13-H ) :   0.9059 B(  5-C ,  6-C ) :   0.9122 B(  5-C , 14-H ) :   0.9179
B(  5-C , 15-H ) :   0.9262 B(  6-C ,  7-C ) :   0.9180 B(  6-C , 16-H ) :   0.9059
B(  7-C ,  8-C ) :   0.9726 B(  7-C , 17-H ) :   0.9291 B(  7-C , 18-H ) :   0.9245
B(  8-C , 19-H ) :   0.9245 B(  8-C , 20-H ) :   0.9291

MP2 TOTAL ENERGY:     -349.269345774 Eh
FINAL SINGLE POINT ENERGY      -349.269345774032

DIPOLE MOMENT
-------------
                                X             Y             Z
Electronic contribution:     -3.40493      -0.81878      -0.42756
Nuclear contribution   :      3.60574       0.86988       0.45272
                        -----------------------------------------
Total Dipole Moment    :      0.20081       0.05109       0.02516
                        -----------------------------------------
Magnitude (a.u.)       :      0.20873
Magnitude (Debye)      :      0.53054

                             ****ORCA TERMINATED NORMALLY****
TOTAL RUN TIME: 0 days 0 hours 24 minutes 32 seconds 232 msec
