                         Program Version 3.0.3 - RELEASE   -
|  1> ! RI-MP2 RIJK def2-TZVP def2-TZVP/C def2-TZVP/JK TIGHTSCF
|  2> % maxcore 2000
|  3> % mp2 density relaxed end
|  4> *xyz 0 1
|  5>  C        0.0500754349     1.4910972740    -0.0394833474
|  6>  C        0.0268178921    -0.0288556603     0.0517508965
|  7>  O        0.8284182246    -0.6365409928    -0.9923974972
|  8>  C        1.6483095764    -1.3627984015    -0.0554176245
|  9>  C        0.8705715083    -0.7704818548     1.1427086272
| 10>  C        1.6618874933     0.0056140194     2.1660958501
| 11>  O        1.3876564840     1.0989537539     2.5852461410
| 12>  C       -1.3590655608    -0.5291796111    -0.0102315746
| 13>  N       -2.4430160186    -0.9283038905    -0.0426873511
| 14>  H        1.0783527640     1.8529705494    -0.0044467250
| 15>  H       -0.4003246657     1.7901382919    -0.9898894259
| 16>  H       -0.5078919021     1.9421398766     0.7827559488
| 17>  H        1.5645587324    -2.4462441742    -0.1860010026
| 18>  H        2.7028681767    -1.0700458951    -0.1271743242
| 19>  H        0.2951477331    -1.5241451334     1.6898839059
| 20>  H        2.5543085675    -0.5487305114     2.5396736630
| 21> *
| 22>
| 23>                          ****END OF INPUT****

CARTESIAN COORDINATES (ANGSTROEM)
---------------------------------
  C      0.050075    1.491097   -0.039483
  C      0.026818   -0.028856    0.051751
  O      0.828418   -0.636541   -0.992397
  C      1.648310   -1.362798   -0.055418
  C      0.870572   -0.770482    1.142709
  C      1.661887    0.005614    2.166096
  O      1.387656    1.098954    2.585246
  C     -1.359066   -0.529180   -0.010232
  N     -2.443016   -0.928304   -0.042687
  H      1.078353    1.852971   -0.004447
  H     -0.400325    1.790138   -0.989889
  H     -0.507892    1.942140    0.782756
  H      1.564559   -2.446244   -0.186001
  H      2.702868   -1.070046   -0.127174
  H      0.295148   -1.524145    1.689884
  H      2.554309   -0.548731    2.539674

 Total Charge           Charge          ....    0
 Multiplicity           Mult            ....    1
 Number of Electrons    NEL             ....   66
 Basis Dimension        Dim             ....  321

ORBITAL ENERGIES
----------------

  NO   OCC          E(Eh)            E(eV)
   0   2.0000     -20.591431      -560.3213
   1   2.0000     -20.586650      -560.1912
   2   2.0000     -15.583639      -424.0524
   3   2.0000     -11.364224      -309.2363
   4   2.0000     -11.361526      -309.1628
   5   2.0000     -11.321229      -308.0663
   6   2.0000     -11.289111      -307.1923
   7   2.0000     -11.279911      -306.9420
   8   2.0000     -11.243722      -305.9572
   9   2.0000      -1.430616       -38.9290
  10   2.0000      -1.421887       -38.6915
  11   2.0000      -1.228205       -33.4212
  12   2.0000      -1.094461       -29.7818
  13   2.0000      -1.054998       -28.7079
  14   2.0000      -0.929103       -25.2822
  15   2.0000      -0.895765       -24.3750
  16   2.0000      -0.810174       -22.0459
  17   2.0000      -0.744448       -20.2575
  18   2.0000      -0.712274       -19.3820
  19   2.0000      -0.689069       -18.7505
  20   2.0000      -0.662070       -18.0158
  21   2.0000      -0.629835       -17.1387
  22   2.0000      -0.616525       -16.7765
  23   2.0000      -0.590811       -16.0768
  24   2.0000      -0.573618       -15.6089
  25   2.0000      -0.565010       -15.3747
  26   2.0000      -0.558598       -15.2002
  27   2.0000      -0.517584       -14.0842
  28   2.0000      -0.503871       -13.7110
  29   2.0000      -0.486818       -13.2470
  30   2.0000      -0.470429       -12.8010
  31   2.0000      -0.457272       -12.4430
  32   2.0000      -0.442823       -12.0498
  33   0.0000       0.096103         2.6151
  34   0.0000       0.124238         3.3807
  35   0.0000       0.136788         3.7222
  36   0.0000       0.147573         4.0157
  37   0.0000       0.152568         4.1516

MULLIKEN ATOMIC CHARGES
-----------------------
   0 C :   -0.358837
   1 C :    0.332540
   2 O :   -0.308839
   3 C :   -0.058317
   4 C :   -0.081082
   5 C :    0.054973
   6 O :   -0.251187
   7 C :   -0.233886
   8 N :   -0.045160
   9 H :    0.139884
  10 H :    0.154347
  11 H :    0.155076
  12 H :    0.119419
  13 H :    0.114474
  14 H :    0.168419
  15 H :    0.098177
Sum of atomic charges:    0.0000000

LOEWDIN ATOMIC CHARGES
----------------------
   0 C :   -0.242258
   1 C :   -0.303911
   2 O :    0.182356
   3 C :   -0.232817
   4 C :   -0.182324
   5 C :   -0.273755
   6 O :    0.155124
   7 C :   -0.140719
   8 N :    0.079068
   9 H :    0.134242
  10 H :    0.139280
  11 H :    0.140854
  12 H :    0.124961
  13 H :    0.124234
  14 H :    0.175884
  15 H :    0.119780

  Mayer bond orders larger than 0.1
B(  0-C ,  1-C ) :   0.9300 B(  0-C ,  9-H ) :   0.9272 B(  0-C , 10-H ) :   0.9180
B(  0-C , 11-H ) :   0.9194 B(  1-C ,  2-O ) :   0.9358 B(  1-C ,  4-C ) :   0.8579
B(  1-C ,  7-C ) :   0.9112 B(  2-O ,  3-C ) :   0.9548 B(  3-C ,  4-C ) :   0.9605
B(  3-C , 12-H ) :   0.9100 B(  3-C , 13-H ) :   0.9098 B(  4-C ,  5-C ) :   0.8468
B(  4-C , 14-H ) :   0.8944 B(  5-C ,  6-O ) :   1.9858 B(  5-C , 15-H ) :   0.9399
B(  7-C ,  8-N ) :   2.8553

MP2 TOTAL ENERGY:     -437.155020155 Eh
FINAL SINGLE POINT ENERGY      -437.155020154976

DIPOLE MOMENT
-------------
                                X             Y             Z
Electronic contribution:     -3.08861      -1.40474       0.44055
Nuclear contribution   :      4.56604       1.05108      -0.07424
                        -----------------------------------------
Total Dipole Moment    :      1.47744      -0.35366       0.36631
                        -----------------------------------------
Magnitude (a.u.)       :      1.56272
Magnitude (Debye)      :      3.97211

                             ****ORCA TERMINATED NORMALLY****
TOTAL RUN TIME: 0 days 0 hours 17 minutes 9 seconds 184 msec
