                         Program Version 3.0.3 - RELEASE   -
|  1> ! RI-MP2 RIJK def2-TZVP def2-TZVP/C def2-TZVP/JK TIGHTSCF
|  2> % maxcore 2000
|  3> % mp2 density relaxed end
|  4> *xyz 0 1
|  5>  C       -0.0606830816     1.5087212925     0.0501853984
|  6>  C        0.0204199235     0.0116182717    -0.0279726896
|  7>  C        0.0692630524    -0.6606128068    -1.1938135578
|  8>  C        0.0119570388    -2.1002138255    -1.3228385311
|  9>  C       -0.6550617224    -2.9411515158    -0.5047368809
| 10>  N       -1.3961440418    -2.5929293212     0.6183004390
| 11>  C       -1.2242424322    -1.5338267364     1.4971540954
| 12>  O       -2.0364939443    -1.3029217639     2.3675319713
| 13>  C        0.0604722850    -0.7455141988     1.2811273168
| 14>  H        0.7838628165     1.9248695285     0.6145756470
| 15>  H       -0.0726078622     1.9663790340    -0.9423127303
| 16>  H       -0.9700165651     1.8203375990     0.5805221747
| 17>  H        0.1460221787    -0.0948546827    -2.1201653132
| 18>  H        0.4827058446    -2.5506339358    -2.1914841094
| 19>  H       -0.6895633146    -4.0020848006    -0.7323248074
| 20>  H       -2.1595714765    -3.2004173604     0.8812413302
| 21>  H        0.9002053025    -1.4524210432     1.2737387457
| 22>  H        0.1688384486    -0.0735437744     2.1330250911
| 23> *
| 24>
| 25>                          ****END OF INPUT****

CARTESIAN COORDINATES (ANGSTROEM)
---------------------------------
  C     -0.060683    1.508721    0.050185
  C      0.020420    0.011618   -0.027973
  C      0.069263   -0.660613   -1.193814
  C      0.011957   -2.100214   -1.322839
  C     -0.655062   -2.941152   -0.504737
  N     -1.396144   -2.592929    0.618300
  C     -1.224242   -1.533827    1.497154
  O     -2.036494   -1.302922    2.367532
  C      0.060472   -0.745514    1.281127
  H      0.783863    1.924870    0.614576
  H     -0.072608    1.966379   -0.942313
  H     -0.970017    1.820338    0.580522
  H      0.146022   -0.094855   -2.120165
  H      0.482706   -2.550634   -2.191484
  H     -0.689563   -4.002085   -0.732325
  H     -2.159571   -3.200417    0.881241
  H      0.900205   -1.452421    1.273739
  H      0.168838   -0.073544    2.133025

 Total Charge           Charge          ....    0
 Multiplicity           Mult            ....    1
 Number of Electrons    NEL             ....   66
 Basis Dimension        Dim             ....  333

ORBITAL ENERGIES
----------------

  NO   OCC          E(Eh)            E(eV)
   0   2.0000     -20.524640      -558.5038
   1   2.0000     -15.599953      -424.4963
   2   2.0000     -11.357269      -309.0470
   3   2.0000     -11.287926      -307.1601
   4   2.0000     -11.252869      -306.2061
   5   2.0000     -11.244006      -305.9650
   6   2.0000     -11.235719      -305.7395
   7   2.0000     -11.232259      -305.6453
   8   2.0000     -11.229312      -305.5651
   9   2.0000      -1.390466       -37.8365
  10   2.0000      -1.254344       -34.1324
  11   2.0000      -1.120224       -30.4828
  12   2.0000      -1.051883       -28.6232
  13   2.0000      -0.980859       -26.6905
  14   2.0000      -0.938604       -25.5407
  15   2.0000      -0.856154       -23.2971
  16   2.0000      -0.768386       -20.9088
  17   2.0000      -0.741950       -20.1895
  18   2.0000      -0.704974       -19.1833
  19   2.0000      -0.661613       -18.0034
  20   2.0000      -0.634188       -17.2571
  21   2.0000      -0.611389       -16.6367
  22   2.0000      -0.607283       -16.5250
  23   2.0000      -0.592030       -16.1100
  24   2.0000      -0.571586       -15.5536
  25   2.0000      -0.563333       -15.3291
  26   2.0000      -0.531933       -14.4746
  27   2.0000      -0.521323       -14.1859
  28   2.0000      -0.488719       -13.2987
  29   2.0000      -0.475229       -12.9317
  30   2.0000      -0.435062       -11.8386
  31   2.0000      -0.388826       -10.5805
  32   2.0000      -0.306416        -8.3380
  33   0.0000       0.109953         2.9920
  34   0.0000       0.132285         3.5996
  35   0.0000       0.148786         4.0487
  36   0.0000       0.159701         4.3457
  37   0.0000       0.174111         4.7378

MULLIKEN ATOMIC CHARGES
-----------------------
   0 C :   -0.435281
   1 C :    0.036253
   2 C :   -0.164093
   3 C :   -0.161992
   4 C :   -0.062267
   5 N :   -0.268292
   6 C :    0.208933
   7 O :   -0.332270
   8 C :   -0.178243
   9 H :    0.142739
  10 H :    0.132994
  11 H :    0.154787
  12 H :    0.120920
  13 H :    0.131877
  14 H :    0.135869
  15 H :    0.246807
  16 H :    0.148438
  17 H :    0.142822
Sum of atomic charges:   -0.0000000

LOEWDIN ATOMIC CHARGES
----------------------
   0 C :   -0.269302
   1 C :   -0.175113
   2 C :   -0.152897
   3 C :   -0.187333
   4 C :   -0.218716
   5 N :    0.153439
   6 C :   -0.426555
   7 O :    0.093614
   8 C :   -0.182265
   9 H :    0.131075
  10 H :    0.129241
  11 H :    0.137306
  12 H :    0.151141
  13 H :    0.152547
  14 H :    0.143434
  15 H :    0.201310
  16 H :    0.162663
  17 H :    0.156409

  Mayer bond orders larger than 0.1
B(  0-C ,  1-C ) :   0.9068 B(  0-C ,  9-H ) :   0.9299 B(  0-C , 10-H ) :   0.9457
B(  0-C , 11-H ) :   0.9225 B(  1-C ,  2-C ) :   1.6842 B(  1-C ,  8-C ) :   0.8676
B(  2-C ,  3-C ) :   1.0390 B(  2-C , 12-H ) :   0.9174 B(  3-C ,  4-C ) :   1.6616
B(  3-C , 13-H ) :   0.9193 B(  4-C ,  5-N ) :   1.0354 B(  4-C , 14-H ) :   0.9185
B(  5-N ,  6-C ) :   1.0899 B(  5-N , 15-H ) :   0.8572 B(  6-C ,  7-O ) :   2.0031
B(  6-C ,  8-C ) :   0.9093 B(  8-C , 16-H ) :   0.9089 B(  8-C , 17-H ) :   0.9242

MP2 TOTAL ENERGY:     -401.305331170 Eh
FINAL SINGLE POINT ENERGY      -401.305331169678

DIPOLE MOMENT
-------------
                                X             Y             Z
Electronic contribution:     -3.21150      -4.69093       2.57610
Nuclear contribution   :      3.78769       4.30837      -3.41485
                        -----------------------------------------
Total Dipole Moment    :      0.57618      -0.38256      -0.83875
                        -----------------------------------------
Magnitude (a.u.)       :      1.08713
Magnitude (Debye)      :      2.76325

                             ****ORCA TERMINATED NORMALLY****
TOTAL RUN TIME: 0 days 0 hours 18 minutes 3 seconds 552 msec
