                         Program Version 3.0.3 - RELEASE   -
|  1> ! RI-MP2 RIJK def2-TZVP def2-TZVP/C def2-TZVP/JK TIGHTSCF
|  2> % maxcore 2000
|  3> % mp2 density relaxed end
|  4> *xyz 0 1
|  5>  C       -0.1398692859     1.5723522496     0.1576085266
|  6>  C       -0.1443819523     0.0489512999     0.3120089576
|  7>  C       -1.4081126371    -0.6045191578    -0.2682954958
|  8>  C       -1.4641494961    -2.1170713025    -0.0963919940
|  9>  C       -0.4400909962    -2.8755681629    -0.9306096275
| 10>  C       -1.7611102759    -2.7781759045     1.2296426441
| 11>  C       -2.7903832752    -1.9986528827     2.0604638155
| 12>  C       -3.8115308486    -2.1165763450     0.8827535062
| 13>  C       -2.7614842100    -2.8783237412     0.0651057219
| 14>  H        0.7668366978     2.0156723654     0.5814500278
| 15>  H       -0.1903820434     1.8643636283    -0.8975235848
| 16>  H       -0.9996893264     2.0251949616     0.6644336189
| 17>  H        0.7475711778    -0.3650248063    -0.1733629681
| 18>  H       -0.0613297423    -0.2152069661     1.3740812535
| 19>  H       -2.2823395295    -0.1337375498     0.1932171305
| 20>  H       -1.4771950568    -0.3692077546    -1.3400941939
| 21>  H        0.5857534805    -2.6050494799    -0.6594524978
| 22>  H       -0.5408333148    -3.9568692498    -0.7930368319
| 23>  H       -0.5696476099    -2.6618024345    -1.9980888048
| 24>  H       -1.1057846284    -3.5455872959     1.6273107294
| 25>  H       -3.1198355306    -2.5486702468     2.9446866448
| 26>  H       -2.5025130708    -0.9899167546     2.3738517223
| 27>  H       -4.6636873745    -2.7466607264     1.1476254722
| 28>  H       -4.1970770315    -1.1866162260     0.4522292127
| 29>  H       -2.9786051301    -3.7310583976    -0.5692617852
| 30> *
| 31>
| 32>                          ****END OF INPUT****

CARTESIAN COORDINATES (ANGSTROEM)
---------------------------------
  C     -0.139869    1.572352    0.157609
  C     -0.144382    0.048951    0.312009
  C     -1.408113   -0.604519   -0.268295
  C     -1.464149   -2.117071   -0.096392
  C     -0.440091   -2.875568   -0.930610
  C     -1.761110   -2.778176    1.229643
  C     -2.790383   -1.998653    2.060464
  C     -3.811531   -2.116576    0.882754
  C     -2.761484   -2.878324    0.065106
  H      0.766837    2.015672    0.581450
  H     -0.190382    1.864364   -0.897524
  H     -0.999689    2.025195    0.664434
  H      0.747571   -0.365025   -0.173363
  H     -0.061330   -0.215207    1.374081
  H     -2.282340   -0.133738    0.193217
  H     -1.477195   -0.369208   -1.340094
  H      0.585753   -2.605049   -0.659452
  H     -0.540833   -3.956869   -0.793037
  H     -0.569648   -2.661802   -1.998089
  H     -1.105785   -3.545587    1.627311
  H     -3.119836   -2.548670    2.944687
  H     -2.502513   -0.989917    2.373852
  H     -4.663687   -2.746661    1.147625
  H     -4.197077   -1.186616    0.452229
  H     -2.978605   -3.731058   -0.569262

 Total Charge           Charge          ....    0
 Multiplicity           Mult            ....    1
 Number of Electrons    NEL             ....   70
 Basis Dimension        Dim             ....  375

ORBITAL ENERGIES
----------------

  NO   OCC          E(Eh)            E(eV)
   0   2.0000     -11.231782      -305.6323
   1   2.0000     -11.221972      -305.3654
   2   2.0000     -11.221393      -305.3496
   3   2.0000     -11.219886      -305.3086
   4   2.0000     -11.219239      -305.2910
   5   2.0000     -11.213941      -305.1469
   6   2.0000     -11.212541      -305.1088
   7   2.0000     -11.211969      -305.0932
   8   2.0000     -11.209188      -305.0175
   9   2.0000      -1.186185       -32.2777
  10   2.0000      -1.059469       -28.8296
  11   2.0000      -1.012536       -27.5525
  12   2.0000      -0.925491       -25.1839
  13   2.0000      -0.911498       -24.8031
  14   2.0000      -0.885663       -24.1001
  15   2.0000      -0.809252       -22.0209
  16   2.0000      -0.729071       -19.8390
  17   2.0000      -0.719710       -19.5843
  18   2.0000      -0.666016       -18.1232
  19   2.0000      -0.641221       -17.4485
  20   2.0000      -0.607742       -16.5375
  21   2.0000      -0.595007       -16.1910
  22   2.0000      -0.574088       -15.6217
  23   2.0000      -0.557390       -15.1673
  24   2.0000      -0.532155       -14.4807
  25   2.0000      -0.522659       -14.2223
  26   2.0000      -0.512043       -13.9334
  27   2.0000      -0.503365       -13.6973
  28   2.0000      -0.490704       -13.3527
  29   2.0000      -0.474342       -12.9075
  30   2.0000      -0.464878       -12.6500
  31   2.0000      -0.455661       -12.3992
  32   2.0000      -0.445197       -12.1144
  33   2.0000      -0.377271       -10.2661
  34   2.0000      -0.363040        -9.8788
  35   0.0000       0.136194         3.7060
  36   0.0000       0.154954         4.2165
  37   0.0000       0.158326         4.3083
  38   0.0000       0.162542         4.4230
  39   0.0000       0.182899         4.9769

MULLIKEN ATOMIC CHARGES
-----------------------
   0 C :   -0.386854
   1 C :   -0.221635
   2 C :   -0.238233
   3 C :    0.177020
   4 C :   -0.465987
   5 C :   -0.172829
   6 C :   -0.241989
   7 C :   -0.236377
   8 C :   -0.162576
   9 H :    0.132420
  10 H :    0.121032
  11 H :    0.122441
  12 H :    0.106765
  13 H :    0.115698
  14 H :    0.115819
  15 H :    0.110719
  16 H :    0.137870
  17 H :    0.135221
  18 H :    0.134000
  19 H :    0.125263
  20 H :    0.120169
  21 H :    0.114148
  22 H :    0.119511
  23 H :    0.113002
  24 H :    0.125383
Sum of atomic charges:    0.0000000

LOEWDIN ATOMIC CHARGES
----------------------
   0 C :   -0.322109
   1 C :   -0.288338
   2 C :   -0.222395
   3 C :   -0.240842
   4 C :   -0.260501
   5 C :   -0.154889
   6 C :   -0.218236
   7 C :   -0.220861
   8 C :   -0.153629
   9 H :    0.119807
  10 H :    0.119912
  11 H :    0.119577
  12 H :    0.133380
  13 H :    0.136648
  14 H :    0.144439
  15 H :    0.142478
  16 H :    0.124293
  17 H :    0.130155
  18 H :    0.126664
  19 H :    0.134890
  20 H :    0.133060
  21 H :    0.124626
  22 H :    0.133827
  23 H :    0.123184
  24 H :    0.134860

  Mayer bond orders larger than 0.1
B(  0-C ,  1-C ) :   0.9175 B(  0-C ,  9-H ) :   0.9438 B(  0-C , 10-H ) :   0.9384
B(  0-C , 11-H ) :   0.9424 B(  1-C ,  2-C ) :   0.9277 B(  1-C , 12-H ) :   0.9332
B(  1-C , 13-H ) :   0.9359 B(  2-C ,  3-C ) :   0.8963 B(  2-C , 14-H ) :   0.9351
B(  2-C , 15-H ) :   0.9265 B(  3-C ,  4-C ) :   0.8827 B(  3-C ,  5-C ) :   0.8628
B(  3-C ,  8-C ) :   0.8579 B(  4-C , 16-H ) :   0.9441 B(  4-C , 17-H ) :   0.9311
B(  4-C , 18-H ) :   0.9421 B(  5-C ,  6-C ) :   0.9232 B(  5-C ,  8-C ) :   0.8211
B(  5-C , 19-H ) :   0.9262 B(  6-C ,  7-C ) :   0.9708 B(  6-C , 20-H ) :   0.9249
B(  6-C , 21-H ) :   0.9291 B(  7-C ,  8-C ) :   0.9301 B(  7-C , 22-H ) :   0.9230
B(  7-C , 23-H ) :   0.9280 B(  8-C , 24-H ) :   0.9273

MP2 TOTAL ENERGY:     -351.685573375 Eh
FINAL SINGLE POINT ENERGY      -351.685573374978

DIPOLE MOMENT
-------------
                                X             Y             Z
Electronic contribution:     -2.91954      -4.38541       0.94929
Nuclear contribution   :      2.92435       4.31861      -0.92922
                        -----------------------------------------
Total Dipole Moment    :      0.00481      -0.06680       0.02007
                        -----------------------------------------
Magnitude (a.u.)       :      0.06992
Magnitude (Debye)      :      0.17772

                             ****ORCA TERMINATED NORMALLY****
TOTAL RUN TIME: 0 days 0 hours 21 minutes 55 seconds 585 msec
