                         Program Version 3.0.3 - RELEASE   -
|  1> ! RI-MP2 RIJK def2-TZVP def2-TZVP/C def2-TZVP/JK TIGHTSCF
|  2> % maxcore 2000
|  3> % mp2 density relaxed end
|  4> *xyz 0 1
|  5>  O        0.1032309814     0.0077146283     0.1327283328
|  6>  C        0.0998601467     1.1918546517     0.2436462862
|  7>  O        1.0792888025     1.9647441176    -0.3092578217
|  8>  C        0.9867599004     3.3562284461    -0.0915439920
|  9>  C        1.4047216532     3.9015592131     1.2626461719
| 10>  C        2.3115422536     4.0565129119     0.0753304779
| 11>  C       -0.0718365676     4.0117872907    -0.8231589430
| 12>  N       -0.9262837741     4.5360350778    -1.3995507989
| 13>  H       -0.6605438964     1.7830012311     0.7838172512
| 14>  H        0.8775751834     4.7700568509     1.6386202857
| 15>  H        1.6650121606     3.1566221970     2.0056394993
| 16>  H        3.1773997444     3.4089248184     0.0067218281
| 17>  H        2.4203486119     5.0339073856    -0.3777444875
| 18> *
| 19>
| 20>                          ****END OF INPUT****

CARTESIAN COORDINATES (ANGSTROEM)
---------------------------------
  O      0.103231    0.007715    0.132728
  C      0.099860    1.191855    0.243646
  O      1.079289    1.964744   -0.309258
  C      0.986760    3.356228   -0.091544
  C      1.404722    3.901559    1.262646
  C      2.311542    4.056513    0.075330
  C     -0.071837    4.011787   -0.823159
  N     -0.926284    4.536035   -1.399551
  H     -0.660544    1.783001    0.783817
  H      0.877575    4.770057    1.638620
  H      1.665012    3.156622    2.005639
  H      3.177400    3.408925    0.006722
  H      2.420349    5.033907   -0.377744

 Total Charge           Charge          ....    0
 Multiplicity           Mult            ....    1
 Number of Electrons    NEL             ....   58
 Basis Dimension        Dim             ....  278

ORBITAL ENERGIES
----------------

  NO   OCC          E(Eh)            E(eV)
   0   2.0000     -20.641191      -561.6754
   1   2.0000     -20.574813      -559.8691
   2   2.0000     -15.597693      -424.4348
   3   2.0000     -11.404463      -310.3312
   4   2.0000     -11.372770      -309.4688
   5   2.0000     -11.297680      -307.4255
   6   2.0000     -11.287563      -307.1502
   7   2.0000     -11.284262      -307.0604
   8   2.0000      -1.492410       -40.6106
   9   2.0000      -1.403481       -38.1907
  10   2.0000      -1.245299       -33.8863
  11   2.0000      -1.194119       -32.4936
  12   2.0000      -0.952446       -25.9174
  13   2.0000      -0.899944       -24.4887
  14   2.0000      -0.868439       -23.6314
  15   2.0000      -0.798884       -21.7387
  16   2.0000      -0.731673       -19.9098
  17   2.0000      -0.691369       -18.8131
  18   2.0000      -0.671281       -18.2665
  19   2.0000      -0.644484       -17.5373
  20   2.0000      -0.613924       -16.7057
  21   2.0000      -0.581018       -15.8103
  22   2.0000      -0.574628       -15.6364
  23   2.0000      -0.542960       -14.7747
  24   2.0000      -0.530118       -14.4252
  25   2.0000      -0.494124       -13.4458
  26   2.0000      -0.491102       -13.3636
  27   2.0000      -0.470420       -12.8008
  28   2.0000      -0.438157       -11.9229
  29   0.0000       0.118209         3.2166
  30   0.0000       0.127645         3.4734
  31   0.0000       0.136466         3.7134
  32   0.0000       0.142167         3.8686
  33   0.0000       0.167300         4.5525

MULLIKEN ATOMIC CHARGES
-----------------------
   0 O :   -0.240475
   1 C :    0.192715
   2 O :   -0.203356
   3 C :    0.249064
   4 C :   -0.276337
   5 C :   -0.256237
   6 C :   -0.189211
   7 N :   -0.043667
   8 H :    0.109406
   9 H :    0.162560
  10 H :    0.165402
  11 H :    0.165133
  12 H :    0.165002
Sum of atomic charges:    0.0000000

LOEWDIN ATOMIC CHARGES
----------------------
   0 O :    0.147923
   1 C :   -0.415295
   2 O :    0.291245
   3 C :   -0.326097
   4 C :   -0.174903
   5 C :   -0.163800
   6 C :   -0.152466
   7 N :    0.086375
   8 H :    0.115641
   9 H :    0.146152
  10 H :    0.147036
  11 H :    0.150685
  12 H :    0.147504

  Mayer bond orders larger than 0.1
B(  0-O ,  1-C ) :   2.0475 B(  1-C ,  2-O ) :   0.9969 B(  1-C ,  8-H ) :   0.9125
B(  2-O ,  3-C ) :   0.9198 B(  3-C ,  4-C ) :   0.8652 B(  3-C ,  5-C ) :   0.8418
B(  3-C ,  6-C ) :   0.9342 B(  4-C ,  5-C ) :   0.9232 B(  4-C ,  9-H ) :   0.9153
B(  4-C , 10-H ) :   0.9180 B(  5-C , 11-H ) :   0.9214 B(  5-C , 12-H ) :   0.9214
B(  6-C ,  7-N ) :   2.8282

MP2 TOTAL ENERGY:     -397.953992153 Eh
FINAL SINGLE POINT ENERGY      -397.953992152788

DIPOLE MOMENT
-------------
                                X             Y             Z
Electronic contribution:     -3.07638      -2.95314      -3.08508
Nuclear contribution   :      4.03895       3.82157       4.23524
                        -----------------------------------------
Total Dipole Moment    :      0.96257       0.86842       1.15017
                        -----------------------------------------
Magnitude (a.u.)       :      1.73309
Magnitude (Debye)      :      4.40516

                             ****ORCA TERMINATED NORMALLY****
TOTAL RUN TIME: 0 days 0 hours 15 minutes 58 seconds 86 msec
