                         Program Version 3.0.3 - RELEASE   -
|  1> ! RI-MP2 RIJK def2-TZVP def2-TZVP/C def2-TZVP/JK TIGHTSCF
|  2> % maxcore 2000
|  3> % mp2 density relaxed end
|  4> *xyz 0 1
|  5>  O       -0.1107164326     1.4262534157    -0.0299253694
|  6>  C        0.0323611376     0.0427659823    -0.0069042874
|  7>  C        0.9232862824    -0.8055363876    -0.9601846424
|  8>  N        0.7546476379    -1.9020997022     0.0723903953
|  9>  C       -0.7207425581    -2.1318468784     0.0014992593
| 10>  C       -1.3959908802    -1.5824166034     1.2312118842
| 11>  C       -0.2991111597    -1.1610731441     2.1898550312
| 12>  C        0.7142674856    -0.7889711052     1.1284286142
| 13>  C       -1.2955071557    -0.7343200544    -0.0295032823
| 14>  H        0.7665450314     1.8228586945    -0.0227471624
| 15>  H        0.5566608673    -1.0486216149    -1.9608034099
| 16>  H        1.9694630305    -0.4849813097    -1.0036952232
| 17>  H       -1.0736573655    -2.9797686417    -0.5693028404
| 18>  H       -2.3494218317    -1.9746202391     1.5632407058
| 19>  H       -0.5720653335    -0.3020899838     2.8119703660
| 20>  H        0.0430898464    -1.9771315082     2.8341212393
| 21>  H        1.7168394643    -0.4896904854     1.4344134460
| 22>  H       -2.1434628962    -0.4085012043    -0.6155713440
| 23> *
| 24>
| 25>                          ****END OF INPUT****

CARTESIAN COORDINATES (ANGSTROEM)
---------------------------------
  O     -0.110716    1.426253   -0.029925
  C      0.032361    0.042766   -0.006904
  C      0.923286   -0.805536   -0.960185
  N      0.754648   -1.902100    0.072390
  C     -0.720743   -2.131847    0.001499
  C     -1.395991   -1.582417    1.231212
  C     -0.299111   -1.161073    2.189855
  C      0.714267   -0.788971    1.128429
  C     -1.295507   -0.734320   -0.029503
  H      0.766545    1.822859   -0.022747
  H      0.556661   -1.048622   -1.960803
  H      1.969463   -0.484981   -1.003695
  H     -1.073657   -2.979769   -0.569303
  H     -2.349422   -1.974620    1.563241
  H     -0.572065   -0.302090    2.811970
  H      0.043090   -1.977132    2.834121
  H      1.716839   -0.489690    1.434413
  H     -2.143463   -0.408501   -0.615571

 Total Charge           Charge          ....    0
 Multiplicity           Mult            ....    1
 Number of Electrons    NEL             ....   66
 Basis Dimension        Dim             ....  333

ORBITAL ENERGIES
----------------

  NO   OCC          E(Eh)            E(eV)
   0   2.0000     -20.568978      -559.7104
   1   2.0000     -15.558754      -423.3752
   2   2.0000     -11.294296      -307.3334
   3   2.0000     -11.256510      -306.3052
   4   2.0000     -11.252191      -306.1877
   5   2.0000     -11.252132      -306.1861
   6   2.0000     -11.235448      -305.7321
   7   2.0000     -11.227161      -305.5066
   8   2.0000     -11.224895      -305.4449
   9   2.0000      -1.381446       -37.5911
  10   2.0000      -1.294127       -35.2150
  11   2.0000      -1.109474       -30.1903
  12   2.0000      -1.013001       -27.5652
  13   2.0000      -0.970821       -26.4174
  14   2.0000      -0.874993       -23.8098
  15   2.0000      -0.798537       -21.7293
  16   2.0000      -0.759636       -20.6708
  17   2.0000      -0.752454       -20.4753
  18   2.0000      -0.722578       -19.6623
  19   2.0000      -0.670655       -18.2495
  20   2.0000      -0.628271       -17.0961
  21   2.0000      -0.607030       -16.5181
  22   2.0000      -0.598189       -16.2776
  23   2.0000      -0.578556       -15.7433
  24   2.0000      -0.554923       -15.1002
  25   2.0000      -0.509656       -13.8684
  26   2.0000      -0.506002       -13.7690
  27   2.0000      -0.488456       -13.2916
  28   2.0000      -0.472010       -12.8440
  29   2.0000      -0.429477       -11.6867
  30   2.0000      -0.417320       -11.3559
  31   2.0000      -0.399829       -10.8799
  32   2.0000      -0.357373        -9.7246
  33   0.0000       0.130014         3.5379
  34   0.0000       0.154616         4.2073
  35   0.0000       0.166615         4.5338
  36   0.0000       0.178720         4.8632
  37   0.0000       0.190704         5.1893

MULLIKEN ATOMIC CHARGES
-----------------------
   0 O :   -0.442190
   1 C :    0.182868
   2 C :   -0.168015
   3 N :   -0.196097
   4 C :   -0.042481
   5 C :   -0.213558
   6 C :   -0.198460
   7 C :   -0.071739
   8 C :   -0.181043
   9 H :    0.323389
  10 H :    0.119093
  11 H :    0.112616
  12 H :    0.134552
  13 H :    0.130291
  14 H :    0.118134
  15 H :    0.123602
  16 H :    0.127699
  17 H :    0.141338
Sum of atomic charges:   -0.0000000

LOEWDIN ATOMIC CHARGES
----------------------
   0 O :    0.025322
   1 C :   -0.331296
   2 C :   -0.215215
   3 N :    0.128506
   4 C :   -0.193454
   5 C :   -0.172273
   6 C :   -0.210976
   7 C :   -0.193153
   8 C :   -0.135137
   9 H :    0.181415
  10 H :    0.124773
  11 H :    0.127658
  12 H :    0.137924
  13 H :    0.146092
  14 H :    0.146992
  15 H :    0.145150
  16 H :    0.142268
  17 H :    0.145404

  Mayer bond orders larger than 0.1
B(  0-O ,  1-C ) :   1.0715 B(  0-O ,  9-H ) :   0.8367 B(  1-C ,  2-C ) :   0.9687
B(  1-C ,  7-C ) :   0.8986 B(  1-C ,  8-C ) :   0.9023 B(  2-C ,  3-N ) :   0.9280
B(  2-C , 10-H ) :   0.9232 B(  2-C , 11-H ) :   0.9130 B(  3-N ,  4-C ) :   0.9290
B(  3-N ,  7-C ) :   0.9350 B(  4-C ,  5-C ) :   0.8855 B(  4-C ,  8-C ) :   0.8480
B(  4-C , 12-H ) :   0.9375 B(  5-C ,  6-C ) :   0.9769 B(  5-C ,  8-C ) :   0.8637
B(  5-C , 13-H ) :   0.9302 B(  6-C ,  7-C ) :   0.9769 B(  6-C , 14-H ) :   0.9069
B(  6-C , 15-H ) :   0.9091 B(  7-C , 16-H ) :   0.8942 B(  8-C , 17-H ) :   0.9291

MP2 TOTAL ENERGY:     -401.229949423 Eh
FINAL SINGLE POINT ENERGY      -401.229949422969

DIPOLE MOMENT
-------------
                                X             Y             Z
Electronic contribution:     -0.02489       0.91235      -0.85521
Nuclear contribution   :      0.13930      -0.62951       0.91455
                        -----------------------------------------
Total Dipole Moment    :      0.11440       0.28284       0.05935
                        -----------------------------------------
Magnitude (a.u.)       :      0.31082
Magnitude (Debye)      :      0.79005

                             ****ORCA TERMINATED NORMALLY****
TOTAL RUN TIME: 0 days 0 hours 18 minutes 26 seconds 366 msec
