                         Program Version 3.0.3 - RELEASE   -
|  1> ! RI-MP2 RIJK def2-TZVP def2-TZVP/C def2-TZVP/JK TIGHTSCF
|  2> % maxcore 2000
|  3> % mp2 density relaxed end
|  4> *xyz 0 1
|  5>  O        0.0401701991     0.2645760318    -0.6447679124
|  6>  C       -0.0462538081     1.3263477776    -0.1106867914
|  7>  C       -1.3097230049     2.1204283200     0.2430627573
|  8>  C       -0.7970754609     3.3952724529     0.8710990687
|  9>  C        0.6954802645     3.2539205269     0.8802707778
| 10>  O        1.0635040833     2.0361081790     0.2874007669
| 11>  C        0.0643370255     4.3091224562    -0.0144632615
| 12>  C        0.0585814355     4.1800633789    -1.4393359329
| 13>  C        0.0353596413     4.0554495724    -2.6353146627
| 14>  H       -1.8925108023     2.2694129548    -0.6699039539
| 15>  H       -1.9168493271     1.5320896182     0.9366542408
| 16>  H       -1.3332340301     3.8480057561     1.6950707819
| 17>  H        1.3456950998     3.5377620181     1.6977153413
| 18>  H        0.1650601505     5.3232751678     0.3626785477
| 19>  H        0.0337921940     3.9468654892    -3.6917954073
| 20> *
| 21>
| 22>                          ****END OF INPUT****

CARTESIAN COORDINATES (ANGSTROEM)
---------------------------------
  O      0.040170    0.264576   -0.644768
  C     -0.046254    1.326348   -0.110687
  C     -1.309723    2.120428    0.243063
  C     -0.797075    3.395272    0.871099
  C      0.695480    3.253921    0.880271
  O      1.063504    2.036108    0.287401
  C      0.064337    4.309122   -0.014463
  C      0.058581    4.180063   -1.439336
  C      0.035360    4.055450   -2.635315
  H     -1.892511    2.269413   -0.669904
  H     -1.916849    1.532090    0.936654
  H     -1.333234    3.848006    1.695071
  H      1.345695    3.537762    1.697715
  H      0.165060    5.323275    0.362679
  H      0.033792    3.946865   -3.691795

 Total Charge           Charge          ....    0
 Multiplicity           Mult            ....    1
 Number of Electrons    NEL             ....   64
 Basis Dimension        Dim             ....  315

ORBITAL ENERGIES
----------------

  NO   OCC          E(Eh)            E(eV)
   0   2.0000     -20.611366      -560.8638
   1   2.0000     -20.546723      -559.1048
   2   2.0000     -11.385599      -309.8179
   3   2.0000     -11.322197      -308.0926
   4   2.0000     -11.282518      -307.0129
   5   2.0000     -11.272731      -306.7466
   6   2.0000     -11.264448      -306.5212
   7   2.0000     -11.247334      -306.0555
   8   2.0000     -11.236479      -305.7601
   9   2.0000      -1.469355       -39.9832
  10   2.0000      -1.379532       -37.5390
  11   2.0000      -1.184357       -32.2280
  12   2.0000      -1.052110       -28.6294
  13   2.0000      -1.026645       -27.9364
  14   2.0000      -0.900154       -24.4944
  15   2.0000      -0.847661       -23.0660
  16   2.0000      -0.792261       -21.5585
  17   2.0000      -0.744580       -20.2611
  18   2.0000      -0.721809       -19.6414
  19   2.0000      -0.683572       -18.6009
  20   2.0000      -0.661870       -18.0104
  21   2.0000      -0.643710       -17.5162
  22   2.0000      -0.623760       -16.9734
  23   2.0000      -0.607286       -16.5251
  24   2.0000      -0.575120       -15.6498
  25   2.0000      -0.555025       -15.1030
  26   2.0000      -0.508403       -13.8343
  27   2.0000      -0.480354       -13.0711
  28   2.0000      -0.446921       -12.1613
  29   2.0000      -0.442922       -12.0525
  30   2.0000      -0.397831       -10.8255
  31   2.0000      -0.376150       -10.2356
  32   0.0000       0.124641         3.3916
  33   0.0000       0.146065         3.9746
  34   0.0000       0.157636         4.2895
  35   0.0000       0.158961         4.3255
  36   0.0000       0.164086         4.4650

MULLIKEN ATOMIC CHARGES
-----------------------
   0 O :   -0.265610
   1 C :    0.236273
   2 C :   -0.233618
   3 C :   -0.121954
   4 C :    0.092698
   5 O :   -0.222265
   6 C :   -0.319115
   7 C :    0.002712
   8 C :   -0.117279
   9 H :    0.156376
  10 H :    0.154216
  11 H :    0.146886
  12 H :    0.146640
  13 H :    0.148129
  14 H :    0.195911
Sum of atomic charges:    0.0000000

LOEWDIN ATOMIC CHARGES
----------------------
   0 O :    0.154814
   1 C :   -0.433351
   2 C :   -0.198498
   3 C :   -0.166589
   4 C :   -0.221923
   5 O :    0.290957
   6 C :   -0.172604
   7 C :   -0.093470
   8 C :   -0.076900
   9 H :    0.163256
  10 H :    0.159436
  11 H :    0.150018
  12 H :    0.143544
  13 H :    0.171392
  14 H :    0.129919

  Mayer bond orders larger than 0.1
B(  0-O ,  1-C ) :   2.0567 B(  1-C ,  2-C ) :   0.9412 B(  1-C ,  5-O ) :   1.0582
B(  2-C ,  3-C ) :   0.9611 B(  2-C ,  9-H ) :   0.8956 B(  2-C , 10-H ) :   0.9085
B(  3-C ,  4-C ) :   0.8811 B(  3-C ,  6-C ) :   0.8330 B(  3-C , 11-H ) :   0.9155
B(  4-C ,  5-O ) :   0.9353 B(  4-C ,  6-C ) :   0.8483 B(  4-C , 12-H ) :   0.9333
B(  6-C ,  7-C ) :   1.1746 B(  6-C ,  8-C ) :  -0.1156 B(  6-C , 13-H ) :   0.9185
B(  7-C ,  8-C ) :   2.5505 B(  8-C , 14-H ) :   0.9020

MP2 TOTAL ENERGY:     -419.902195247 Eh
FINAL SINGLE POINT ENERGY      -419.902195247017

DIPOLE MOMENT
-------------
                                X             Y             Z
Electronic contribution:      2.61428      -2.69668      -0.99308
Nuclear contribution   :     -3.28630       3.96533       1.78157
                        -----------------------------------------
Total Dipole Moment    :     -0.67202       1.26865       0.78848
                        -----------------------------------------
Magnitude (a.u.)       :      1.63792
Magnitude (Debye)      :      4.16327

                             ****ORCA TERMINATED NORMALLY****
TOTAL RUN TIME: 0 days 0 hours 17 minutes 15 seconds 403 msec
