                         Program Version 3.0.3 - RELEASE   -
|  1> ! RI-MP2 RIJK def2-TZVP def2-TZVP/C def2-TZVP/JK TIGHTSCF
|  2> % maxcore 2000
|  3> % mp2 density relaxed end
|  4> *xyz 0 1
|  5>  C        0.0246369684     1.6162418941    -0.0244039826
|  6>  C        0.0193099353     0.0873276456     0.0004368743
|  7>  C        0.7504577046    -0.5604440916    -1.2166879958
|  8>  C        2.0343914536    -1.1344637138    -0.6001367928
|  9>  O        1.6543816735    -1.5301734571     0.7069457774
| 10>  C        0.8314184449    -0.4968387424     1.2087276745
| 11>  C       -1.3970018408    -0.4527003809     0.0748804976
| 12>  O       -2.3991569597     0.2135109734     0.0913987639
| 13>  H        1.0450343240     1.9958129981    -0.1370022115
| 14>  H       -0.5827344875     1.9944565232    -0.8502830091
| 15>  H       -0.3937572568     2.0255943620     0.8997946894
| 16>  H        0.1534918912    -1.3735430674    -1.6435197754
| 17>  H        0.9364692460     0.1687244360    -2.0084498019
| 18>  H        2.4252371415    -2.0123349265    -1.1199015825
| 19>  H        2.8266631127    -0.3686287953    -0.5631700759
| 20>  H        1.4332290535     0.3107498736     1.6539530833
| 21>  H        0.2015837923    -0.9244512161     1.9957553650
| 22>  H       -1.4449031367    -1.5666446650     0.1231930222
| 23> *
| 24>
| 25>                          ****END OF INPUT****

CARTESIAN COORDINATES (ANGSTROEM)
---------------------------------
  C      0.024637    1.616242   -0.024404
  C      0.019310    0.087328    0.000437
  C      0.750458   -0.560444   -1.216688
  C      2.034391   -1.134464   -0.600137
  O      1.654382   -1.530173    0.706946
  C      0.831418   -0.496839    1.208728
  C     -1.397002   -0.452700    0.074880
  O     -2.399157    0.213511    0.091399
  H      1.045034    1.995813   -0.137002
  H     -0.582734    1.994457   -0.850283
  H     -0.393757    2.025594    0.899795
  H      0.153492   -1.373543   -1.643520
  H      0.936469    0.168724   -2.008450
  H      2.425237   -2.012335   -1.119902
  H      2.826663   -0.368629   -0.563170
  H      1.433229    0.310750    1.653953
  H      0.201584   -0.924451    1.995755
  H     -1.444903   -1.566645    0.123193

 Total Charge           Charge          ....    0
 Multiplicity           Mult            ....    1
 Number of Electrons    NEL             ....   62
 Basis Dimension        Dim             ....  308

ORBITAL ENERGIES
----------------

  NO   OCC          E(Eh)            E(eV)
   0   2.0000     -20.567320      -559.6652
   1   2.0000     -20.558487      -559.4249
   2   2.0000     -11.331365      -308.3421
   3   2.0000     -11.290652      -307.2343
   4   2.0000     -11.286853      -307.1309
   5   2.0000     -11.258093      -306.3483
   6   2.0000     -11.244399      -305.9757
   7   2.0000     -11.226003      -305.4751
   8   2.0000      -1.400171       -38.1006
   9   2.0000      -1.394896       -37.9570
  10   2.0000      -1.108360       -30.1600
  11   2.0000      -1.018322       -27.7100
  12   2.0000      -0.941830       -25.6285
  13   2.0000      -0.875378       -23.8202
  14   2.0000      -0.836842       -22.7716
  15   2.0000      -0.756308       -20.5802
  16   2.0000      -0.701943       -19.1008
  17   2.0000      -0.686942       -18.6927
  18   2.0000      -0.649494       -17.6736
  19   2.0000      -0.641732       -17.4624
  20   2.0000      -0.618800       -16.8384
  21   2.0000      -0.583869       -15.8879
  22   2.0000      -0.569768       -15.5042
  23   2.0000      -0.547434       -14.8964
  24   2.0000      -0.529678       -14.4133
  25   2.0000      -0.520478       -14.1629
  26   2.0000      -0.507264       -13.8033
  27   2.0000      -0.488984       -13.3059
  28   2.0000      -0.465675       -12.6717
  29   2.0000      -0.436093       -11.8667
  30   2.0000      -0.414037       -11.2665
  31   0.0000       0.127456         3.4682
  32   0.0000       0.132464         3.6045
  33   0.0000       0.160868         4.3774
  34   0.0000       0.163826         4.4579
  35   0.0000       0.186774         5.0824

MULLIKEN ATOMIC CHARGES
-----------------------
   0 C :   -0.455372
   1 C :    0.256787
   2 C :   -0.316908
   3 C :   -0.036185
   4 O :   -0.308902
   5 C :   -0.120368
   6 C :   -0.010152
   7 O :   -0.259371
   8 H :    0.135792
   9 H :    0.147169
  10 H :    0.143996
  11 H :    0.126771
  12 H :    0.137287
  13 H :    0.125266
  14 H :    0.094118
  15 H :    0.108947
  16 H :    0.131179
  17 H :    0.099946
Sum of atomic charges:   -0.0000000

LOEWDIN ATOMIC CHARGES
----------------------
   0 C :   -0.269721
   1 C :   -0.290295
   2 C :   -0.210098
   3 C :   -0.306655
   4 O :    0.157663
   5 C :   -0.260991
   6 C :   -0.267914
   7 O :    0.140564
   8 H :    0.126339
   9 H :    0.132212
  10 H :    0.132147
  11 H :    0.143091
  12 H :    0.143004
  13 H :    0.128314
  14 H :    0.120483
  15 H :    0.128229
  16 H :    0.132874
  17 H :    0.120754

  Mayer bond orders larger than 0.1
B(  0-C ,  1-C ) :   0.9043 B(  0-C ,  8-H ) :   0.9322 B(  0-C ,  9-H ) :   0.9301
B(  0-C , 10-H ) :   0.9320 B(  1-C ,  2-C ) :   0.8645 B(  1-C ,  5-C ) :   0.8619
B(  1-C ,  6-C ) :   0.7942 B(  2-C ,  3-C ) :   0.9552 B(  2-C , 11-H ) :   0.9187
B(  2-C , 12-H ) :   0.9221 B(  3-C ,  4-O ) :   0.9233 B(  3-C , 13-H ) :   0.9251
B(  3-C , 14-H ) :   0.9283 B(  4-O ,  5-C ) :   0.9493 B(  5-C , 15-H ) :   0.9266
B(  5-C , 16-H ) :   0.9147 B(  6-C ,  7-O ) :   2.0113 B(  6-C , 17-H ) :   0.9561

MP2 TOTAL ENERGY:     -384.321650276 Eh
FINAL SINGLE POINT ENERGY      -384.321650275906

DIPOLE MOMENT
-------------
                                X             Y             Z
Electronic contribution:     -3.57675      -2.77213       1.52497
Nuclear contribution   :      4.37383       2.86271      -1.90007
                        -----------------------------------------
Total Dipole Moment    :      0.79708       0.09058      -0.37510
                        -----------------------------------------
Magnitude (a.u.)       :      0.88557
Magnitude (Debye)      :      2.25095

                             ****ORCA TERMINATED NORMALLY****
TOTAL RUN TIME: 0 days 0 hours 13 minutes 3 seconds 434 msec
