                         Program Version 3.0.3 - RELEASE   -
|  1> ! RI-MP2 RIJK def2-TZVP def2-TZVP/C def2-TZVP/JK TIGHTSCF
|  2> % maxcore 2000
|  3> % mp2 density relaxed end
|  4> *xyz 0 1
|  5>  C       -0.2674196021     1.4061226075     0.1920148095
|  6>  C       -0.0079231798    -0.0572712384    -0.0471644700
|  7>  C        0.1405045581    -0.9974430625     1.1239816540
|  8>  C        1.3961493913    -0.7292161039     1.9395771377
|  9>  C        1.4040464970     0.2698511773     3.0844163651
| 10>  C        1.5000296600    -1.2104951620     3.3576507403
| 11>  O        0.3890451719    -1.8868588498     3.8732160184
| 12>  N        0.1122952538    -0.5911643443    -1.2033812497
| 13>  O       -0.0064660226     0.3514336845    -2.2417044287
| 14>  H        0.6746917894     1.9648778636     0.2368631978
| 15>  H       -0.8583201452     1.8283420544    -0.6224464107
| 16>  H       -0.7859792776     1.5585871404     1.1415704624
| 17>  H       -0.7346761576    -0.9201498281     1.7781819516
| 18>  H        0.1685119184    -2.0203617245     0.7370762331
| 19>  H        2.3139203679    -0.7916103460     1.3609110636
| 20>  H        2.2767455177     0.8956136339     3.2371242284
| 21>  H        0.4583909049     0.7400123742     3.3349564021
| 22>  H        2.4624178975    -1.6069338905     3.6813131335
| 23>  H        0.2859987263    -1.6295116984     4.7950613887
| 24>  H        0.0487347608    -0.2082588074    -3.0229499572
| 25> *
| 26>
| 27>                          ****END OF INPUT****

CARTESIAN COORDINATES (ANGSTROEM)
---------------------------------
  C     -0.267420    1.406123    0.192015
  C     -0.007923   -0.057271   -0.047164
  C      0.140505   -0.997443    1.123982
  C      1.396149   -0.729216    1.939577
  C      1.404046    0.269851    3.084416
  C      1.500030   -1.210495    3.357651
  O      0.389045   -1.886859    3.873216
  N      0.112295   -0.591164   -1.203381
  O     -0.006466    0.351434   -2.241704
  H      0.674692    1.964878    0.236863
  H     -0.858320    1.828342   -0.622446
  H     -0.785979    1.558587    1.141570
  H     -0.734676   -0.920150    1.778182
  H      0.168512   -2.020362    0.737076
  H      2.313920   -0.791610    1.360911
  H      2.276746    0.895614    3.237124
  H      0.458391    0.740012    3.334956
  H      2.462418   -1.606934    3.681313
  H      0.285999   -1.629512    4.795061
  H      0.048735   -0.208259   -3.022950

 Total Charge           Charge          ....    0
 Multiplicity           Mult            ....    1
 Number of Electrons    NEL             ....   70
 Basis Dimension        Dim             ....  345

ORBITAL ENERGIES
----------------

  NO   OCC          E(Eh)            E(eV)
   0   2.0000     -20.581267      -560.0447
   1   2.0000     -20.567231      -559.6628
   2   2.0000     -15.603433      -424.5910
   3   2.0000     -11.286773      -307.1287
   4   2.0000     -11.271996      -306.7266
   5   2.0000     -11.238184      -305.8065
   6   2.0000     -11.230603      -305.6002
   7   2.0000     -11.229249      -305.5634
   8   2.0000     -11.224233      -305.4269
   9   2.0000      -1.407704       -38.3056
  10   2.0000      -1.376591       -37.4589
  11   2.0000      -1.167094       -31.7582
  12   2.0000      -1.133256       -30.8375
  13   2.0000      -0.989808       -26.9340
  14   2.0000      -0.961327       -26.1590
  15   2.0000      -0.833744       -22.6873
  16   2.0000      -0.793050       -21.5800
  17   2.0000      -0.735904       -20.0250
  18   2.0000      -0.699991       -19.0477
  19   2.0000      -0.685598       -18.6561
  20   2.0000      -0.668652       -18.1949
  21   2.0000      -0.646944       -17.6042
  22   2.0000      -0.621381       -16.9086
  23   2.0000      -0.594320       -16.1723
  24   2.0000      -0.568371       -15.4662
  25   2.0000      -0.565031       -15.3753
  26   2.0000      -0.546859       -14.8808
  27   2.0000      -0.535698       -14.5771
  28   2.0000      -0.525497       -14.2995
  29   2.0000      -0.509016       -13.8510
  30   2.0000      -0.500512       -13.6196
  31   2.0000      -0.430434       -11.7127
  32   2.0000      -0.409178       -11.1343
  33   2.0000      -0.404061       -10.9951
  34   2.0000      -0.371472       -10.1083
  35   0.0000       0.134745         3.6666
  36   0.0000       0.145942         3.9713
  37   0.0000       0.153880         4.1873
  38   0.0000       0.165052         4.4913
  39   0.0000       0.168460         4.5840

MULLIKEN ATOMIC CHARGES
-----------------------
   0 C :   -0.415033
   1 C :    0.069105
   2 C :   -0.234099
   3 C :   -0.063818
   4 C :   -0.312110
   5 C :    0.019953
   6 O :   -0.469768
   7 N :   -0.105747
   8 O :   -0.377434
   9 H :    0.147066
  10 H :    0.166994
  11 H :    0.129990
  12 H :    0.151713
  13 H :    0.129307
  14 H :    0.132314
  15 H :    0.131443
  16 H :    0.130782
  17 H :    0.109916
  18 H :    0.324303
  19 H :    0.335124
Sum of atomic charges:    0.0000000

LOEWDIN ATOMIC CHARGES
----------------------
   0 C :   -0.282317
   1 C :   -0.301691
   2 C :   -0.210421
   3 C :   -0.202902
   4 C :   -0.224500
   5 C :   -0.321842
   6 O :   -0.003938
   7 N :    0.018708
   8 O :   -0.082050
   9 H :    0.139680
  10 H :    0.136214
  11 H :    0.129535
  12 H :    0.152946
  13 H :    0.154564
  14 H :    0.152453
  15 H :    0.130866
  16 H :    0.135599
  17 H :    0.130293
  18 H :    0.180926
  19 H :    0.167878

  Mayer bond orders larger than 0.1
B(  0-C ,  1-C ) :   0.9307 B(  0-C ,  9-H ) :   0.9161 B(  0-C , 10-H ) :   0.9220
B(  0-C , 11-H ) :   0.9344 B(  1-C ,  2-C ) :   0.9365 B(  1-C ,  7-N ) :   1.8535
B(  2-C ,  3-C ) :   0.8866 B(  2-C , 12-H ) :   0.9296 B(  2-C , 13-H ) :   0.9231
B(  3-C ,  4-C ) :   0.8785 B(  3-C ,  5-C ) :   0.8494 B(  3-C , 14-H ) :   0.9223
B(  4-C ,  5-C ) :   0.8985 B(  4-C , 15-H ) :   0.9193 B(  4-C , 16-H ) :   0.9257
B(  5-C ,  6-O ) :   1.0304 B(  5-C , 17-H ) :   0.9546 B(  6-O , 18-H ) :   0.8407
B(  7-N ,  8-O ) :   0.8103 B(  8-O , 19-H ) :   0.8460

MP2 TOTAL ENERGY:     -439.504399938 Eh
FINAL SINGLE POINT ENERGY      -439.504399937954

DIPOLE MOMENT
-------------
                                X             Y             Z
Electronic contribution:     -0.51907      -3.27567      -3.61599
Nuclear contribution   :      0.78870       3.71460       4.26485
                        -----------------------------------------
Total Dipole Moment    :      0.26963       0.43892       0.64886
                        -----------------------------------------
Magnitude (a.u.)       :      0.82847
Magnitude (Debye)      :      2.10581

                             ****ORCA TERMINATED NORMALLY****
TOTAL RUN TIME: 0 days 0 hours 16 minutes 1 seconds 276 msec
