                         Program Version 3.0.3 - RELEASE   -
|  1> ! RI-MP2 RIJK def2-TZVP def2-TZVP/C def2-TZVP/JK TIGHTSCF
|  2> % maxcore 2000
|  3> % mp2 density relaxed end
|  4> *xyz 0 1
|  5>  N        0.1216957963     1.3920332551     0.0158735920
|  6>  C       -0.0645205244     0.0146755771     0.0012401572
|  7>  C       -1.1509994806    -0.7962211435     0.0832398114
|  8>  C       -2.6470149981    -0.8374785388     0.1965867401
|  9>  C       -2.9249985021    -2.3373745379    -0.1308143871
| 10>  N       -1.6839411861    -3.0548042420     0.2524986154
| 11>  C       -0.6407998660    -2.1330743433     0.1092823642
| 12>  C        0.7087943660    -2.0736983984     0.0321994680
| 13>  O        1.0716438039    -0.7230964422    -0.0386647600
| 14>  H        0.9679129089     1.6668791210    -0.4673365086
| 15>  H       -0.6748718729     1.8967166446    -0.3484599290
| 16>  H       -2.9889044446    -0.5964395956     1.2115183469
| 17>  H       -3.1862724337    -0.1793396251    -0.4921607795
| 18>  H       -3.7828028018    -2.7357068717     0.4185184048
| 19>  H       -3.1311430128    -2.4422421331    -1.2068122574
| 20>  H       -1.5607597939    -3.9449589595    -0.2102493522
| 21>  H        1.5229972218    -2.7737077767     0.0017458339
| 22> *
| 23>
| 24>                          ****END OF INPUT****

CARTESIAN COORDINATES (ANGSTROEM)
---------------------------------
  N      0.121696    1.392033    0.015874
  C     -0.064521    0.014676    0.001240
  C     -1.150999   -0.796221    0.083240
  C     -2.647015   -0.837479    0.196587
  C     -2.924999   -2.337375   -0.130814
  N     -1.683941   -3.054804    0.252499
  C     -0.640800   -2.133074    0.109282
  C      0.708794   -2.073698    0.032199
  O      1.071644   -0.723096   -0.038665
  H      0.967913    1.666879   -0.467337
  H     -0.674872    1.896717   -0.348460
  H     -2.988904   -0.596440    1.211518
  H     -3.186272   -0.179340   -0.492161
  H     -3.782803   -2.735707    0.418518
  H     -3.131143   -2.442242   -1.206812
  H     -1.560760   -3.944959   -0.210249
  H      1.522997   -2.773708    0.001746

 Total Charge           Charge          ....    0
 Multiplicity           Mult            ....    1
 Number of Electrons    NEL             ....   66
 Basis Dimension        Dim             ....  327

ORBITAL ENERGIES
----------------

  NO   OCC          E(Eh)            E(eV)
   0   2.0000     -20.597136      -560.4766
   1   2.0000     -15.573345      -423.7723
   2   2.0000     -15.561033      -423.4372
   3   2.0000     -11.323330      -308.1235
   4   2.0000     -11.262223      -306.4607
   5   2.0000     -11.250623      -306.1450
   6   2.0000     -11.247699      -306.0655
   7   2.0000     -11.237338      -305.7835
   8   2.0000     -11.201202      -304.8002
   9   2.0000      -1.435924       -39.0735
  10   2.0000      -1.240826       -33.7646
  11   2.0000      -1.210598       -32.9420
  12   2.0000      -1.057975       -28.7890
  13   2.0000      -1.015358       -27.6293
  14   2.0000      -0.942938       -25.6586
  15   2.0000      -0.845213       -22.9994
  16   2.0000      -0.789020       -21.4703
  17   2.0000      -0.764969       -20.8159
  18   2.0000      -0.714324       -19.4378
  19   2.0000      -0.670843       -18.2546
  20   2.0000      -0.657368       -17.8879
  21   2.0000      -0.624472       -16.9928
  22   2.0000      -0.603856       -16.4318
  23   2.0000      -0.596069       -16.2198
  24   2.0000      -0.591079       -16.0841
  25   2.0000      -0.537979       -14.6392
  26   2.0000      -0.526688       -14.3319
  27   2.0000      -0.502685       -13.6787
  28   2.0000      -0.496098       -13.4995
  29   2.0000      -0.476482       -12.9657
  30   2.0000      -0.456823       -12.4308
  31   2.0000      -0.327652        -8.9159
  32   2.0000      -0.271638        -7.3916
  33   0.0000       0.126867         3.4522
  34   0.0000       0.142008         3.8642
  35   0.0000       0.164546         4.4775
  36   0.0000       0.172789         4.7018
  37   0.0000       0.184587         5.0229

MULLIKEN ATOMIC CHARGES
-----------------------
   0 N :   -0.512644
   1 C :    0.259129
   2 C :   -0.114038
   3 C :   -0.240519
   4 C :   -0.087390
   5 N :   -0.328612
   6 C :    0.052597
   7 C :   -0.142264
   8 O :   -0.225806
   9 H :    0.257326
  10 H :    0.251124
  11 H :    0.123522
  12 H :    0.124018
  13 H :    0.121016
  14 H :    0.099733
  15 H :    0.223503
  16 H :    0.139304
Sum of atomic charges:   -0.0000000

LOEWDIN ATOMIC CHARGES
----------------------
   0 N :   -0.080683
   1 C :   -0.340394
   2 C :   -0.163864
   3 C :   -0.213774
   4 C :   -0.249546
   5 N :    0.052446
   6 C :   -0.247182
   7 C :   -0.245827
   8 O :    0.316573
   9 H :    0.173709
  10 H :    0.172970
  11 H :    0.142353
  12 H :    0.137324
  13 H :    0.124383
  14 H :    0.121069
  15 H :    0.174053
  16 H :    0.126391

  Mayer bond orders larger than 0.1
B(  0-N ,  1-C ) :   1.0425 B(  0-N ,  9-H ) :   0.8710 B(  0-N , 10-H ) :   0.8784
B(  1-C ,  2-C ) :   1.4709 B(  1-C ,  8-O ) :   1.1214 B(  2-C ,  3-C ) :   0.9011
B(  2-C ,  6-C ) :   1.1678 B(  3-C ,  4-C ) :   0.9811 B(  3-C , 11-H ) :   0.9209
B(  3-C , 12-H ) :   0.9224 B(  4-C ,  5-N ) :   0.9238 B(  4-C , 13-H ) :   0.9315
B(  4-C , 14-H ) :   0.9206 B(  5-N ,  6-C ) :   1.0748 B(  5-N , 15-H ) :   0.8763
B(  6-C ,  7-C ) :   1.5678 B(  7-C ,  8-O ) :   0.9553 B(  7-C , 16-H ) :   0.9419

MP2 TOTAL ENERGY:     -417.311988093 Eh
FINAL SINGLE POINT ENERGY      -417.311988093226

DIPOLE MOMENT
-------------
                                X             Y             Z
Electronic contribution:      5.45122       0.11626       0.54272
Nuclear contribution   :     -6.06475       0.05439      -1.36098
                        -----------------------------------------
Total Dipole Moment    :     -0.61353       0.17065      -0.81826
                        -----------------------------------------
Magnitude (a.u.)       :      1.03687
Magnitude (Debye)      :      2.63551

                             ****ORCA TERMINATED NORMALLY****
TOTAL RUN TIME: 0 days 0 hours 17 minutes 1 seconds 188 msec
