                         Program Version 3.0.3 - RELEASE   -
|  1> ! RI-MP2 RIJK def2-TZVP def2-TZVP/C def2-TZVP/JK TIGHTSCF
|  2> % maxcore 2000
|  3> % mp2 density relaxed end
|  4> *xyz 0 1
|  5>  C       -0.2769531665     1.3079853854    -0.1786316513
|  6>  N        0.0709730432    -0.0967421615    -0.0964656373
|  7>  C        0.7618620424    -0.7179296509    -1.1067080432
|  8>  O        0.9829552288    -0.2115851768    -2.1909468893
|  9>  N        1.2461562064    -1.9851650259    -0.7449309688
| 10>  C        0.4171360708    -3.0736617334    -0.2397452094
| 11>  C        1.0951259048    -3.1700159195    -1.5787865485
| 12>  C        0.2348921663    -3.0956147238    -2.8255726372
| 13>  C        2.3499205819    -4.0089367100    -1.7157652357
| 14>  H        0.4234121759     1.9451073712     0.3770215909
| 15>  H       -0.2419962078     1.5928589623    -1.2305796284
| 16>  H       -1.2865648239     1.4778910314     0.2086598654
| 17>  H        0.1057684383    -0.5271302788     0.8131990802
| 18>  H        0.8122362338    -3.6119802616     0.6191103133
| 19>  H       -0.6612541425    -2.9271741391    -0.2326317903
| 20>  H       -0.6906386554    -2.5428593239    -2.6484742919
| 21>  H        0.7710861297    -2.5894411567    -3.6322423217
| 22>  H       -0.0247870101    -4.1065036830    -3.1572784373
| 23>  H        2.0966076847    -5.0468317289    -1.9575702140
| 24>  H        2.9833977810    -3.6194568965    -2.5196264245
| 25>  H        2.9303846881    -3.9962906000    -0.7900716410
| 26> *
| 27>
| 28>                          ****END OF INPUT****

CARTESIAN COORDINATES (ANGSTROEM)
---------------------------------
  C     -0.276953    1.307985   -0.178632
  N      0.070973   -0.096742   -0.096466
  C      0.761862   -0.717930   -1.106708
  O      0.982955   -0.211585   -2.190947
  N      1.246156   -1.985165   -0.744931
  C      0.417136   -3.073662   -0.239745
  C      1.095126   -3.170016   -1.578787
  C      0.234892   -3.095615   -2.825573
  C      2.349921   -4.008937   -1.715765
  H      0.423412    1.945107    0.377022
  H     -0.241996    1.592859   -1.230580
  H     -1.286565    1.477891    0.208660
  H      0.105768   -0.527130    0.813199
  H      0.812236   -3.611980    0.619110
  H     -0.661254   -2.927174   -0.232632
  H     -0.690639   -2.542859   -2.648474
  H      0.771086   -2.589441   -3.632242
  H     -0.024787   -4.106504   -3.157278
  H      2.096608   -5.046832   -1.957570
  H      2.983398   -3.619457   -2.519626
  H      2.930385   -3.996291   -0.790072

 Total Charge           Charge          ....    0
 Multiplicity           Mult            ....    1
 Number of Electrons    NEL             ....   70
 Basis Dimension        Dim             ....  351

ORBITAL ENERGIES
----------------

  NO   OCC          E(Eh)            E(eV)
   0   2.0000     -20.505580      -557.9852
   1   2.0000     -15.577063      -423.8734
   2   2.0000     -15.573492      -423.7763
   3   2.0000     -11.367029      -309.3126
   4   2.0000     -11.281406      -306.9827
   5   2.0000     -11.269537      -306.6597
   6   2.0000     -11.254375      -306.2471
   7   2.0000     -11.219701      -305.3036
   8   2.0000     -11.218588      -305.2733
   9   2.0000      -1.388335       -37.7785
  10   2.0000      -1.284972       -34.9659
  11   2.0000      -1.221348       -33.2346
  12   2.0000      -1.036971       -28.2174
  13   2.0000      -0.963795       -26.2262
  14   2.0000      -0.944410       -25.6987
  15   2.0000      -0.907809       -24.7027
  16   2.0000      -0.800222       -21.7751
  17   2.0000      -0.765533       -20.8312
  18   2.0000      -0.695340       -18.9212
  19   2.0000      -0.663752       -18.0616
  20   2.0000      -0.644117       -17.5273
  21   2.0000      -0.616519       -16.7763
  22   2.0000      -0.611623       -16.6431
  23   2.0000      -0.596830       -16.2406
  24   2.0000      -0.577989       -15.7279
  25   2.0000      -0.553824       -15.0703
  26   2.0000      -0.541565       -14.7367
  27   2.0000      -0.536447       -14.5975
  28   2.0000      -0.529022       -14.3954
  29   2.0000      -0.501736       -13.6529
  30   2.0000      -0.487397       -13.2628
  31   2.0000      -0.466013       -12.6809
  32   2.0000      -0.421571       -11.4715
  33   2.0000      -0.395009       -10.7487
  34   2.0000      -0.383026       -10.4227
  35   0.0000       0.129967         3.5366
  36   0.0000       0.147368         4.0101
  37   0.0000       0.168982         4.5982
  38   0.0000       0.176816         4.8114
  39   0.0000       0.187051         5.0899

MULLIKEN ATOMIC CHARGES
-----------------------
   0 C :   -0.290112
   1 N :   -0.342299
   2 C :    0.334527
   3 O :   -0.387541
   4 N :   -0.230376
   5 C :   -0.227436
   6 C :    0.154036
   7 C :   -0.366805
   8 C :   -0.409062
   9 H :    0.131361
  10 H :    0.174100
  11 H :    0.132329
  12 H :    0.242663
  13 H :    0.131307
  14 H :    0.137086
  15 H :    0.129933
  16 H :    0.154226
  17 H :    0.131655
  18 H :    0.125546
  19 H :    0.139677
  20 H :    0.135185
Sum of atomic charges:   -0.0000000

LOEWDIN ATOMIC CHARGES
----------------------
   0 C :   -0.317536
   1 N :    0.066584
   2 C :   -0.535943
   3 O :    0.071539
   4 N :    0.186852
   5 C :   -0.216168
   6 C :   -0.313930
   7 C :   -0.263795
   8 C :   -0.262283
   9 H :    0.112451
  10 H :    0.133818
  11 H :    0.114124
  12 H :    0.184363
  13 H :    0.125658
  14 H :    0.128524
  15 H :    0.130910
  16 H :    0.136393
  17 H :    0.129009
  18 H :    0.126919
  19 H :    0.132368
  20 H :    0.130142

  Mayer bond orders larger than 0.1
B(  0-C ,  1-N ) :   0.8725 B(  0-C ,  9-H ) :   0.9375 B(  0-C , 10-H ) :   0.9272
B(  0-C , 11-H ) :   0.9346 B(  1-N ,  2-C ) :   1.1376 B(  1-N , 12-H ) :   0.8697
B(  2-C ,  3-O ) :   1.9242 B(  2-C ,  4-N ) :   1.0121 B(  4-N ,  5-C ) :   0.8668
B(  4-N ,  6-C ) :   0.8210 B(  5-C ,  6-C ) :   0.9277 B(  5-C , 13-H ) :   0.9121
B(  5-C , 14-H ) :   0.9120 B(  6-C ,  7-C ) :   0.9373 B(  6-C ,  8-C ) :   0.9033
B(  7-C , 15-H ) :   0.9273 B(  7-C , 16-H ) :   0.9321 B(  7-C , 17-H ) :   0.9282
B(  8-C , 18-H ) :   0.9365 B(  8-C , 19-H ) :   0.9385 B(  8-C , 20-H ) :   0.9350

MP2 TOTAL ENERGY:     -419.719671736 Eh
FINAL SINGLE POINT ENERGY      -419.719671735911

DIPOLE MOMENT
-------------
                                X             Y             Z
Electronic contribution:      1.06749       3.43651       0.88623
Nuclear contribution   :     -1.70085      -4.00453       0.15043
                        -----------------------------------------
Total Dipole Moment    :     -0.63336      -0.56801       1.03666
                        -----------------------------------------
Magnitude (a.u.)       :      1.34106
Magnitude (Debye)      :      3.40871

                             ****ORCA TERMINATED NORMALLY****
TOTAL RUN TIME: 0 days 0 hours 17 minutes 39 seconds 743 msec
