                         Program Version 3.0.3 - RELEASE   -
|  1> ! RI-MP2 RIJK def2-TZVP def2-TZVP/C def2-TZVP/JK TIGHTSCF
|  2> % maxcore 2000
|  3> % mp2 density relaxed end
|  4> *xyz 0 1
|  5>  C        0.0348207520    -1.2015001755     0.0711827197
|  6>  C        0.0000114576     0.0017601872     0.0654404226
|  7>  C       -0.0532001572     1.4417325651     0.0330238159
|  8>  C        0.4846754757     2.1712845266     1.2275144742
|  9>  N        1.2259946162     2.1947501789    -0.0350298449
| 10>  C       -1.1730621758     2.0589528781    -0.7630507849
| 11>  C       -1.7241372216     1.3948800627    -1.9676128605
| 12>  N       -2.5243070386     1.4858323352    -0.7311781157
| 13>  H        0.0731596778    -2.2629291233     0.0866141012
| 14>  H        0.0251273145     3.1155291585     1.5070499719
| 15>  H        0.8609616201     1.5765907898     2.0544000971
| 16>  H        2.0053163465     1.5424811629     0.0015567307
| 17>  H       -1.1457499623     3.1453241557    -0.7326384476
| 18>  H       -2.0872916977     1.9973223257    -2.7950274383
| 19>  H       -1.3119251709     0.4291981243    -2.2455410019
| 20>  H       -2.4973322463     0.5870212980    -0.2521940497
| 21> *
| 22>
| 23>                          ****END OF INPUT****

CARTESIAN COORDINATES (ANGSTROEM)
---------------------------------
  C      0.034821   -1.201500    0.071183
  C      0.000011    0.001760    0.065440
  C     -0.053200    1.441733    0.033024
  C      0.484675    2.171285    1.227514
  N      1.225995    2.194750   -0.035030
  C     -1.173062    2.058953   -0.763051
  C     -1.724137    1.394880   -1.967613
  N     -2.524307    1.485832   -0.731178
  H      0.073160   -2.262929    0.086614
  H      0.025127    3.115529    1.507050
  H      0.860962    1.576591    2.054400
  H      2.005316    1.542481    0.001557
  H     -1.145750    3.145324   -0.732638
  H     -2.087292    1.997322   -2.795027
  H     -1.311925    0.429198   -2.245541
  H     -2.497332    0.587021   -0.252194

 Total Charge           Charge          ....    0
 Multiplicity           Mult            ....    1
 Number of Electrons    NEL             ....   58
 Basis Dimension        Dim             ....  296

ORBITAL ENERGIES
----------------

  NO   OCC          E(Eh)            E(eV)
   0   2.0000     -15.577879      -423.8956
   1   2.0000     -15.556624      -423.3173
   2   2.0000     -11.302576      -307.5587
   3   2.0000     -11.273957      -306.7800
   4   2.0000     -11.266764      -306.5842
   5   2.0000     -11.252598      -306.1988
   6   2.0000     -11.252379      -306.1928
   7   2.0000     -11.243929      -305.9629
   8   2.0000      -1.291562       -35.1452
   9   2.0000      -1.255007       -34.1505
  10   2.0000      -1.054362       -28.6907
  11   2.0000      -0.953671       -25.9507
  12   2.0000      -0.897982       -24.4353
  13   2.0000      -0.874142       -23.7866
  14   2.0000      -0.830374       -22.5956
  15   2.0000      -0.742919       -20.2159
  16   2.0000      -0.711090       -19.3498
  17   2.0000      -0.693856       -18.8808
  18   2.0000      -0.637573       -17.3492
  19   2.0000      -0.605385       -16.4734
  20   2.0000      -0.541922       -14.7464
  21   2.0000      -0.535524       -14.5724
  22   2.0000      -0.520661       -14.1679
  23   2.0000      -0.480570       -13.0770
  24   2.0000      -0.471884       -12.8406
  25   2.0000      -0.447585       -12.1794
  26   2.0000      -0.411691       -11.2027
  27   2.0000      -0.393064       -10.6958
  28   2.0000      -0.366152        -9.9635
  29   0.0000       0.137357         3.7377
  30   0.0000       0.152470         4.1489
  31   0.0000       0.155845         4.2408
  32   0.0000       0.161857         4.4043
  33   0.0000       0.169765         4.6195

MULLIKEN ATOMIC CHARGES
-----------------------
   0 C :   -0.115374
   1 C :   -0.012568
   2 C :   -0.034926
   3 C :   -0.182792
   4 N :   -0.371633
   5 C :   -0.011507
   6 C :   -0.212332
   7 N :   -0.381318
   8 H :    0.196888
   9 H :    0.132418
  10 H :    0.138150
  11 H :    0.228954
  12 H :    0.133930
  13 H :    0.124977
  14 H :    0.140516
  15 H :    0.226618
Sum of atomic charges:   -0.0000000

LOEWDIN ATOMIC CHARGES
----------------------
   0 C :   -0.081918
   1 C :   -0.083834
   2 C :   -0.286484
   3 C :   -0.219097
   4 N :    0.029772
   5 C :   -0.232627
   6 C :   -0.254268
   7 N :   -0.008107
   8 H :    0.130012
   9 H :    0.131159
  10 H :    0.128166
  11 H :    0.172901
  12 H :    0.152909
  13 H :    0.125312
  14 H :    0.127161
  15 H :    0.168943

  Mayer bond orders larger than 0.1
B(  0-C ,  1-C ) :   2.5581 B(  0-C ,  2-C ) :  -0.1144 B(  0-C ,  8-H ) :   0.8891
B(  1-C ,  2-C ) :   1.0964 B(  2-C ,  3-C ) :   0.9289 B(  2-C ,  4-N ) :   0.8546
B(  2-C ,  5-C ) :   0.9622 B(  3-C ,  4-N ) :   0.9559 B(  3-C ,  9-H ) :   0.9085
B(  3-C , 10-H ) :   0.9168 B(  4-N , 11-H ) :   0.8706 B(  5-C ,  6-C ) :   0.9344
B(  5-C ,  7-N ) :   0.8964 B(  5-C , 12-H ) :   0.9087 B(  6-C ,  7-N ) :   0.9453
B(  6-C , 13-H ) :   0.9178 B(  6-C , 14-H ) :   0.9153 B(  7-N , 15-H ) :   0.8738

MP2 TOTAL ENERGY:     -342.078618977 Eh
FINAL SINGLE POINT ENERGY      -342.078618977277

DIPOLE MOMENT
-------------
                                X             Y             Z
Electronic contribution:      0.81369      -1.07904       0.54783
Nuclear contribution   :     -0.25380       0.33363      -0.20752
                        -----------------------------------------
Total Dipole Moment    :      0.55989      -0.74540       0.34032
                        -----------------------------------------
Magnitude (a.u.)       :      0.99243
Magnitude (Debye)      :      2.52256

                             ****ORCA TERMINATED NORMALLY****
TOTAL RUN TIME: 0 days 0 hours 12 minutes 35 seconds 173 msec
