                         Program Version 3.0.3 - RELEASE   -
|  1> ! RI-MP2 RIJK def2-TZVP def2-TZVP/C def2-TZVP/JK TIGHTSCF
|  2> % maxcore 2000
|  3> % mp2 density relaxed end
|  4> *xyz 0 1
|  5>  C        0.0800687965     1.0777417865    -0.5038099290
|  6>  C        1.4920672923     1.4243261104     0.0037142576
|  7>  C        1.3937070240     0.0807662282     0.7616293936
|  8>  O        0.0675832648    -0.1654645935     0.2330549612
|  9>  C        2.3711476694    -1.0180154043     0.3697209546
| 10>  C        1.9058426418    -2.4210447804     0.8300631253
| 11>  C        2.1540684846    -3.2999145785    -0.4064307167
| 12>  C        1.9473846189    -2.2918388880    -1.5373185002
| 13>  O        2.5137613617    -1.0769574189    -1.0537326723
| 14>  H       -0.7226603213     1.7488817485    -0.1748247439
| 15>  H       -0.0105157146     0.9102416568    -1.5828578388
| 16>  H        2.2634790181     1.4462266263    -0.7652471862
| 17>  H        1.5622780626     2.3126166427     0.6327204546
| 18>  H        1.3722071749     0.1691028835     1.8580410658
| 19>  H        3.3562742529    -0.7620853945     0.7870243111
| 20>  H        2.4421275209    -2.7619871207     1.7182406992
| 21>  H        0.8378062038    -2.3942279050     1.0643474298
| 22>  H        3.1836430378    -3.6727093642    -0.4198406560
| 23>  H        1.4785896039    -4.1569203103    -0.4676477079
| 24>  H        2.4612332092    -2.5543264048    -2.4668894813
| 25>  H        0.8767051578    -2.1590749397    -1.7496865305
| 26> *
| 27>
| 28>                          ****END OF INPUT****

CARTESIAN COORDINATES (ANGSTROEM)
---------------------------------
  C      0.080069    1.077742   -0.503810
  C      1.492067    1.424326    0.003714
  C      1.393707    0.080766    0.761629
  O      0.067583   -0.165465    0.233055
  C      2.371148   -1.018015    0.369721
  C      1.905843   -2.421045    0.830063
  C      2.154068   -3.299915   -0.406431
  C      1.947385   -2.291839   -1.537319
  O      2.513761   -1.076957   -1.053733
  H     -0.722660    1.748882   -0.174825
  H     -0.010516    0.910242   -1.582858
  H      2.263479    1.446227   -0.765247
  H      1.562278    2.312617    0.632720
  H      1.372207    0.169103    1.858041
  H      3.356274   -0.762085    0.787024
  H      2.442128   -2.761987    1.718241
  H      0.837806   -2.394228    1.064347
  H      3.183643   -3.672709   -0.419841
  H      1.478590   -4.156920   -0.467648
  H      2.461233   -2.554326   -2.466889
  H      0.876705   -2.159075   -1.749687

 Total Charge           Charge          ....    0
 Multiplicity           Mult            ....    1
 Number of Electrons    NEL             ....   70
 Basis Dimension        Dim             ....  351

ORBITAL ENERGIES
----------------

  NO   OCC          E(Eh)            E(eV)
   0   2.0000     -20.543994      -559.0305
   1   2.0000     -20.541292      -558.9570
   2   2.0000     -11.277392      -306.8735
   3   2.0000     -11.274137      -306.7849
   4   2.0000     -11.272143      -306.7306
   5   2.0000     -11.264784      -306.5304
   6   2.0000     -11.221549      -305.3539
   7   2.0000     -11.221203      -305.3445
   8   2.0000     -11.220605      -305.3282
   9   2.0000      -1.380770       -37.5727
  10   2.0000      -1.359114       -36.9834
  11   2.0000      -1.055139       -28.7118
  12   2.0000      -1.028884       -27.9974
  13   2.0000      -0.992549       -27.0086
  14   2.0000      -0.911320       -24.7983
  15   2.0000      -0.813209       -22.1285
  16   2.0000      -0.805250       -21.9120
  17   2.0000      -0.738824       -20.1044
  18   2.0000      -0.700428       -19.0596
  19   2.0000      -0.676041       -18.3960
  20   2.0000      -0.663598       -18.0574
  21   2.0000      -0.638227       -17.3670
  22   2.0000      -0.595935       -16.2162
  23   2.0000      -0.577127       -15.7044
  24   2.0000      -0.565561       -15.3897
  25   2.0000      -0.553125       -15.0513
  26   2.0000      -0.534940       -14.5565
  27   2.0000      -0.508024       -13.8240
  28   2.0000      -0.497203       -13.5296
  29   2.0000      -0.479059       -13.0359
  30   2.0000      -0.470675       -12.8077
  31   2.0000      -0.452526       -12.3138
  32   2.0000      -0.438225       -11.9247
  33   2.0000      -0.429318       -11.6823
  34   2.0000      -0.392750       -10.6873
  35   0.0000       0.141822         3.8592
  36   0.0000       0.157871         4.2959
  37   0.0000       0.160600         4.3701
  38   0.0000       0.175153         4.7661
  39   0.0000       0.185620         5.0510

MULLIKEN ATOMIC CHARGES
-----------------------
   0 C :   -0.016041
   1 C :   -0.302911
   2 C :    0.120804
   3 O :   -0.365612
   4 C :    0.108769
   5 C :   -0.285179
   6 C :   -0.225251
   7 C :   -0.043144
   8 O :   -0.344021
   9 H :    0.096885
  10 H :    0.098886
  11 H :    0.139622
  12 H :    0.124881
  13 H :    0.084474
  14 H :    0.100233
  15 H :    0.123511
  16 H :    0.143178
  17 H :    0.110962
  18 H :    0.120184
  19 H :    0.115295
  20 H :    0.094476
Sum of atomic charges:   -0.0000000

LOEWDIN ATOMIC CHARGES
----------------------
   0 C :   -0.272143
   1 C :   -0.227869
   2 C :   -0.271413
   3 O :    0.128332
   4 C :   -0.291985
   5 C :   -0.235202
   6 C :   -0.263419
   7 C :   -0.307483
   8 O :    0.166654
   9 H :    0.114061
  10 H :    0.116607
  11 H :    0.137513
  12 H :    0.127933
  13 H :    0.136897
  14 H :    0.143050
  15 H :    0.135170
  16 H :    0.146867
  17 H :    0.136464
  18 H :    0.135946
  19 H :    0.123158
  20 H :    0.120862

  Mayer bond orders larger than 0.1
B(  0-C ,  1-C ) :   0.9934 B(  0-C ,  3-O ) :   0.9287 B(  0-C ,  9-H ) :   0.9159
B(  0-C , 10-H ) :   0.9210 B(  1-C ,  2-C ) :   0.8962 B(  1-C , 11-H ) :   0.9199
B(  1-C , 12-H ) :   0.9282 B(  2-C ,  3-O ) :   0.9075 B(  2-C ,  4-C ) :   0.9384
B(  2-C , 13-H ) :   0.9112 B(  4-C ,  5-C ) :   0.9130 B(  4-C ,  8-O ) :   0.8885
B(  4-C , 14-H ) :   0.9168 B(  5-C ,  6-C ) :   0.9247 B(  5-C , 15-H ) :   0.9265
B(  5-C , 16-H ) :   0.9280 B(  6-C ,  7-C ) :   0.9701 B(  6-C , 17-H ) :   0.9275
B(  6-C , 18-H ) :   0.9253 B(  7-C ,  8-O ) :   0.9328 B(  7-C , 19-H ) :   0.9281
B(  7-C , 20-H ) :   0.9172

MP2 TOTAL ENERGY:     -423.509209344 Eh
FINAL SINGLE POINT ENERGY      -423.509209343907

DIPOLE MOMENT
-------------
                                X             Y             Z
Electronic contribution:     -0.40624       1.54088      -0.10714
Nuclear contribution   :      0.62596      -1.53333       0.32380
                        -----------------------------------------
Total Dipole Moment    :      0.21972       0.00755       0.21667
                        -----------------------------------------
Magnitude (a.u.)       :      0.30867
Magnitude (Debye)      :      0.78458

                             ****ORCA TERMINATED NORMALLY****
TOTAL RUN TIME: 0 days 0 hours 19 minutes 0 seconds 864 msec
