                         Program Version 3.0.3 - RELEASE   -
|  1> ! RI-MP2 RIJK def2-TZVP def2-TZVP/C def2-TZVP/JK TIGHTSCF
|  2> % maxcore 2000
|  3> % mp2 density relaxed end
|  4> *xyz 0 1
|  5>  C       -0.1534047276     1.5800600408    -0.0440029975
|  6>  C       -0.0343649338     0.0638250139    -0.0200341377
|  7>  O       -1.2878939713    -0.5489707070    -0.2738320494
|  8>  C        1.1951098935    -0.6046457219    -0.6849529051
|  9>  C        2.1135952507    -0.2908070904     0.5482215373
| 10>  C        2.5799830838    -1.7548456204     0.6632672120
| 11>  C        1.0964727543    -1.8543602864     0.2604060708
| 12>  C        0.6999551839    -0.6193571450     1.1454140580
| 13>  H        0.7953285267     2.0689750229     0.1931691536
| 14>  H       -0.4633477136     1.9287764820    -1.0378229882
| 15>  H       -0.9068408890     1.9134142904     0.6766968989
| 16>  H       -1.6512411938    -0.1653176664    -1.0788181157
| 17>  H        1.5034560672    -0.6095819109    -1.7330476331
| 18>  H        2.6853222079     0.6234321080     0.7115048201
| 19>  H        3.3168448313    -2.0960007704    -0.0714562021
| 20>  H        2.8449737969    -2.1102238897     1.6646104851
| 21>  H        0.4827286643    -2.7364577196     0.0890853644
| 22>  H        0.4317664986    -0.6408748398     2.2032855486
| 23> *
| 24>
| 25>                          ****END OF INPUT****

CARTESIAN COORDINATES (ANGSTROEM)
---------------------------------
  C     -0.153405    1.580060   -0.044003
  C     -0.034365    0.063825   -0.020034
  O     -1.287894   -0.548971   -0.273832
  C      1.195110   -0.604646   -0.684953
  C      2.113595   -0.290807    0.548222
  C      2.579983   -1.754846    0.663267
  C      1.096473   -1.854360    0.260406
  C      0.699955   -0.619357    1.145414
  H      0.795329    2.068975    0.193169
  H     -0.463348    1.928776   -1.037823
  H     -0.906841    1.913414    0.676697
  H     -1.651241   -0.165318   -1.078818
  H      1.503456   -0.609582   -1.733048
  H      2.685322    0.623432    0.711505
  H      3.316845   -2.096001   -0.071456
  H      2.844974   -2.110224    1.664610
  H      0.482729   -2.736458    0.089085
  H      0.431766   -0.640875    2.203286

 Total Charge           Charge          ....    0
 Multiplicity           Mult            ....    1
 Number of Electrons    NEL             ....   60
 Basis Dimension        Dim             ....  308

ORBITAL ENERGIES
----------------

  NO   OCC          E(Eh)            E(eV)
   0   2.0000     -20.549999      -559.1939
   1   2.0000     -11.283906      -307.0507
   2   2.0000     -11.240682      -305.8745
   3   2.0000     -11.236758      -305.7677
   4   2.0000     -11.235093      -305.7224
   5   2.0000     -11.234532      -305.7071
   6   2.0000     -11.220565      -305.3271
   7   2.0000     -11.217557      -305.2452
   8   2.0000      -1.361991       -37.0616
   9   2.0000      -1.233305       -33.5599
  10   2.0000      -1.020155       -27.7598
  11   2.0000      -0.940599       -25.5950
  12   2.0000      -0.865137       -23.5416
  13   2.0000      -0.855980       -23.2924
  14   2.0000      -0.793223       -21.5847
  15   2.0000      -0.694128       -18.8882
  16   2.0000      -0.679209       -18.4822
  17   2.0000      -0.659275       -17.9398
  18   2.0000      -0.639674       -17.4064
  19   2.0000      -0.610318       -16.6076
  20   2.0000      -0.569881       -15.5072
  21   2.0000      -0.558460       -15.1965
  22   2.0000      -0.537195       -14.6178
  23   2.0000      -0.490382       -13.3440
  24   2.0000      -0.468445       -12.7470
  25   2.0000      -0.433928       -11.8078
  26   2.0000      -0.431127       -11.7316
  27   2.0000      -0.423341       -11.5197
  28   2.0000      -0.419423       -11.4131
  29   2.0000      -0.402755       -10.9595
  30   0.0000       0.133207         3.6248
  31   0.0000       0.157009         4.2724
  32   0.0000       0.164064         4.4644
  33   0.0000       0.182722         4.9721
  34   0.0000       0.192156         5.2288

MULLIKEN ATOMIC CHARGES
-----------------------
   0 C :   -0.422429
   1 C :    0.171924
   2 O :   -0.467396
   3 C :   -0.100533
   4 C :   -0.187611
   5 C :   -0.178056
   6 C :   -0.163049
   7 C :   -0.079133
   8 H :    0.130114
   9 H :    0.117890
  10 H :    0.143594
  11 H :    0.312043
  12 H :    0.128526
  13 H :    0.122276
  14 H :    0.107245
  15 H :    0.108935
  16 H :    0.132271
  17 H :    0.123390
Sum of atomic charges:    0.0000000

LOEWDIN ATOMIC CHARGES
----------------------
   0 C :   -0.278932
   1 C :   -0.351901
   2 O :    0.010139
   3 C :   -0.111199
   4 C :   -0.145187
   5 C :   -0.207705
   6 C :   -0.134990
   7 C :   -0.100135
   8 H :    0.130416
   9 H :    0.123099
  10 H :    0.129341
  11 H :    0.174731
  12 H :    0.126716
  13 H :    0.123930
  14 H :    0.125938
  15 H :    0.126383
  16 H :    0.129398
  17 H :    0.129957

  Mayer bond orders larger than 0.1
B(  0-C ,  1-C ) :   0.9595 B(  0-C ,  8-H ) :   0.9301 B(  0-C ,  9-H ) :   0.9227
B(  0-C , 10-H ) :   0.9425 B(  1-C ,  2-O ) :   1.0966 B(  1-C ,  3-C ) :   0.8746
B(  1-C ,  7-C ) :   0.8931 B(  2-O ,  3-C ) :  -0.1040 B(  2-O ,  7-C ) :  -0.1018
B(  2-O , 11-H ) :   0.8415 B(  3-C ,  4-C ) :   0.8425 B(  3-C ,  6-C ) :   0.8729
B(  3-C , 12-H ) :   0.8798 B(  4-C ,  5-C ) :   0.9227 B(  4-C ,  7-C ) :   0.8554
B(  4-C , 13-H ) :   0.9148 B(  5-C ,  6-C ) :   0.9285 B(  5-C , 14-H ) :   0.9238
B(  5-C , 15-H ) :   0.9244 B(  6-C ,  7-C ) :   0.8728 B(  6-C , 16-H ) :   0.8895
B(  7-C , 17-H ) :   0.8944

MP2 TOTAL ENERGY:     -347.129007115 Eh
FINAL SINGLE POINT ENERGY      -347.129007114668

DIPOLE MOMENT
-------------
                                X             Y             Z
Electronic contribution:     -1.54971      -2.32111      -0.18085
Nuclear contribution   :      1.76004       2.75243      -0.16638
                        -----------------------------------------
Total Dipole Moment    :      0.21033       0.43132      -0.34723
                        -----------------------------------------
Magnitude (a.u.)       :      0.59233
Magnitude (Debye)      :      1.50557

                             ****ORCA TERMINATED NORMALLY****
TOTAL RUN TIME: 0 days 0 hours 13 minutes 9 seconds 34 msec
