                         Program Version 3.0.3 - RELEASE   -
|  1> ! RI-MP2 RIJK def2-TZVP def2-TZVP/C def2-TZVP/JK TIGHTSCF
|  2> % maxcore 2000
|  3> % mp2 density relaxed end
|  4> *xyz 0 1
|  5>  C       -0.0125759170     1.5121391522     0.1870925686
|  6>  C       -0.0221084833     0.0107119974    -0.1352291840
|  7>  C       -1.3926663355    -0.5782134716    -0.0328384012
|  8>  C       -2.0741281338    -1.0849849015     1.1948795204
|  9>  C       -1.9309465527    -2.0191472155    -0.0085341077
| 10>  C       -2.8817587769    -1.5215397454    -1.0991462328
| 11>  O       -2.3716894877    -0.1683344324    -0.9942303938
| 12>  C       -1.2757016538    -3.2762124672     0.0306854792
| 13>  C       -0.7251791095    -4.3471444533     0.0511734273
| 14>  H        0.9937094210     1.9261430459     0.0764428078
| 15>  H       -0.6808378426     2.0554379973    -0.4870476187
| 16>  H       -0.3460434408     1.6963724346     1.2132296525
| 17>  H        0.3588107431    -0.1561506222    -1.1494233924
| 18>  H        0.6392227471    -0.5322558460     0.5493853454
| 19>  H       -1.4259681194    -1.3428512402     2.0257709206
| 20>  H       -3.0573442868    -0.7087613664     1.4654555844
| 21>  H       -2.6610628985    -1.9444270063    -2.0843751384
| 22>  H       -3.9568773469    -1.5817141363    -0.8940326567
| 23>  H       -0.2394185360    -5.2908460731     0.0715714796
| 24> *
| 25>
| 26>                          ****END OF INPUT****

CARTESIAN COORDINATES (ANGSTROEM)
---------------------------------
  C     -0.012576    1.512139    0.187093
  C     -0.022108    0.010712   -0.135229
  C     -1.392666   -0.578213   -0.032838
  C     -2.074128   -1.084985    1.194880
  C     -1.930947   -2.019147   -0.008534
  C     -2.881759   -1.521540   -1.099146
  O     -2.371689   -0.168334   -0.994230
  C     -1.275702   -3.276212    0.030685
  C     -0.725179   -4.347144    0.051173
  H      0.993709    1.926143    0.076443
  H     -0.680838    2.055438   -0.487048
  H     -0.346043    1.696372    1.213230
  H      0.358811   -0.156151   -1.149423
  H      0.639223   -0.532256    0.549385
  H     -1.425968   -1.342851    2.025771
  H     -3.057344   -0.708761    1.465456
  H     -2.661063   -1.944427   -2.084375
  H     -3.956877   -1.581714   -0.894033
  H     -0.239419   -5.290846    0.071571

 Total Charge           Charge          ....    0
 Multiplicity           Mult            ....    1
 Number of Electrons    NEL             ....   66
 Basis Dimension        Dim             ....  339

ORBITAL ENERGIES
----------------

  NO   OCC          E(Eh)            E(eV)
   0   2.0000     -20.560134      -559.4697
   1   2.0000     -11.304745      -307.6178
   2   2.0000     -11.292155      -307.2752
   3   2.0000     -11.264329      -306.5180
   4   2.0000     -11.243562      -305.9529
   5   2.0000     -11.240906      -305.8806
   6   2.0000     -11.233985      -305.6923
   7   2.0000     -11.227530      -305.5166
   8   2.0000     -11.217956      -305.2561
   9   2.0000      -1.401509       -38.1370
  10   2.0000      -1.140432       -31.0327
  11   2.0000      -1.055077       -28.7101
  12   2.0000      -1.023593       -27.8534
  13   2.0000      -0.950996       -25.8779
  14   2.0000      -0.878707       -23.9108
  15   2.0000      -0.836644       -22.7662
  16   2.0000      -0.787067       -21.4172
  17   2.0000      -0.704388       -19.1674
  18   2.0000      -0.687754       -18.7147
  19   2.0000      -0.669341       -18.2137
  20   2.0000      -0.652994       -17.7689
  21   2.0000      -0.608216       -16.5504
  22   2.0000      -0.572496       -15.5784
  23   2.0000      -0.556905       -15.1541
  24   2.0000      -0.541483       -14.7345
  25   2.0000      -0.534992       -14.5579
  26   2.0000      -0.512943       -13.9579
  27   2.0000      -0.501452       -13.6452
  28   2.0000      -0.483766       -13.1639
  29   2.0000      -0.453887       -12.3509
  30   2.0000      -0.418123       -11.3777
  31   2.0000      -0.377251       -10.2655
  32   2.0000      -0.346223        -9.4212
  33   0.0000       0.136580         3.7165
  34   0.0000       0.151215         4.1148
  35   0.0000       0.156289         4.2529
  36   0.0000       0.166386         4.5276
  37   0.0000       0.173579         4.7233

MULLIKEN ATOMIC CHARGES
-----------------------
   0 C :   -0.406659
   1 C :   -0.198350
   2 C :    0.196861
   3 C :   -0.250769
   4 C :   -0.217814
   5 C :    0.007109
   6 O :   -0.331685
   7 C :   -0.002561
   8 C :   -0.134257
   9 H :    0.136327
  10 H :    0.148061
  11 H :    0.127206
  12 H :    0.119374
  13 H :    0.118896
  14 H :    0.139714
  15 H :    0.137058
  16 H :    0.111375
  17 H :    0.108304
  18 H :    0.191808
Sum of atomic charges:    0.0000000

LOEWDIN ATOMIC CHARGES
----------------------
   0 C :   -0.304809
   1 C :   -0.246986
   2 C :   -0.256226
   3 C :   -0.142444
   4 C :   -0.189309
   5 C :   -0.199741
   6 O :    0.172446
   7 C :   -0.082044
   8 C :   -0.089656
   9 H :    0.121943
  10 H :    0.128175
  11 H :    0.122743
  12 H :    0.147602
  13 H :    0.149817
  14 H :    0.149552
  15 H :    0.139263
  16 H :    0.130413
  17 H :    0.122161
  18 H :    0.127100

  Mayer bond orders larger than 0.1
B(  0-C ,  1-C ) :   0.9257 B(  0-C ,  9-H ) :   0.9396 B(  0-C , 10-H ) :   0.9368
B(  0-C , 11-H ) :   0.9356 B(  1-C ,  2-C ) :   0.9180 B(  1-C , 12-H ) :   0.9265
B(  1-C , 13-H ) :   0.9223 B(  2-C ,  3-C ) :   0.8849 B(  2-C ,  4-C ) :   0.8105
B(  2-C ,  6-O ) :   0.9614 B(  3-C ,  4-C ) :   0.8530 B(  3-C , 14-H ) :   0.9258
B(  3-C , 15-H ) :   0.8972 B(  4-C ,  5-C ) :   0.9777 B(  4-C ,  7-C ) :   1.2337
B(  4-C ,  8-C ) :  -0.1466 B(  5-C ,  6-O ) :   0.9441 B(  5-C , 16-H ) :   0.9111
B(  5-C , 17-H ) :   0.9069 B(  7-C ,  8-C ) :   2.5977 B(  8-C , 18-H ) :   0.8772

MP2 TOTAL ENERGY:     -385.133536695 Eh
FINAL SINGLE POINT ENERGY      -385.133536694690

DIPOLE MOMENT
-------------
                                X             Y             Z
Electronic contribution:     -3.24091      -5.80000      -1.44797
Nuclear contribution   :      3.48297       5.58826       1.71232
                        -----------------------------------------
Total Dipole Moment    :      0.24206      -0.21175       0.26435
                        -----------------------------------------
Magnitude (a.u.)       :      0.41631
Magnitude (Debye)      :      1.05817

                             ****ORCA TERMINATED NORMALLY****
TOTAL RUN TIME: 0 days 0 hours 18 minutes 44 seconds 782 msec
