                         Program Version 3.0.3 - RELEASE   -
|  1> ! RI-MP2 RIJK def2-TZVP def2-TZVP/C def2-TZVP/JK TIGHTSCF
|  2> % maxcore 2000
|  3> % mp2 density relaxed end
|  4> *xyz 0 1
|  5>  O       -0.5134519288     1.5896168278     0.2546727177
|  6>  C       -0.0511246718     0.2573846055     0.3281510718
|  7>  C       -1.1231217194    -0.7228475955    -0.1507546603
|  8>  N       -1.5525559039    -0.2998341221    -1.4803333559
|  9>  C       -2.1195480141    -1.1204972772    -2.2490904977
| 10>  C       -2.5916659242    -0.8426001932    -3.6609669015
| 11>  C       -3.5760907969    -1.9910616540    -3.9241408747
| 12>  C       -3.0035184584    -3.0991554158    -3.0309751640
| 13>  O       -2.4014093345    -2.4177179156    -1.9173568595
| 14>  H       -0.9408237875     1.6494082941    -0.6110199955
| 15>  H        0.8612013252     0.1158341231    -0.2759128413
| 16>  H        0.2080726265     0.0554310206     1.3733004385
| 17>  H       -0.7453260244    -1.7537758667    -0.1369431610
| 18>  H       -1.9810115759    -0.6766091384     0.5341210238
| 19>  H       -3.0212567941     0.1558113637    -3.7440038265
| 20>  H       -1.7329053114    -0.8914387369    -4.3409607601
| 21>  H       -4.5811961878    -1.7189468407    -3.5879727832
| 22>  H       -3.6366911696    -2.2893224833    -4.9724370296
| 23>  H       -3.7540089620    -3.7864946854    -2.6346495865
| 24>  H       -2.2314478170    -3.6827955400    -3.5484942545
| 25> *
| 26>
| 27>                          ****END OF INPUT****

CARTESIAN COORDINATES (ANGSTROEM)
---------------------------------
  O     -0.513452    1.589617    0.254673
  C     -0.051125    0.257385    0.328151
  C     -1.123122   -0.722848   -0.150755
  N     -1.552556   -0.299834   -1.480333
  C     -2.119548   -1.120497   -2.249090
  C     -2.591666   -0.842600   -3.660967
  C     -3.576091   -1.991062   -3.924141
  C     -3.003518   -3.099155   -3.030975
  O     -2.401409   -2.417718   -1.917357
  H     -0.940824    1.649408   -0.611020
  H      0.861201    0.115834   -0.275913
  H      0.208073    0.055431    1.373300
  H     -0.745326   -1.753776   -0.136943
  H     -1.981012   -0.676609    0.534121
  H     -3.021257    0.155811   -3.744004
  H     -1.732905   -0.891439   -4.340961
  H     -4.581196   -1.718947   -3.587973
  H     -3.636691   -2.289322   -4.972437
  H     -3.754009   -3.786495   -2.634650
  H     -2.231448   -3.682796   -3.548494

 Total Charge           Charge          ....    0
 Multiplicity           Mult            ....    1
 Number of Electrons    NEL             ....   70
 Basis Dimension        Dim             ....  345

ORBITAL ENERGIES
----------------

  NO   OCC          E(Eh)            E(eV)
   0   2.0000     -20.596700      -560.4647
   1   2.0000     -20.528455      -558.6077
   2   2.0000     -15.538085      -422.8128
   3   2.0000     -11.336787      -308.4897
   4   2.0000     -11.301683      -307.5344
   5   2.0000     -11.255800      -306.2859
   6   2.0000     -11.250624      -306.1450
   7   2.0000     -11.249977      -306.1274
   8   2.0000     -11.241473      -305.8960
   9   2.0000      -1.433011       -38.9942
  10   2.0000      -1.338463       -36.4214
  11   2.0000      -1.215893       -33.0861
  12   2.0000      -1.087235       -29.5852
  13   2.0000      -1.010394       -27.4942
  14   2.0000      -0.951849       -25.9011
  15   2.0000      -0.852462       -23.1967
  16   2.0000      -0.829131       -22.5618
  17   2.0000      -0.756142       -20.5757
  18   2.0000      -0.706147       -19.2152
  19   2.0000      -0.696726       -18.9589
  20   2.0000      -0.661162       -17.9911
  21   2.0000      -0.644781       -17.5454
  22   2.0000      -0.617985       -16.8162
  23   2.0000      -0.605420       -16.4743
  24   2.0000      -0.585051       -15.9201
  25   2.0000      -0.563311       -15.3285
  26   2.0000      -0.543805       -14.7977
  27   2.0000      -0.536826       -14.6078
  28   2.0000      -0.532404       -14.4875
  29   2.0000      -0.509590       -13.8666
  30   2.0000      -0.483215       -13.1490
  31   2.0000      -0.467798       -12.7294
  32   2.0000      -0.432582       -11.7711
  33   2.0000      -0.406897       -11.0722
  34   2.0000      -0.381092       -10.3700
  35   0.0000       0.123000         3.3470
  36   0.0000       0.154364         4.2005
  37   0.0000       0.158546         4.3143
  38   0.0000       0.166055         4.5186
  39   0.0000       0.168427         4.5831

MULLIKEN ATOMIC CHARGES
-----------------------
   0 O :   -0.494389
   1 C :    0.037507
   2 C :   -0.130774
   3 N :   -0.302502
   4 C :    0.134832
   5 C :   -0.193311
   6 C :   -0.253829
   7 C :   -0.048220
   8 O :   -0.266303
   9 H :    0.326414
  10 H :    0.078038
  11 H :    0.099684
  12 H :    0.112728
  13 H :    0.116320
  14 H :    0.143374
  15 H :    0.136821
  16 H :    0.127135
  17 H :    0.136685
  18 H :    0.129279
  19 H :    0.110510
Sum of atomic charges:   -0.0000000

LOEWDIN ATOMIC CHARGES
----------------------
   0 O :   -0.055440
   1 C :   -0.358711
   2 C :   -0.303546
   3 N :    0.079626
   4 C :   -0.368174
   5 C :   -0.217916
   6 C :   -0.255968
   7 C :   -0.269280
   8 O :    0.239277
   9 H :    0.172751
  10 H :    0.112802
  11 H :    0.123656
  12 H :    0.129501
  13 H :    0.134829
  14 H :    0.149965
  15 H :    0.153075
  16 H :    0.141434
  17 H :    0.138639
  18 H :    0.128200
  19 H :    0.125278

  Mayer bond orders larger than 0.1
B(  0-O ,  1-C ) :   0.9355 B(  0-O ,  9-H ) :   0.8234 B(  1-C ,  2-C ) :   0.9612
B(  1-C , 10-H ) :   0.9233 B(  1-C , 11-H ) :   0.9283 B(  2-C ,  3-N ) :   0.8314
B(  2-C , 12-H ) :   0.9188 B(  2-C , 13-H ) :   0.9180 B(  3-N ,  4-C ) :   1.9437
B(  4-C ,  5-C ) :   0.9126 B(  4-C ,  8-O ) :   1.0549 B(  5-C ,  6-C ) :   0.9319
B(  5-C , 14-H ) :   0.9210 B(  5-C , 15-H ) :   0.9182 B(  6-C ,  7-C ) :   0.9424
B(  6-C , 16-H ) :   0.9267 B(  6-C , 17-H ) :   0.9327 B(  7-C ,  8-O ) :   0.8814
B(  7-C , 18-H ) :   0.9308 B(  7-C , 19-H ) :   0.9269

MP2 TOTAL ENERGY:     -439.582235294 Eh
FINAL SINGLE POINT ENERGY      -439.582235293990

DIPOLE MOMENT
-------------
                                X             Y             Z
Electronic contribution:      0.30915       1.05458       1.48892
Nuclear contribution   :     -1.04682      -2.36863      -2.83471
                        -----------------------------------------
Total Dipole Moment    :     -0.73767      -1.31405      -1.34578
                        -----------------------------------------
Magnitude (a.u.)       :      2.02040
Magnitude (Debye)      :      5.13545

                             ****ORCA TERMINATED NORMALLY****
TOTAL RUN TIME: 0 days 0 hours 15 minutes 34 seconds 624 msec
