                         Program Version 3.0.3 - RELEASE   -
|  1> ! RI-MP2 RIJK def2-TZVP def2-TZVP/C def2-TZVP/JK TIGHTSCF
|  2> % maxcore 2000
|  3> % mp2 density relaxed end
|  4> *xyz 0 1
|  5>  N       -0.0077517536     1.3386216317     0.0098405451
|  6>  C        1.2423794998     1.8799416985     0.0005137634
|  7>  C        2.1316097328     0.8105775989    -0.0141035620
|  8>  C        3.5333720224     0.6412643020    -0.0288286047
|  9>  N        4.0764024936    -0.5528325693    -0.0407453306
| 10>  C        3.2263410202    -1.6317194337    -0.0383172463
| 11>  N        1.9178207896    -1.6392425041    -0.0254701670
| 12>  C        1.3471162361    -0.4031814506    -0.0130554268
| 13>  C        0.0097575830    -0.0316374101     0.0021755453
| 14>  H       -0.8536285278     1.8851403026     0.0211656330
| 15>  H        1.3944493535     2.9465799738     0.0048850308
| 16>  H        4.2083438883     1.4972935222    -0.0307714261
| 17>  H        3.7239455889    -2.5986312090    -0.0485191460
| 18>  H       -0.8956807070    -0.6138129030     0.0078953819
| 19> *
| 20>
| 21>                          ****END OF INPUT****

CARTESIAN COORDINATES (ANGSTROEM)
---------------------------------
  N     -0.007752    1.338622    0.009841
  C      1.242379    1.879942    0.000514
  C      2.131610    0.810578   -0.014104
  C      3.533372    0.641264   -0.028829
  N      4.076402   -0.552833   -0.040745
  C      3.226341   -1.631719   -0.038317
  N      1.917821   -1.639243   -0.025470
  C      1.347116   -0.403181   -0.013055
  C      0.009758   -0.031637    0.002176
  H     -0.853629    1.885140    0.021166
  H      1.394449    2.946580    0.004885
  H      4.208344    1.497294   -0.030771
  H      3.723946   -2.598631   -0.048519
  H     -0.895681   -0.613813    0.007895

 Total Charge           Charge          ....    0
 Multiplicity           Mult            ....    1
 Number of Electrons    NEL             ....   62
 Basis Dimension        Dim             ....  309

ORBITAL ENERGIES
----------------

  NO   OCC          E(Eh)            E(eV)
   0   2.0000     -15.645573      -425.7377
   1   2.0000     -15.557765      -423.3483
   2   2.0000     -15.554793      -423.2674
   3   2.0000     -11.298631      -307.4514
   4   2.0000     -11.294884      -307.3494
   5   2.0000     -11.286981      -307.1344
   6   2.0000     -11.262500      -306.4682
   7   2.0000     -11.260912      -306.4250
   8   2.0000     -11.236023      -305.7477
   9   2.0000      -1.327537       -36.1241
  10   2.0000      -1.284167       -34.9440
  11   2.0000      -1.181232       -32.1430
  12   2.0000      -1.074069       -29.2269
  13   2.0000      -1.002485       -27.2790
  14   2.0000      -0.922626       -25.1059
  15   2.0000      -0.849157       -23.1067
  16   2.0000      -0.805620       -21.9220
  17   2.0000      -0.760800       -20.7024
  18   2.0000      -0.701084       -19.0775
  19   2.0000      -0.658649       -17.9227
  20   2.0000      -0.654301       -17.8044
  21   2.0000      -0.612116       -16.6565
  22   2.0000      -0.608832       -16.5672
  23   2.0000      -0.577816       -15.7232
  24   2.0000      -0.559155       -15.2154
  25   2.0000      -0.535926       -14.5833
  26   2.0000      -0.458076       -12.4649
  27   2.0000      -0.430636       -11.7182
  28   2.0000      -0.397526       -10.8172
  29   2.0000      -0.359676        -9.7873
  30   2.0000      -0.287504        -7.8234
  31   0.0000       0.075206         2.0465
  32   0.0000       0.116984         3.1833
  33   0.0000       0.157063         4.2739
  34   0.0000       0.160384         4.3643
  35   0.0000       0.173515         4.7216

MULLIKEN ATOMIC CHARGES
-----------------------
   0 N :   -0.192664
   1 C :   -0.101341
   2 C :   -0.012722
   3 C :   -0.070784
   4 N :   -0.243951
   5 C :    0.074058
   6 N :   -0.227198
   7 C :    0.058240
   8 C :   -0.114408
   9 H :    0.254629
  10 H :    0.160573
  11 H :    0.129518
  12 H :    0.126812
  13 H :    0.159238
Sum of atomic charges:    0.0000000

LOEWDIN ATOMIC CHARGES
----------------------
   0 N :    0.221073
   1 C :   -0.207420
   2 C :   -0.156210
   3 C :   -0.173708
   4 N :    0.111066
   5 C :   -0.293565
   6 N :    0.150341
   7 C :   -0.217355
   8 C :   -0.182922
   9 H :    0.200873
  10 H :    0.136608
  11 H :    0.140152
  12 H :    0.131657
  13 H :    0.139410

  Mayer bond orders larger than 0.1
B(  0-N ,  1-C ) :   1.1863 B(  0-N ,  8-C ) :   1.1741 B(  0-N ,  9-H ) :   0.8713
B(  1-C ,  2-C ) :   1.2954 B(  1-C ,  8-C ) :   0.1245 B(  1-C , 10-H ) :   0.8979
B(  2-C ,  3-C ) :   1.1276 B(  2-C ,  7-C ) :   1.1462 B(  3-C ,  4-N ) :   1.5793
B(  3-C , 11-H ) :   0.9634 B(  4-N ,  5-C ) :   1.1990 B(  5-C ,  6-N ) :   1.5347
B(  5-C , 12-H ) :   0.9407 B(  6-N ,  7-C ) :   1.2916 B(  7-C ,  8-C ) :   1.4083
B(  8-C , 13-H ) :   0.8935

MP2 TOTAL ENERGY:     -395.096023371 Eh
FINAL SINGLE POINT ENERGY      -395.096023371248

DIPOLE MOMENT
-------------
                                X             Y             Z
Electronic contribution:      0.47461      -1.15672      -0.01104
Nuclear contribution   :     -1.92710       2.66692       0.03364
                        -----------------------------------------
Total Dipole Moment    :     -1.45249       1.51021       0.02260
                        -----------------------------------------
Magnitude (a.u.)       :      2.09546
Magnitude (Debye)      :      5.32625

                             ****ORCA TERMINATED NORMALLY****
TOTAL RUN TIME: 0 days 0 hours 16 minutes 27 seconds 276 msec
