                         Program Version 3.0.3 - RELEASE   -
|  1> ! RI-MP2 RIJK def2-TZVP def2-TZVP/C def2-TZVP/JK TIGHTSCF
|  2> % maxcore 2000
|  3> % mp2 density relaxed end
|  4> *xyz 0 1
|  5>  C       -0.2074346774     1.5072703414    -0.0318804454
|  6>  C        0.0153362713    -0.0123050226     0.0050663856
|  7>  C        0.9771813892    -0.4447780581    -1.1097971602
|  8>  C        0.5318642103    -0.5018104647     1.3700742794
|  9>  C       -0.4396301204    -0.2763033409     2.5239340003
| 10>  O        0.0294994827    -0.9449034831     3.7049029123
| 11>  C        0.5174776566    -0.1949641018     4.7078639459
| 12>  O        0.9617860112    -0.6633355146     5.7125339674
| 13>  H        0.7238210913     2.0438357755     0.1866456379
| 14>  H       -0.5469430764     1.8258582398    -1.0226345647
| 15>  H       -0.9604032421     1.8370244321     0.6907669201
| 16>  H       -0.9528735859    -0.5007743466    -0.1791159623
| 17>  H        1.9636987225     0.0145152246    -0.9754782840
| 18>  H        1.1143112324    -1.5308621140    -1.1203805438
| 19>  H        0.6020168812    -0.1426708562    -2.0927956665
| 20>  H        0.7407807440    -1.5765612561     1.3176656519
| 21>  H        1.4862068210    -0.0104610629     1.6036117409
| 22>  H       -0.5792098575     0.7901919880     2.7375898920
| 23>  H       -1.4213692137    -0.7056813855     2.2993452620
| 24>  H        0.4539242897     0.8923273857     4.5002166713
| 25> *
| 26>
| 27>                          ****END OF INPUT****

CARTESIAN COORDINATES (ANGSTROEM)
---------------------------------
  C     -0.207435    1.507270   -0.031880
  C      0.015336   -0.012305    0.005066
  C      0.977181   -0.444778   -1.109797
  C      0.531864   -0.501810    1.370074
  C     -0.439630   -0.276303    2.523934
  O      0.029499   -0.944903    3.704903
  C      0.517478   -0.194964    4.707864
  O      0.961786   -0.663336    5.712534
  H      0.723821    2.043836    0.186646
  H     -0.546943    1.825858   -1.022635
  H     -0.960403    1.837024    0.690767
  H     -0.952874   -0.500774   -0.179116
  H      1.963699    0.014515   -0.975478
  H      1.114311   -1.530862   -1.120381
  H      0.602017   -0.142671   -2.092796
  H      0.740781   -1.576561    1.317666
  H      1.486207   -0.010461    1.603612
  H     -0.579210    0.790192    2.737590
  H     -1.421369   -0.705681    2.299345
  H      0.453924    0.892327    4.500217

 Total Charge           Charge          ....    0
 Multiplicity           Mult            ....    1
 Number of Electrons    NEL             ....   64
 Basis Dimension        Dim             ....  320

ORBITAL ENERGIES
----------------

  NO   OCC          E(Eh)            E(eV)
   0   2.0000     -20.606516      -560.7318
   1   2.0000     -20.547494      -559.1257
   2   2.0000     -11.381315      -309.7013
   3   2.0000     -11.304769      -307.6184
   4   2.0000     -11.244471      -305.9776
   5   2.0000     -11.236864      -305.7706
   6   2.0000     -11.227329      -305.5112
   7   2.0000     -11.223405      -305.4044
   8   2.0000      -1.460095       -39.7312
   9   2.0000      -1.370561       -37.2949
  10   2.0000      -1.109021       -30.1780
  11   2.0000      -1.016375       -27.6570
  12   2.0000      -0.942557       -25.6483
  13   2.0000      -0.894191       -24.3322
  14   2.0000      -0.842625       -22.9290
  15   2.0000      -0.785957       -21.3870
  16   2.0000      -0.725064       -19.7300
  17   2.0000      -0.685544       -18.6546
  18   2.0000      -0.659487       -17.9456
  19   2.0000      -0.644085       -17.5264
  20   2.0000      -0.604859       -16.4591
  21   2.0000      -0.600027       -16.3276
  22   2.0000      -0.587086       -15.9754
  23   2.0000      -0.549534       -14.9536
  24   2.0000      -0.547695       -14.9035
  25   2.0000      -0.532722       -14.4961
  26   2.0000      -0.514801       -14.0084
  27   2.0000      -0.493452       -13.4275
  28   2.0000      -0.478320       -13.0157
  29   2.0000      -0.476199       -12.9580
  30   2.0000      -0.455356       -12.3909
  31   2.0000      -0.447207       -12.1691
  32   0.0000       0.122813         3.3419
  33   0.0000       0.140036         3.8106
  34   0.0000       0.149016         4.0549
  35   0.0000       0.158518         4.3135
  36   0.0000       0.176281         4.7968

MULLIKEN ATOMIC CHARGES
-----------------------
   0 C :   -0.419386
   1 C :   -0.037311
   2 C :   -0.390525
   3 C :   -0.219276
   4 C :   -0.102338
   5 O :   -0.202491
   6 C :    0.199624
   7 O :   -0.274117
   8 H :    0.125884
   9 H :    0.137449
  10 H :    0.129629
  11 H :    0.089432
  12 H :    0.124846
  13 H :    0.133912
  14 H :    0.133438
  15 H :    0.134296
  16 H :    0.115691
  17 H :    0.119345
  18 H :    0.132962
  19 H :    0.068934
Sum of atomic charges:    0.0000000

LOEWDIN ATOMIC CHARGES
----------------------
   0 C :   -0.295637
   1 C :   -0.308651
   2 C :   -0.293245
   3 C :   -0.252956
   4 C :   -0.291216
   5 O :    0.246002
   6 C :   -0.457896
   7 O :    0.116739
   8 H :    0.124803
   9 H :    0.125702
  10 H :    0.119617
  11 H :    0.150680
  12 H :    0.124413
  13 H :    0.123837
  14 H :    0.123641
  15 H :    0.147586
  16 H :    0.141530
  17 H :    0.122133
  18 H :    0.133128
  19 H :    0.099791

  Mayer bond orders larger than 0.1
B(  0-C ,  1-C ) :   0.9081 B(  0-C ,  8-H ) :   0.9305 B(  0-C ,  9-H ) :   0.9382
B(  0-C , 10-H ) :   0.9401 B(  1-C ,  2-C ) :   0.9228 B(  1-C ,  3-C ) :   0.9112
B(  1-C , 11-H ) :   0.9265 B(  2-C , 12-H ) :   0.9320 B(  2-C , 13-H ) :   0.9388
B(  2-C , 14-H ) :   0.9400 B(  3-C ,  4-C ) :   0.9272 B(  3-C , 15-H ) :   0.9266
B(  3-C , 16-H ) :   0.9217 B(  4-C ,  5-O ) :   0.8564 B(  4-C , 17-H ) :   0.9548
B(  4-C , 18-H ) :   0.9238 B(  5-O ,  6-C ) :   1.0803 B(  6-C ,  7-O ) :   2.0194
B(  6-C , 19-H ) :   0.9137

MP2 TOTAL ENERGY:     -385.533753262 Eh
FINAL SINGLE POINT ENERGY      -385.533753262204

DIPOLE MOMENT
-------------
                                X             Y             Z
Electronic contribution:      0.44631      -4.07083      15.04834
Nuclear contribution   :     -0.94969       4.85404     -16.53899
                        -----------------------------------------
Total Dipole Moment    :     -0.50338       0.78321      -1.49064
                        -----------------------------------------
Magnitude (a.u.)       :      1.75750
Magnitude (Debye)      :      4.46722

                             ****ORCA TERMINATED NORMALLY****
TOTAL RUN TIME: 0 days 0 hours 11 minutes 46 seconds 156 msec
