                         Program Version 3.0.3 - RELEASE   -
|  1> ! RI-MP2 RIJK def2-TZVP def2-TZVP/C def2-TZVP/JK TIGHTSCF
|  2> % maxcore 2000
|  3> % mp2 density relaxed end
|  4> *xyz 0 1
|  5>  N       -0.2078119767     0.6229698169    -0.9861147656
|  6>  C       -0.2286966939    -0.3071134826     0.0235568779
|  7>  C        1.1339723268    -0.9136573984     0.3250792868
|  8>  O        1.9223258035    -1.1139102379    -0.8429437491
|  9>  N       -1.2145363814    -0.6560364450     0.7618212281
| 10>  C       -2.4957400138     0.0230350368     0.5626008577
| 11>  C       -3.1088738246    -0.1764627814    -0.7564714936
| 12>  C       -3.5809622652    -0.3362702000    -1.8520786705
| 13>  H        0.6084157288     0.5702948912    -1.5791267809
| 14>  H       -1.0766666562     0.8159078497    -1.4626501506
| 15>  H        1.7048034120    -0.2155442031     0.9475775695
| 16>  H        0.9787086259    -1.8322507162     0.8990362244
| 17>  H        1.5383783569    -1.8496156587    -1.3316950301
| 18>  H       -3.1903371826    -0.3445543292     1.3259723239
| 19>  H       -2.3926366852     1.1072885654     0.7346553902
| 20>  H       -4.0219643642    -0.4934620075    -2.8053538481
| 21> *
| 22>
| 23>                          ****END OF INPUT****

CARTESIAN COORDINATES (ANGSTROEM)
---------------------------------
  N     -0.207812    0.622970   -0.986115
  C     -0.228697   -0.307113    0.023557
  C      1.133972   -0.913657    0.325079
  O      1.922326   -1.113910   -0.842944
  N     -1.214536   -0.656036    0.761821
  C     -2.495740    0.023035    0.562601
  C     -3.108874   -0.176463   -0.756471
  C     -3.580962   -0.336270   -1.852079
  H      0.608416    0.570295   -1.579127
  H     -1.076667    0.815908   -1.462650
  H      1.704803   -0.215544    0.947578
  H      0.978709   -1.832251    0.899036
  H      1.538378   -1.849616   -1.331695
  H     -3.190337   -0.344554    1.325972
  H     -2.392637    1.107289    0.734655
  H     -4.021964   -0.493462   -2.805354

 Total Charge           Charge          ....    0
 Multiplicity           Mult            ....    1
 Number of Electrons    NEL             ....   60
 Basis Dimension        Dim             ....  296

ORBITAL ENERGIES
----------------

  NO   OCC          E(Eh)            E(eV)
   0   2.0000     -20.576783      -559.9227
   1   2.0000     -15.574859      -423.8135
   2   2.0000     -15.533978      -422.7010
   3   2.0000     -11.315312      -307.9053
   4   2.0000     -11.290712      -307.2359
   5   2.0000     -11.276976      -306.8621
   6   2.0000     -11.240711      -305.8753
   7   2.0000     -11.228534      -305.5439
   8   2.0000      -1.381732       -37.5988
   9   2.0000      -1.270675       -34.5768
  10   2.0000      -1.166937       -31.7540
  11   2.0000      -1.053039       -28.6546
  12   2.0000      -0.984770       -26.7970
  13   2.0000      -0.923390       -25.1267
  14   2.0000      -0.781608       -21.2686
  15   2.0000      -0.738104       -20.0848
  16   2.0000      -0.720940       -19.6178
  17   2.0000      -0.711783       -19.3686
  18   2.0000      -0.659831       -17.9549
  19   2.0000      -0.641125       -17.4459
  20   2.0000      -0.618538       -16.8313
  21   2.0000      -0.606129       -16.4936
  22   2.0000      -0.586379       -15.9562
  23   2.0000      -0.530655       -14.4398
  24   2.0000      -0.500520       -13.6198
  25   2.0000      -0.477180       -12.9847
  26   2.0000      -0.428032       -11.6474
  27   2.0000      -0.395099       -10.7512
  28   2.0000      -0.383070       -10.4239
  29   2.0000      -0.368125       -10.0172
  30   0.0000       0.122809         3.3418
  31   0.0000       0.146493         3.9863
  32   0.0000       0.163783         4.4568
  33   0.0000       0.166651         4.5348
  34   0.0000       0.177439         4.8284

MULLIKEN ATOMIC CHARGES
-----------------------
   0 N :   -0.504480
   1 C :    0.104044
   2 C :    0.011083
   3 O :   -0.490378
   4 N :   -0.276492
   5 C :   -0.192552
   6 C :   -0.067474
   7 C :   -0.200091
   8 H :    0.263875
   9 H :    0.267301
  10 H :    0.125520
  11 H :    0.135093
  12 H :    0.324617
  13 H :    0.154270
  14 H :    0.155617
  15 H :    0.190047
Sum of atomic charges:    0.0000000

LOEWDIN ATOMIC CHARGES
----------------------
   0 N :   -0.030664
   1 C :   -0.392569
   2 C :   -0.300999
   3 O :   -0.053293
   4 N :    0.073172
   5 C :   -0.289756
   6 C :   -0.124582
   7 C :   -0.112609
   8 H :    0.175787
   9 H :    0.175726
  10 H :    0.139891
  11 H :    0.132226
  12 H :    0.178296
  13 H :    0.151977
  14 H :    0.150323
  15 H :    0.127074

  Mayer bond orders larger than 0.1
B(  0-N ,  1-C ) :   1.1232 B(  0-N ,  8-H ) :   0.8510 B(  0-N ,  9-H ) :   0.8610
B(  1-C ,  2-C ) :   0.9182 B(  1-C ,  4-N ) :   1.8854 B(  2-C ,  3-O ) :   0.8656
B(  2-C , 10-H ) :   0.9078 B(  2-C , 11-H ) :   0.9379 B(  3-O , 12-H ) :   0.8428
B(  4-N ,  5-C ) :   0.9131 B(  5-C ,  6-C ) :   0.9769 B(  5-C , 13-H ) :   0.9299
B(  5-C , 14-H ) :   0.9476 B(  6-C ,  7-C ) :   2.6499 B(  7-C , 15-H ) :   0.9141

MP2 TOTAL ENERGY:     -379.244738781 Eh
FINAL SINGLE POINT ENERGY      -379.244738780813

DIPOLE MOMENT
-------------
                                X             Y             Z
Electronic contribution:     -0.98801      -0.57026      -0.40053
Nuclear contribution   :      0.87939       0.63970      -0.37551
                        -----------------------------------------
Total Dipole Moment    :     -0.10862       0.06945      -0.77603
                        -----------------------------------------
Magnitude (a.u.)       :      0.78667
Magnitude (Debye)      :      1.99956

                             ****ORCA TERMINATED NORMALLY****
TOTAL RUN TIME: 0 days 0 hours 10 minutes 35 seconds 846 msec
