                         Program Version 3.0.3 - RELEASE   -
|  1> ! RI-MP2 RIJK def2-TZVP def2-TZVP/C def2-TZVP/JK TIGHTSCF
|  2> % maxcore 2000
|  3> % mp2 density relaxed end
|  4> *xyz 0 1
|  5>  C        0.0546044905    -1.2267274361    -0.0612504213
|  6>  C        0.0314094144    -0.0262516793    -0.0268228533
|  7>  C        0.0012843060     1.4297727903     0.0186145794
|  8>  C       -0.2353525130     2.1038654044     1.4519455277
|  9>  C        1.1197663943     2.7964333786     1.3102642994
| 10>  N        2.1199877182     1.7084025016     1.1933306683
| 11>  C        1.3814650081     2.1556744069    -0.0010086871
| 12>  C       -0.8999812653     1.9807817813    -0.9876572290
| 13>  C       -1.6283154716     2.4623390326    -1.8132334919
| 14>  H        0.0809420536    -2.2877193274    -0.0920176229
| 15>  H       -1.0914651762     2.7773769952     1.4281042802
| 16>  H       -0.3166026811     1.3980847827     2.2797253101
| 17>  H        1.3987170323     3.7787433706     1.6686170885
| 18>  H        3.0429698081     2.1393219131     1.1478987558
| 19>  H        1.8818454288     2.5137944962    -0.8913514209
| 20>  H       -2.2782569169     2.8710849293    -2.5468206329
| 21> *
| 22>
| 23>                          ****END OF INPUT****

CARTESIAN COORDINATES (ANGSTROEM)
---------------------------------
  C      0.054604   -1.226727   -0.061250
  C      0.031409   -0.026252   -0.026823
  C      0.001284    1.429773    0.018615
  C     -0.235353    2.103865    1.451946
  C      1.119766    2.796433    1.310264
  N      2.119988    1.708403    1.193331
  C      1.381465    2.155674   -0.001009
  C     -0.899981    1.980782   -0.987657
  C     -1.628315    2.462339   -1.813233
  H      0.080942   -2.287719   -0.092018
  H     -1.091465    2.777377    1.428104
  H     -0.316603    1.398085    2.279725
  H      1.398717    3.778743    1.668617
  H      3.042970    2.139322    1.147899
  H      1.881845    2.513794   -0.891351
  H     -2.278257    2.871085   -2.546821

 Total Charge           Charge          ....    0
 Multiplicity           Mult            ....    1
 Number of Electrons    NEL             ....   62
 Basis Dimension        Dim             ....  321

ORBITAL ENERGIES
----------------

  NO   OCC          E(Eh)            E(eV)
   0   2.0000     -15.570798      -423.7029
   1   2.0000     -11.296136      -307.3835
   2   2.0000     -11.279419      -306.9286
   3   2.0000     -11.273079      -306.7561
   4   2.0000     -11.247168      -306.0510
   5   2.0000     -11.240669      -305.8742
   6   2.0000     -11.231468      -305.6238
   7   2.0000     -11.228735      -305.5494
   8   2.0000     -11.219886      -305.3086
   9   2.0000      -1.296505       -35.2797
  10   2.0000      -1.115636       -30.3580
  11   2.0000      -1.019571       -27.7439
  12   2.0000      -1.012718       -27.5575
  13   2.0000      -0.929346       -25.2888
  14   2.0000      -0.868215       -23.6253
  15   2.0000      -0.786876       -21.4120
  16   2.0000      -0.758105       -20.6291
  17   2.0000      -0.725586       -19.7442
  18   2.0000      -0.703908       -19.1543
  19   2.0000      -0.667476       -18.1629
  20   2.0000      -0.619153       -16.8480
  21   2.0000      -0.592056       -16.1107
  22   2.0000      -0.559940       -15.2367
  23   2.0000      -0.516629       -14.0582
  24   2.0000      -0.498746       -13.5716
  25   2.0000      -0.476576       -12.9683
  26   2.0000      -0.402450       -10.9512
  27   2.0000      -0.400429       -10.8962
  28   2.0000      -0.382241       -10.4013
  29   2.0000      -0.379674       -10.3315
  30   2.0000      -0.368293       -10.0217
  31   0.0000       0.137285         3.7357
  32   0.0000       0.150144         4.0856
  33   0.0000       0.157151         4.2763
  34   0.0000       0.161420         4.3925
  35   0.0000       0.165031         4.4907

MULLIKEN ATOMIC CHARGES
-----------------------
   0 C :   -0.168434
   1 C :   -0.037377
   2 C :    0.062077
   3 C :   -0.190860
   4 C :   -0.131940
   5 N :   -0.369774
   6 C :   -0.074248
   7 C :   -0.111652
   8 C :   -0.142631
   9 H :    0.190209
  10 H :    0.142001
  11 H :    0.125711
  12 H :    0.143196
  13 H :    0.220453
  14 H :    0.149876
  15 H :    0.193392
Sum of atomic charges:    0.0000000

LOEWDIN ATOMIC CHARGES
----------------------
   0 C :   -0.080015
   1 C :   -0.047542
   2 C :   -0.203629
   3 C :   -0.132858
   4 C :   -0.230011
   5 N :    0.017459
   6 C :   -0.174203
   7 C :   -0.048908
   8 C :   -0.082448
   9 H :    0.127252
  10 H :    0.143626
  11 H :    0.140413
  12 H :    0.130470
  13 H :    0.175250
  14 H :    0.136910
  15 H :    0.128233

  Mayer bond orders larger than 0.1
B(  0-C ,  1-C ) :   2.5536 B(  0-C ,  2-C ) :  -0.1204 B(  0-C ,  9-H ) :   0.8892
B(  1-C ,  2-C ) :   1.2295 B(  2-C ,  3-C ) :   0.8596 B(  2-C ,  6-C ) :   0.7778
B(  2-C ,  7-C ) :   1.2192 B(  2-C ,  8-C ) :  -0.1108 B(  3-C ,  4-C ) :   0.9614
B(  3-C , 10-H ) :   0.9236 B(  3-C , 11-H ) :   0.8917 B(  4-C ,  5-N ) :   0.9573
B(  4-C ,  6-C ) :   0.9312 B(  4-C , 12-H ) :   0.9148 B(  5-N ,  6-C ) :   0.9749
B(  5-N , 13-H ) :   0.8672 B(  6-C , 14-H ) :   0.9100 B(  7-C ,  8-C ) :   2.5232
B(  8-C , 15-H ) :   0.8876

MP2 TOTAL ENERGY:     -362.810353070 Eh
FINAL SINGLE POINT ENERGY      -362.810353070198

DIPOLE MOMENT
-------------
                                X             Y             Z
Electronic contribution:     -0.63060      -1.65923      -1.83083
Nuclear contribution   :      0.86005       2.42795       1.78205
                        -----------------------------------------
Total Dipole Moment    :      0.22945       0.76872      -0.04878
                        -----------------------------------------
Magnitude (a.u.)       :      0.80372
Magnitude (Debye)      :      2.04288

                             ****ORCA TERMINATED NORMALLY****
TOTAL RUN TIME: 0 days 0 hours 16 minutes 50 seconds 538 msec
