                         Program Version 3.0.3 - RELEASE   -
|  1> ! RI-MP2 RIJK def2-TZVP def2-TZVP/C def2-TZVP/JK TIGHTSCF
|  2> % maxcore 2000
|  3> % mp2 density relaxed end
|  4> *xyz 0 1
|  5>  C        0.3802461699     1.1839537514     0.2170806292
|  6>  O       -0.3309041254     0.1577685508    -0.4656268332
|  7>  C        0.4632398472    -0.5342060909    -1.3598300424
|  8>  C        1.4132099622    -1.5728559728    -0.8562222767
|  9>  O        1.5540801747    -1.8111280384     0.4943273094
| 10>  C        0.1213144752    -2.0154991059    -1.5870418969
| 11>  C       -0.9422534221    -2.6675991154    -0.7832918797
| 12>  C       -1.9437334087    -3.5103979859    -1.5436486406
| 13>  O       -1.0088423956    -2.5538995972     0.4315517699
| 14>  H        1.2208985434     0.7709206420     0.7847662840
| 15>  H        0.7541959859     1.9434512121    -0.4853110367
| 16>  H       -0.3302831316     1.6533329323     0.9005659874
| 17>  H        0.7311915465     0.0171203678    -2.2644236944
| 18>  H        2.3432994811    -1.7260154671    -1.3965353593
| 19>  H        0.6561843051    -1.9819226663     0.8431414053
| 20>  H        0.2083296881    -2.3590860328    -2.6119794194
| 21>  H       -1.4294508919    -4.3127689391    -2.0849858153
| 22>  H       -2.6694380143    -3.9394404247    -0.8521160606
| 23>  H       -2.4590272996    -2.8989412299    -2.2928602099
| 24> *
| 25>
| 26>                          ****END OF INPUT****

CARTESIAN COORDINATES (ANGSTROEM)
---------------------------------
  C      0.380246    1.183954    0.217081
  O     -0.330904    0.157769   -0.465627
  C      0.463240   -0.534206   -1.359830
  C      1.413210   -1.572856   -0.856222
  O      1.554080   -1.811128    0.494327
  C      0.121314   -2.015499   -1.587042
  C     -0.942253   -2.667599   -0.783292
  C     -1.943733   -3.510398   -1.543649
  O     -1.008842   -2.553900    0.431552
  H      1.220899    0.770921    0.784766
  H      0.754196    1.943451   -0.485311
  H     -0.330283    1.653333    0.900566
  H      0.731192    0.017120   -2.264424
  H      2.343299   -1.726015   -1.396535
  H      0.656184   -1.981923    0.843141
  H      0.208330   -2.359086   -2.611979
  H     -1.429451   -4.312769   -2.084986
  H     -2.669438   -3.939440   -0.852116
  H     -2.459027   -2.898941   -2.292860

 Total Charge           Charge          ....    0
 Multiplicity           Mult            ....    1
 Number of Electrons    NEL             ....   70
 Basis Dimension        Dim             ....  339

ORBITAL ENERGIES
----------------

  NO   OCC          E(Eh)            E(eV)
   0   2.0000     -20.568373      -559.6939
   1   2.0000     -20.550526      -559.2082
   2   2.0000     -20.549365      -559.1766
   3   2.0000     -11.344126      -308.6894
   4   2.0000     -11.301267      -307.5231
   5   2.0000     -11.300417      -307.5000
   6   2.0000     -11.271491      -306.7129
   7   2.0000     -11.247517      -306.0605
   8   2.0000     -11.239747      -305.8491
   9   2.0000      -1.407367       -38.2964
  10   2.0000      -1.387702       -37.7613
  11   2.0000      -1.360634       -37.0247
  12   2.0000      -1.134082       -30.8599
  13   2.0000      -1.022510       -27.8239
  14   2.0000      -0.937984       -25.5238
  15   2.0000      -0.889977       -24.2175
  16   2.0000      -0.814689       -22.1688
  17   2.0000      -0.754416       -20.5287
  18   2.0000      -0.728461       -19.8224
  19   2.0000      -0.680012       -18.5041
  20   2.0000      -0.652147       -17.7458
  21   2.0000      -0.646792       -17.6001
  22   2.0000      -0.621266       -16.9055
  23   2.0000      -0.611035       -16.6271
  24   2.0000      -0.607520       -16.5315
  25   2.0000      -0.598208       -16.2781
  26   2.0000      -0.568527       -15.4704
  27   2.0000      -0.556823       -15.1519
  28   2.0000      -0.540934       -14.7195
  29   2.0000      -0.516255       -14.0480
  30   2.0000      -0.502349       -13.6696
  31   2.0000      -0.465888       -12.6775
  32   2.0000      -0.424306       -11.5460
  33   2.0000      -0.416844       -11.3429
  34   2.0000      -0.379863       -10.3366
  35   0.0000       0.126484         3.4418
  36   0.0000       0.132595         3.6081
  37   0.0000       0.151110         4.1119
  38   0.0000       0.166714         4.5365
  39   0.0000       0.189179         5.1478

MULLIKEN ATOMIC CHARGES
-----------------------
   0 C :   -0.224308
   1 O :   -0.304325
   2 C :    0.039846
   3 C :    0.066491
   4 O :   -0.463467
   5 C :   -0.214945
   6 C :    0.298823
   7 C :   -0.432147
   8 O :   -0.356630
   9 H :    0.148536
  10 H :    0.109189
  11 H :    0.141926
  12 H :    0.109485
  13 H :    0.128087
  14 H :    0.355686
  15 H :    0.139373
  16 H :    0.149073
  17 H :    0.157489
  18 H :    0.151818
Sum of atomic charges:    0.0000000

LOEWDIN ATOMIC CHARGES
----------------------
   0 C :   -0.333708
   1 O :    0.179119
   2 C :   -0.290352
   3 C :   -0.294946
   4 O :    0.018533
   5 C :   -0.168816
   6 C :   -0.327902
   7 C :   -0.270861
   8 O :    0.130175
   9 H :    0.111426
  10 H :    0.102712
  11 H :    0.114808
  12 H :    0.137553
  13 H :    0.142214
  14 H :    0.182542
  15 H :    0.155490
  16 H :    0.138335
  17 H :    0.134258
  18 H :    0.139419

  Mayer bond orders larger than 0.1
B(  0-C ,  1-O ) :   0.8776 B(  0-C ,  9-H ) :   0.9320 B(  0-C , 10-H ) :   0.9333
B(  0-C , 11-H ) :   0.9390 B(  1-O ,  2-C ) :   1.0346 B(  2-C ,  3-C ) :   0.9025
B(  2-C ,  5-C ) :   0.8175 B(  2-C , 12-H ) :   0.9299 B(  3-C ,  4-O ) :   1.0324
B(  3-C ,  5-C ) :   0.8007 B(  3-C , 13-H ) :   0.9381 B(  4-O , 14-H ) :   0.7662
B(  5-C ,  6-C ) :   0.9428 B(  5-C , 15-H ) :   0.9021 B(  6-C ,  7-C ) :   0.9156
B(  6-C ,  8-O ) :   1.7936 B(  7-C , 16-H ) :   0.9176 B(  7-C , 17-H ) :   0.9423
B(  7-C , 18-H ) :   0.9180

MP2 TOTAL ENERGY:     -459.409636360 Eh
FINAL SINGLE POINT ENERGY      -459.409636360220

DIPOLE MOMENT
-------------
                                X             Y             Z
Electronic contribution:      0.63445      -1.49381       2.31747
Nuclear contribution   :     -0.64605       1.64106      -3.56685
                        -----------------------------------------
Total Dipole Moment    :     -0.01160       0.14725      -1.24937
                        -----------------------------------------
Magnitude (a.u.)       :      1.25807
Magnitude (Debye)      :      3.19777

                             ****ORCA TERMINATED NORMALLY****
TOTAL RUN TIME: 0 days 0 hours 16 minutes 23 seconds 585 msec
