                         Program Version 3.0.3 - RELEASE   -
|  1> ! RI-MP2 RIJK def2-TZVP def2-TZVP/C def2-TZVP/JK TIGHTSCF
|  2> % maxcore 2000
|  3> % mp2 density relaxed end
|  4> *xyz 0 1
|  5>  C        0.2675564090     1.4950386992     0.5626610131
|  6>  C        0.1845789101     0.0211258511     0.0522837635
|  7>  C        0.2883345827    -0.8822288311     1.2944213961
|  8>  O       -0.5962006150    -0.9555819413     2.1089369080
|  9>  C       -1.2128380612    -0.1400383711    -0.5390164254
| 10>  O       -1.4992688267    -0.0703515288    -1.7109706056
| 11>  C        1.4035571357    -0.2310005547    -0.8600019154
| 12>  N        1.1993190399    -0.1411333587    -2.1908909533
| 13>  O        2.4876188395    -0.4500048939    -0.3460843777
| 14>  H        1.2431865761     1.6579223061     1.0264104470
| 15>  H        0.1499839206     2.1901451839    -0.2726406350
| 16>  H       -0.5154307619     1.6781032101     1.3028298213
| 17>  H        1.2380853741    -1.4382029201     1.3843263727
| 18>  H       -1.9900364606    -0.3001551413     0.2320583684
| 19>  H        0.2614733903    -0.0425854314    -2.5553115448
| 20>  H        1.9835786875    -0.3140689481    -2.7989745030
| 21> *
| 22>
| 23>                          ****END OF INPUT****

CARTESIAN COORDINATES (ANGSTROEM)
---------------------------------
  C      0.267556    1.495039    0.562661
  C      0.184579    0.021126    0.052284
  C      0.288335   -0.882229    1.294421
  O     -0.596201   -0.955582    2.108937
  C     -1.212838   -0.140038   -0.539016
  O     -1.499269   -0.070352   -1.710971
  C      1.403557   -0.231001   -0.860002
  N      1.199319   -0.141133   -2.190891
  O      2.487619   -0.450005   -0.346084
  H      1.243187    1.657922    1.026410
  H      0.149984    2.190145   -0.272641
  H     -0.515431    1.678103    1.302830
  H      1.238085   -1.438203    1.384326
  H     -1.990036   -0.300155    0.232058
  H      0.261473   -0.042585   -2.555312
  H      1.983579   -0.314069   -2.798975

 Total Charge           Charge          ....    0
 Multiplicity           Mult            ....    1
 Number of Electrons    NEL             ....   68
 Basis Dimension        Dim             ....  321

ORBITAL ENERGIES
----------------

  NO   OCC          E(Eh)            E(eV)
   0   2.0000     -20.591557      -560.3248
   1   2.0000     -20.580894      -560.0346
   2   2.0000     -20.536732      -558.8329
   3   2.0000     -15.592942      -424.3055
   4   2.0000     -11.374974      -309.5288
   5   2.0000     -11.366883      -309.3086
   6   2.0000     -11.354827      -308.9805
   7   2.0000     -11.294691      -307.3442
   8   2.0000     -11.265693      -306.5551
   9   2.0000      -1.433616       -39.0107
  10   2.0000      -1.421396       -38.6782
  11   2.0000      -1.402261       -38.1574
  12   2.0000      -1.228258       -33.4226
  13   2.0000      -1.120222       -30.4828
  14   2.0000      -0.947621       -25.7861
  15   2.0000      -0.883597       -24.0439
  16   2.0000      -0.855522       -23.2800
  17   2.0000      -0.783964       -21.3327
  18   2.0000      -0.736096       -20.0302
  19   2.0000      -0.713077       -19.4038
  20   2.0000      -0.702152       -19.1065
  21   2.0000      -0.664919       -18.0934
  22   2.0000      -0.653419       -17.7804
  23   2.0000      -0.642182       -17.4747
  24   2.0000      -0.614511       -16.7217
  25   2.0000      -0.590409       -16.0658
  26   2.0000      -0.580832       -15.8052
  27   2.0000      -0.558995       -15.2110
  28   2.0000      -0.547424       -14.8962
  29   2.0000      -0.530210       -14.4277
  30   2.0000      -0.476483       -12.9658
  31   2.0000      -0.438742       -11.9388
  32   2.0000      -0.431716       -11.7476
  33   2.0000      -0.425838       -11.5877
  34   0.0000       0.086395         2.3509
  35   0.0000       0.122210         3.3255
  36   0.0000       0.138434         3.7670
  37   0.0000       0.153847         4.1864
  38   0.0000       0.162667         4.4264

MULLIKEN ATOMIC CHARGES
-----------------------
   0 C :   -0.432956
   1 C :    0.119337
   2 C :    0.064312
   3 O :   -0.267600
   4 C :    0.090033
   5 O :   -0.302716
   6 C :    0.221767
   7 N :   -0.456253
   8 O :   -0.361973
   9 H :    0.170825
  10 H :    0.152813
  11 H :    0.160092
  12 H :    0.151548
  13 H :    0.144180
  14 H :    0.288203
  15 H :    0.258390
Sum of atomic charges:   -0.0000000

LOEWDIN ATOMIC CHARGES
----------------------
   0 C :   -0.231035
   1 C :   -0.259938
   2 C :   -0.233240
   3 O :    0.145836
   4 C :   -0.229623
   5 O :    0.128783
   6 C :   -0.449853
   7 N :    0.013151
   8 O :    0.083428
   9 H :    0.141903
  10 H :    0.134551
  11 H :    0.136309
  12 H :    0.132520
  13 H :    0.135376
  14 H :    0.174869
  15 H :    0.176962

  Mayer bond orders larger than 0.1
B(  0-C ,  1-C ) :   0.8570 B(  0-C ,  9-H ) :   0.9221 B(  0-C , 10-H ) :   0.9264
B(  0-C , 11-H ) :   0.9207 B(  1-C ,  2-C ) :   0.8241 B(  1-C ,  4-C ) :   0.8461
B(  1-C ,  6-C ) :   0.8563 B(  2-C ,  3-O ) :   1.9469 B(  2-C , 12-H ) :   0.9194
B(  4-C ,  5-O ) :   1.8817 B(  4-C , 13-H ) :   0.9236 B(  6-C ,  7-N ) :   1.2358
B(  6-C ,  8-O ) :   1.9101 B(  7-N , 14-H ) :   0.8237 B(  7-N , 15-H ) :   0.8539

MP2 TOTAL ENERGY:     -474.320487033 Eh
FINAL SINGLE POINT ENERGY      -474.320487033048

DIPOLE MOMENT
-------------
                                X             Y             Z
Electronic contribution:     -0.51348      -3.70815      -0.36503
Nuclear contribution   :      0.35851       4.16885      -0.28575
                        -----------------------------------------
Total Dipole Moment    :     -0.15497       0.46069      -0.65078
                        -----------------------------------------
Magnitude (a.u.)       :      0.81226
Magnitude (Debye)      :      2.06460

                             ****ORCA TERMINATED NORMALLY****
TOTAL RUN TIME: 0 days 0 hours 16 minutes 44 seconds 530 msec
