                         Program Version 3.0.3 - RELEASE   -
|  1> ! RI-MP2 RIJK def2-TZVP def2-TZVP/C def2-TZVP/JK TIGHTSCF
|  2> % maxcore 2000
|  3> % mp2 density relaxed end
|  4> *xyz 0 1
|  5>  N        0.9282616507     0.9383884252    -0.6384187969
|  6>  C        0.3966622121    -0.1037448500    -0.1911991040
|  7>  O        0.9016435613    -1.3703044960     0.0626599256
|  8>  C       -0.4572855818    -1.8701321585     0.2706113803
|  9>  C       -1.0389594174    -1.2054479348     1.4731080776
| 10>  C       -1.0123021827    -0.4688422434     0.1301363485
| 11>  N       -2.1059108158     0.1233391250    -0.5458161277
| 12>  C       -3.3351010209    -0.4459228461    -0.6464778629
| 13>  O       -3.6429068652    -1.5081156428    -0.1443340747
| 14>  H        1.9256860899     0.8141975908    -0.8158427014
| 15>  H       -0.7156138284    -2.8178941372    -0.1769552635
| 16>  H       -2.0318246691    -1.5480422075     1.7394840035
| 17>  H       -0.3906128468    -0.8962488057     2.2874961545
| 18>  H       -1.9046476244     0.9812329090    -1.0385638039
| 19>  H       -4.0320750915     0.1739424519    -1.2406530750
| 20> *
| 21>
| 22>                          ****END OF INPUT****

CARTESIAN COORDINATES (ANGSTROEM)
---------------------------------
  N      0.928262    0.938388   -0.638419
  C      0.396662   -0.103745   -0.191199
  O      0.901644   -1.370304    0.062660
  C     -0.457286   -1.870132    0.270611
  C     -1.038959   -1.205448    1.473108
  C     -1.012302   -0.468842    0.130136
  N     -2.105911    0.123339   -0.545816
  C     -3.335101   -0.445923   -0.646478
  O     -3.642907   -1.508116   -0.144334
  H      1.925686    0.814198   -0.815843
  H     -0.715614   -2.817894   -0.176955
  H     -2.031825   -1.548042    1.739484
  H     -0.390613   -0.896249    2.287496
  H     -1.904648    0.981233   -1.038564
  H     -4.032075    0.173942   -1.240653

 Total Charge           Charge          ....    0
 Multiplicity           Mult            ....    1
 Number of Electrons    NEL             ....   66
 Basis Dimension        Dim             ....  315

ORBITAL ENERGIES
----------------

  NO   OCC          E(Eh)            E(eV)
   0   2.0000     -20.604639      -560.6807
   1   2.0000     -20.541433      -558.9608
   2   2.0000     -15.615808      -424.9277
   3   2.0000     -15.555267      -423.2803
   4   2.0000     -11.368466      -309.3517
   5   2.0000     -11.359266      -309.1013
   6   2.0000     -11.320385      -308.0433
   7   2.0000     -11.310648      -307.7784
   8   2.0000     -11.259752      -306.3934
   9   2.0000      -1.454851       -39.5885
  10   2.0000      -1.402601       -38.1667
  11   2.0000      -1.266171       -34.4543
  12   2.0000      -1.215182       -33.0668
  13   2.0000      -1.139480       -31.0068
  14   2.0000      -0.941211       -25.6117
  15   2.0000      -0.858667       -23.3655
  16   2.0000      -0.852335       -23.1932
  17   2.0000      -0.786040       -21.3892
  18   2.0000      -0.730775       -19.8854
  19   2.0000      -0.718802       -19.5596
  20   2.0000      -0.697288       -18.9742
  21   2.0000      -0.661235       -17.9931
  22   2.0000      -0.635078       -17.2814
  23   2.0000      -0.610268       -16.6062
  24   2.0000      -0.605685       -16.4815
  25   2.0000      -0.566857       -15.4250
  26   2.0000      -0.560078       -15.2405
  27   2.0000      -0.510597       -13.8941
  28   2.0000      -0.466871       -12.7042
  29   2.0000      -0.457095       -12.4382
  30   2.0000      -0.447390       -12.1741
  31   2.0000      -0.416176       -11.3247
  32   2.0000      -0.378418       -10.2973
  33   0.0000       0.136751         3.7212
  34   0.0000       0.143794         3.9128
  35   0.0000       0.163347         4.4449
  36   0.0000       0.168504         4.5852
  37   0.0000       0.172264         4.6876

MULLIKEN ATOMIC CHARGES
-----------------------
   0 N :   -0.384113
   1 C :    0.126537
   2 O :   -0.272937
   3 C :    0.061618
   4 C :   -0.255173
   5 C :    0.124029
   6 N :   -0.340619
   7 C :    0.216806
   8 O :   -0.377233
   9 H :    0.239235
  10 H :    0.171664
  11 H :    0.176721
  12 H :    0.149466
  13 H :    0.266546
  14 H :    0.097452
Sum of atomic charges:   -0.0000000

LOEWDIN ATOMIC CHARGES
----------------------
   0 N :   -0.043036
   1 C :   -0.363868
   2 O :    0.229817
   3 C :   -0.174039
   4 C :   -0.159240
   5 C :   -0.211654
   6 N :    0.139880
   7 C :   -0.418800
   8 O :    0.061512
   9 H :    0.177957
  10 H :    0.143444
  11 H :    0.157462
  12 H :    0.139506
  13 H :    0.204955
  14 H :    0.116104

  Mayer bond orders larger than 0.1
B(  0-N ,  1-C ) :   2.0448 B(  0-N ,  9-H ) :   0.8445 B(  1-C ,  2-O ) :   1.0747
B(  1-C ,  5-C ) :   0.9269 B(  2-O ,  3-C ) :   0.8836 B(  3-C ,  4-C ) :   0.9007
B(  3-C ,  5-C ) :   0.8874 B(  3-C , 10-H ) :   0.8924 B(  4-C ,  5-C ) :   0.8571
B(  4-C , 11-H ) :   0.9097 B(  4-C , 12-H ) :   0.8974 B(  5-C ,  6-N ) :   0.8723
B(  6-N ,  7-C ) :   1.1372 B(  6-N , 13-H ) :   0.8566 B(  7-C ,  8-O ) :   1.8553
B(  7-C , 14-H ) :   0.9285

MP2 TOTAL ENERGY:     -453.188278799 Eh
FINAL SINGLE POINT ENERGY      -453.188278798886

DIPOLE MOMENT
-------------
                                X             Y             Z
Electronic contribution:      0.91857      -0.28018      -1.07470
Nuclear contribution   :     -0.77573       0.63568       0.91130
                        -----------------------------------------
Total Dipole Moment    :      0.14284       0.35550      -0.16339
                        -----------------------------------------
Magnitude (a.u.)       :      0.41651
Magnitude (Debye)      :      1.05869

                             ****ORCA TERMINATED NORMALLY****
TOTAL RUN TIME: 0 days 0 hours 13 minutes 17 seconds 85 msec
