                         Program Version 3.0.3 - RELEASE   -
|  1> ! RI-MP2 RIJK def2-TZVP def2-TZVP/C def2-TZVP/JK TIGHTSCF
|  2> % maxcore 2000
|  3> % mp2 density relaxed end
|  4> *xyz 0 1
|  5>  C       -0.6065950098     1.2596836154     0.2426193035
|  6>  C        0.0013036402    -0.1081050448     0.0849485255
|  7>  O        1.3815369702    -0.1756616571    -0.2621332949
|  8>  C        0.9894989860    -0.6685917256     1.0364023559
|  9>  C        1.4462436893     0.0425638794     2.1975555064
| 10>  C        1.8325078792     0.6014947839     3.1950889355
| 11>  C        2.3021395563     1.2629082090     4.3757169256
| 12>  C        2.2782888577     2.7819161674     4.4632729358
| 13>  C        1.3235126453     1.9808049811     5.2948513606
| 14>  H        0.0347043810     1.9010970673     0.8505386497
| 15>  H       -0.7441300482     1.7281128974    -0.7374068398
| 16>  H       -1.5885757867     1.1864766353     0.7222355353
| 17>  H       -0.6190524416    -0.8359319660    -0.4432804862
| 18>  H        1.0401167924    -1.7548065045     1.1170818861
| 19>  H        3.1395306069     0.7772292447     4.8684198923
| 20>  H        3.1195747830     3.2603416790     4.9516012809
| 21>  H        1.8864175646     3.3172439019     3.6069449838
| 22>  H        0.2796140685     1.9690708066     5.0055868700
| 23>  H        1.5008907757     1.9025812496     6.3614518242
| 24> *
| 25>
| 26>                          ****END OF INPUT****

CARTESIAN COORDINATES (ANGSTROEM)
---------------------------------
  C     -0.606595    1.259684    0.242619
  C      0.001304   -0.108105    0.084949
  O      1.381537   -0.175662   -0.262133
  C      0.989499   -0.668592    1.036402
  C      1.446244    0.042564    2.197556
  C      1.832508    0.601495    3.195089
  C      2.302140    1.262908    4.375717
  C      2.278289    2.781916    4.463273
  C      1.323513    1.980805    5.294851
  H      0.034704    1.901097    0.850539
  H     -0.744130    1.728113   -0.737407
  H     -1.588576    1.186477    0.722236
  H     -0.619052   -0.835932   -0.443280
  H      1.040117   -1.754807    1.117082
  H      3.139531    0.777229    4.868420
  H      3.119575    3.260342    4.951601
  H      1.886418    3.317244    3.606945
  H      0.279614    1.969071    5.005587
  H      1.500891    1.902581    6.361452

 Total Charge           Charge          ....    0
 Multiplicity           Mult            ....    1
 Number of Electrons    NEL             ....   66
 Basis Dimension        Dim             ....  339

ORBITAL ENERGIES
----------------

  NO   OCC          E(Eh)            E(eV)
   0   2.0000     -20.568466      -559.6964
   1   2.0000     -11.305106      -307.6276
   2   2.0000     -11.293745      -307.3184
   3   2.0000     -11.259875      -306.3968
   4   2.0000     -11.242127      -305.9138
   5   2.0000     -11.241408      -305.8943
   6   2.0000     -11.233876      -305.6893
   7   2.0000     -11.224052      -305.4220
   8   2.0000     -11.223264      -305.4005
   9   2.0000      -1.412005       -38.4226
  10   2.0000      -1.160904       -31.5898
  11   2.0000      -1.044077       -28.4108
  12   2.0000      -1.010674       -27.5018
  13   2.0000      -0.935853       -25.4658
  14   2.0000      -0.861276       -23.4365
  15   2.0000      -0.834857       -22.7176
  16   2.0000      -0.820400       -22.3242
  17   2.0000      -0.712576       -19.3902
  18   2.0000      -0.703012       -19.1299
  19   2.0000      -0.670647       -18.2492
  20   2.0000      -0.654008       -17.7965
  21   2.0000      -0.591763       -16.1027
  22   2.0000      -0.568699       -15.4751
  23   2.0000      -0.562487       -15.3061
  24   2.0000      -0.547427       -14.8963
  25   2.0000      -0.530284       -14.4298
  26   2.0000      -0.524523       -14.2730
  27   2.0000      -0.481281       -13.0963
  28   2.0000      -0.466400       -12.6914
  29   2.0000      -0.455291       -12.3891
  30   2.0000      -0.447184       -12.1685
  31   2.0000      -0.368586       -10.0297
  32   2.0000      -0.349954        -9.5227
  33   0.0000       0.140390         3.8202
  34   0.0000       0.144432         3.9302
  35   0.0000       0.156985         4.2718
  36   0.0000       0.163782         4.4567
  37   0.0000       0.182830         4.9751

MULLIKEN ATOMIC CHARGES
-----------------------
   0 C :   -0.391002
   1 C :    0.124146
   2 O :   -0.316669
   3 C :   -0.206160
   4 C :    0.078319
   5 C :    0.060024
   6 C :   -0.233310
   7 C :   -0.231344
   8 C :   -0.233329
   9 H :    0.145614
  10 H :    0.139552
  11 H :    0.126201
  12 H :    0.108687
  13 H :    0.134354
  14 H :    0.140530
  15 H :    0.136405
  16 H :    0.141849
  17 H :    0.140606
  18 H :    0.135527
Sum of atomic charges:   -0.0000000

LOEWDIN ATOMIC CHARGES
----------------------
   0 C :   -0.291057
   1 C :   -0.285115
   2 O :    0.169834
   3 C :   -0.258261
   4 C :   -0.054768
   5 C :   -0.043401
   6 C :   -0.212764
   7 C :   -0.205061
   8 C :   -0.206356
   9 H :    0.133623
  10 H :    0.130288
  11 H :    0.130700
  12 H :    0.135614
  13 H :    0.152065
  14 H :    0.162799
  15 H :    0.133608
  16 H :    0.137724
  17 H :    0.137324
  18 H :    0.133204

  Mayer bond orders larger than 0.1
B(  0-C ,  1-C ) :   0.9012 B(  0-C ,  9-H ) :   0.9363 B(  0-C , 10-H ) :   0.9368
B(  0-C , 11-H ) :   0.9245 B(  1-C ,  2-O ) :   0.8953 B(  1-C ,  3-C ) :   0.9786
B(  1-C , 12-H ) :   0.9198 B(  2-O ,  3-C ) :   0.9655 B(  3-C ,  4-C ) :   1.0135
B(  3-C ,  5-C ) :  -0.1254 B(  3-C , 13-H ) :   0.9344 B(  4-C ,  5-C ) :   2.6309
B(  4-C ,  6-C ) :  -0.1330 B(  5-C ,  6-C ) :   1.0888 B(  6-C ,  7-C ) :   0.8554
B(  6-C ,  8-C ) :   0.8564 B(  6-C , 14-H ) :   0.9390 B(  7-C ,  8-C ) :   0.9011
B(  7-C , 15-H ) :   0.9305 B(  7-C , 16-H ) :   0.9332 B(  8-C , 17-H ) :   0.9332
B(  8-C , 18-H ) :   0.9300

MP2 TOTAL ENERGY:     -385.137586596 Eh
FINAL SINGLE POINT ENERGY      -385.137586595739

DIPOLE MOMENT
-------------
                                X             Y             Z
Electronic contribution:      3.05371      -4.99014      -2.94461
Nuclear contribution   :     -3.59046       5.18258       3.65709
                        -----------------------------------------
Total Dipole Moment    :     -0.53675       0.19245       0.71249
                        -----------------------------------------
Magnitude (a.u.)       :      0.91257
Magnitude (Debye)      :      2.31956

                             ****ORCA TERMINATED NORMALLY****
TOTAL RUN TIME: 0 days 0 hours 14 minutes 59 seconds 775 msec
