                         Program Version 3.0.3 - RELEASE   -
|  1> ! RI-MP2 RIJK def2-TZVP def2-TZVP/C def2-TZVP/JK TIGHTSCF
|  2> % maxcore 2000
|  3> % mp2 density relaxed end
|  4> *xyz 0 1
|  5>  O       -0.0882938486     1.4047049654     0.0167509257
|  6>  C       -0.0116478928    -0.0189622048    -0.0062591786
|  7>  C        0.5834029953    -0.5518484802     1.3386305377
|  8>  N       -0.5808481105    -0.6284941907     2.1910591973
|  9>  C       -1.7852817803    -0.6422713766     1.5384005959
| 10>  O       -2.8742787283    -0.7605671012     2.0504119803
| 11>  C       -1.4701418499    -0.5127899374     0.0450191844
| 12>  C        0.7523302362    -0.4823504835    -1.1641328253
| 13>  C        1.4072875796    -0.8332956922    -2.1089780384
| 14>  H        0.8003222684     1.7519616412    -0.1187884064
| 15>  H        1.0661820600    -1.5274177502     1.1939519826
| 16>  H        1.3304982190     0.1517668328     1.7199624501
| 17>  H       -0.5372972400    -0.7741584848     3.1866544822
| 18>  H       -2.1419733424     0.1890722623    -0.4483710671
| 19>  H       -1.5784181626    -1.4941261321    -0.4249117361
| 20>  H        1.9736847970    -1.1480686381    -2.9509284041
| 21> *
| 22>
| 23>                          ****END OF INPUT****

CARTESIAN COORDINATES (ANGSTROEM)
---------------------------------
  O     -0.088294    1.404705    0.016751
  C     -0.011648   -0.018962   -0.006259
  C      0.583403   -0.551848    1.338631
  N     -0.580848   -0.628494    2.191059
  C     -1.785282   -0.642271    1.538401
  O     -2.874279   -0.760567    2.050412
  C     -1.470142   -0.512790    0.045019
  C      0.752330   -0.482350   -1.164133
  C      1.407288   -0.833296   -2.108978
  H      0.800322    1.751962   -0.118788
  H      1.066182   -1.527418    1.193952
  H      1.330498    0.151767    1.719962
  H     -0.537297   -0.774158    3.186654
  H     -2.141973    0.189072   -0.448371
  H     -1.578418   -1.494126   -0.424912
  H      1.973685   -1.148069   -2.950928

 Total Charge           Charge          ....    0
 Multiplicity           Mult            ....    1
 Number of Electrons    NEL             ....   66
 Basis Dimension        Dim             ....  321

ORBITAL ENERGIES
----------------

  NO   OCC          E(Eh)            E(eV)
   0   2.0000     -20.582169      -560.0693
   1   2.0000     -20.518212      -558.3289
   2   2.0000     -15.587373      -424.1540
   3   2.0000     -11.350832      -308.8718
   4   2.0000     -11.340987      -308.6040
   5   2.0000     -11.290283      -307.2242
   6   2.0000     -11.254670      -306.2551
   7   2.0000     -11.249902      -306.1254
   8   2.0000     -11.249269      -306.1082
   9   2.0000      -1.397212       -38.0201
  10   2.0000      -1.380973       -37.5782
  11   2.0000      -1.254278       -34.1306
  12   2.0000      -1.089982       -29.6599
  13   2.0000      -1.030393       -28.0384
  14   2.0000      -0.983566       -26.7642
  15   2.0000      -0.867775       -23.6133
  16   2.0000      -0.804441       -21.8899
  17   2.0000      -0.769534       -20.9401
  18   2.0000      -0.720078       -19.5943
  19   2.0000      -0.693241       -18.8640
  20   2.0000      -0.660096       -17.9621
  21   2.0000      -0.643495       -17.5104
  22   2.0000      -0.621199       -16.9037
  23   2.0000      -0.604339       -16.4449
  24   2.0000      -0.590491       -16.0681
  25   2.0000      -0.570055       -15.5120
  26   2.0000      -0.541158       -14.7257
  27   2.0000      -0.515899       -14.0383
  28   2.0000      -0.485835       -13.2202
  29   2.0000      -0.431025       -11.7288
  30   2.0000      -0.417181       -11.3521
  31   2.0000      -0.402224       -10.9451
  32   2.0000      -0.397922       -10.8280
  33   0.0000       0.118040         3.2120
  34   0.0000       0.141329         3.8458
  35   0.0000       0.151469         4.1217
  36   0.0000       0.158302         4.3076
  37   0.0000       0.161837         4.4038

MULLIKEN ATOMIC CHARGES
-----------------------
   0 O :   -0.456859
   1 C :    0.170459
   2 C :   -0.115693
   3 N :   -0.302956
   4 C :    0.179557
   5 O :   -0.330259
   6 C :   -0.180788
   7 C :   -0.141331
   8 C :   -0.134308
   9 H :    0.323336
  10 H :    0.130076
  11 H :    0.120280
  12 H :    0.240141
  13 H :    0.149004
  14 H :    0.148196
  15 H :    0.201145
Sum of atomic charges:    0.0000000

LOEWDIN ATOMIC CHARGES
----------------------
   0 O :    0.031521
   1 C :   -0.355213
   2 C :   -0.220585
   3 N :    0.120021
   4 C :   -0.444030
   5 O :    0.090249
   6 C :   -0.155960
   7 C :   -0.077421
   8 C :   -0.074993
   9 H :    0.181244
  10 H :    0.135195
  11 H :    0.133936
  12 H :    0.184349
  13 H :    0.159719
  14 H :    0.161409
  15 H :    0.130558

  Mayer bond orders larger than 0.1
B(  0-O ,  1-C ) :   0.8958 B(  0-O ,  9-H ) :   0.8354 B(  1-C ,  2-C ) :   0.9103
B(  1-C ,  6-C ) :   0.8699 B(  1-C ,  7-C ) :   1.1489 B(  2-C ,  3-N ) :   0.9070
B(  2-C , 10-H ) :   0.9279 B(  2-C , 11-H ) :   0.9085 B(  3-N ,  4-C ) :   1.1625
B(  3-N , 12-H ) :   0.8643 B(  4-C ,  5-O ) :   2.0255 B(  4-C ,  6-C ) :   0.9119
B(  6-C , 13-H ) :   0.9011 B(  6-C , 14-H ) :   0.9129 B(  7-C ,  8-C ) :   2.5870
B(  8-C , 15-H ) :   0.8825

MP2 TOTAL ENERGY:     -437.168697631 Eh
FINAL SINGLE POINT ENERGY      -437.168697631338

DIPOLE MOMENT
-------------
                                X             Y             Z
Electronic contribution:     -2.09547       0.45744       0.79139
Nuclear contribution   :      4.02336      -0.66869      -1.18592
                        -----------------------------------------
Total Dipole Moment    :      1.92789      -0.21125      -0.39453
                        -----------------------------------------
Magnitude (a.u.)       :      1.97915
Magnitude (Debye)      :      5.03061

                             ****ORCA TERMINATED NORMALLY****
TOTAL RUN TIME: 0 days 0 hours 15 minutes 17 seconds 767 msec
