                         Program Version 3.0.3 - RELEASE   -
|  1> ! RI-MP2 RIJK def2-TZVP def2-TZVP/C def2-TZVP/JK TIGHTSCF
|  2> % maxcore 2000
|  3> % mp2 density relaxed end
|  4> *xyz 0 1
|  5>  O       -1.2490574277     1.6107443188    -0.0499248804
|  6>  C       -0.5172229977     0.4158919134    -0.1490939048
|  7>  C       -1.3735316527    -0.8450187079    -0.0772388861
|  8>  O       -2.1389309464    -1.0749114551    -1.2687518494
|  9>  C       -3.4679451056    -0.6705337585    -1.2509826284
| 10>  C       -3.8733488704     0.6795551676    -1.8323724979
| 11>  O       -2.8924945076     1.5482799087    -2.3115447426
| 12>  C       -4.0714376675    -0.5932919785    -2.6327873642
| 13>  O       -3.1717680035    -0.7294717105    -3.6994514809
| 14>  H       -1.7284735466     1.7358609290    -0.8854578215
| 15>  H        0.0900641554     0.3728127669    -1.0684207443
| 16>  H        0.1800155747     0.3903285229     0.6988125449
| 17>  H       -0.7251531854    -1.7223624151     0.0352482665
| 18>  H       -2.0434522831    -0.7899634890     0.7896205694
| 19>  H       -4.0691117843    -1.0776944249    -0.4383214508
| 20>  H       -4.7266491873     1.1948257601    -1.4028535837
| 21>  H       -2.5764467037     1.1486154657    -3.1392947205
| 22>  H       -5.0620042615    -0.9875250937    -2.8380671769
| 23>  H       -2.4149672190    -1.2264073801    -3.3566266085
| 24> *
| 25>
| 26>                          ****END OF INPUT****

CARTESIAN COORDINATES (ANGSTROEM)
---------------------------------
  O     -1.249057    1.610744   -0.049925
  C     -0.517223    0.415892   -0.149094
  C     -1.373532   -0.845019   -0.077239
  O     -2.138931   -1.074911   -1.268752
  C     -3.467945   -0.670534   -1.250983
  C     -3.873349    0.679555   -1.832372
  O     -2.892495    1.548280   -2.311545
  C     -4.071438   -0.593292   -2.632787
  O     -3.171768   -0.729472   -3.699451
  H     -1.728474    1.735861   -0.885458
  H      0.090064    0.372813   -1.068421
  H      0.180016    0.390329    0.698813
  H     -0.725153   -1.722362    0.035248
  H     -2.043452   -0.789963    0.789621
  H     -4.069112   -1.077694   -0.438321
  H     -4.726649    1.194826   -1.402854
  H     -2.576447    1.148615   -3.139295
  H     -5.062004   -0.987525   -2.838067
  H     -2.414967   -1.226407   -3.356627

 Total Charge           Charge          ....    0
 Multiplicity           Mult            ....    1
 Number of Electrons    NEL             ....   72
 Basis Dimension        Dim             ....  339

ORBITAL ENERGIES
----------------

  NO   OCC          E(Eh)            E(eV)
   0   2.0000     -20.582634      -560.0820
   1   2.0000     -20.581981      -560.0642
   2   2.0000     -20.580179      -560.0151
   3   2.0000     -20.534779      -558.7797
   4   2.0000     -11.299961      -307.4876
   5   2.0000     -11.296945      -307.4055
   6   2.0000     -11.295602      -307.3689
   7   2.0000     -11.286299      -307.1158
   8   2.0000     -11.272639      -306.7441
   9   2.0000      -1.425809       -38.7982
  10   2.0000      -1.387219       -37.7481
  11   2.0000      -1.373419       -37.3726
  12   2.0000      -1.344011       -36.5724
  13   2.0000      -1.121252       -30.5108
  14   2.0000      -1.004638       -27.3376
  15   2.0000      -0.863539       -23.4981
  16   2.0000      -0.841962       -22.9110
  17   2.0000      -0.815146       -22.1813
  18   2.0000      -0.749836       -20.4041
  19   2.0000      -0.715688       -19.4749
  20   2.0000      -0.708179       -19.2705
  21   2.0000      -0.692695       -18.8492
  22   2.0000      -0.657012       -17.8782
  23   2.0000      -0.633073       -17.2268
  24   2.0000      -0.606736       -16.5101
  25   2.0000      -0.596998       -16.2451
  26   2.0000      -0.586036       -15.9469
  27   2.0000      -0.569128       -15.4868
  28   2.0000      -0.553882       -15.0719
  29   2.0000      -0.542566       -14.7640
  30   2.0000      -0.514267       -13.9939
  31   2.0000      -0.500992       -13.6327
  32   2.0000      -0.475070       -12.9273
  33   2.0000      -0.435173       -11.8417
  34   2.0000      -0.416521       -11.3341
  35   2.0000      -0.382382       -10.4051
  36   0.0000       0.136329         3.7097
  37   0.0000       0.146512         3.9868
  38   0.0000       0.162850         4.4314
  39   0.0000       0.179435         4.8827
  40   0.0000       0.188411         5.1269

MULLIKEN ATOMIC CHARGES
-----------------------
   0 O :   -0.493620
   1 C :   -0.042209
   2 C :   -0.042503
   3 O :   -0.347511
   4 C :   -0.011117
   5 C :    0.026134
   6 O :   -0.501200
   7 C :    0.065168
   8 O :   -0.509160
   9 H :    0.351903
  10 H :    0.094436
  11 H :    0.109788
  12 H :    0.118469
  13 H :    0.099379
  14 H :    0.115870
  15 H :    0.131367
  16 H :    0.347529
  17 H :    0.133174
  18 H :    0.354102
Sum of atomic charges:    0.0000000

LOEWDIN ATOMIC CHARGES
----------------------
   0 O :   -0.044443
   1 C :   -0.375663
   2 C :   -0.305257
   3 O :    0.174120
   4 C :   -0.305402
   5 C :   -0.308311
   6 O :    0.005109
   7 C :   -0.300364
   8 O :   -0.002067
   9 H :    0.166071
  10 H :    0.117768
  11 H :    0.131591
  12 H :    0.130691
  13 H :    0.127981
  14 H :    0.137471
  15 H :    0.139172
  16 H :    0.187945
  17 H :    0.135085
  18 H :    0.188503

  Mayer bond orders larger than 0.1
B(  0-O ,  1-C ) :   0.9680 B(  0-O ,  9-H ) :   0.8006 B(  1-C ,  2-C ) :   0.9277
B(  1-C , 10-H ) :   0.9349 B(  1-C , 11-H ) :   0.9260 B(  2-C ,  3-O ) :   0.8586
B(  2-C , 12-H ) :   0.9218 B(  2-C , 13-H ) :   0.9278 B(  3-O ,  4-C ) :   0.9521
B(  4-C ,  5-C ) :   0.8631 B(  4-C ,  7-C ) :   0.8812 B(  4-C , 14-H ) :   0.9254
B(  5-C ,  6-O ) :   0.9251 B(  5-C ,  7-C ) :   0.8545 B(  5-C , 15-H ) :   0.9297
B(  6-O , 16-H ) :   0.7930 B(  7-C ,  8-O ) :   0.9217 B(  7-C , 17-H ) :   0.9363
B(  8-O , 18-H ) :   0.8082

MP2 TOTAL ENERGY:     -496.494933777 Eh
FINAL SINGLE POINT ENERGY      -496.494933777379

DIPOLE MOMENT
-------------
                                X             Y             Z
Electronic contribution:     -1.99163       0.48025      -3.01830
Nuclear contribution   :      1.73894      -1.48255       3.10487
                        -----------------------------------------
Total Dipole Moment    :     -0.25269      -1.00230       0.08657
                        -----------------------------------------
Magnitude (a.u.)       :      1.03728
Magnitude (Debye)      :      2.63657

                             ****ORCA TERMINATED NORMALLY****
TOTAL RUN TIME: 0 days 0 hours 15 minutes 26 seconds 298 msec
