                         Program Version 3.0.3 - RELEASE   -
|  1> ! RI-MP2 RIJK def2-TZVP def2-TZVP/C def2-TZVP/JK TIGHTSCF
|  2> % maxcore 2000
|  3> % mp2 density relaxed end
|  4> *xyz 0 1
|  5>  C        0.1306959588     1.3261511921     0.1757476862
|  6>  O       -0.1537873277    -0.0144124176    -0.1752728888
|  7>  C        0.5849552717    -0.5347418580    -1.2543986593
|  8>  C        0.1560177927     0.0859993562    -2.5779284590
|  9>  C        2.1340621672    -0.7838528718    -0.9937290515
| 10>  C        1.6783632817    -1.8738515481     0.0428777097
| 11>  C        0.6996585899    -2.0990826326    -1.1663232119
| 12>  C        1.9746309640    -1.9273209373    -2.0012584239
| 13>  O        2.5637591770    -2.4481537824    -2.8982255095
| 14>  H        1.1952385522     1.4692803480     0.4086674114
| 15>  H       -0.1540054541     2.0359871482    -0.6121678028
| 16>  H       -0.4578953526     1.5462558312     1.0693573872
| 17>  H        0.4104481422     1.1491338241    -2.6238102586
| 18>  H        0.6411502837    -0.4044795239    -3.4254645591
| 19>  H       -0.9278809942    -0.0075772379    -2.6948424385
| 20>  H        2.9358244084    -0.0544943962    -0.8997156472
| 21>  H        2.3871785611    -2.6729161390     0.2613939693
| 22>  H        1.1973496760    -1.4806635434     0.9344767622
| 23>  H       -0.1059921380    -2.8244217218    -1.2549117962
| 24> *
| 25>
| 26>                          ****END OF INPUT****

CARTESIAN COORDINATES (ANGSTROEM)
---------------------------------
  C      0.130696    1.326151    0.175748
  O     -0.153787   -0.014412   -0.175273
  C      0.584955   -0.534742   -1.254399
  C      0.156018    0.085999   -2.577928
  C      2.134062   -0.783853   -0.993729
  C      1.678363   -1.873852    0.042878
  C      0.699659   -2.099083   -1.166323
  C      1.974631   -1.927321   -2.001258
  O      2.563759   -2.448154   -2.898226
  H      1.195239    1.469280    0.408667
  H     -0.154005    2.035987   -0.612168
  H     -0.457895    1.546256    1.069357
  H      0.410448    1.149134   -2.623810
  H      0.641150   -0.404480   -3.425465
  H     -0.927881   -0.007577   -2.694842
  H      2.935824   -0.054494   -0.899716
  H      2.387179   -2.672916    0.261394
  H      1.197350   -1.480664    0.934477
  H     -0.105992   -2.824422   -1.254912

 Total Charge           Charge          ....    0
 Multiplicity           Mult            ....    1
 Number of Electrons    NEL             ....   68
 Basis Dimension        Dim             ....  339

ORBITAL ENERGIES
----------------

  NO   OCC          E(Eh)            E(eV)
   0   2.0000     -20.569302      -559.7192
   1   2.0000     -20.549175      -559.1715
   2   2.0000     -11.340820      -308.5994
   3   2.0000     -11.318431      -307.9902
   4   2.0000     -11.283224      -307.0321
   5   2.0000     -11.260511      -306.4141
   6   2.0000     -11.258539      -306.3604
   7   2.0000     -11.253552      -306.2247
   8   2.0000     -11.228043      -305.5306
   9   2.0000      -1.400918       -38.1209
  10   2.0000      -1.392468       -37.8910
  11   2.0000      -1.218150       -33.1475
  12   2.0000      -1.013887       -27.5893
  13   2.0000      -0.949157       -25.8279
  14   2.0000      -0.892934       -24.2980
  15   2.0000      -0.881007       -23.9734
  16   2.0000      -0.807711       -21.9789
  17   2.0000      -0.708801       -19.2875
  18   2.0000      -0.699683       -19.0393
  19   2.0000      -0.669404       -18.2154
  20   2.0000      -0.651593       -17.7307
  21   2.0000      -0.646197       -17.5839
  22   2.0000      -0.608497       -16.5580
  23   2.0000      -0.603832       -16.4311
  24   2.0000      -0.573641       -15.6096
  25   2.0000      -0.571460       -15.5502
  26   2.0000      -0.541274       -14.7288
  27   2.0000      -0.515056       -14.0154
  28   2.0000      -0.497006       -13.5242
  29   2.0000      -0.487747       -13.2723
  30   2.0000      -0.476752       -12.9731
  31   2.0000      -0.445657       -12.1269
  32   2.0000      -0.427580       -11.6351
  33   2.0000      -0.388901       -10.5825
  34   0.0000       0.133375         3.6293
  35   0.0000       0.152511         4.1500
  36   0.0000       0.161849         4.4041
  37   0.0000       0.175619         4.7788
  38   0.0000       0.182195         4.9578

MULLIKEN ATOMIC CHARGES
-----------------------
   0 C :   -0.221684
   1 O :   -0.324991
   2 C :    0.191089
   3 C :   -0.434164
   4 C :   -0.107896
   5 C :   -0.261979
   6 C :   -0.059159
   7 C :    0.056907
   8 O :   -0.257174
   9 H :    0.117571
  10 H :    0.120939
  11 H :    0.147365
  12 H :    0.134610
  13 H :    0.156029
  14 H :    0.146102
  15 H :    0.153926
  16 H :    0.135393
  17 H :    0.152494
  18 H :    0.154624
Sum of atomic charges:    0.0000000

LOEWDIN ATOMIC CHARGES
----------------------
   0 C :   -0.344595
   1 O :    0.186501
   2 C :   -0.312496
   3 C :   -0.264288
   4 C :   -0.119107
   5 C :   -0.174138
   6 C :   -0.103915
   7 C :   -0.293189
   8 O :    0.158727
   9 H :    0.105589
  10 H :    0.104571
  11 H :    0.116120
  12 H :    0.127486
  13 H :    0.139391
  14 H :    0.133694
  15 H :    0.130713
  16 H :    0.133639
  17 H :    0.141305
  18 H :    0.133991

  Mayer bond orders larger than 0.1
B(  0-C ,  1-O ) :   0.8885 B(  0-C ,  9-H ) :   0.9307 B(  0-C , 10-H ) :   0.9336
B(  0-C , 11-H ) :   0.9415 B(  1-O ,  2-C ) :   0.9238 B(  2-C ,  3-C ) :   0.9279
B(  2-C ,  4-C ) :   0.8892 B(  2-C ,  6-C ) :   0.8692 B(  3-C , 12-H ) :   0.9290
B(  3-C , 13-H ) :   0.9230 B(  3-C , 14-H ) :   0.9415 B(  4-C ,  5-C ) :   0.9022
B(  4-C ,  7-C ) :   0.8018 B(  4-C , 15-H ) :   0.8707 B(  5-C ,  6-C ) :   0.9064
B(  5-C , 16-H ) :   0.9275 B(  5-C , 17-H ) :   0.9155 B(  6-C ,  7-C ) :   0.8157
B(  6-C , 18-H ) :   0.8681 B(  7-C ,  8-O ) :   2.0600

MP2 TOTAL ENERGY:     -422.273156195 Eh
FINAL SINGLE POINT ENERGY      -422.273156194871

DIPOLE MOMENT
-------------
                                X             Y             Z
Electronic contribution:      2.93788      -6.13700      -2.26806
Nuclear contribution   :     -3.28854       7.03234       2.96347
                        -----------------------------------------
Total Dipole Moment    :     -0.35066       0.89534       0.69540
                        -----------------------------------------
Magnitude (a.u.)       :      1.18667
Magnitude (Debye)      :      3.01628

                             ****ORCA TERMINATED NORMALLY****
TOTAL RUN TIME: 0 days 0 hours 18 minutes 24 seconds 856 msec
