                         Program Version 3.0.3 - RELEASE   -
|  1> ! RI-MP2 RIJK def2-TZVP def2-TZVP/C def2-TZVP/JK TIGHTSCF
|  2> % maxcore 2000
|  3> % mp2 density relaxed end
|  4> *xyz 0 1
|  5>  N       -0.1048876641     1.2318804359    -0.5687616846
|  6>  C       -0.0434483776     0.0726305377    -0.1031450009
|  7>  O        0.9907164606    -0.6147747133     0.5056091775
|  8>  C        0.1856996506    -1.8346438751     0.6333191302
|  9>  C       -0.1729262980    -2.1782203726     2.0677544297
| 10>  C       -1.5156464875    -1.4748340637     2.3289567963
| 11>  O       -2.0936589709    -1.3792955977     3.3838509390
| 12>  N       -1.9635980941    -0.9872100329     1.1196061408
| 13>  C       -1.0313303956    -1.0824575214     0.0259683988
| 14>  H        0.7765813728     1.7358363550    -0.4568673563
| 15>  H        0.6296461229    -2.6388895611     0.0474005223
| 16>  H       -0.2947329332    -3.2548064195     2.2189736702
| 17>  H        0.5797486987    -1.8240158916     2.7753665483
| 18>  H       -2.7744306147    -0.3882754717     1.0906419198
| 19>  H       -1.4816295798    -1.4417919079    -0.9007447812
| 20> *
| 21>
| 22>                          ****END OF INPUT****

CARTESIAN COORDINATES (ANGSTROEM)
---------------------------------
  N     -0.104888    1.231880   -0.568762
  C     -0.043448    0.072631   -0.103145
  O      0.990716   -0.614775    0.505609
  C      0.185700   -1.834644    0.633319
  C     -0.172926   -2.178220    2.067754
  C     -1.515646   -1.474834    2.328957
  O     -2.093659   -1.379296    3.383851
  N     -1.963598   -0.987210    1.119606
  C     -1.031330   -1.082458    0.025968
  H      0.776581    1.735836   -0.456867
  H      0.629646   -2.638890    0.047401
  H     -0.294733   -3.254806    2.218974
  H      0.579749   -1.824016    2.775367
  H     -2.774431   -0.388275    1.090642
  H     -1.481630   -1.441792   -0.900745

 Total Charge           Charge          ....    0
 Multiplicity           Mult            ....    1
 Number of Electrons    NEL             ....   66
 Basis Dimension        Dim             ....  315

ORBITAL ENERGIES
----------------

  NO   OCC          E(Eh)            E(eV)
   0   2.0000     -20.610813      -560.8487
   1   2.0000     -20.534322      -558.7673
   2   2.0000     -15.605150      -424.6377
   3   2.0000     -15.556242      -423.3069
   4   2.0000     -11.366811      -309.3066
   5   2.0000     -11.354966      -308.9843
   6   2.0000     -11.330145      -308.3089
   7   2.0000     -11.312582      -307.8310
   8   2.0000     -11.262826      -306.4771
   9   2.0000      -1.455463       -39.6052
  10   2.0000      -1.399098       -38.0714
  11   2.0000      -1.267836       -34.4996
  12   2.0000      -1.216070       -33.0910
  13   2.0000      -1.069268       -29.0962
  14   2.0000      -1.016385       -27.6572
  15   2.0000      -0.879657       -23.9367
  16   2.0000      -0.823194       -22.4002
  17   2.0000      -0.779141       -21.2015
  18   2.0000      -0.733705       -19.9651
  19   2.0000      -0.714223       -19.4350
  20   2.0000      -0.704809       -19.1788
  21   2.0000      -0.647127       -17.6092
  22   2.0000      -0.634256       -17.2590
  23   2.0000      -0.613968       -16.7069
  24   2.0000      -0.606089       -16.4925
  25   2.0000      -0.576314       -15.6823
  26   2.0000      -0.549248       -14.9458
  27   2.0000      -0.519069       -14.1246
  28   2.0000      -0.511040       -13.9061
  29   2.0000      -0.466426       -12.6921
  30   2.0000      -0.442673       -12.0457
  31   2.0000      -0.418154       -11.3785
  32   2.0000      -0.407941       -11.1006
  33   0.0000       0.121896         3.3169
  34   0.0000       0.143182         3.8962
  35   0.0000       0.156018         4.2455
  36   0.0000       0.161982         4.4078
  37   0.0000       0.167608         4.5608

MULLIKEN ATOMIC CHARGES
-----------------------
   0 N :   -0.355869
   1 C :    0.105662
   2 O :   -0.269164
   3 C :    0.045734
   4 C :   -0.197280
   5 C :    0.178532
   6 O :   -0.317049
   7 N :   -0.323339
   8 C :    0.071988
   9 H :    0.236100
  10 H :    0.132618
  11 H :    0.144229
  12 H :    0.151042
  13 H :    0.255008
  14 H :    0.141787
Sum of atomic charges:    0.0000000

LOEWDIN ATOMIC CHARGES
----------------------
   0 N :   -0.041101
   1 C :   -0.382444
   2 O :    0.230920
   3 C :   -0.206816
   4 C :   -0.197964
   5 C :   -0.434353
   6 O :    0.103305
   7 N :    0.145669
   8 C :   -0.197363
   9 H :    0.176970
  10 H :    0.140751
  11 H :    0.157707
  12 H :    0.162129
  13 H :    0.192865
  14 H :    0.149725

  Mayer bond orders larger than 0.1
B(  0-N ,  1-C ) :   2.0977 B(  0-N ,  9-H ) :   0.8444 B(  1-C ,  2-O ) :   1.0496
B(  1-C ,  8-C ) :   0.8862 B(  2-O ,  3-C ) :   0.8993 B(  3-C ,  4-C ) :   0.9223
B(  3-C ,  8-C ) :   0.9222 B(  3-C , 10-H ) :   0.9291 B(  4-C ,  5-C ) :   0.9144
B(  4-C , 11-H ) :   0.9087 B(  4-C , 12-H ) :   0.8926 B(  5-C ,  6-O ) :   2.0218
B(  5-C ,  7-N ) :   1.1352 B(  7-N ,  8-C ) :   0.8912 B(  7-N , 13-H ) :   0.8571
B(  8-C , 14-H ) :   0.9074

MP2 TOTAL ENERGY:     -453.248153004 Eh
FINAL SINGLE POINT ENERGY      -453.248153004467

DIPOLE MOMENT
-------------
                                X             Y             Z
Electronic contribution:     -0.72561       1.45252       0.58024
Nuclear contribution   :      1.16995      -2.21448      -1.49500
                        -----------------------------------------
Total Dipole Moment    :      0.44434      -0.76197      -0.91476
                        -----------------------------------------
Magnitude (a.u.)       :      1.27076
Magnitude (Debye)      :      3.23001

                             ****ORCA TERMINATED NORMALLY****
TOTAL RUN TIME: 0 days 0 hours 15 minutes 2 seconds 907 msec
