                         Program Version 3.0.3 - RELEASE   -
|  1> ! RI-MP2 RIJK def2-TZVP def2-TZVP/C def2-TZVP/JK TIGHTSCF
|  2> % maxcore 2000
|  3> % mp2 density relaxed end
|  4> *xyz 0 1
|  5>  C       -0.0886617537     1.5519264294     0.0282361071
|  6>  C        0.0397294595     0.0337136779     0.0125663835
|  7>  C        1.0520901141    -0.5921772843    -0.9902168197
|  8>  C        2.3800996155    -0.0570749546    -0.4203691333
|  9>  O        2.1577669842    -0.1017740253     0.9993943602
| 10>  C        0.8047097575    -0.5912603635     1.1892679768
| 11>  C        0.8650484666    -2.0786073785     0.7814432154
| 12>  O        0.9099327980    -3.0716696156     1.4649416362
| 13>  N        0.9375265882    -2.0024625069    -0.6026676712
| 14>  H        0.8443406009     2.0355617439     0.3264211408
| 15>  H       -0.3775793793     1.9330136915    -0.9571569122
| 16>  H       -0.8618944700     1.8578778101     0.7395669990
| 17>  H       -0.9365798267    -0.4388768455    -0.1238792474
| 18>  H        0.8768264581    -0.4245061870    -2.0523995364
| 19>  H        3.2295506612    -0.6958127453    -0.6864567555
| 20>  H        2.5955404085     0.9713671290    -0.7348416399
| 21>  H        0.4974795116    -0.3937635015     2.2131384086
| 22>  H        1.3683328058    -2.7500136838    -1.1270879020
| 23> *
| 24>
| 25>                          ****END OF INPUT****

CARTESIAN COORDINATES (ANGSTROEM)
---------------------------------
  C     -0.088662    1.551926    0.028236
  C      0.039729    0.033714    0.012566
  C      1.052090   -0.592177   -0.990217
  C      2.380100   -0.057075   -0.420369
  O      2.157767   -0.101774    0.999394
  C      0.804710   -0.591260    1.189268
  C      0.865048   -2.078607    0.781443
  O      0.909933   -3.071670    1.464942
  N      0.937527   -2.002463   -0.602668
  H      0.844341    2.035562    0.326421
  H     -0.377579    1.933014   -0.957157
  H     -0.861894    1.857878    0.739567
  H     -0.936580   -0.438877   -0.123879
  H      0.876826   -0.424506   -2.052400
  H      3.229551   -0.695813   -0.686457
  H      2.595540    0.971367   -0.734842
  H      0.497480   -0.393764    2.213138
  H      1.368333   -2.750014   -1.127088

 Total Charge           Charge          ....    0
 Multiplicity           Mult            ....    1
 Number of Electrons    NEL             ....   68
 Basis Dimension        Dim             ....  333

ORBITAL ENERGIES
----------------

  NO   OCC          E(Eh)            E(eV)
   0   2.0000     -20.572121      -559.7959
   1   2.0000     -20.527593      -558.5842
   2   2.0000     -15.584906      -424.0869
   3   2.0000     -11.349379      -308.8323
   4   2.0000     -11.300123      -307.4920
   5   2.0000     -11.291182      -307.2487
   6   2.0000     -11.289918      -307.2143
   7   2.0000     -11.254395      -306.2477
   8   2.0000     -11.233041      -305.6666
   9   2.0000      -1.408724       -38.3333
  10   2.0000      -1.375566       -37.4311
  11   2.0000      -1.251158       -34.0457
  12   2.0000      -1.079725       -29.3808
  13   2.0000      -1.022462       -27.8226
  14   2.0000      -0.956375       -26.0243
  15   2.0000      -0.865915       -23.5627
  16   2.0000      -0.807919       -21.9846
  17   2.0000      -0.780697       -21.2439
  18   2.0000      -0.718497       -19.5513
  19   2.0000      -0.698259       -19.0006
  20   2.0000      -0.664360       -18.0781
  21   2.0000      -0.641737       -17.4626
  22   2.0000      -0.610552       -16.6140
  23   2.0000      -0.581078       -15.8119
  24   2.0000      -0.573619       -15.6090
  25   2.0000      -0.569595       -15.4995
  26   2.0000      -0.559352       -15.2207
  27   2.0000      -0.530492       -14.4354
  28   2.0000      -0.515524       -14.0281
  29   2.0000      -0.502060       -13.6617
  30   2.0000      -0.496796       -13.5185
  31   2.0000      -0.459420       -12.5015
  32   2.0000      -0.407331       -11.0841
  33   2.0000      -0.388865       -10.5816
  34   0.0000       0.123903         3.3716
  35   0.0000       0.142640         3.8814
  36   0.0000       0.164958         4.4887
  37   0.0000       0.167685         4.5629
  38   0.0000       0.175238         4.7685

MULLIKEN ATOMIC CHARGES
-----------------------
   0 C :   -0.445706
   1 C :   -0.129529
   2 C :    0.005877
   3 C :   -0.080615
   4 O :   -0.330224
   5 C :    0.137466
   6 C :    0.144763
   7 O :   -0.308976
   8 N :   -0.318729
   9 H :    0.158035
  10 H :    0.137642
  11 H :    0.143571
  12 H :    0.128096
  13 H :    0.149086
  14 H :    0.110136
  15 H :    0.117519
  16 H :    0.142377
  17 H :    0.239214
Sum of atomic charges:    0.0000000

LOEWDIN ATOMIC CHARGES
----------------------
   0 C :   -0.285099
   1 C :   -0.228947
   2 C :   -0.244447
   3 C :   -0.274014
   4 O :    0.164972
   5 C :   -0.227934
   6 C :   -0.415860
   7 O :    0.105865
   8 N :    0.128252
   9 H :    0.131777
  10 H :    0.127577
  11 H :    0.130369
  12 H :    0.162152
  13 H :    0.145589
  14 H :    0.125980
  15 H :    0.124205
  16 H :    0.148003
  17 H :    0.181561

  Mayer bond orders larger than 0.1
B(  0-C ,  1-C ) :   0.8803 B(  0-C ,  9-H ) :   0.9330 B(  0-C , 10-H ) :   0.9366
B(  0-C , 11-H ) :   0.9375 B(  1-C ,  2-C ) :   0.8960 B(  1-C ,  5-C ) :   0.9140
B(  1-C , 12-H ) :   0.9129 B(  2-C ,  3-C ) :   0.9704 B(  2-C ,  8-N ) :   0.8912
B(  2-C , 13-H ) :   0.9055 B(  3-C ,  4-O ) :   0.9353 B(  3-C , 14-H ) :   0.9059
B(  3-C , 15-H ) :   0.9349 B(  4-O ,  5-C ) :   0.8659 B(  5-C ,  6-C ) :   0.8821
B(  5-C ,  8-N ) :  -0.1105 B(  5-C , 16-H ) :   0.9128 B(  6-C ,  7-O ) :   2.0348
B(  6-C ,  8-N ) :   1.1663 B(  8-N , 17-H ) :   0.8566

MP2 TOTAL ENERGY:     -438.405936222 Eh
FINAL SINGLE POINT ENERGY      -438.405936222350

DIPOLE MOMENT
-------------
                                X             Y             Z
Electronic contribution:      1.62584      -7.36190       3.15312
Nuclear contribution   :     -1.84319       8.41125      -4.60713
                        -----------------------------------------
Total Dipole Moment    :     -0.21735       1.04934      -1.45401
                        -----------------------------------------
Magnitude (a.u.)       :      1.80625
Magnitude (Debye)      :      4.59111

                             ****ORCA TERMINATED NORMALLY****
TOTAL RUN TIME: 0 days 0 hours 20 minutes 7 seconds 579 msec
