                         Program Version 3.0.3 - RELEASE   -
|  1> ! RI-MP2 RIJK def2-TZVP def2-TZVP/C def2-TZVP/JK TIGHTSCF
|  2> % maxcore 2000
|  3> % mp2 density relaxed end
|  4> *xyz 0 1
|  5>  C       -0.2100114376     1.6102040645     0.0351463947
|  6>  C       -0.0041190836     0.0921085229     0.0161006841
|  7>  C       -1.3509910237    -0.6379368591     0.0498518186
|  8>  O        0.6635774116    -0.3012808859    -1.2100345011
|  9>  C        1.9477737752    -0.8069226536    -0.8855919404
| 10>  C        2.8794021262     0.3045008268    -0.3068325415
| 11>  C        2.4166392666    -0.1246591934     1.0876704316
| 12>  C        1.8614720100    -1.4334947398     0.5326797504
| 13>  C        0.9240901239    -0.4276676310     1.1168082304
| 14>  H        0.7423325144     2.1436241505     0.0255909490
| 15>  H       -0.7914522676     1.9251179854    -0.8366021223
| 16>  H       -0.7570394829     1.9091217597     0.9358674029
| 17>  H       -1.9319077924    -0.3880062515    -0.8428567664
| 18>  H       -1.1970904237    -1.7204468257     0.0648561638
| 19>  H       -1.9356896995    -0.3542808602     0.9312953390
| 20>  H        2.3136155761    -1.3948999137    -1.7265106667
| 21>  H        3.9342805657     0.0540873542    -0.4566767803
| 22>  H        2.6972980576     1.3260973003    -0.6531439544
| 23>  H        2.9584409387     0.0291909820     2.0138716614
| 24>  H        1.9919044601    -2.4618380809     0.8402170022
| 25>  H        0.4988656447    -0.6124784616     2.0970928950
| 26> *
| 27>
| 28>                          ****END OF INPUT****

CARTESIAN COORDINATES (ANGSTROEM)
---------------------------------
  C     -0.210011    1.610204    0.035146
  C     -0.004119    0.092109    0.016101
  C     -1.350991   -0.637937    0.049852
  O      0.663577   -0.301281   -1.210035
  C      1.947774   -0.806923   -0.885592
  C      2.879402    0.304501   -0.306833
  C      2.416639   -0.124659    1.087670
  C      1.861472   -1.433495    0.532680
  C      0.924090   -0.427668    1.116808
  H      0.742333    2.143624    0.025591
  H     -0.791452    1.925118   -0.836602
  H     -0.757039    1.909122    0.935867
  H     -1.931908   -0.388006   -0.842857
  H     -1.197090   -1.720447    0.064856
  H     -1.935690   -0.354281    0.931295
  H      2.313616   -1.394900   -1.726511
  H      3.934281    0.054087   -0.456677
  H      2.697298    1.326097   -0.653144
  H      2.958441    0.029191    2.013872
  H      1.991904   -2.461838    0.840217
  H      0.498866   -0.612478    2.097093

 Total Charge           Charge          ....    0
 Multiplicity           Mult            ....    1
 Number of Electrons    NEL             ....   68
 Basis Dimension        Dim             ....  351

ORBITAL ENERGIES
----------------

  NO   OCC          E(Eh)            E(eV)
   0   2.0000     -20.541047      -558.9503
   1   2.0000     -11.282725      -307.0186
   2   2.0000     -11.279914      -306.9421
   3   2.0000     -11.238325      -305.8104
   4   2.0000     -11.233731      -305.6854
   5   2.0000     -11.228464      -305.5420
   6   2.0000     -11.222593      -305.3823
   7   2.0000     -11.208428      -304.9968
   8   2.0000     -11.208267      -304.9925
   9   2.0000      -1.373315       -37.3698
  10   2.0000      -1.179957       -32.1083
  11   2.0000      -1.063042       -28.9269
  12   2.0000      -0.965833       -26.2816
  13   2.0000      -0.931388       -25.3444
  14   2.0000      -0.877175       -23.8691
  15   2.0000      -0.825303       -22.4576
  16   2.0000      -0.775315       -21.0974
  17   2.0000      -0.720608       -19.6087
  18   2.0000      -0.696581       -18.9549
  19   2.0000      -0.636481       -17.3195
  20   2.0000      -0.619328       -16.8528
  21   2.0000      -0.595521       -16.2050
  22   2.0000      -0.578306       -15.7365
  23   2.0000      -0.559899       -15.2356
  24   2.0000      -0.544802       -14.8248
  25   2.0000      -0.537957       -14.6385
  26   2.0000      -0.525650       -14.3037
  27   2.0000      -0.513823       -13.9818
  28   2.0000      -0.494571       -13.4580
  29   2.0000      -0.470559       -12.8046
  30   2.0000      -0.446763       -12.1570
  31   2.0000      -0.418801       -11.3962
  32   2.0000      -0.385277       -10.4839
  33   2.0000      -0.379262       -10.3203
  34   0.0000       0.139860         3.8058
  35   0.0000       0.160934         4.3792
  36   0.0000       0.166422         4.5286
  37   0.0000       0.173825         4.7300
  38   0.0000       0.191767         5.2183

MULLIKEN ATOMIC CHARGES
-----------------------
   0 C :   -0.410698
   1 C :    0.234784
   2 C :   -0.413525
   3 O :   -0.316510
   4 C :    0.083913
   5 C :   -0.221820
   6 C :   -0.137902
   7 C :   -0.200256
   8 C :   -0.140377
   9 H :    0.128672
  10 H :    0.135966
  11 H :    0.122553
  12 H :    0.139089
  13 H :    0.133875
  14 H :    0.118979
  15 H :    0.120846
  16 H :    0.111663
  17 H :    0.110746
  18 H :    0.126624
  19 H :    0.143020
  20 H :    0.130359
Sum of atomic charges:    0.0000000

LOEWDIN ATOMIC CHARGES
----------------------
   0 C :   -0.265999
   1 C :   -0.348919
   2 C :   -0.267829
   3 O :    0.208446
   4 C :   -0.252524
   5 C :   -0.202951
   6 C :   -0.160905
   7 C :   -0.139441
   8 C :   -0.152211
   9 H :    0.124411
  10 H :    0.128307
  11 H :    0.127207
  12 H :    0.129157
  13 H :    0.127894
  14 H :    0.124516
  15 H :    0.134377
  16 H :    0.138191
  17 H :    0.122256
  18 H :    0.134819
  19 H :    0.134138
  20 H :    0.157059

  Mayer bond orders larger than 0.1
B(  0-C ,  1-C ) :   0.9169 B(  0-C ,  9-H ) :   0.9362 B(  0-C , 10-H ) :   0.9362
B(  0-C , 11-H ) :   0.9334 B(  1-C ,  2-C ) :   0.8828 B(  1-C ,  3-O ) :   0.8905
B(  1-C ,  8-C ) :   0.9170 B(  2-C , 12-H ) :   0.9375 B(  2-C , 13-H ) :   0.9439
B(  2-C , 14-H ) :   0.9318 B(  3-O ,  4-C ) :   0.9898 B(  4-C ,  5-C ) :   0.8892
B(  4-C ,  7-C ) :   0.9211 B(  4-C , 15-H ) :   0.9346 B(  5-C ,  6-C ) :   0.9653
B(  5-C , 16-H ) :   0.9176 B(  5-C , 17-H ) :   0.9231 B(  6-C ,  7-C ) :   0.8571
B(  6-C ,  8-C ) :   0.8693 B(  6-C , 18-H ) :   0.9333 B(  7-C ,  8-C ) :   0.8878
B(  7-C , 19-H ) :   0.9165 B(  8-C , 20-H ) :   0.9252

MP2 TOTAL ENERGY:     -386.397650723 Eh
FINAL SINGLE POINT ENERGY      -386.397650722802

DIPOLE MOMENT
-------------
                                X             Y             Z
Electronic contribution:      3.17156      -2.48380      -1.39977
Nuclear contribution   :     -2.96598       2.37105       1.97109
                        -----------------------------------------
Total Dipole Moment    :      0.20558      -0.11274       0.57132
                        -----------------------------------------
Magnitude (a.u.)       :      0.61756
Magnitude (Debye)      :      1.56971

                             ****ORCA TERMINATED NORMALLY****
TOTAL RUN TIME: 0 days 0 hours 22 minutes 24 seconds 494 msec
