                         Program Version 3.0.3 - RELEASE   -
|  1> ! RI-MP2 RIJK def2-TZVP def2-TZVP/C def2-TZVP/JK TIGHTSCF
|  2> % maxcore 2000
|  3> % mp2 density relaxed end
|  4> *xyz 0 1
|  5>  O       -0.0485024466     0.0375300042     0.4409882791
|  6>  C       -0.0845588710     1.2006172334     0.1077815670
|  7>  C       -1.2846583453     2.0576640227    -0.1406071781
|  8>  C       -0.9277659160     3.3470744873    -0.1387642575
|  9>  C        0.5627137923     3.4505358558    -0.0331226696
| 10>  C        1.3076370924     3.6900799705     1.3284526149
| 11>  C        1.9180113517     2.2742828585     1.1509423664
| 12>  N        1.0266568989     2.0488906108    -0.0241473613
| 13>  H       -2.2791903765     1.6417701856    -0.2252018814
| 14>  H       -1.5804166858     4.2037994724    -0.2571032989
| 15>  H        0.9883460223     4.0408260880    -0.8539472307
| 16>  H        2.0055730915     4.5280895870     1.3421469216
| 17>  H        0.6265716860     3.7675105198     2.1773238151
| 18>  H        2.9747823695     2.2619763424     0.8727796320
| 19>  H        1.7469875364     1.5520074916     1.9524287714
| 20> *
| 21>
| 22>                          ****END OF INPUT****

CARTESIAN COORDINATES (ANGSTROEM)
---------------------------------
  O     -0.048502    0.037530    0.440988
  C     -0.084559    1.200617    0.107782
  C     -1.284658    2.057664   -0.140607
  C     -0.927766    3.347074   -0.138764
  C      0.562714    3.450536   -0.033123
  C      1.307637    3.690080    1.328453
  C      1.918011    2.274283    1.150942
  N      1.026657    2.048891   -0.024147
  H     -2.279190    1.641770   -0.225202
  H     -1.580417    4.203799   -0.257103
  H      0.988346    4.040826   -0.853947
  H      2.005573    4.528090    1.342147
  H      0.626572    3.767511    2.177324
  H      2.974782    2.261976    0.872780
  H      1.746988    1.552007    1.952429

 Total Charge           Charge          ....    0
 Multiplicity           Mult            ....    1
 Number of Electrons    NEL             ....   58
 Basis Dimension        Dim             ....  290

ORBITAL ENERGIES
----------------

  NO   OCC          E(Eh)            E(eV)
   0   2.0000     -20.523579      -558.4750
   1   2.0000     -15.572703      -423.7548
   2   2.0000     -11.346583      -308.7562
   3   2.0000     -11.285670      -307.0987
   4   2.0000     -11.273823      -306.7763
   5   2.0000     -11.268499      -306.6315
   6   2.0000     -11.250360      -306.1379
   7   2.0000     -11.250187      -306.1332
   8   2.0000      -1.384012       -37.6609
   9   2.0000      -1.282999       -34.9122
  10   2.0000      -1.097036       -29.8519
  11   2.0000      -1.024399       -27.8753
  12   2.0000      -0.933901       -25.4127
  13   2.0000      -0.865330       -23.5468
  14   2.0000      -0.786616       -21.4049
  15   2.0000      -0.740792       -20.1580
  16   2.0000      -0.701316       -19.0838
  17   2.0000      -0.669333       -18.2135
  18   2.0000      -0.636094       -17.3090
  19   2.0000      -0.607660       -16.5353
  20   2.0000      -0.579219       -15.7614
  21   2.0000      -0.562912       -15.3176
  22   2.0000      -0.554385       -15.0856
  23   2.0000      -0.527870       -14.3641
  24   2.0000      -0.507679       -13.8147
  25   2.0000      -0.489927       -13.3316
  26   2.0000      -0.421271       -11.4634
  27   2.0000      -0.392050       -10.6682
  28   2.0000      -0.380329       -10.3493
  29   0.0000       0.096565         2.6277
  30   0.0000       0.141144         3.8407
  31   0.0000       0.153977         4.1899
  32   0.0000       0.168650         4.5892
  33   0.0000       0.174349         4.7443

MULLIKEN ATOMIC CHARGES
-----------------------
   0 O :   -0.327189
   1 C :    0.200607
   2 C :   -0.157144
   3 C :   -0.197987
   4 C :    0.027294
   5 C :   -0.237906
   6 C :   -0.159695
   7 N :   -0.090235
   8 H :    0.150969
   9 H :    0.143687
  10 H :    0.123754
  11 H :    0.130106
  12 H :    0.128329
  13 H :    0.126826
  14 H :    0.138582
Sum of atomic charges:    0.0000000

LOEWDIN ATOMIC CHARGES
----------------------
   0 O :    0.108101
   1 C :   -0.413128
   2 C :   -0.107589
   3 C :   -0.113010
   4 C :   -0.211117
   5 C :   -0.207126
   6 C :   -0.217565
   7 N :    0.194928
   8 H :    0.146968
   9 H :    0.142318
  10 H :    0.151318
  11 H :    0.129384
  12 H :    0.137136
  13 H :    0.127839
  14 H :    0.131542

  Mayer bond orders larger than 0.1
B(  0-O ,  1-C ) :   1.9784 B(  1-C ,  2-C ) :   0.9644 B(  1-C ,  7-N ) :   1.0516
B(  2-C ,  3-C ) :   1.7121 B(  2-C ,  8-H ) :   0.9178 B(  3-C ,  4-C ) :   0.9906
B(  3-C ,  9-H ) :   0.9171 B(  4-C ,  5-C ) :   0.9147 B(  4-C ,  7-N ) :   0.9390
B(  4-C , 10-H ) :   0.8902 B(  5-C ,  6-C ) :   0.9546 B(  5-C , 11-H ) :   0.9268
B(  5-C , 12-H ) :   0.9173 B(  6-C ,  7-N ) :   0.8726 B(  6-C , 13-H ) :   0.9228
B(  6-C , 14-H ) :   0.9258

MP2 TOTAL ENERGY:     -362.054133622 Eh
FINAL SINGLE POINT ENERGY      -362.054133621513

DIPOLE MOMENT
-------------
                                X             Y             Z
Electronic contribution:     -2.02291      -4.19313      -2.15465
Nuclear contribution   :      2.03514       5.92546       2.34569
                        -----------------------------------------
Total Dipole Moment    :      0.01224       1.73232       0.19105
                        -----------------------------------------
Magnitude (a.u.)       :      1.74287
Magnitude (Debye)      :      4.43002

                             ****ORCA TERMINATED NORMALLY****
TOTAL RUN TIME: 0 days 0 hours 12 minutes 29 seconds 727 msec
