                         Program Version 3.0.3 - RELEASE   -
|  1> ! RI-MP2 RIJK def2-TZVP def2-TZVP/C def2-TZVP/JK TIGHTSCF
|  2> % maxcore 2000
|  3> % mp2 density relaxed end
|  4> *xyz 0 1
|  5>  C       -0.0626477374     1.4654255152     0.2965257702
|  6>  O       -0.0007810818     0.0646654863     0.1042219213
|  7>  C       -1.2427509643    -0.5745331284     0.2830050514
|  8>  C       -1.0588828830    -2.0506575696     0.0635926078
|  9>  C       -2.1822034779    -2.9075676608    -0.3309212054
| 10>  O       -1.1825803121    -2.5300585785    -1.2761527162
| 11>  C        1.3194118057     2.0419091155     0.1698575966
| 12>  C        1.8833672092     2.3446185891    -1.1934707688
| 13>  C        1.4895584336     3.4734111479    -0.2748491832
| 14>  H       -0.7336515252     1.9245492409    -0.4506615403
| 15>  H       -0.4874555023     1.6898478023     1.2908732662
| 16>  H       -1.6267768481    -0.3969875153     1.3041628112
| 17>  H       -1.9956389460    -0.1938886384    -0.4269975248
| 18>  H       -0.2346541605    -2.4929491521     0.6237718906
| 19>  H       -2.1877716612    -3.9569176072    -0.0399039663
| 20>  H       -3.1664418531    -2.4675682289    -0.4903771704
| 21>  H        2.0199770910     1.6760309854     0.9146796774
| 22>  H        2.9380343005     2.1609371642    -1.3638278209
| 23>  H        1.2529697282     2.1437158953    -2.0530718447
| 24>  H        0.5969778544     4.0402730695    -0.5194914031
| 25>  H        2.2723313103     4.0623874074     0.1895267914
| 26> *
| 27>
| 28>                          ****END OF INPUT****

CARTESIAN COORDINATES (ANGSTROEM)
---------------------------------
  C     -0.062648    1.465426    0.296526
  O     -0.000781    0.064665    0.104222
  C     -1.242751   -0.574533    0.283005
  C     -1.058883   -2.050658    0.063593
  C     -2.182203   -2.907568   -0.330921
  O     -1.182580   -2.530059   -1.276153
  C      1.319412    2.041909    0.169858
  C      1.883367    2.344619   -1.193471
  C      1.489558    3.473411   -0.274849
  H     -0.733652    1.924549   -0.450662
  H     -0.487456    1.689848    1.290873
  H     -1.626777   -0.396988    1.304163
  H     -1.995639   -0.193889   -0.426998
  H     -0.234654   -2.492949    0.623772
  H     -2.187772   -3.956918   -0.039904
  H     -3.166442   -2.467568   -0.490377
  H      2.019977    1.676031    0.914680
  H      2.938034    2.160937   -1.363828
  H      1.252970    2.143716   -2.053072
  H      0.596978    4.040273   -0.519491
  H      2.272331    4.062387    0.189527

 Total Charge           Charge          ....    0
 Multiplicity           Mult            ....    1
 Number of Electrons    NEL             ....   70
 Basis Dimension        Dim             ....  351

ORBITAL ENERGIES
----------------

  NO   OCC          E(Eh)            E(eV)
   0   2.0000     -20.566473      -559.6422
   1   2.0000     -20.556777      -559.3783
   2   2.0000     -11.286019      -307.1082
   3   2.0000     -11.283681      -307.0446
   4   2.0000     -11.283258      -307.0330
   5   2.0000     -11.278700      -306.9090
   6   2.0000     -11.228913      -305.5542
   7   2.0000     -11.225710      -305.4671
   8   2.0000     -11.222020      -305.3667
   9   2.0000      -1.412537       -38.4371
  10   2.0000      -1.378553       -37.5123
  11   2.0000      -1.143231       -31.1089
  12   2.0000      -1.014621       -27.6092
  13   2.0000      -0.935344       -25.4520
  14   2.0000      -0.893351       -24.3093
  15   2.0000      -0.823395       -22.4057
  16   2.0000      -0.816200       -22.2099
  17   2.0000      -0.782368       -21.2893
  18   2.0000      -0.706402       -19.2222
  19   2.0000      -0.686038       -18.6680
  20   2.0000      -0.667053       -18.1514
  21   2.0000      -0.646774       -17.5996
  22   2.0000      -0.640218       -17.4212
  23   2.0000      -0.620013       -16.8714
  24   2.0000      -0.571652       -15.5554
  25   2.0000      -0.553921       -15.0729
  26   2.0000      -0.526099       -14.3159
  27   2.0000      -0.513416       -13.9708
  28   2.0000      -0.506596       -13.7852
  29   2.0000      -0.483305       -13.1514
  30   2.0000      -0.449299       -12.2260
  31   2.0000      -0.445091       -12.1116
  32   2.0000      -0.428829       -11.6690
  33   2.0000      -0.418705       -11.3935
  34   2.0000      -0.409389       -11.1401
  35   0.0000       0.144182         3.9234
  36   0.0000       0.162014         4.4086
  37   0.0000       0.162851         4.4314
  38   0.0000       0.173153         4.7117
  39   0.0000       0.180276         4.9056

MULLIKEN ATOMIC CHARGES
-----------------------
   0 C :   -0.109508
   1 O :   -0.277087
   2 C :   -0.078169
   3 C :    0.067742
   4 C :   -0.092481
   5 O :   -0.327195
   6 C :   -0.017581
   7 C :   -0.266945
   8 C :   -0.290458
   9 H :    0.093770
  10 H :    0.095826
  11 H :    0.092562
  12 H :    0.103122
  13 H :    0.127608
  14 H :    0.118095
  15 H :    0.116449
  16 H :    0.121164
  17 H :    0.130832
  18 H :    0.132863
  19 H :    0.128530
  20 H :    0.130862
Sum of atomic charges:   -0.0000000

LOEWDIN ATOMIC CHARGES
----------------------
   0 C :   -0.309765
   1 O :    0.169132
   2 C :   -0.319193
   3 C :   -0.291743
   4 C :   -0.269344
   5 O :    0.149127
   6 C :   -0.232877
   7 C :   -0.223942
   8 C :   -0.229768
   9 H :    0.124919
  10 H :    0.122318
  11 H :    0.124678
  12 H :    0.128754
  13 H :    0.140518
  14 H :    0.119419
  15 H :    0.119729
  16 H :    0.148504
  17 H :    0.131927
  18 H :    0.135109
  19 H :    0.131603
  20 H :    0.130894

  Mayer bond orders larger than 0.1
B(  0-C ,  1-O ) :   0.9469 B(  0-C ,  6-C ) :   0.9599 B(  0-C ,  9-H ) :   0.9136
B(  0-C , 10-H ) :   0.9246 B(  1-O ,  2-C ) :   0.9340 B(  2-C ,  3-C ) :   0.9358
B(  2-C , 11-H ) :   0.9118 B(  2-C , 12-H ) :   0.9214 B(  3-C ,  4-C ) :   0.9644
B(  3-C ,  5-O ) :   0.8989 B(  3-C , 13-H ) :   0.9202 B(  4-C ,  5-O ) :   0.9121
B(  4-C , 14-H ) :   0.9175 B(  4-C , 15-H ) :   0.9130 B(  6-C ,  7-C ) :   0.8787
B(  6-C ,  8-C ) :   0.8705 B(  6-C , 16-H ) :   0.9273 B(  7-C ,  8-C ) :   0.9035
B(  7-C , 17-H ) :   0.9309 B(  7-C , 18-H ) :   0.9306 B(  8-C , 19-H ) :   0.9285
B(  8-C , 20-H ) :   0.9297

MP2 TOTAL ENERGY:     -423.460742474 Eh
FINAL SINGLE POINT ENERGY      -423.460742473711

DIPOLE MOMENT
-------------
                                X             Y             Z
Electronic contribution:     -0.88922      -6.05657      -1.04274
Nuclear contribution   :      0.34709       6.38166       1.80964
                        -----------------------------------------
Total Dipole Moment    :     -0.54214       0.32509       0.76690
                        -----------------------------------------
Magnitude (a.u.)       :      0.99385
Magnitude (Debye)      :      2.52616

                             ****ORCA TERMINATED NORMALLY****
TOTAL RUN TIME: 0 days 0 hours 13 minutes 50 seconds 466 msec
