                         Program Version 3.0.3 - RELEASE   -
|  1> ! RI-MP2 RIJK def2-TZVP def2-TZVP/C def2-TZVP/JK TIGHTSCF
|  2> % maxcore 2000
|  3> % mp2 density relaxed end
|  4> *xyz 0 1
|  5>  C       -0.2038662268     1.5506009987    -0.0944616607
|  6>  C        0.0472124029     0.0495791159    -0.0196375852
|  7>  C        0.9402748537    -0.5058745105    -1.1512342150
|  8>  N        1.4313890894    -1.7467693949    -0.5808294652
|  9>  C        1.3849300461    -1.8191479164     0.7822542060
| 10>  O        1.7683578213    -2.7318564930     1.4734029250
| 11>  C        0.7485187252    -0.4811269562     1.2642755788
| 12>  C        1.7982038664     0.3909611699     1.7756693423
| 13>  C        2.6741085190     1.1083673761     2.1803730586
| 14>  H        0.7290082395     2.1124092177     0.0027421525
| 15>  H       -0.6686758662     1.8152857506    -1.0502579236
| 16>  H       -0.8761375998     1.8770270873     0.7047961981
| 17>  H       -0.9112429357    -0.4793726942    -0.0798043472
| 18>  H        0.3716240672    -0.6844323232    -2.0692625646
| 19>  H        1.7588287523     0.1895526011    -1.3870431780
| 20>  H        1.9213404858    -2.4527204790    -1.1070235426
| 21>  H        0.0329307602    -0.7002712111     2.0618944268
| 22>  H        3.4471117296     1.7317616312     2.5565978039
| 23> *
| 24>
| 25>                          ****END OF INPUT****

CARTESIAN COORDINATES (ANGSTROEM)
---------------------------------
  C     -0.203866    1.550601   -0.094462
  C      0.047212    0.049579   -0.019638
  C      0.940275   -0.505875   -1.151234
  N      1.431389   -1.746769   -0.580829
  C      1.384930   -1.819148    0.782254
  O      1.768358   -2.731856    1.473403
  C      0.748519   -0.481127    1.264276
  C      1.798204    0.390961    1.775669
  C      2.674109    1.108367    2.180373
  H      0.729008    2.112409    0.002742
  H     -0.668676    1.815286   -1.050258
  H     -0.876138    1.877027    0.704796
  H     -0.911243   -0.479373   -0.079804
  H      0.371624   -0.684432   -2.069263
  H      1.758829    0.189553   -1.387043
  H      1.921340   -2.452720   -1.107024
  H      0.032931   -0.700271    2.061894
  H      3.447112    1.731762    2.556598

 Total Charge           Charge          ....    0
 Multiplicity           Mult            ....    1
 Number of Electrons    NEL             ....   66
 Basis Dimension        Dim             ....  333

ORBITAL ENERGIES
----------------

  NO   OCC          E(Eh)            E(eV)
   0   2.0000     -20.520245      -558.3843
   1   2.0000     -15.586427      -424.1282
   2   2.0000     -11.353030      -308.9317
   3   2.0000     -11.279296      -306.9253
   4   2.0000     -11.272987      -306.7536
   5   2.0000     -11.258376      -306.3560
   6   2.0000     -11.242102      -305.9131
   7   2.0000     -11.229938      -305.5822
   8   2.0000     -11.229080      -305.5588
   9   2.0000      -1.386057       -37.7165
  10   2.0000      -1.256895       -34.2018
  11   2.0000      -1.108625       -30.1672
  12   2.0000      -1.040315       -28.3084
  13   2.0000      -0.980972       -26.6936
  14   2.0000      -0.941144       -25.6098
  15   2.0000      -0.827569       -22.5193
  16   2.0000      -0.796121       -21.6636
  17   2.0000      -0.727817       -19.8049
  18   2.0000      -0.692096       -18.8329
  19   2.0000      -0.687655       -18.7120
  20   2.0000      -0.634700       -17.2711
  21   2.0000      -0.625680       -17.0256
  22   2.0000      -0.603271       -16.4158
  23   2.0000      -0.598808       -16.2944
  24   2.0000      -0.572496       -15.5784
  25   2.0000      -0.536481       -14.5984
  26   2.0000      -0.532904       -14.5011
  27   2.0000      -0.498404       -13.5623
  28   2.0000      -0.492668       -13.4062
  29   2.0000      -0.435570       -11.8525
  30   2.0000      -0.398764       -10.8509
  31   2.0000      -0.393624       -10.7110
  32   2.0000      -0.380647       -10.3579
  33   0.0000       0.120989         3.2923
  34   0.0000       0.144356         3.9281
  35   0.0000       0.151667         4.1271
  36   0.0000       0.159117         4.3298
  37   0.0000       0.161892         4.4053

MULLIKEN ATOMIC CHARGES
-----------------------
   0 C :   -0.404545
   1 C :   -0.076154
   2 C :   -0.124074
   3 N :   -0.311221
   4 C :    0.202646
   5 O :   -0.322667
   6 C :   -0.040419
   7 C :   -0.115983
   8 C :   -0.154071
   9 H :    0.145776
  10 H :    0.135214
  11 H :    0.140819
  12 H :    0.105593
  13 H :    0.130632
  14 H :    0.119936
  15 H :    0.239328
  16 H :    0.138437
  17 H :    0.190753
Sum of atomic charges:    0.0000000

LOEWDIN ATOMIC CHARGES
----------------------
   0 C :   -0.286297
   1 C :   -0.234342
   2 C :   -0.243442
   3 N :    0.124953
   4 C :   -0.416133
   5 O :    0.101195
   6 C :   -0.175143
   7 C :   -0.080426
   8 C :   -0.090358
   9 H :    0.131169
  10 H :    0.126615
  11 H :    0.129711
  12 H :    0.159111
  13 H :    0.131805
  14 H :    0.132535
  15 H :    0.184546
  16 H :    0.176661
  17 H :    0.127837

  Mayer bond orders larger than 0.1
B(  0-C ,  1-C ) :   0.9144 B(  0-C ,  9-H ) :   0.9260 B(  0-C , 10-H ) :   0.9371
B(  0-C , 11-H ) :   0.9389 B(  1-C ,  2-C ) :   0.9412 B(  1-C ,  6-C ) :   0.8752
B(  1-C , 12-H ) :   0.9255 B(  2-C ,  3-N ) :   0.8943 B(  2-C , 13-H ) :   0.9266
B(  2-C , 14-H ) :   0.9206 B(  3-N ,  4-C ) :   1.1909 B(  3-N , 15-H ) :   0.8646
B(  4-C ,  5-O ) :   2.0301 B(  4-C ,  6-C ) :   0.8193 B(  6-C ,  7-C ) :   1.1364
B(  6-C , 16-H ) :   0.9035 B(  7-C ,  8-C ) :   2.5639 B(  8-C , 17-H ) :   0.8989

MP2 TOTAL ENERGY:     -401.267377321 Eh
FINAL SINGLE POINT ENERGY      -401.267377321256

DIPOLE MOMENT
-------------
                                X             Y             Z
Electronic contribution:      3.87935      -6.41529       4.05341
Nuclear contribution   :     -4.34412       7.35540      -5.27195
                        -----------------------------------------
Total Dipole Moment    :     -0.46477       0.94012      -1.21854
                        -----------------------------------------
Magnitude (a.u.)       :      1.60769
Magnitude (Debye)      :      4.08642

                             ****ORCA TERMINATED NORMALLY****
TOTAL RUN TIME: 0 days 0 hours 18 minutes 28 seconds 175 msec
