                         Program Version 3.0.3 - RELEASE   -
|  1> ! RI-MP2 RIJK def2-TZVP def2-TZVP/C def2-TZVP/JK TIGHTSCF
|  2> % maxcore 2000
|  3> % mp2 density relaxed end
|  4> *xyz 0 1
|  5>  C       -0.4653324635     1.4787305549    -0.1143451337
|  6>  C        0.0823361594     0.0590886944    -0.0679311827
|  7>  C        1.5442942554    -0.2030009671    -0.4880922130
|  8>  O        1.7959331966    -0.9748108321     0.7084857180
|  9>  C        0.5262159616    -0.5844331051     1.2781488309
| 10>  C        0.7137336365     0.3070114037     2.4894491371
| 11>  C        1.7169084207    -0.2138771551     3.5468661619
| 12>  C        2.5462501349     1.0261313220     3.1640139939
| 13>  O        1.5445445597     1.4620600601     2.2188781088
| 14>  H        0.1912285635     2.1761261568     0.4097704420
| 15>  H       -0.5678655186     1.8114134156    -1.1533070337
| 16>  H       -1.4598780164     1.5332430145     0.3423510329
| 17>  H       -0.5968930362    -0.6179834114    -0.5944280053
| 18>  H        1.7036251978    -0.7959171086    -1.3958767464
| 19>  H        2.1687764303     0.6980423653    -0.5228768372
| 20>  H       -0.0588602595    -1.4625988177     1.5904116929
| 21>  H       -0.2680997177     0.6066653133     2.8831756135
| 22>  H        1.3444079420    -0.2338304318     4.5716167211
| 23>  H        2.1770281737    -1.1703231020     3.2981940952
| 24>  H        2.6995891789     1.7656064400     3.9589580039
| 25>  H        3.5020137710     0.8178463302     2.6712095598
| 26> *
| 27>
| 28>                          ****END OF INPUT****

CARTESIAN COORDINATES (ANGSTROEM)
---------------------------------
  C     -0.465332    1.478731   -0.114345
  C      0.082336    0.059089   -0.067931
  C      1.544294   -0.203001   -0.488092
  O      1.795933   -0.974811    0.708486
  C      0.526216   -0.584433    1.278149
  C      0.713734    0.307011    2.489449
  C      1.716908   -0.213877    3.546866
  C      2.546250    1.026131    3.164014
  O      1.544545    1.462060    2.218878
  H      0.191229    2.176126    0.409770
  H     -0.567866    1.811413   -1.153307
  H     -1.459878    1.533243    0.342351
  H     -0.596893   -0.617983   -0.594428
  H      1.703625   -0.795917   -1.395877
  H      2.168776    0.698042   -0.522877
  H     -0.058860   -1.462599    1.590412
  H     -0.268100    0.606665    2.883176
  H      1.344408   -0.233830    4.571617
  H      2.177028   -1.170323    3.298194
  H      2.699589    1.765606    3.958958
  H      3.502014    0.817846    2.671210

 Total Charge           Charge          ....    0
 Multiplicity           Mult            ....    1
 Number of Electrons    NEL             ....   70
 Basis Dimension        Dim             ....  351

ORBITAL ENERGIES
----------------

  NO   OCC          E(Eh)            E(eV)
   0   2.0000     -20.543892      -559.0277
   1   2.0000     -20.542248      -558.9830
   2   2.0000     -11.281473      -306.9845
   3   2.0000     -11.278626      -306.9070
   4   2.0000     -11.273509      -306.7678
   5   2.0000     -11.268786      -306.6392
   6   2.0000     -11.231993      -305.6381
   7   2.0000     -11.225642      -305.4653
   8   2.0000     -11.211283      -305.0745
   9   2.0000      -1.384999       -37.6877
  10   2.0000      -1.361981       -37.0614
  11   2.0000      -1.050088       -28.5744
  12   2.0000      -1.020883       -27.7796
  13   2.0000      -0.972855       -26.4727
  14   2.0000      -0.907551       -24.6957
  15   2.0000      -0.878918       -23.9166
  16   2.0000      -0.780418       -21.2362
  17   2.0000      -0.724770       -19.7220
  18   2.0000      -0.697279       -18.9739
  19   2.0000      -0.677154       -18.4263
  20   2.0000      -0.656832       -17.8733
  21   2.0000      -0.618601       -16.8330
  22   2.0000      -0.597016       -16.2456
  23   2.0000      -0.587169       -15.9777
  24   2.0000      -0.565592       -15.3905
  25   2.0000      -0.550499       -14.9798
  26   2.0000      -0.541940       -14.7469
  27   2.0000      -0.534500       -14.5445
  28   2.0000      -0.501212       -13.6387
  29   2.0000      -0.480966       -13.0877
  30   2.0000      -0.460437       -12.5291
  31   2.0000      -0.448146       -12.1947
  32   2.0000      -0.428779       -11.6677
  33   2.0000      -0.427021       -11.6198
  34   2.0000      -0.393140       -10.6979
  35   0.0000       0.137748         3.7483
  36   0.0000       0.154618         4.2074
  37   0.0000       0.165325         4.4987
  38   0.0000       0.170043         4.6271
  39   0.0000       0.191507         5.2112

MULLIKEN ATOMIC CHARGES
-----------------------
   0 C :   -0.433042
   1 C :   -0.082491
   2 C :   -0.030517
   3 O :   -0.355557
   4 C :    0.069711
   5 C :    0.142884
   6 C :   -0.300618
   7 C :   -0.013865
   8 O :   -0.362408
   9 H :    0.163503
  10 H :    0.131730
  11 H :    0.123405
  12 H :    0.102346
  13 H :    0.099589
  14 H :    0.094260
  15 H :    0.098135
  16 H :    0.089290
  17 H :    0.126298
  18 H :    0.138963
  19 H :    0.097909
  20 H :    0.100474
Sum of atomic charges:    0.0000000

LOEWDIN ATOMIC CHARGES
----------------------
   0 C :   -0.301135
   1 C :   -0.239614
   2 C :   -0.248514
   3 O :    0.136997
   4 C :   -0.256273
   5 C :   -0.269133
   6 C :   -0.223500
   7 C :   -0.270413
   8 O :    0.130829
   9 H :    0.131316
  10 H :    0.125178
  11 H :    0.123991
  12 H :    0.147843
  13 H :    0.113700
  14 H :    0.120597
  15 H :    0.140036
  16 H :    0.138476
  17 H :    0.128842
  18 H :    0.138209
  19 H :    0.114143
  20 H :    0.118426

  Mayer bond orders larger than 0.1
B(  0-C ,  1-C ) :   0.9074 B(  0-C ,  9-H ) :   0.9305 B(  0-C , 10-H ) :   0.9324
B(  0-C , 11-H ) :   0.9341 B(  1-C ,  2-C ) :   0.9813 B(  1-C ,  4-C ) :   0.9255
B(  1-C , 12-H ) :   0.9295 B(  2-C ,  3-O ) :   0.9365 B(  2-C , 13-H ) :   0.9106
B(  2-C , 14-H ) :   0.9119 B(  3-O ,  4-C ) :   0.9140 B(  4-C ,  5-C ) :   0.9536
B(  4-C , 15-H ) :   0.9069 B(  5-C ,  6-C ) :   0.8942 B(  5-C ,  8-O ) :   0.8995
B(  5-C , 16-H ) :   0.9048 B(  6-C ,  7-C ) :   0.9914 B(  6-C , 17-H ) :   0.9273
B(  6-C , 18-H ) :   0.9188 B(  7-C ,  8-O ) :   0.9288 B(  7-C , 19-H ) :   0.9156
B(  7-C , 20-H ) :   0.9209

MP2 TOTAL ENERGY:     -423.480159085 Eh
FINAL SINGLE POINT ENERGY      -423.480159085113

DIPOLE MOMENT
-------------
                                X             Y             Z
Electronic contribution:      2.07628      -1.80663       1.01247
Nuclear contribution   :     -2.50341       1.69899      -0.81539
                        -----------------------------------------
Total Dipole Moment    :     -0.42713      -0.10763       0.19708
                        -----------------------------------------
Magnitude (a.u.)       :      0.48256
Magnitude (Debye)      :      1.22658

                             ****ORCA TERMINATED NORMALLY****
TOTAL RUN TIME: 0 days 0 hours 18 minutes 20 seconds 990 msec
