                         Program Version 3.0.3 - RELEASE   -
|  1> ! RI-MP2 RIJK def2-TZVP def2-TZVP/C def2-TZVP/JK TIGHTSCF
|  2> % maxcore 2000
|  3> % mp2 density relaxed end
|  4> *xyz 0 1
|  5>  O       -0.1714893300     1.2538424443     0.0118245356
|  6>  C        0.0433540760    -0.0550541940     0.0026825425
|  7>  N        1.1786085742    -0.6838497052    -0.0069859844
|  8>  C        0.7981998107    -2.0167594635    -0.0133816800
|  9>  C       -0.5590117762    -2.1195443484    -0.0067952758
| 10>  O       -1.0554340638    -0.8119261533     0.0036320731
| 11>  C       -1.4661555040    -3.1848698786    -0.0086163168
| 12>  C       -2.2360636356    -4.1117066004    -0.0103249950
| 13>  H        0.6958407721     1.6799190563     0.0102324231
| 14>  H        1.5205366380    -2.8168069016    -0.0220941449
| 15>  H       -2.9144157015    -4.9285275057    -0.0118487275
| 16> *
| 17>
| 18>                          ****END OF INPUT****

CARTESIAN COORDINATES (ANGSTROEM)
---------------------------------
  O     -0.171489    1.253842    0.011825
  C      0.043354   -0.055054    0.002683
  N      1.178609   -0.683850   -0.006986
  C      0.798200   -2.016759   -0.013382
  C     -0.559012   -2.119544   -0.006795
  O     -1.055434   -0.811926    0.003632
  C     -1.466156   -3.184870   -0.008616
  C     -2.236064   -4.111707   -0.010325
  H      0.695841    1.679919    0.010232
  H      1.520537   -2.816807   -0.022094
  H     -2.914416   -4.928528   -0.011849

 Total Charge           Charge          ....    0
 Multiplicity           Mult            ....    1
 Number of Electrons    NEL             ....   56
 Basis Dimension        Dim             ....  266

ORBITAL ENERGIES
----------------

  NO   OCC          E(Eh)            E(eV)
   0   2.0000     -20.652185      -561.9745
   1   2.0000     -20.638029      -561.5893
   2   2.0000     -15.571179      -423.7133
   3   2.0000     -11.417025      -310.6730
   4   2.0000     -11.317770      -307.9722
   5   2.0000     -11.288627      -307.1792
   6   2.0000     -11.253897      -306.2341
   7   2.0000     -11.246202      -306.0247
   8   2.0000      -1.527193       -41.5570
   9   2.0000      -1.442773       -39.2598
  10   2.0000      -1.252262       -34.0758
  11   2.0000      -1.089125       -29.6366
  12   2.0000      -1.009540       -27.4710
  13   2.0000      -0.886808       -24.1313
  14   2.0000      -0.861842       -23.4519
  15   2.0000      -0.789350       -21.4793
  16   2.0000      -0.738358       -20.0917
  17   2.0000      -0.706585       -19.2272
  18   2.0000      -0.700002       -19.0480
  19   2.0000      -0.689132       -18.7522
  20   2.0000      -0.603416       -16.4198
  21   2.0000      -0.595992       -16.2178
  22   2.0000      -0.593369       -16.1464
  23   2.0000      -0.486937       -13.2502
  24   2.0000      -0.475258       -12.9324
  25   2.0000      -0.451963       -12.2985
  26   2.0000      -0.415378       -11.3030
  27   2.0000      -0.319645        -8.6980
  28   0.0000       0.103146         2.8067
  29   0.0000       0.126079         3.4308
  30   0.0000       0.157049         4.2735
  31   0.0000       0.158943         4.3251
  32   0.0000       0.176984         4.8160

MULLIKEN ATOMIC CHARGES
-----------------------
   0 O :   -0.394904
   1 C :    0.382142
   2 N :   -0.314285
   3 C :   -0.108082
   4 C :   -0.016747
   5 O :   -0.197131
   6 C :    0.055064
   7 C :   -0.119511
   8 H :    0.361186
   9 H :    0.150569
  10 H :    0.201699
Sum of atomic charges:    0.0000000

LOEWDIN ATOMIC CHARGES
----------------------
   0 O :    0.116557
   1 C :   -0.510720
   2 N :    0.084875
   3 C :   -0.196119
   4 C :   -0.233989
   5 O :    0.378479
   6 C :   -0.081519
   7 C :   -0.049225
   8 H :    0.216897
   9 H :    0.143503
  10 H :    0.131262

  Mayer bond orders larger than 0.1
B(  0-O ,  1-C ) :   1.1482 B(  0-O ,  8-H ) :   0.8063 B(  1-C ,  2-N ) :   1.6052
B(  1-C ,  5-O ) :   1.1516 B(  2-N ,  3-C ) :   1.1881 B(  3-C ,  4-C ) :   1.5470
B(  3-C ,  9-H ) :   0.9272 B(  4-C ,  5-O ) :   0.9668 B(  4-C ,  6-C ) :   1.1874
B(  4-C ,  7-C ) :  -0.1457 B(  6-C ,  7-C ) :   2.6112 B(  7-C , 10-H ) :   0.8732

MP2 TOTAL ENERGY:     -396.739916192 Eh
FINAL SINGLE POINT ENERGY      -396.739916191991

DIPOLE MOMENT
-------------
                                X             Y             Z
Electronic contribution:     -0.40911       1.73182       0.01275
Nuclear contribution   :      0.50634      -1.85791      -0.01390
                        -----------------------------------------
Total Dipole Moment    :      0.09723      -0.12609      -0.00115
                        -----------------------------------------
Magnitude (a.u.)       :      0.15923
Magnitude (Debye)      :      0.40473

                             ****ORCA TERMINATED NORMALLY****
TOTAL RUN TIME: 0 days 0 hours 8 minutes 44 seconds 84 msec
