                         Program Version 3.0.3 - RELEASE   -
|  1> ! RI-MP2 RIJK def2-TZVP def2-TZVP/C def2-TZVP/JK TIGHTSCF
|  2> % maxcore 2000
|  3> % mp2 density relaxed end
|  4> *xyz 0 1
|  5>  C       -0.0114589331     1.4410941853    -0.0104160714
|  6>  N       -0.0466896252    -0.0027623941    -0.0006949886
|  7>  C        0.0518361529    -0.8062119146    -1.1213412273
|  8>  C        0.1048494191    -2.1117348541    -0.6851721949
|  9>  O        0.1845575648    -3.2673987507    -1.4140793492
| 10>  C        0.0435823084    -2.1128487878     0.7343427212
| 11>  C        0.0508166509    -3.3143747926     1.6228015525
| 12>  O        0.0890125604    -2.8764270437     2.9753811018
| 13>  C       -0.0446572995    -0.7921750225     1.1170558580
| 14>  H        0.9999067088     1.8275760207    -0.1888304183
| 15>  H       -0.6741876164     1.8325729302    -0.7885849357
| 16>  H       -0.3598293686     1.8143866162     0.9549574740
| 17>  H        0.0721687538    -0.3850917999    -2.1139142826
| 18>  H        0.2272343060    -3.0438374375    -2.3483979315
| 19>  H       -0.8436536560    -3.9324332619     1.4349608672
| 20>  H        0.9198985553    -3.9506069836     1.3857672909
| 21>  H        0.0426072958    -3.6545517679     3.5373402388
| 22>  H       -0.1001060974    -0.3654334016     2.1044826851
| 23> *
| 24>
| 25>                          ****END OF INPUT****

CARTESIAN COORDINATES (ANGSTROEM)
---------------------------------
  C     -0.011459    1.441094   -0.010416
  N     -0.046690   -0.002762   -0.000695
  C      0.051836   -0.806212   -1.121341
  C      0.104849   -2.111735   -0.685172
  O      0.184558   -3.267399   -1.414079
  C      0.043582   -2.112849    0.734343
  C      0.050817   -3.314375    1.622802
  O      0.089013   -2.876427    2.975381
  C     -0.044657   -0.792175    1.117056
  H      0.999907    1.827576   -0.188830
  H     -0.674188    1.832573   -0.788585
  H     -0.359829    1.814387    0.954957
  H      0.072169   -0.385092   -2.113914
  H      0.227234   -3.043837   -2.348398
  H     -0.843654   -3.932433    1.434961
  H      0.919899   -3.950607    1.385767
  H      0.042607   -3.654552    3.537340
  H     -0.100106   -0.365433    2.104483

 Total Charge           Charge          ....    0
 Multiplicity           Mult            ....    1
 Number of Electrons    NEL             ....   68
 Basis Dimension        Dim             ....  333

ORBITAL ENERGIES
----------------

  NO   OCC          E(Eh)            E(eV)
   0   2.0000     -20.575531      -559.8887
   1   2.0000     -20.549853      -559.1899
   2   2.0000     -15.595420      -424.3730
   3   2.0000     -11.272271      -306.7341
   4   2.0000     -11.269938      -306.6706
   5   2.0000     -11.267976      -306.6172
   6   2.0000     -11.243131      -305.9412
   7   2.0000     -11.234874      -305.7165
   8   2.0000     -11.202630      -304.8391
   9   2.0000      -1.387855       -37.7654
  10   2.0000      -1.353658       -36.8349
  11   2.0000      -1.290228       -35.1089
  12   2.0000      -1.075144       -29.2562
  13   2.0000      -0.985673       -26.8215
  14   2.0000      -0.947093       -25.7717
  15   2.0000      -0.884465       -24.0675
  16   2.0000      -0.788908       -21.4673
  17   2.0000      -0.747345       -20.3363
  18   2.0000      -0.716594       -19.4995
  19   2.0000      -0.677766       -18.4430
  20   2.0000      -0.648653       -17.6507
  21   2.0000      -0.636078       -17.3086
  22   2.0000      -0.617409       -16.8005
  23   2.0000      -0.600320       -16.3355
  24   2.0000      -0.574296       -15.6274
  25   2.0000      -0.572303       -15.5732
  26   2.0000      -0.569887       -15.5074
  27   2.0000      -0.543824       -14.7982
  28   2.0000      -0.509887       -13.8747
  29   2.0000      -0.499668       -13.5967
  30   2.0000      -0.492129       -13.3915
  31   2.0000      -0.446839       -12.1591
  32   2.0000      -0.307966        -8.3802
  33   2.0000      -0.286038        -7.7835
  34   0.0000       0.136851         3.7239
  35   0.0000       0.144492         3.9318
  36   0.0000       0.146522         3.9871
  37   0.0000       0.163257         4.4424
  38   0.0000       0.187592         5.1046

MULLIKEN ATOMIC CHARGES
-----------------------
   0 C :   -0.321422
   1 N :   -0.002047
   2 C :   -0.212990
   3 C :    0.118193
   4 O :   -0.450442
   5 C :   -0.005804
   6 C :   -0.086474
   7 O :   -0.472749
   8 C :   -0.150018
   9 H :    0.145353
  10 H :    0.144730
  11 H :    0.149342
  12 H :    0.132935
  13 H :    0.326641
  14 H :    0.106662
  15 H :    0.109822
  16 H :    0.313381
  17 H :    0.154887
Sum of atomic charges:    0.0000000

LOEWDIN ATOMIC CHARGES
----------------------
   0 C :   -0.277198
   1 N :    0.221126
   2 C :   -0.235955
   3 C :   -0.292474
   4 O :    0.049876
   5 C :   -0.177491
   6 C :   -0.301632
   7 O :   -0.045759
   8 C :   -0.192236
   9 H :    0.119715
  10 H :    0.123028
  11 H :    0.127971
  12 H :    0.131087
  13 H :    0.189517
  14 H :    0.123723
  15 H :    0.124774
  16 H :    0.171460
  17 H :    0.140471

  Mayer bond orders larger than 0.1
B(  0-C ,  1-N ) :   0.8720 B(  0-C ,  9-H ) :   0.9256 B(  0-C , 10-H ) :   0.9331
B(  0-C , 11-H ) :   0.9353 B(  1-N ,  2-C ) :   1.0866 B(  1-N ,  8-C ) :   1.1700
B(  2-C ,  3-C ) :   1.4199 B(  2-C , 12-H ) :   0.9192 B(  3-C ,  4-O ) :   1.0957
B(  3-C ,  5-C ) :   1.2514 B(  4-O , 13-H ) :   0.8382 B(  5-C ,  6-C ) :   0.9097
B(  5-C ,  7-O ) :  -0.1280 B(  5-C ,  8-C ) :   1.4661 B(  6-C ,  7-O ) :   1.0413
B(  6-C , 14-H ) :   0.9316 B(  6-C , 15-H ) :   0.9352 B(  7-O , 16-H ) :   0.8505
B(  8-C , 17-H ) :   0.8950

MP2 TOTAL ENERGY:     -438.382581311 Eh
FINAL SINGLE POINT ENERGY      -438.382581311064

DIPOLE MOMENT
-------------
                                X             Y             Z
Electronic contribution:      0.10535      -3.53172      -0.96552
Nuclear contribution   :     -0.15325       4.04568       0.49502
                        -----------------------------------------
Total Dipole Moment    :     -0.04790       0.51395      -0.47050
                        -----------------------------------------
Magnitude (a.u.)       :      0.69844
Magnitude (Debye)      :      1.77529

                             ****ORCA TERMINATED NORMALLY****
TOTAL RUN TIME: 0 days 0 hours 16 minutes 47 seconds 442 msec
