                         Program Version 3.0.3 - RELEASE   -
|  1> ! RI-MP2 RIJK def2-TZVP def2-TZVP/C def2-TZVP/JK TIGHTSCF
|  2> % maxcore 2000
|  3> % mp2 density relaxed end
|  4> *xyz 0 1
|  5>  O       -0.0399401786     1.4406618932     0.0868668567
|  6>  C        1.3918328916     1.4696827150    -0.0430727658
|  7>  C        2.0414785687     0.7987888888     1.2403491579
|  8>  O        0.9962210114     0.4016493185     2.1125297829
|  9>  C        0.4014242641    -0.6350743063     1.3481629569
| 10>  O        1.4778942171    -1.5080332073     1.0501540667
| 11>  C        2.3020645888    -0.5370368929     0.4142541133
| 12>  C        1.4450642038     0.0753440623    -0.7093014101
| 13>  C        0.0319262119    -0.0000991403    -0.0422034870
| 14>  H        1.7844349291     2.4116613393    -0.4251915386
| 15>  H        2.8318113794     1.3055549322     1.7898747177
| 16>  H       -0.3769419090    -1.1359172868     1.9189690301
| 17>  H        3.3077753307    -0.9106375230     0.2441156596
| 18>  H        1.5687729022    -0.1449903400    -1.7667939434
| 19>  H       -0.8291242011    -0.4364866126    -0.5480122069
| 20> *
| 21>
| 22>                          ****END OF INPUT****

CARTESIAN COORDINATES (ANGSTROEM)
---------------------------------
  O     -0.039940    1.440662    0.086867
  C      1.391833    1.469683   -0.043073
  C      2.041479    0.798789    1.240349
  O      0.996221    0.401649    2.112530
  C      0.401424   -0.635074    1.348163
  O      1.477894   -1.508033    1.050154
  C      2.302065   -0.537037    0.414254
  C      1.445064    0.075344   -0.709301
  C      0.031926   -0.000099   -0.042203
  H      1.784435    2.411661   -0.425192
  H      2.831811    1.305555    1.789875
  H     -0.376942   -1.135917    1.918969
  H      3.307775   -0.910638    0.244116
  H      1.568773   -0.144990   -1.766794
  H     -0.829124   -0.436487   -0.548012

 Total Charge           Charge          ....    0
 Multiplicity           Mult            ....    1
 Number of Electrons    NEL             ....   66
 Basis Dimension        Dim             ....  315

ORBITAL ENERGIES
----------------

  NO   OCC          E(Eh)            E(eV)
   0   2.0000     -20.575397      -559.8850
   1   2.0000     -20.571975      -559.7919
   2   2.0000     -20.561395      -559.5040
   3   2.0000     -11.342914      -308.6564
   4   2.0000     -11.302211      -307.5488
   5   2.0000     -11.298420      -307.4456
   6   2.0000     -11.297530      -307.4214
   7   2.0000     -11.296903      -307.4044
   8   2.0000     -11.248583      -306.0895
   9   2.0000      -1.470573       -40.0163
  10   2.0000      -1.389468       -37.8094
  11   2.0000      -1.343264       -36.5521
  12   2.0000      -1.110965       -30.2309
  13   2.0000      -1.012476       -27.5509
  14   2.0000      -0.904008       -24.5993
  15   2.0000      -0.868247       -23.6262
  16   2.0000      -0.830542       -22.6002
  17   2.0000      -0.761233       -20.7142
  18   2.0000      -0.741757       -20.1842
  19   2.0000      -0.698938       -19.0191
  20   2.0000      -0.683860       -18.6088
  21   2.0000      -0.637342       -17.3430
  22   2.0000      -0.622154       -16.9297
  23   2.0000      -0.602361       -16.3911
  24   2.0000      -0.572693       -15.5838
  25   2.0000      -0.554413       -15.0863
  26   2.0000      -0.527718       -14.3599
  27   2.0000      -0.506252       -13.7758
  28   2.0000      -0.489935       -13.3318
  29   2.0000      -0.470546       -12.8042
  30   2.0000      -0.444097       -12.0845
  31   2.0000      -0.432982       -11.7821
  32   2.0000      -0.394290       -10.7292
  33   0.0000       0.143678         3.9097
  34   0.0000       0.162055         4.4097
  35   0.0000       0.166332         4.5261
  36   0.0000       0.174743         4.7550
  37   0.0000       0.180297         4.9061

MULLIKEN ATOMIC CHARGES
-----------------------
   0 O :   -0.312550
   1 C :   -0.069798
   2 C :    0.105714
   3 O :   -0.280669
   4 C :    0.059184
   5 O :   -0.290967
   6 C :   -0.048661
   7 C :   -0.072720
   8 C :    0.092096
   9 H :    0.125435
  10 H :    0.140821
  11 H :    0.139731
  12 H :    0.139304
  13 H :    0.141684
  14 H :    0.131396
Sum of atomic charges:   -0.0000000

LOEWDIN ATOMIC CHARGES
----------------------
   0 O :    0.168784
   1 C :   -0.220452
   2 C :   -0.229194
   3 O :    0.217426
   4 C :   -0.347629
   5 O :    0.204303
   6 C :   -0.243703
   7 C :   -0.153593
   8 C :   -0.206157
   9 H :    0.128207
  10 H :    0.133517
  11 H :    0.138911
  12 H :    0.137182
  13 H :    0.136540
  14 H :    0.135859

  Mayer bond orders larger than 0.1
B(  0-O ,  1-C ) :   0.9499 B(  0-O ,  8-C ) :   0.9274 B(  1-C ,  2-C ) :   0.8711
B(  1-C ,  7-C ) :   0.9071 B(  1-C ,  9-H ) :   0.9270 B(  2-C ,  3-O ) :   0.9348
B(  2-C ,  6-C ) :   0.8733 B(  2-C , 10-H ) :   0.9127 B(  3-O ,  4-C ) :   0.9907
B(  4-C ,  5-O ) :   0.9866 B(  4-C ,  8-C ) :   0.9107 B(  4-C , 11-H ) :   0.9129
B(  5-O ,  6-C ) :   0.9530 B(  6-C ,  7-C ) :   0.8919 B(  6-C , 12-H ) :   0.9246
B(  7-C ,  8-C ) :   0.9492 B(  7-C , 13-H ) :   0.9190 B(  8-C , 14-H ) :   0.9212

MP2 TOTAL ENERGY:     -456.987232018 Eh
FINAL SINGLE POINT ENERGY      -456.987232018003

DIPOLE MOMENT
-------------
                                X             Y             Z
Electronic contribution:     -1.01289      -0.17937       1.66418
Nuclear contribution   :      1.56854       0.10373      -2.40104
                        -----------------------------------------
Total Dipole Moment    :      0.55565      -0.07564      -0.73686
                        -----------------------------------------
Magnitude (a.u.)       :      0.92598
Magnitude (Debye)      :      2.35365

                             ****ORCA TERMINATED NORMALLY****
TOTAL RUN TIME: 0 days 0 hours 17 minutes 21 seconds 512 msec
