                         Program Version 3.0.3 - RELEASE   -
|  1> ! RI-MP2 RIJK def2-TZVP def2-TZVP/C def2-TZVP/JK TIGHTSCF
|  2> % maxcore 2000
|  3> % mp2 density relaxed end
|  4> *xyz 0 1
|  5>  O       -0.1453193093     1.4950049727    -0.2123864921
|  6>  C       -0.0346142286     0.1371907192     0.1893285080
|  7>  C       -1.3917074466    -0.5198234499     0.0056056151
|  8>  C       -1.8056016485    -0.7213656197    -1.4802648585
|  9>  C       -1.3824538790    -2.2101996272    -1.3734469211
| 10>  C       -1.3638688233    -2.0670405183     0.1721998041
| 11>  N       -2.3214439294    -3.1776010711    -1.9080680776
| 12>  C       -2.1054727578    -3.5839735332    -3.2948946153
| 13>  C       -1.7926582133    -4.5131632257    -2.1753864065
| 14>  H        0.7179139728     1.9084005467    -0.1207773314
| 15>  H        0.7248061557    -0.3924370459    -0.4107893945
| 16>  H        0.2721533079     0.0558670922     1.2454570876
| 17>  H       -2.1199639284     0.0111258529     0.6237879971
| 18>  H       -2.8858264116    -0.6417278663    -1.6225357645
| 19>  H       -1.2988704214    -0.0967519807    -2.2190339138
| 20>  H       -0.3654364206    -2.3688468894    -1.7721317326
| 21>  H       -0.5142837058    -2.5003191504     0.7088035918
| 22>  H       -2.2904410288    -2.4523877945     0.6037087792
| 23>  H       -3.0016743422    -3.7199185237    -3.8932265345
| 24>  H       -1.2625260595    -3.1472863334    -3.8285194163
| 25>  H       -0.7408582580    -4.6987110091    -1.9620678900
| 26>  H       -2.4565335645    -5.3403493353    -1.9411784442
| 27> *
| 28>
| 29>                          ****END OF INPUT****

CARTESIAN COORDINATES (ANGSTROEM)
---------------------------------
  O     -0.145319    1.495005   -0.212386
  C     -0.034614    0.137191    0.189329
  C     -1.391707   -0.519823    0.005606
  C     -1.805602   -0.721366   -1.480265
  C     -1.382454   -2.210200   -1.373447
  C     -1.363869   -2.067041    0.172200
  N     -2.321444   -3.177601   -1.908068
  C     -2.105473   -3.583974   -3.294895
  C     -1.792658   -4.513163   -2.175386
  H      0.717914    1.908401   -0.120777
  H      0.724806   -0.392437   -0.410789
  H      0.272153    0.055867    1.245457
  H     -2.119964    0.011126    0.623788
  H     -2.885826   -0.641728   -1.622536
  H     -1.298870   -0.096752   -2.219034
  H     -0.365436   -2.368847   -1.772132
  H     -0.514284   -2.500319    0.708804
  H     -2.290441   -2.452388    0.603709
  H     -3.001674   -3.719919   -3.893227
  H     -1.262526   -3.147286   -3.828519
  H     -0.740858   -4.698711   -1.962068
  H     -2.456534   -5.340349   -1.941178

 Total Charge           Charge          ....    0
 Multiplicity           Mult            ....    1
 Number of Electrons    NEL             ....   70
 Basis Dimension        Dim             ....  357

ORBITAL ENERGIES
----------------

  NO   OCC          E(Eh)            E(eV)
   0   2.0000     -20.553185      -559.2806
   1   2.0000     -15.554833      -423.2685
   2   2.0000     -11.272827      -306.7492
   3   2.0000     -11.251619      -306.1721
   4   2.0000     -11.251123      -306.1586
   5   2.0000     -11.250857      -306.1514
   6   2.0000     -11.220419      -305.3231
   7   2.0000     -11.214879      -305.1724
   8   2.0000     -11.208630      -305.0023
   9   2.0000      -1.357264       -36.9330
  10   2.0000      -1.271193       -34.5909
  11   2.0000      -1.126202       -30.6455
  12   2.0000      -0.978285       -26.6205
  13   2.0000      -0.898962       -24.4620
  14   2.0000      -0.896458       -24.3938
  15   2.0000      -0.837750       -22.7963
  16   2.0000      -0.803385       -21.8612
  17   2.0000      -0.734746       -19.9934
  18   2.0000      -0.693002       -18.8576
  19   2.0000      -0.675932       -18.3930
  20   2.0000      -0.667176       -18.1548
  21   2.0000      -0.629436       -17.1278
  22   2.0000      -0.619565       -16.8592
  23   2.0000      -0.573698       -15.6111
  24   2.0000      -0.539331       -14.6759
  25   2.0000      -0.534083       -14.5331
  26   2.0000      -0.530918       -14.4470
  27   2.0000      -0.521642       -14.1946
  28   2.0000      -0.482238       -13.1224
  29   2.0000      -0.461162       -12.5489
  30   2.0000      -0.448890       -12.2149
  31   2.0000      -0.441710       -12.0195
  32   2.0000      -0.427225       -11.6254
  33   2.0000      -0.415968       -11.3191
  34   2.0000      -0.368536       -10.0284
  35   0.0000       0.133282         3.6268
  36   0.0000       0.147685         4.0187
  37   0.0000       0.158118         4.3026
  38   0.0000       0.169037         4.5997
  39   0.0000       0.178240         4.8502

MULLIKEN ATOMIC CHARGES
-----------------------
   0 O :   -0.465158
   1 C :   -0.133398
   2 C :    0.029194
   3 C :   -0.208074
   4 C :   -0.083258
   5 C :   -0.229503
   6 N :   -0.214529
   7 C :   -0.175955
   8 C :   -0.174768
   9 H :    0.314725
  10 H :    0.096456
  11 H :    0.100958
  12 H :    0.104289
  13 H :    0.118377
  14 H :    0.121054
  15 H :    0.067462
  16 H :    0.114355
  17 H :    0.121363
  18 H :    0.130991
  19 H :    0.118290
  20 H :    0.116603
  21 H :    0.130525
Sum of atomic charges:   -0.0000000

LOEWDIN ATOMIC CHARGES
----------------------
   0 O :   -0.046540
   1 C :   -0.337305
   2 C :   -0.230935
   3 C :   -0.193717
   4 C :   -0.277923
   5 C :   -0.195791
   6 N :    0.107402
   7 C :   -0.266745
   8 C :   -0.268160
   9 H :    0.171344
  10 H :    0.117232
  11 H :    0.117234
  12 H :    0.143025
  13 H :    0.140993
  14 H :    0.129850
  15 H :    0.131091
  16 H :    0.125783
  17 H :    0.141144
  18 H :    0.124054
  19 H :    0.122424
  20 H :    0.121685
  21 H :    0.123856

  Mayer bond orders larger than 0.1
B(  0-O ,  1-C ) :   1.0282 B(  0-O ,  9-H ) :   0.8482 B(  1-C ,  2-C ) :   0.9205
B(  1-C , 10-H ) :   0.9158 B(  1-C , 11-H ) :   0.9359 B(  2-C ,  3-C ) :   0.9017
B(  2-C ,  5-C ) :   0.8853 B(  2-C , 12-H ) :   0.9157 B(  3-C ,  4-C ) :   0.9397
B(  3-C , 13-H ) :   0.9152 B(  3-C , 14-H ) :   0.9299 B(  4-C ,  5-C ) :   0.9304
B(  4-C ,  6-N ) :   0.9998 B(  4-C , 15-H ) :   0.9183 B(  5-C , 16-H ) :   0.9280
B(  5-C , 17-H ) :   0.9143 B(  6-N ,  7-C ) :   0.8789 B(  6-N ,  8-C ) :   0.8780
B(  7-C ,  8-C ) :   0.9492 B(  7-C , 18-H ) :   0.9273 B(  7-C , 19-H ) :   0.9223
B(  8-C , 20-H ) :   0.9218 B(  8-C , 21-H ) :   0.9273

MP2 TOTAL ENERGY:     -403.608083207 Eh
FINAL SINGLE POINT ENERGY      -403.608083206524

DIPOLE MOMENT
-------------
                                X             Y             Z
Electronic contribution:     -1.02702       1.85464       0.22868
Nuclear contribution   :      1.91914      -2.14161      -0.21458
                        -----------------------------------------
Total Dipole Moment    :      0.89212      -0.28697       0.01411
                        -----------------------------------------
Magnitude (a.u.)       :      0.93724
Magnitude (Debye)      :      2.38228

                             ****ORCA TERMINATED NORMALLY****
TOTAL RUN TIME: 0 days 0 hours 28 minutes 12 seconds 256 msec
