                         Program Version 3.0.3 - RELEASE   -
|  1> ! RI-MP2 RIJK def2-TZVP def2-TZVP/C def2-TZVP/JK TIGHTSCF
|  2> % maxcore 2000
|  3> % mp2 density relaxed end
|  4> *xyz 0 1
|  5>  C        0.0418827727     1.3627676169    -0.1170089414
|  6>  C        1.5245605064     1.8568255059     0.0768971828
|  7>  C        2.1245311773     0.6152249161     0.6530046440
|  8>  N        3.2572661464     0.1390557734     1.1501606709
|  9>  N        2.9373088405    -1.1350452812     1.4010466899
| 10>  N        1.6756325335    -1.5311013833     1.1099756197
| 11>  C        1.1794891740    -0.4060857547     0.6335272135
| 12>  O       -0.0269825083    -0.0787598799     0.1387470719
| 13>  H       -0.6349643462     1.8490592379     0.5910872761
| 14>  H       -0.3286380780     1.5266384353    -1.1304333999
| 15>  H        1.9806966124     2.1445135701    -0.8760153996
| 16>  H        1.5672497833     2.7256664409     0.7392383021
| 17>  H        3.5966388460    -1.7713909473     1.8150143100
| 18> *
| 19>
| 20>                          ****END OF INPUT****

CARTESIAN COORDINATES (ANGSTROEM)
---------------------------------
  C      0.041883    1.362768   -0.117009
  C      1.524561    1.856826    0.076897
  C      2.124531    0.615225    0.653005
  N      3.257266    0.139056    1.150161
  N      2.937309   -1.135045    1.401047
  N      1.675633   -1.531101    1.109976
  C      1.179489   -0.406086    0.633527
  O     -0.026983   -0.078760    0.138747
  H     -0.634964    1.849059    0.591087
  H     -0.328638    1.526638   -1.130433
  H      1.980697    2.144514   -0.876015
  H      1.567250    2.725666    0.739238
  H      3.596639   -1.771391    1.815014

 Total Charge           Charge          ....    0
 Multiplicity           Mult            ....    1
 Number of Electrons    NEL             ....   58
 Basis Dimension        Dim             ....  278

ORBITAL ENERGIES
----------------

  NO   OCC          E(Eh)            E(eV)
   0   2.0000     -20.597894      -560.4972
   1   2.0000     -15.667256      -426.3277
   2   2.0000     -15.625159      -425.1822
   3   2.0000     -15.606136      -424.6645
   4   2.0000     -11.312806      -307.8371
   5   2.0000     -11.309012      -307.7339
   6   2.0000     -11.263252      -306.4887
   7   2.0000     -11.261395      -306.4381
   8   2.0000      -1.451048       -39.4850
   9   2.0000      -1.411230       -38.4015
  10   2.0000      -1.194623       -32.5073
  11   2.0000      -1.106559       -30.1110
  12   2.0000      -1.045125       -28.4393
  13   2.0000      -0.912145       -24.8207
  14   2.0000      -0.831153       -22.6168
  15   2.0000      -0.801657       -21.8142
  16   2.0000      -0.727333       -19.7917
  17   2.0000      -0.697934       -18.9917
  18   2.0000      -0.659412       -17.9435
  19   2.0000      -0.640350       -17.4248
  20   2.0000      -0.634762       -17.2728
  21   2.0000      -0.586059       -15.9475
  22   2.0000      -0.573082       -15.5943
  23   2.0000      -0.521515       -14.1911
  24   2.0000      -0.509448       -13.8628
  25   2.0000      -0.479620       -13.0511
  26   2.0000      -0.478128       -13.0105
  27   2.0000      -0.397517       -10.8170
  28   2.0000      -0.340271        -9.2593
  29   0.0000       0.125728         3.4212
  30   0.0000       0.132874         3.6157
  31   0.0000       0.145556         3.9608
  32   0.0000       0.171233         4.6595
  33   0.0000       0.184604         5.0233

MULLIKEN ATOMIC CHARGES
-----------------------
   0 C :   -0.020786
   1 C :   -0.233640
   2 C :   -0.052551
   3 N :   -0.188432
   4 N :    0.007755
   5 N :   -0.195140
   6 C :    0.167216
   7 O :   -0.279931
   8 H :    0.119310
   9 H :    0.126751
  10 H :    0.136847
  11 H :    0.143063
  12 H :    0.269538
Sum of atomic charges:    0.0000000

LOEWDIN ATOMIC CHARGES
----------------------
   0 C :   -0.211570
   1 C :   -0.210239
   2 C :   -0.288585
   3 N :    0.042497
   4 N :    0.063736
   5 N :    0.044167
   6 C :   -0.399695
   7 O :    0.231927
   8 H :    0.126458
   9 H :    0.126490
  10 H :    0.145067
  11 H :    0.145412
  12 H :    0.184336

  Mayer bond orders larger than 0.1
B(  0-C ,  1-C ) :   0.9560 B(  0-C ,  7-O ) :   0.8479 B(  0-C ,  8-H ) :   0.9279
B(  0-C ,  9-H ) :   0.9324 B(  1-C ,  2-C ) :   0.9464 B(  1-C , 10-H ) :   0.9097
B(  1-C , 11-H ) :   0.9186 B(  2-C ,  3-N ) :   1.5161 B(  2-C ,  6-C ) :   1.2897
B(  3-N ,  4-N ) :   1.1241 B(  3-N ,  5-N ) :   0.1002 B(  4-N ,  5-N ) :   1.0685
B(  4-N , 12-H ) :   0.8721 B(  5-N ,  6-C ) :   1.5597 B(  6-C ,  7-O ) :   1.0925

MP2 TOTAL ENERGY:     -394.121007340 Eh
FINAL SINGLE POINT ENERGY      -394.121007339618

DIPOLE MOMENT
-------------
                                X             Y             Z
Electronic contribution:      1.67937      -4.82148       1.73577
Nuclear contribution   :     -1.57641       5.58940      -1.86836
                        -----------------------------------------
Total Dipole Moment    :      0.10296       0.76792      -0.13259
                        -----------------------------------------
Magnitude (a.u.)       :      0.78606
Magnitude (Debye)      :      1.99800

                             ****ORCA TERMINATED NORMALLY****
TOTAL RUN TIME: 0 days 0 hours 10 minutes 7 seconds 720 msec
