                         Program Version 3.0.3 - RELEASE   -
|  1> ! RI-MP2 RIJK def2-TZVP def2-TZVP/C def2-TZVP/JK TIGHTSCF
|  2> % maxcore 2000
|  3> % mp2 density relaxed end
|  4> *xyz 0 1
|  5>  C        0.1338494736     1.5160031258     0.0067934069
|  6>  C       -0.0639806689     0.0018655413     0.0038005681
|  7>  C       -1.4971281993    -0.4362375004     0.0143220184
|  8>  N       -2.4907210638     0.3939850485     0.0242738230
|  9>  C       -3.7267579973    -0.2009741104     0.0328207118
| 10>  N       -4.0043358210    -1.4675463072     0.0319135161
| 11>  C       -2.9508006551    -2.3535874208     0.0213152925
| 12>  O       -2.9945581865    -3.5415695332     0.0186451543
| 13>  O       -1.6368203256    -1.7607204422     0.0123050584
| 14>  H        1.2013757449     1.7504801588    -0.0014557910
| 15>  H       -0.3296378735     1.9755904723    -0.8690100520
| 16>  H       -0.3148061352     1.9701809115     0.8930869725
| 17>  H        0.4069347338    -0.4633328087    -0.8718426228
| 18>  H        0.4214469940    -0.4687472115     0.8685403698
| 19>  H       -4.5686570300     0.4894854862     0.0411176039
| 20> *
| 21>
| 22>                          ****END OF INPUT****

CARTESIAN COORDINATES (ANGSTROEM)
---------------------------------
  C      0.133849    1.516003    0.006793
  C     -0.063981    0.001866    0.003801
  C     -1.497128   -0.436238    0.014322
  N     -2.490721    0.393985    0.024274
  C     -3.726758   -0.200974    0.032821
  N     -4.004336   -1.467546    0.031914
  C     -2.950801   -2.353587    0.021315
  O     -2.994558   -3.541570    0.018645
  O     -1.636820   -1.760720    0.012305
  H      1.201376    1.750480   -0.001456
  H     -0.329638    1.975590   -0.869010
  H     -0.314806    1.970181    0.893087
  H      0.406935   -0.463333   -0.871843
  H      0.421447   -0.468747    0.868540
  H     -4.568657    0.489485    0.041118

 Total Charge           Charge          ....    0
 Multiplicity           Mult            ....    1
 Number of Electrons    NEL             ....   66
 Basis Dimension        Dim             ....  315

ORBITAL ENERGIES
----------------

  NO   OCC          E(Eh)            E(eV)
   0   2.0000     -20.657306      -562.1139
   1   2.0000     -20.555550      -559.3450
   2   2.0000     -15.588906      -424.1957
   3   2.0000     -15.586215      -424.1225
   4   2.0000     -11.425654      -310.9078
   5   2.0000     -11.406471      -310.3859
   6   2.0000     -11.363814      -309.2251
   7   2.0000     -11.272481      -306.7398
   8   2.0000     -11.241108      -305.8861
   9   2.0000      -1.513130       -41.1744
  10   2.0000      -1.408368       -38.3236
  11   2.0000      -1.310012       -35.6472
  12   2.0000      -1.229341       -33.4521
  13   2.0000      -1.087078       -29.5809
  14   2.0000      -0.958485       -26.0817
  15   2.0000      -0.944256       -25.6945
  16   2.0000      -0.858290       -23.3553
  17   2.0000      -0.798187       -21.7198
  18   2.0000      -0.729086       -19.8394
  19   2.0000      -0.706275       -19.2187
  20   2.0000      -0.678732       -18.4692
  21   2.0000      -0.654462       -17.8088
  22   2.0000      -0.639188       -17.3932
  23   2.0000      -0.630970       -17.1696
  24   2.0000      -0.562234       -15.2992
  25   2.0000      -0.558870       -15.2076
  26   2.0000      -0.541608       -14.7379
  27   2.0000      -0.535067       -14.5599
  28   2.0000      -0.518802       -14.1173
  29   2.0000      -0.509205       -13.8562
  30   2.0000      -0.480924       -13.0866
  31   2.0000      -0.449265       -12.2251
  32   2.0000      -0.411127       -11.1873
  33   0.0000       0.057362         1.5609
  34   0.0000       0.118226         3.2171
  35   0.0000       0.144241         3.9250
  36   0.0000       0.159108         4.3296
  37   0.0000       0.165066         4.4917

MULLIKEN ATOMIC CHARGES
-----------------------
   0 C :   -0.362805
   1 C :   -0.213107
   2 C :    0.278822
   3 N :   -0.296835
   4 C :    0.086178
   5 N :   -0.238293
   6 C :    0.289474
   7 O :   -0.238195
   8 O :   -0.173429
   9 H :    0.141638
  10 H :    0.136693
  11 H :    0.136660
  12 H :    0.149547
  13 H :    0.149572
  14 H :    0.154078
Sum of atomic charges:    0.0000000

LOEWDIN ATOMIC CHARGES
----------------------
   0 C :   -0.301923
   1 C :   -0.245270
   2 C :   -0.309406
   3 N :    0.113403
   4 C :   -0.241336
   5 N :    0.127463
   6 C :   -0.491175
   7 O :    0.170081
   8 O :    0.332420
   9 H :    0.125654
  10 H :    0.128321
  11 H :    0.128315
  12 H :    0.160221
  13 H :    0.160206
  14 H :    0.143026

  Mayer bond orders larger than 0.1
B(  0-C ,  1-C ) :   0.9442 B(  0-C ,  9-H ) :   0.9325 B(  0-C , 10-H ) :   0.9329
B(  0-C , 11-H ) :   0.9329 B(  1-C ,  2-C ) :   0.9395 B(  1-C , 12-H ) :   0.9119
B(  1-C , 13-H ) :   0.9120 B(  2-C ,  3-N ) :   1.5768 B(  2-C ,  8-O ) :   1.1532
B(  3-N ,  4-C ) :   1.1586 B(  4-C ,  5-N ) :   1.6050 B(  4-C , 14-H ) :   0.9326
B(  5-N ,  6-C ) :   1.1395 B(  6-C ,  7-O ) :   2.0760 B(  6-C ,  8-O ) :   0.9038

MP2 TOTAL ENERGY:     -453.262125464 Eh
FINAL SINGLE POINT ENERGY      -453.262125464227

DIPOLE MOMENT
-------------
                                X             Y             Z
Electronic contribution:     -7.89888      -8.49394       0.04140
Nuclear contribution   :      8.85089       9.89151      -0.04560
                        -----------------------------------------
Total Dipole Moment    :      0.95201       1.39757      -0.00420
                        -----------------------------------------
Magnitude (a.u.)       :      1.69102
Magnitude (Debye)      :      4.29822

                             ****ORCA TERMINATED NORMALLY****
TOTAL RUN TIME: 0 days 0 hours 13 minutes 30 seconds 773 msec
