                         Program Version 3.0.3 - RELEASE   -
|  1> ! RI-MP2 RIJK def2-TZVP def2-TZVP/C def2-TZVP/JK TIGHTSCF
|  2> % maxcore 2000
|  3> % mp2 density relaxed end
|  4> *xyz 0 1
|  5>  C        0.0090262875     1.5322503306     0.0360599738
|  6>  N        0.0682981774     0.0752115847    -0.0112865809
|  7>  C        0.7732180093    -0.5623269347    -1.1261795469
|  8>  C        1.3441629175    -1.6239084323    -0.2725976425
|  9>  C        2.2983533150    -0.5423326856    -0.8668710061
| 10>  C        2.4450989580    -0.0256205480     0.5284744481
| 11>  O        3.3579542086     0.4050362859     1.1756481167
| 12>  C        1.0431125502    -0.6035970965     0.8884334140
| 13>  H        0.9862715781     2.0271883572    -0.0864272674
| 14>  H       -0.6596591779     1.8866100423    -0.7546085734
| 15>  H       -0.4126688093     1.8402538128     0.9977964164
| 16>  H        0.3808474849    -0.6079732273    -2.1352734666
| 17>  H        1.4127390370    -2.6983128116    -0.3197729426
| 18>  H        3.0427648958    -0.6611496343    -1.6412104205
| 19>  H        0.7488216979    -0.8047536731     1.9159859577
| 20> *
| 21>
| 22>                          ****END OF INPUT****

CARTESIAN COORDINATES (ANGSTROEM)
---------------------------------
  C      0.009026    1.532250    0.036060
  N      0.068298    0.075212   -0.011287
  C      0.773218   -0.562327   -1.126180
  C      1.344163   -1.623908   -0.272598
  C      2.298353   -0.542333   -0.866871
  C      2.445099   -0.025621    0.528474
  O      3.357954    0.405036    1.175648
  C      1.043113   -0.603597    0.888433
  H      0.986272    2.027188   -0.086427
  H     -0.659659    1.886610   -0.754609
  H     -0.412669    1.840254    0.997796
  H      0.380847   -0.607973   -2.135273
  H      1.412739   -2.698313   -0.319773
  H      3.042765   -0.661150   -1.641210
  H      0.748822   -0.804754    1.915986

 Total Charge           Charge          ....    0
 Multiplicity           Mult            ....    1
 Number of Electrons    NEL             ....   58
 Basis Dimension        Dim             ....  290

ORBITAL ENERGIES
----------------

  NO   OCC          E(Eh)            E(eV)
   0   2.0000     -20.543335      -559.0126
   1   2.0000     -15.575073      -423.8193
   2   2.0000     -11.337172      -308.5001
   3   2.0000     -11.294039      -307.3264
   4   2.0000     -11.288335      -307.1712
   5   2.0000     -11.271970      -306.7259
   6   2.0000     -11.259707      -306.3922
   7   2.0000     -11.251939      -306.1808
   8   2.0000      -1.391891       -37.8753
   9   2.0000      -1.316869       -35.8338
  10   2.0000      -1.129946       -30.7474
  11   2.0000      -0.968856       -26.3639
  12   2.0000      -0.948110       -25.7994
  13   2.0000      -0.860975       -23.4283
  14   2.0000      -0.766990       -20.8709
  15   2.0000      -0.743483       -20.2312
  16   2.0000      -0.712159       -19.3788
  17   2.0000      -0.651039       -17.7157
  18   2.0000      -0.644422       -17.5356
  19   2.0000      -0.620622       -16.8880
  20   2.0000      -0.606679       -16.5086
  21   2.0000      -0.577593       -15.7171
  22   2.0000      -0.544382       -14.8134
  23   2.0000      -0.504946       -13.7403
  24   2.0000      -0.486604       -13.2412
  25   2.0000      -0.476605       -12.9691
  26   2.0000      -0.430362       -11.7107
  27   2.0000      -0.412051       -11.2125
  28   2.0000      -0.357802        -9.7363
  29   0.0000       0.136973         3.7272
  30   0.0000       0.153345         4.1727
  31   0.0000       0.164690         4.4814
  32   0.0000       0.175201         4.7675
  33   0.0000       0.179648         4.8885

MULLIKEN ATOMIC CHARGES
-----------------------
   0 C :   -0.322413
   1 N :   -0.125168
   2 C :   -0.095725
   3 C :   -0.180483
   4 C :   -0.137782
   5 C :    0.141455
   6 O :   -0.268665
   7 C :   -0.044577
   8 H :    0.120576
   9 H :    0.138883
  10 H :    0.143803
  11 H :    0.146312
  12 H :    0.178880
  13 H :    0.153578
  14 H :    0.151324
Sum of atomic charges:   -0.0000000

LOEWDIN ATOMIC CHARGES
----------------------
   0 C :   -0.321207
   1 N :    0.116520
   2 C :   -0.191295
   3 C :   -0.091706
   4 C :   -0.117486
   5 C :   -0.316677
   6 O :    0.146239
   7 C :   -0.144546
   8 H :    0.111704
   9 H :    0.120129
  10 H :    0.122540
  11 H :    0.142183
  12 H :    0.141571
  13 H :    0.144390
  14 H :    0.137639

  Mayer bond orders larger than 0.1
B(  0-C ,  1-N ) :   0.8864 B(  0-C ,  8-H ) :   0.9154 B(  0-C ,  9-H ) :   0.9365
B(  0-C , 10-H ) :   0.9372 B(  1-N ,  2-C ) :   0.9909 B(  1-N ,  7-C ) :   0.9835
B(  2-C ,  3-C ) :   0.8861 B(  2-C ,  4-C ) :   0.8287 B(  2-C , 11-H ) :   0.9096
B(  3-C ,  4-C ) :   0.7983 B(  3-C ,  7-C ) :   0.8779 B(  3-C , 12-H ) :   0.8850
B(  4-C ,  5-C ) :   0.9348 B(  4-C ,  7-C ) :  -0.1288 B(  4-C , 13-H ) :   0.9139
B(  5-C ,  6-O ) :   2.0443 B(  5-C ,  7-C ) :   0.8749 B(  7-C , 14-H ) :   0.8984

MP2 TOTAL ENERGY:     -361.978675662 Eh
FINAL SINGLE POINT ENERGY      -361.978675662257

DIPOLE MOMENT
-------------
                                X             Y             Z
Electronic contribution:      3.54635      -2.17326       1.52130
Nuclear contribution   :     -4.16350       1.73665      -2.29460
                        -----------------------------------------
Total Dipole Moment    :     -0.61716      -0.43661      -0.77331
                        -----------------------------------------
Magnitude (a.u.)       :      1.08144
Magnitude (Debye)      :      2.74880

                             ****ORCA TERMINATED NORMALLY****
TOTAL RUN TIME: 0 days 0 hours 12 minutes 3 seconds 896 msec
