                         Program Version 3.0.3 - RELEASE   -
|  1> ! RI-MP2 RIJK def2-TZVP def2-TZVP/C def2-TZVP/JK TIGHTSCF
|  2> % maxcore 2000
|  3> % mp2 density relaxed end
|  4> *xyz 0 1
|  5>  C       -0.2216067581     1.4277882211     0.0224267218
|  6>  C        0.0345865328    -0.0590582501     0.0174867176
|  7>  C       -0.7621500272    -0.9759243533     0.8844738239
|  8>  C        0.7262181753    -0.7870158565     1.1689980594
|  9>  C        1.6270912041    -1.8191339028     0.5784520850
| 10>  O        2.5573434981    -2.3553842070     1.1273922184
| 11>  C        1.2189443404    -2.0108103235    -0.8906858039
| 12>  C        0.5325509300    -0.6864656322    -1.2857032202
| 13>  O       -0.5674345697    -0.8265657583    -2.1730660274
| 14>  H        0.6820985034     1.9876881709    -0.2437370019
| 15>  H       -1.0003357201     1.6787944742    -0.7052477354
| 16>  H       -0.5544475955     1.7729265819     1.0057818022
| 17>  H       -1.4311808032    -0.5188605873     1.6053936540
| 18>  H       -1.1102671507    -1.9264415545     0.4967812038
| 19>  H        1.0308832386    -0.2941334421     2.0840749768
| 20>  H        2.0902476939    -2.2660480453    -1.4969732967
| 21>  H        0.5043479218    -2.8384697172    -0.9698395057
| 22>  H        1.2832853681    -0.0075435067    -1.7196903180
| 23>  H       -0.2297493319    -1.1084594011    -3.0290266436
| 24> *
| 25>
| 26>                          ****END OF INPUT****

CARTESIAN COORDINATES (ANGSTROEM)
---------------------------------
  C     -0.221607    1.427788    0.022427
  C      0.034587   -0.059058    0.017487
  C     -0.762150   -0.975924    0.884474
  C      0.726218   -0.787016    1.168998
  C      1.627091   -1.819134    0.578452
  O      2.557343   -2.355384    1.127392
  C      1.218944   -2.010810   -0.890686
  C      0.532551   -0.686466   -1.285703
  O     -0.567435   -0.826566   -2.173066
  H      0.682099    1.987688   -0.243737
  H     -1.000336    1.678794   -0.705248
  H     -0.554448    1.772927    1.005782
  H     -1.431181   -0.518861    1.605394
  H     -1.110267   -1.926442    0.496781
  H      1.030883   -0.294133    2.084075
  H      2.090248   -2.266048   -1.496973
  H      0.504348   -2.838470   -0.969840
  H      1.283285   -0.007544   -1.719690
  H     -0.229749   -1.108459   -3.029027

 Total Charge           Charge          ....    0
 Multiplicity           Mult            ....    1
 Number of Electrons    NEL             ....   68
 Basis Dimension        Dim             ....  339

ORBITAL ENERGIES
----------------

  NO   OCC          E(Eh)            E(eV)
   0   2.0000     -20.569812      -559.7330
   1   2.0000     -20.540759      -558.9425
   2   2.0000     -11.330084      -308.3073
   3   2.0000     -11.300428      -307.5003
   4   2.0000     -11.256585      -306.3072
   5   2.0000     -11.245822      -306.0144
   6   2.0000     -11.243986      -305.9644
   7   2.0000     -11.238935      -305.8270
   8   2.0000     -11.228850      -305.5526
   9   2.0000      -1.385807       -37.7097
  10   2.0000      -1.376225       -37.4490
  11   2.0000      -1.193290       -32.4711
  12   2.0000      -1.038789       -28.2669
  13   2.0000      -0.992776       -27.0148
  14   2.0000      -0.903637       -24.5892
  15   2.0000      -0.871517       -23.7152
  16   2.0000      -0.759323       -20.6622
  17   2.0000      -0.751227       -20.4419
  18   2.0000      -0.709001       -19.2929
  19   2.0000      -0.681059       -18.5326
  20   2.0000      -0.630174       -17.1479
  21   2.0000      -0.626612       -17.0510
  22   2.0000      -0.604065       -16.4374
  23   2.0000      -0.587495       -15.9866
  24   2.0000      -0.587001       -15.9731
  25   2.0000      -0.566675       -15.4200
  26   2.0000      -0.550067       -14.9681
  27   2.0000      -0.547148       -14.8887
  28   2.0000      -0.512743       -13.9525
  29   2.0000      -0.483602       -13.1595
  30   2.0000      -0.461759       -12.5651
  31   2.0000      -0.431217       -11.7340
  32   2.0000      -0.415973       -11.3192
  33   2.0000      -0.396809       -10.7977
  34   0.0000       0.122671         3.3381
  35   0.0000       0.137776         3.7491
  36   0.0000       0.148292         4.0352
  37   0.0000       0.159952         4.3525
  38   0.0000       0.173299         4.7157

MULLIKEN ATOMIC CHARGES
-----------------------
   0 C :   -0.427151
   1 C :    0.165305
   2 C :   -0.297770
   3 C :   -0.108758
   4 C :    0.090480
   5 O :   -0.270510
   6 C :   -0.222909
   7 C :   -0.011033
   8 O :   -0.451076
   9 H :    0.131048
  10 H :    0.154703
  11 H :    0.131403
  12 H :    0.142223
  13 H :    0.144505
  14 H :    0.140537
  15 H :    0.138404
  16 H :    0.144507
  17 H :    0.089393
  18 H :    0.316699
Sum of atomic charges:    0.0000000

LOEWDIN ATOMIC CHARGES
----------------------
   0 C :   -0.260838
   1 C :   -0.224211
   2 C :   -0.157826
   3 C :   -0.133786
   4 C :   -0.309886
   5 O :    0.147686
   6 C :   -0.203658
   7 C :   -0.293975
   8 O :   -0.013116
   9 H :    0.128105
  10 H :    0.135945
  11 H :    0.130268
  12 H :    0.143131
  13 H :    0.141766
  14 H :    0.153274
  15 H :    0.144976
  16 H :    0.154857
  17 H :    0.141913
  18 H :    0.175376

  Mayer bond orders larger than 0.1
B(  0-C ,  1-C ) :   0.8995 B(  0-C ,  9-H ) :   0.9368 B(  0-C , 10-H ) :   0.9407
B(  0-C , 11-H ) :   0.9326 B(  1-C ,  2-C ) :   0.8823 B(  1-C ,  3-C ) :   0.7639
B(  1-C ,  7-C ) :   0.8982 B(  1-C ,  8-O ) :  -0.1121 B(  2-C ,  3-C ) :   0.8548
B(  2-C , 12-H ) :   0.9273 B(  2-C , 13-H ) :   0.9074 B(  3-C ,  4-C ) :   0.9347
B(  3-C ,  6-C ) :  -0.1476 B(  3-C , 14-H ) :   0.9152 B(  4-C ,  5-O ) :   2.0437
B(  4-C ,  6-C ) :   0.9065 B(  6-C ,  7-C ) :   0.8857 B(  6-C , 15-H ) :   0.9064
B(  6-C , 16-H ) :   0.9052 B(  7-C ,  8-O ) :   1.0840 B(  7-C , 17-H ) :   0.9445
B(  8-O , 18-H ) :   0.8447

MP2 TOTAL ENERGY:     -422.346757471 Eh
FINAL SINGLE POINT ENERGY      -422.346757470999

DIPOLE MOMENT
-------------
                                X             Y             Z
Electronic contribution:      3.59594      -4.54493       1.06044
Nuclear contribution   :     -4.08162       5.11270      -1.77653
                        -----------------------------------------
Total Dipole Moment    :     -0.48568       0.56776      -0.71609
                        -----------------------------------------
Magnitude (a.u.)       :      1.03491
Magnitude (Debye)      :      2.63052

                             ****ORCA TERMINATED NORMALLY****
TOTAL RUN TIME: 0 days 0 hours 18 minutes 15 seconds 151 msec
