                         Program Version 3.0.3 - RELEASE   -
|  1> ! RI-MP2 RIJK def2-TZVP def2-TZVP/C def2-TZVP/JK TIGHTSCF
|  2> % maxcore 2000
|  3> % mp2 density relaxed end
|  4> *xyz 0 1
|  5>  C       -0.0344540290     1.3030132870    -0.1455252772
|  6>  C        1.4836666021     1.4763479035     0.0355337748
|  7>  C        1.4101183109     0.1051551657     0.7644807954
|  8>  O        0.0123043204    -0.0403062107     0.3776070781
|  9>  C        2.2655636523    -1.0175331640     0.2934042956
| 10>  C        3.1543775929    -1.6890428204     1.0301688792
| 11>  C        3.8994212687    -2.7300779741     0.2317200831
| 12>  C        3.0530315945    -2.8374014421    -1.0636225748
| 13>  C        2.2505873850    -1.5143692561    -1.1397273861
| 14>  H       -0.6505928205     1.9628937048     0.4798787966
| 15>  H       -0.4181759277     1.3306075908    -1.1717033282
| 16>  H        2.0519799387     1.4522789994    -0.8958156746
| 17>  H        1.8183164810     2.3202189613     0.6402677217
| 18>  H        1.4956058823     0.2056437578     1.8552502699
| 19>  H        3.3540345265    -1.4969218201     2.0797399176
| 20>  H        4.9270718367    -2.3971821549     0.0243057373
| 21>  H        3.9903356824    -3.6876012668     0.7568653160
| 22>  H        3.6593723904    -3.0192601181    -1.9545050136
| 23>  H        2.3566931457    -3.6765122885    -0.9691112798
| 24>  H        1.2321573518    -1.6522257442    -1.5143694576
| 25>  H        2.7341587449    -0.7871688502    -1.8083019535
| 26> *
| 27>
| 28>                          ****END OF INPUT****

CARTESIAN COORDINATES (ANGSTROEM)
---------------------------------
  C     -0.034454    1.303013   -0.145525
  C      1.483667    1.476348    0.035534
  C      1.410118    0.105155    0.764481
  O      0.012304   -0.040306    0.377607
  C      2.265564   -1.017533    0.293404
  C      3.154378   -1.689043    1.030169
  C      3.899421   -2.730078    0.231720
  C      3.053032   -2.837401   -1.063623
  C      2.250587   -1.514369   -1.139727
  H     -0.650593    1.962894    0.479879
  H     -0.418176    1.330608   -1.171703
  H      2.051980    1.452279   -0.895816
  H      1.818316    2.320219    0.640268
  H      1.495606    0.205644    1.855250
  H      3.354035   -1.496922    2.079740
  H      4.927072   -2.397182    0.024306
  H      3.990336   -3.687601    0.756865
  H      3.659372   -3.019260   -1.954505
  H      2.356693   -3.676512   -0.969111
  H      1.232157   -1.652226   -1.514369
  H      2.734159   -0.787169   -1.808302

 Total Charge           Charge          ....    0
 Multiplicity           Mult            ....    1
 Number of Electrons    NEL             ....   68
 Basis Dimension        Dim             ....  351

ORBITAL ENERGIES
----------------

  NO   OCC          E(Eh)            E(eV)
   0   2.0000     -20.542396      -558.9870
   1   2.0000     -11.283811      -307.0481
   2   2.0000     -11.275459      -306.8209
   3   2.0000     -11.229261      -305.5637
   4   2.0000     -11.223260      -305.4004
   5   2.0000     -11.222097      -305.3688
   6   2.0000     -11.220819      -305.3340
   7   2.0000     -11.218623      -305.2743
   8   2.0000     -11.218041      -305.2584
   9   2.0000      -1.371173       -37.3115
  10   2.0000      -1.133150       -30.8346
  11   2.0000      -1.017970       -27.7004
  12   2.0000      -0.985555       -26.8183
  13   2.0000      -0.956688       -26.0328
  14   2.0000      -0.902663       -24.5627
  15   2.0000      -0.796900       -21.6847
  16   2.0000      -0.769944       -20.9512
  17   2.0000      -0.715788       -19.4776
  18   2.0000      -0.682129       -18.5617
  19   2.0000      -0.668705       -18.1964
  20   2.0000      -0.635242       -17.2858
  21   2.0000      -0.602599       -16.3976
  22   2.0000      -0.591937       -16.1074
  23   2.0000      -0.554005       -15.0752
  24   2.0000      -0.548585       -14.9278
  25   2.0000      -0.533394       -14.5144
  26   2.0000      -0.496648       -13.5145
  27   2.0000      -0.486407       -13.2358
  28   2.0000      -0.480284       -13.0692
  29   2.0000      -0.473385       -12.8815
  30   2.0000      -0.460099       -12.5199
  31   2.0000      -0.458374       -12.4730
  32   2.0000      -0.410586       -11.1726
  33   2.0000      -0.337055        -9.1717
  34   0.0000       0.139109         3.7853
  35   0.0000       0.150345         4.0911
  36   0.0000       0.155170         4.2224
  37   0.0000       0.164780         4.4839
  38   0.0000       0.173986         4.7344

MULLIKEN ATOMIC CHARGES
-----------------------
   0 C :   -0.016462
   1 C :   -0.306695
   2 C :    0.155373
   3 O :   -0.338784
   4 C :   -0.013785
   5 C :   -0.218180
   6 C :   -0.166583
   7 C :   -0.233487
   8 C :   -0.229586
   9 H :    0.094315
  10 H :    0.100608
  11 H :    0.123862
  12 H :    0.128770
  13 H :    0.085368
  14 H :    0.125054
  15 H :    0.111666
  16 H :    0.121058
  17 H :    0.120943
  18 H :    0.113349
  19 H :    0.138332
  20 H :    0.104865
Sum of atomic charges:    0.0000000

LOEWDIN ATOMIC CHARGES
----------------------
   0 C :   -0.281787
   1 C :   -0.221711
   2 C :   -0.242424
   3 O :    0.130060
   4 C :   -0.159175
   5 C :   -0.126161
   6 C :   -0.243752
   7 C :   -0.236273
   8 C :   -0.211889
   9 H :    0.115330
  10 H :    0.114781
  11 H :    0.132802
  12 H :    0.128183
  13 H :    0.142368
  14 H :    0.138043
  15 H :    0.138758
  16 H :    0.135328
  17 H :    0.129613
  18 H :    0.138235
  19 H :    0.142206
  20 H :    0.137464

  Mayer bond orders larger than 0.1
B(  0-C ,  1-C ) :   0.9833 B(  0-C ,  3-O ) :   0.9357 B(  0-C ,  9-H ) :   0.9184
B(  0-C , 10-H ) :   0.9180 B(  1-C ,  2-C ) :   0.8654 B(  1-C , 11-H ) :   0.9308
B(  1-C , 12-H ) :   0.9273 B(  2-C ,  3-O ) :   0.9594 B(  2-C ,  4-C ) :   0.9502
B(  2-C , 13-H ) :   0.9118 B(  4-C ,  5-C ) :   1.7237 B(  4-C ,  8-C ) :   0.8998
B(  5-C ,  6-C ) :   0.9465 B(  5-C , 14-H ) :   0.9199 B(  6-C ,  7-C ) :   0.9473
B(  6-C , 15-H ) :   0.9081 B(  6-C , 16-H ) :   0.9346 B(  7-C ,  8-C ) :   0.9482
B(  7-C , 17-H ) :   0.9403 B(  7-C , 18-H ) :   0.9314 B(  8-C , 19-H ) :   0.9336
B(  8-C , 20-H ) :   0.9029

MP2 TOTAL ENERGY:     -386.401143982 Eh
FINAL SINGLE POINT ENERGY      -386.401143981942

DIPOLE MOMENT
-------------
                                X             Y             Z
Electronic contribution:     -2.84424       0.84179       2.50824
Nuclear contribution   :      3.40104      -0.41163      -2.64747
                        -----------------------------------------
Total Dipole Moment    :      0.55680       0.43016      -0.13923
                        -----------------------------------------
Magnitude (a.u.)       :      0.71725
Magnitude (Debye)      :      1.82311

                             ****ORCA TERMINATED NORMALLY****
TOTAL RUN TIME: 0 days 0 hours 20 minutes 10 seconds 863 msec
