                         Program Version 3.0.3 - RELEASE   -
|  1> ! RI-MP2 RIJK def2-TZVP def2-TZVP/C def2-TZVP/JK TIGHTSCF
|  2> % maxcore 2000
|  3> % mp2 density relaxed end
|  4> *xyz 0 1
|  5>  C        0.0208779557     1.5953527881     0.1622595423
|  6>  C        1.4021876958     2.1874638962    -0.1419073320
|  7>  O        1.7916258288     2.2162006152    -1.5104618040
|  8>  C        2.1485372404     1.0127824168    -2.1332321474
|  9>  O        3.0380359812     0.2259853159    -1.3828504256
| 10>  C        2.5866678224    -1.0668999484    -0.9594418095
| 11>  C        2.1176739225    -1.1151560517     0.4775818391
| 12>  C        0.9501974712    -0.6471055546     0.9244980536
| 13>  C       -0.0973732146     0.0499196188     0.1010706827
| 14>  H       -0.2408290666     1.9220135942     1.1776405594
| 15>  H       -0.7215813908     2.0402192317    -0.5105135839
| 16>  H        1.3971525339     3.2418104224     0.1512078206
| 17>  H        2.1697677406     1.6786749115     0.4515557131
| 18>  H        1.2626465801     0.4150753340    -2.4022902803
| 19>  H        2.6550623524     1.3281395379    -3.0533870561
| 20>  H        1.7969121285    -1.4176535328    -1.6379125404
| 21>  H        3.4409709163    -1.7383111694    -1.0883474173
| 22>  H        2.8101471274    -1.5556560951     1.1907149666
| 23>  H        0.7433432125    -0.7178012665     1.9916151877
| 24>  H       -1.0937617671    -0.2278897288     0.4646490002
| 25>  H       -0.0489286605    -0.2831244854    -0.9394729986
| 26> *
| 27>
| 28>                          ****END OF INPUT****

CARTESIAN COORDINATES (ANGSTROEM)
---------------------------------
  C      0.020878    1.595353    0.162260
  C      1.402188    2.187464   -0.141907
  O      1.791626    2.216201   -1.510462
  C      2.148537    1.012782   -2.133232
  O      3.038036    0.225985   -1.382850
  C      2.586668   -1.066900   -0.959442
  C      2.117674   -1.115156    0.477582
  C      0.950197   -0.647106    0.924498
  C     -0.097373    0.049920    0.101071
  H     -0.240829    1.922014    1.177641
  H     -0.721581    2.040219   -0.510514
  H      1.397153    3.241810    0.151208
  H      2.169768    1.678675    0.451556
  H      1.262647    0.415075   -2.402290
  H      2.655062    1.328140   -3.053387
  H      1.796912   -1.417654   -1.637913
  H      3.440971   -1.738311   -1.088347
  H      2.810147   -1.555656    1.190715
  H      0.743343   -0.717801    1.991615
  H     -1.093762   -0.227890    0.464649
  H     -0.048929   -0.283124   -0.939473

 Total Charge           Charge          ....    0
 Multiplicity           Mult            ....    1
 Number of Electrons    NEL             ....   70
 Basis Dimension        Dim             ....  351

ORBITAL ENERGIES
----------------

  NO   OCC          E(Eh)            E(eV)
   0   2.0000     -20.557299      -559.3926
   1   2.0000     -20.549660      -559.1847
   2   2.0000     -11.323566      -308.1299
   3   2.0000     -11.285585      -307.0964
   4   2.0000     -11.265965      -306.5625
   5   2.0000     -11.237082      -305.7765
   6   2.0000     -11.233676      -305.6839
   7   2.0000     -11.228342      -305.5387
   8   2.0000     -11.228185      -305.5344
   9   2.0000      -1.404521       -38.2189
  10   2.0000      -1.339603       -36.4525
  11   2.0000      -1.101851       -29.9829
  12   2.0000      -1.030304       -28.0360
  13   2.0000      -0.988376       -26.8951
  14   2.0000      -0.900282       -24.4979
  15   2.0000      -0.877178       -23.8692
  16   2.0000      -0.794672       -21.6241
  17   2.0000      -0.738739       -20.1021
  18   2.0000      -0.700889       -19.0722
  19   2.0000      -0.687189       -18.6994
  20   2.0000      -0.663612       -18.0578
  21   2.0000      -0.650286       -17.6952
  22   2.0000      -0.619428       -16.8555
  23   2.0000      -0.594268       -16.1709
  24   2.0000      -0.585794       -15.9403
  25   2.0000      -0.557604       -15.1732
  26   2.0000      -0.544962       -14.8292
  27   2.0000      -0.526780       -14.3344
  28   2.0000      -0.500387       -13.6162
  29   2.0000      -0.492723       -13.4077
  30   2.0000      -0.473282       -12.8787
  31   2.0000      -0.463458       -12.6113
  32   2.0000      -0.436109       -11.8671
  33   2.0000      -0.412800       -11.2329
  34   2.0000      -0.361445        -9.8354
  35   0.0000       0.130119         3.5407
  36   0.0000       0.143017         3.8917
  37   0.0000       0.156724         4.2647
  38   0.0000       0.166929         4.5424
  39   0.0000       0.184850         5.0300

MULLIKEN ATOMIC CHARGES
-----------------------
   0 C :   -0.246327
   1 C :   -0.054686
   2 O :   -0.309762
   3 C :    0.074571
   4 O :   -0.307207
   5 C :   -0.080193
   6 C :   -0.161133
   7 C :   -0.196248
   8 C :   -0.146693
   9 H :    0.111941
  10 H :    0.122146
  11 H :    0.126904
  12 H :    0.130370
  13 H :    0.076386
  14 H :    0.119834
  15 H :    0.128182
  16 H :    0.125537
  17 H :    0.127628
  18 H :    0.123245
  19 H :    0.130652
  20 H :    0.104852
Sum of atomic charges:    0.0000000

LOEWDIN ATOMIC CHARGES
----------------------
   0 C :   -0.265745
   1 C :   -0.320170
   2 O :    0.153328
   3 C :   -0.408710
   4 O :    0.157345
   5 C :   -0.302092
   6 C :   -0.185476
   7 C :   -0.167185
   8 C :   -0.255271
   9 H :    0.144143
  10 H :    0.140692
  11 H :    0.132418
  12 H :    0.129555
  13 H :    0.100183
  14 H :    0.118866
  15 H :    0.126759
  16 H :    0.132256
  17 H :    0.143033
  18 H :    0.145409
  19 H :    0.143671
  20 H :    0.136991

  Mayer bond orders larger than 0.1
B(  0-C ,  1-C ) :   0.9210 B(  0-C ,  8-C ) :   0.8998 B(  0-C ,  9-H ) :   0.9256
B(  0-C , 10-H ) :   0.9222 B(  1-C ,  2-O ) :   0.8981 B(  1-C , 11-H ) :   0.9338
B(  1-C , 12-H ) :   0.9380 B(  2-O ,  3-C ) :   0.9992 B(  3-C ,  4-O ) :   0.9392
B(  3-C , 13-H ) :   0.9304 B(  3-C , 14-H ) :   0.9312 B(  4-O ,  5-C ) :   0.8991
B(  5-C ,  6-C ) :   0.9019 B(  5-C , 15-H ) :   0.9523 B(  5-C , 16-H ) :   0.9383
B(  6-C ,  7-C ) :   1.7951 B(  6-C , 17-H ) :   0.9281 B(  7-C ,  8-C ) :   0.9110
B(  7-C , 18-H ) :   0.9244 B(  8-C , 19-H ) :   0.9347 B(  8-C , 20-H ) :   0.9285

MP2 TOTAL ENERGY:     -423.499319509 Eh
FINAL SINGLE POINT ENERGY      -423.499319508535

DIPOLE MOMENT
-------------
                                X             Y             Z
Electronic contribution:      3.76604       0.99138      -1.82851
Nuclear contribution   :     -4.35291      -1.55788       2.12234
                        -----------------------------------------
Total Dipole Moment    :     -0.58688      -0.56650       0.29383
                        -----------------------------------------
Magnitude (a.u.)       :      0.86700
Magnitude (Debye)      :      2.20373

                             ****ORCA TERMINATED NORMALLY****
TOTAL RUN TIME: 0 days 0 hours 18 minutes 33 seconds 446 msec
