                         Program Version 3.0.3 - RELEASE   -
|  1> ! RI-MP2 RIJK def2-TZVP def2-TZVP/C def2-TZVP/JK TIGHTSCF
|  2> % maxcore 2000
|  3> % mp2 density relaxed end
|  4> *xyz 0 1
|  5>  N       -0.2252471508     1.3368181543     0.6228896629
|  6>  C        0.0059386462     0.2540637376    -0.1752551579
|  7>  O        1.0876087681     0.0526217695    -0.6982119479
|  8>  C       -1.1688312059    -0.6854176049    -0.3718053987
|  9>  C       -1.5098201563    -1.0590708862    -1.8468373999
| 10>  C       -1.6887240508    -2.5344901124    -1.4048646203
| 11>  C       -0.8874345917    -2.1984750339    -0.1206310933
| 12>  H        0.5273862220     1.9870398623     0.7803591742
| 13>  H       -1.1147070014     1.5079868044     1.0560268759
| 14>  H       -2.0578573345    -0.3490029070     0.1707923080
| 15>  H       -2.3583102287    -0.5499982334    -2.3097386477
| 16>  H       -0.6222297806    -0.9281225031    -2.4701515443
| 17>  H       -2.7338700368    -2.7705555525    -1.1838394351
| 18>  H       -1.2893522722    -3.3108286594    -2.0612697595
| 19>  H        0.1796559781    -2.3960915143    -0.2461528972
| 20>  H       -1.2270070346    -2.6209819710     0.8278089306
| 21> *
| 22>
| 23>                          ****END OF INPUT****

CARTESIAN COORDINATES (ANGSTROEM)
---------------------------------
  N     -0.225247    1.336818    0.622890
  C      0.005939    0.254064   -0.175255
  O      1.087609    0.052622   -0.698212
  C     -1.168831   -0.685418   -0.371805
  C     -1.509820   -1.059071   -1.846837
  C     -1.688724   -2.534490   -1.404865
  C     -0.887435   -2.198475   -0.120631
  H      0.527386    1.987040    0.780359
  H     -1.114707    1.507987    1.056027
  H     -2.057857   -0.349003    0.170792
  H     -2.358310   -0.549998   -2.309739
  H     -0.622230   -0.928123   -2.470152
  H     -2.733870   -2.770556   -1.183839
  H     -1.289352   -3.310829   -2.061270
  H      0.179656   -2.396092   -0.246153
  H     -1.227007   -2.620982    0.827809

 Total Charge           Charge          ....    0
 Multiplicity           Mult            ....    1
 Number of Electrons    NEL             ....   54
 Basis Dimension        Dim             ....  271

ORBITAL ENERGIES
----------------

  NO   OCC          E(Eh)            E(eV)
   0   2.0000     -20.509804      -558.1001
   1   2.0000     -15.581950      -424.0064
   2   2.0000     -11.344247      -308.6927
   3   2.0000     -11.240143      -305.8598
   4   2.0000     -11.226253      -305.4819
   5   2.0000     -11.226212      -305.4808
   6   2.0000     -11.223100      -305.3961
   7   2.0000      -1.374997       -37.4156
   8   2.0000      -1.207633       -32.8614
   9   2.0000      -1.133032       -30.8314
  10   2.0000      -0.939278       -25.5591
  11   2.0000      -0.900394       -24.5010
  12   2.0000      -0.810768       -22.0621
  13   2.0000      -0.754592       -20.5335
  14   2.0000      -0.715654       -19.4739
  15   2.0000      -0.682821       -18.5805
  16   2.0000      -0.642534       -17.4842
  17   2.0000      -0.616272       -16.7696
  18   2.0000      -0.579551       -15.7704
  19   2.0000      -0.563489       -15.3333
  20   2.0000      -0.541233       -14.7277
  21   2.0000      -0.485023       -13.1981
  22   2.0000      -0.473581       -12.8868
  23   2.0000      -0.454417       -12.3653
  24   2.0000      -0.440357       -11.9827
  25   2.0000      -0.413292       -11.2462
  26   2.0000      -0.411817       -11.2061
  27   0.0000       0.123344         3.3564
  28   0.0000       0.149215         4.0603
  29   0.0000       0.159348         4.3361
  30   0.0000       0.168513         4.5855
  31   0.0000       0.189208         5.1486

MULLIKEN ATOMIC CHARGES
-----------------------
   0 N :   -0.470863
   1 C :    0.251751
   2 O :   -0.368282
   3 C :   -0.018024
   4 C :   -0.274255
   5 C :   -0.194233
   6 C :   -0.274262
   7 H :    0.256498
   8 H :    0.257317
   9 H :    0.094597
  10 H :    0.116402
  11 H :    0.140568
  12 H :    0.109653
  13 H :    0.116158
  14 H :    0.140569
  15 H :    0.116408
Sum of atomic charges:    0.0000000

LOEWDIN ATOMIC CHARGES
----------------------
   0 N :   -0.016924
   1 C :   -0.466961
   2 O :    0.077366
   3 C :   -0.201299
   4 C :   -0.210847
   5 C :   -0.243872
   6 C :   -0.210843
   7 H :    0.171804
   8 H :    0.168139
   9 H :    0.145030
  10 H :    0.122458
  11 H :    0.144672
  12 H :    0.131118
  13 H :    0.123030
  14 H :    0.144674
  15 H :    0.122457

  Mayer bond orders larger than 0.1
B(  0-N ,  1-C ) :   1.1587 B(  0-N ,  7-H ) :   0.8563 B(  0-N ,  8-H ) :   0.8721
B(  1-C ,  2-O ) :   1.9802 B(  1-C ,  3-C ) :   0.8568 B(  3-C ,  4-C ) :   0.9187
B(  3-C ,  6-C ) :   0.9187 B(  3-C ,  9-H ) :   0.9011 B(  4-C ,  5-C ) :   0.9347
B(  4-C , 10-H ) :   0.9295 B(  4-C , 11-H ) :   0.9218 B(  5-C ,  6-C ) :   0.9346
B(  5-C , 12-H ) :   0.9295 B(  5-C , 13-H ) :   0.9272 B(  6-C , 14-H ) :   0.9218
B(  6-C , 15-H ) :   0.9295

MP2 TOTAL ENERGY:     -325.254272259 Eh
FINAL SINGLE POINT ENERGY      -325.254272258533

DIPOLE MOMENT
-------------
                                X             Y             Z
Electronic contribution:      3.82100       3.75927       1.10388
Nuclear contribution   :     -4.93324      -3.31635      -0.41101
                        -----------------------------------------
Total Dipole Moment    :     -1.11225       0.44293       0.69287
                        -----------------------------------------
Magnitude (a.u.)       :      1.38324
Magnitude (Debye)      :      3.51591

                             ****ORCA TERMINATED NORMALLY****
TOTAL RUN TIME: 0 days 0 hours 8 minutes 14 seconds 842 msec
