                         Program Version 3.0.3 - RELEASE   -
|  1> ! RI-MP2 RIJK def2-TZVP def2-TZVP/C def2-TZVP/JK TIGHTSCF
|  2> % maxcore 2000
|  3> % mp2 density relaxed end
|  4> *xyz 0 1
|  5>  O       -0.0595157175    -0.0854326453     0.0042654340
|  6>  C        0.0109468320     1.1272605425     0.0089330544
|  7>  N       -1.1665982662     1.9162202030     0.0293943994
|  8>  C       -1.1654787791     3.2706290500     0.0358942759
|  9>  N       -0.1010365485     4.0058118314     0.0243935820
| 10>  C        1.1031155547     3.3203970451     0.0041003808
| 11>  C        1.1971947168     1.9545999477    -0.0037664421
| 12>  C        2.2788329794     4.1302178557    -0.0085124948
| 13>  C        3.2782627970     4.7996796591    -0.0193128645
| 14>  H       -2.0366813117     1.3998952461     0.0392323873
| 15>  H       -2.1428102840     3.7472531010     0.0519946474
| 16>  H        2.1555189904     1.4532821442    -0.0196319780
| 17>  H        4.1570256466     5.3965035994    -0.0287506817
| 18> *
| 19>
| 20>                          ****END OF INPUT****

CARTESIAN COORDINATES (ANGSTROEM)
---------------------------------
  O     -0.059516   -0.085433    0.004265
  C      0.010947    1.127261    0.008933
  N     -1.166598    1.916220    0.029394
  C     -1.165479    3.270629    0.035894
  N     -0.101037    4.005812    0.024394
  C      1.103116    3.320397    0.004100
  C      1.197195    1.954600   -0.003766
  C      2.278833    4.130218   -0.008512
  C      3.278263    4.799680   -0.019313
  H     -2.036681    1.399895    0.039232
  H     -2.142810    3.747253    0.051995
  H      2.155519    1.453282   -0.019632
  H      4.157026    5.396504   -0.028751

 Total Charge           Charge          ....    0
 Multiplicity           Mult            ....    1
 Number of Electrons    NEL             ....   62
 Basis Dimension        Dim             ....  303

ORBITAL ENERGIES
----------------

  NO   OCC          E(Eh)            E(eV)
   0   2.0000     -20.533417      -558.7427
   1   2.0000     -15.643608      -425.6842
   2   2.0000     -15.580642      -423.9708
   3   2.0000     -11.374676      -309.5207
   4   2.0000     -11.362300      -309.1839
   5   2.0000     -11.333704      -308.4058
   6   2.0000     -11.255250      -306.2709
   7   2.0000     -11.253972      -306.2361
   8   2.0000     -11.251443      -306.1673
   9   2.0000      -1.405207       -38.2376
  10   2.0000      -1.331643       -36.2358
  11   2.0000      -1.228894       -33.4399
  12   2.0000      -1.103701       -30.0332
  13   2.0000      -1.038831       -28.2680
  14   2.0000      -0.933225       -25.3944
  15   2.0000      -0.907122       -24.6841
  16   2.0000      -0.782759       -21.2999
  17   2.0000      -0.766977       -20.8705
  18   2.0000      -0.735771       -20.0213
  19   2.0000      -0.712087       -19.3769
  20   2.0000      -0.660228       -17.9657
  21   2.0000      -0.638696       -17.3798
  22   2.0000      -0.630395       -17.1539
  23   2.0000      -0.594121       -16.1668
  24   2.0000      -0.535598       -14.5744
  25   2.0000      -0.491447       -13.3730
  26   2.0000      -0.467232       -12.7140
  27   2.0000      -0.449735       -12.2379
  28   2.0000      -0.417671       -11.3654
  29   2.0000      -0.407113       -11.0781
  30   2.0000      -0.347429        -9.4540
  31   0.0000       0.054751         1.4898
  32   0.0000       0.120594         3.2815
  33   0.0000       0.124230         3.3805
  34   0.0000       0.154757         4.2112
  35   0.0000       0.169017         4.5992

MULLIKEN ATOMIC CHARGES
-----------------------
   0 O :   -0.337839
   1 C :    0.261796
   2 N :   -0.232838
   3 C :    0.094069
   4 N :   -0.291140
   5 C :    0.019566
   6 C :   -0.243367
   7 C :    0.041026
   8 C :   -0.080910
   9 H :    0.257956
  10 H :    0.156548
  11 H :    0.153497
  12 H :    0.201638
Sum of atomic charges:    0.0000000

LOEWDIN ATOMIC CHARGES
----------------------
   0 O :    0.090763
   1 C :   -0.426284
   2 N :    0.192160
   3 C :   -0.266468
   4 N :    0.140118
   5 C :   -0.205384
   6 C :   -0.067956
   7 C :   -0.052923
   8 C :   -0.050427
   9 H :    0.206784
  10 H :    0.142876
  11 H :    0.165513
  12 H :    0.131228

  Mayer bond orders larger than 0.1
B(  0-O ,  1-C ) :   1.9687 B(  1-C ,  2-N ) :   1.0003 B(  1-C ,  6-C ) :   1.0745
B(  2-N ,  3-C ) :   1.1727 B(  2-N ,  9-H ) :   0.8501 B(  3-C ,  4-N ) :   1.6325
B(  3-C , 10-H ) :   0.9191 B(  4-N ,  5-C ) :   1.1521 B(  5-C ,  6-C ) :   1.4503
B(  5-C ,  7-C ) :   1.1647 B(  5-C ,  8-C ) :  -0.1731 B(  6-C , 11-H ) :   0.9362
B(  7-C ,  8-C ) :   2.5824 B(  8-C , 12-H ) :   0.8736

MP2 TOTAL ENERGY:     -414.916776445 Eh
FINAL SINGLE POINT ENERGY      -414.916776444735

DIPOLE MOMENT
-------------
                                X             Y             Z
Electronic contribution:     -0.51130      -0.71241       0.00353
Nuclear contribution   :     -0.01846       1.31067       0.00680
                        -----------------------------------------
Total Dipole Moment    :     -0.52976       0.59825       0.01033
                        -----------------------------------------
Magnitude (a.u.)       :      0.79916
Magnitude (Debye)      :      2.03130

                             ****ORCA TERMINATED NORMALLY****
TOTAL RUN TIME: 0 days 0 hours 14 minutes 35 seconds 445 msec
