                         Program Version 3.0.3 - RELEASE   -
|  1> ! RI-MP2 RIJK def2-TZVP def2-TZVP/C def2-TZVP/JK TIGHTSCF
|  2> % maxcore 2000
|  3> % mp2 density relaxed end
|  4> *xyz 0 1
|  5>  O       -0.2167903751     1.5454930927    -0.1649308058
|  6>  C        0.0540064329     0.1552317530    -0.0075396450
|  7>  C       -1.2938982744    -0.5142880448     0.3238203521
|  8>  C       -1.2927454541    -2.0434297392     0.1450427289
|  9>  C       -0.0474207084    -2.7403003072     0.6704604823
| 10>  C        0.5457967777    -3.8798471151    -0.1221085754
| 11>  C        1.2630591387    -2.5475140692    -0.0680014891
| 12>  C        1.3031816427    -1.6344348165    -1.2475950270
| 13>  C        0.7414438099    -0.4245966514    -1.2287957940
| 14>  H        0.6264923550     2.0019588103    -0.2474423276
| 15>  H        0.7195270839     0.0055029639     0.8564040556
| 16>  H       -1.5591243510    -0.2388679183     1.3506309265
| 17>  H       -2.0575881555    -0.0709838389    -0.3245896772
| 18>  H       -2.1824860652    -2.4660243159     0.6264385414
| 19>  H       -1.3896806461    -2.2698346650    -0.9210993624
| 20>  H        0.0206821014    -2.8142199330     1.7529647493
| 21>  H        0.9876540832    -4.7164654845     0.4082261680
| 22>  H        0.0493792129    -4.1517465947    -1.0486603130
| 23>  H        2.1649450997    -2.5446569119     0.5431585229
| 24>  H        1.8075525201    -1.9873683277    -2.1454693089
| 25>  H        0.7538289318     0.2127226432    -2.1105669415
| 26> *
| 27>
| 28>                          ****END OF INPUT****

CARTESIAN COORDINATES (ANGSTROEM)
---------------------------------
  O     -0.216790    1.545493   -0.164931
  C      0.054006    0.155232   -0.007540
  C     -1.293898   -0.514288    0.323820
  C     -1.292745   -2.043430    0.145043
  C     -0.047421   -2.740300    0.670460
  C      0.545797   -3.879847   -0.122109
  C      1.263059   -2.547514   -0.068001
  C      1.303182   -1.634435   -1.247595
  C      0.741444   -0.424597   -1.228796
  H      0.626492    2.001959   -0.247442
  H      0.719527    0.005503    0.856404
  H     -1.559124   -0.238868    1.350631
  H     -2.057588   -0.070984   -0.324590
  H     -2.182486   -2.466024    0.626439
  H     -1.389681   -2.269835   -0.921099
  H      0.020682   -2.814220    1.752965
  H      0.987654   -4.716465    0.408226
  H      0.049379   -4.151747   -1.048660
  H      2.164945   -2.544657    0.543159
  H      1.807553   -1.987368   -2.145469
  H      0.753829    0.212723   -2.110567

 Total Charge           Charge          ....    0
 Multiplicity           Mult            ....    1
 Number of Electrons    NEL             ....   68
 Basis Dimension        Dim             ....  351

ORBITAL ENERGIES
----------------

  NO   OCC          E(Eh)            E(eV)
   0   2.0000     -20.552702      -559.2675
   1   2.0000     -11.279287      -306.9250
   2   2.0000     -11.233051      -305.6669
   3   2.0000     -11.230505      -305.5976
   4   2.0000     -11.228424      -305.5410
   5   2.0000     -11.224998      -305.4477
   6   2.0000     -11.223848      -305.4164
   7   2.0000     -11.220053      -305.3132
   8   2.0000     -11.215801      -305.1975
   9   2.0000      -1.358775       -36.9742
  10   2.0000      -1.160779       -31.5864
  11   2.0000      -1.062367       -28.9085
  12   2.0000      -1.031502       -28.0686
  13   2.0000      -0.916669       -24.9438
  14   2.0000      -0.865704       -23.5570
  15   2.0000      -0.817679       -22.2502
  16   2.0000      -0.757057       -20.6006
  17   2.0000      -0.727006       -19.7829
  18   2.0000      -0.697288       -18.9742
  19   2.0000      -0.675798       -18.3894
  20   2.0000      -0.627670       -17.0798
  21   2.0000      -0.615493       -16.7484
  22   2.0000      -0.594868       -16.1872
  23   2.0000      -0.578539       -15.7428
  24   2.0000      -0.548281       -14.9195
  25   2.0000      -0.532515       -14.4905
  26   2.0000      -0.505894       -13.7661
  27   2.0000      -0.500895       -13.6300
  28   2.0000      -0.481688       -13.1074
  29   2.0000      -0.469542       -12.7769
  30   2.0000      -0.440970       -11.9994
  31   2.0000      -0.419123       -11.4049
  32   2.0000      -0.398201       -10.8356
  33   2.0000      -0.345033        -9.3888
  34   0.0000       0.134012         3.6466
  35   0.0000       0.137792         3.7495
  36   0.0000       0.156435         4.2568
  37   0.0000       0.160397         4.3646
  38   0.0000       0.170934         4.6513

MULLIKEN ATOMIC CHARGES
-----------------------
   0 O :   -0.466253
   1 C :    0.205389
   2 C :   -0.244323
   3 C :   -0.186573
   4 C :   -0.116140
   5 C :   -0.295907
   6 C :   -0.083042
   7 C :   -0.162733
   8 C :   -0.288949
   9 H :    0.313643
  10 H :    0.082538
  11 H :    0.117448
  12 H :    0.122596
  13 H :    0.125277
  14 H :    0.116967
  15 H :    0.116764
  16 H :    0.131140
  17 H :    0.131805
  18 H :    0.127180
  19 H :    0.124773
  20 H :    0.128399
Sum of atomic charges:    0.0000000

LOEWDIN ATOMIC CHARGES
----------------------
   0 O :   -0.021616
   1 C :   -0.329357
   2 C :   -0.235125
   3 C :   -0.240588
   4 C :   -0.202745
   5 C :   -0.202329
   6 C :   -0.199536
   7 C :   -0.155696
   8 C :   -0.154621
   9 H :    0.172722
  10 H :    0.143274
  11 H :    0.139366
  12 H :    0.144585
  13 H :    0.141924
  14 H :    0.146227
  15 H :    0.145581
  16 H :    0.131092
  17 H :    0.135553
  18 H :    0.153128
  19 H :    0.144112
  20 H :    0.144050

  Mayer bond orders larger than 0.1
B(  0-O ,  1-C ) :   0.9464 B(  0-O ,  9-H ) :   0.8477 B(  1-C ,  2-C ) :   0.9203
B(  1-C ,  8-C ) :   0.9381 B(  1-C , 10-H ) :   0.9176 B(  2-C ,  3-C ) :   0.9268
B(  2-C , 11-H ) :   0.9321 B(  2-C , 12-H ) :   0.9256 B(  3-C ,  4-C ) :   0.9120
B(  3-C , 13-H ) :   0.9340 B(  3-C , 14-H ) :   0.9211 B(  4-C ,  5-C ) :   0.8956
B(  4-C ,  6-C ) :   0.8920 B(  4-C , 15-H ) :   0.9285 B(  5-C ,  6-C ) :   0.8781
B(  5-C , 16-H ) :   0.9318 B(  5-C , 17-H ) :   0.9220 B(  6-C ,  7-C ) :   0.9017
B(  6-C , 18-H ) :   0.9236 B(  7-C ,  8-C ) :   1.7630 B(  7-C , 19-H ) :   0.9218
B(  8-C , 20-H ) :   0.9270

MP2 TOTAL ENERGY:     -386.406062538 Eh
FINAL SINGLE POINT ENERGY      -386.406062538138

DIPOLE MOMENT
-------------
                                X             Y             Z
Electronic contribution:      1.60258       3.17045      -0.73604
Nuclear contribution   :     -1.12659      -3.48224       0.84361
                        -----------------------------------------
Total Dipole Moment    :      0.47599      -0.31179       0.10757
                        -----------------------------------------
Magnitude (a.u.)       :      0.57909
Magnitude (Debye)      :      1.47193

                             ****ORCA TERMINATED NORMALLY****
TOTAL RUN TIME: 0 days 0 hours 18 minutes 59 seconds 741 msec
