                         Program Version 3.0.3 - RELEASE   -
|  1> ! RI-MP2 RIJK def2-TZVP def2-TZVP/C def2-TZVP/JK TIGHTSCF
|  2> % maxcore 2000
|  3> % mp2 density relaxed end
|  4> *xyz 0 1
|  5>  C        0.0200560893     1.5965379992     0.1313656259
|  6>  C        1.5540682651     1.5041533306     0.1281295450
|  7>  C        1.5197236234     0.0118743963    -0.1284475872
|  8>  C       -0.0184292176     0.0334129289    -0.0401573562
|  9>  O       -0.7983183664    -0.6052983383    -1.0172550328
| 10>  C       -0.7686990693    -0.0658226888    -2.3267509728
| 11>  C        0.6207762004     0.0432087250    -2.9614547785
| 12>  C        1.4962033068     1.1790219354    -2.4199317716
| 13>  N        2.0741801778     0.9350231810    -1.0915157857
| 14>  H       -0.4053953875     1.9138349438     1.0852082358
| 15>  H       -0.4185892503     2.2071853904    -0.6614412171
| 16>  H        2.2228949910     2.0714073571     0.7662069209
| 17>  H        2.1554745941    -0.7812485960     0.2531442947
| 18>  H       -0.3288119443    -0.4239019945     0.9038200457
| 19>  H       -1.3917637040    -0.7439526540    -2.9184127108
| 20>  H       -1.2574332503     0.9221527295    -2.3471783111
| 21>  H        1.1471952549    -0.9127749326    -2.8534291523
| 22>  H        0.4800535514     0.2075912199    -4.0376989294
| 23>  H        2.3369952596     1.3325593199    -3.1069266088
| 24>  H        0.9251311460     2.1178574670    -2.4214120036
| 25> *
| 26>
| 27>                          ****END OF INPUT****

CARTESIAN COORDINATES (ANGSTROEM)
---------------------------------
  C      0.020056    1.596538    0.131366
  C      1.554068    1.504153    0.128130
  C      1.519724    0.011874   -0.128448
  C     -0.018429    0.033413   -0.040157
  O     -0.798318   -0.605298   -1.017255
  C     -0.768699   -0.065823   -2.326751
  C      0.620776    0.043209   -2.961455
  C      1.496203    1.179022   -2.419932
  N      2.074180    0.935023   -1.091516
  H     -0.405395    1.913835    1.085208
  H     -0.418589    2.207185   -0.661441
  H      2.222895    2.071407    0.766207
  H      2.155475   -0.781249    0.253144
  H     -0.328812   -0.423902    0.903820
  H     -1.391764   -0.743953   -2.918413
  H     -1.257433    0.922153   -2.347178
  H      1.147195   -0.912775   -2.853429
  H      0.480054    0.207591   -4.037699
  H      2.336995    1.332559   -3.106927
  H      0.925131    2.117857   -2.421412

 Total Charge           Charge          ....    0
 Multiplicity           Mult            ....    1
 Number of Electrons    NEL             ....   68
 Basis Dimension        Dim             ....  345

ORBITAL ENERGIES
----------------

  NO   OCC          E(Eh)            E(eV)
   0   2.0000     -20.552380      -559.2587
   1   2.0000     -15.556971      -423.3267
   2   2.0000     -11.285953      -307.1064
   3   2.0000     -11.273831      -306.7765
   4   2.0000     -11.261528      -306.4418
   5   2.0000     -11.253525      -306.2240
   6   2.0000     -11.251509      -306.1691
   7   2.0000     -11.230947      -305.6096
   8   2.0000     -11.224992      -305.4476
   9   2.0000      -1.376331       -37.4519
  10   2.0000      -1.287706       -35.0403
  11   2.0000      -1.086113       -29.5546
  12   2.0000      -1.013019       -27.5657
  13   2.0000      -0.958577       -26.0842
  14   2.0000      -0.906699       -24.6725
  15   2.0000      -0.814985       -22.1769
  16   2.0000      -0.767489       -20.8844
  17   2.0000      -0.744823       -20.2677
  18   2.0000      -0.706538       -19.2259
  19   2.0000      -0.682287       -18.5660
  20   2.0000      -0.654181       -17.8012
  21   2.0000      -0.626160       -17.0387
  22   2.0000      -0.589607       -16.0440
  23   2.0000      -0.579477       -15.7684
  24   2.0000      -0.564811       -15.3693
  25   2.0000      -0.541737       -14.7414
  26   2.0000      -0.518173       -14.1002
  27   2.0000      -0.505630       -13.7589
  28   2.0000      -0.493316       -13.4238
  29   2.0000      -0.457201       -12.4411
  30   2.0000      -0.441427       -12.0118
  31   2.0000      -0.421015       -11.4564
  32   2.0000      -0.393158       -10.6984
  33   2.0000      -0.367684       -10.0052
  34   0.0000       0.142174         3.8687
  35   0.0000       0.156852         4.2682
  36   0.0000       0.160268         4.3611
  37   0.0000       0.177256         4.8234
  38   0.0000       0.191386         5.2079

MULLIKEN ATOMIC CHARGES
-----------------------
   0 C :   -0.262495
   1 C :   -0.111784
   2 C :   -0.072955
   3 C :    0.075546
   4 O :   -0.301759
   5 C :   -0.089804
   6 C :   -0.204076
   7 C :   -0.168397
   8 N :   -0.199718
   9 H :    0.127586
  10 H :    0.125192
  11 H :    0.131590
  12 H :    0.134296
  13 H :    0.108413
  14 H :    0.130083
  15 H :    0.093043
  16 H :    0.117137
  17 H :    0.120758
  18 H :    0.131233
  19 H :    0.116112
Sum of atomic charges:   -0.0000000

LOEWDIN ATOMIC CHARGES
----------------------
   0 C :   -0.211017
   1 C :   -0.215551
   2 C :   -0.210202
   3 C :   -0.291823
   4 O :    0.177825
   5 C :   -0.323361
   6 C :   -0.272038
   7 C :   -0.284859
   8 N :    0.146503
   9 H :    0.136451
  10 H :    0.127669
  11 H :    0.131111
  12 H :    0.130779
  13 H :    0.149861
  14 H :    0.131770
  15 H :    0.119905
  16 H :    0.145321
  17 H :    0.146428
  18 H :    0.134456
  19 H :    0.130773

  Mayer bond orders larger than 0.1
B(  0-C ,  1-C ) :   0.9073 B(  0-C ,  3-C ) :   0.9282 B(  0-C ,  9-H ) :   0.9150
B(  0-C , 10-H ) :   0.9279 B(  1-C ,  2-C ) :   0.7843 B(  1-C ,  8-N ) :   0.9441
B(  1-C , 11-H ) :   0.9285 B(  2-C ,  3-C ) :   0.8457 B(  2-C ,  8-N ) :   0.9138
B(  2-C , 12-H ) :   0.9309 B(  3-C ,  4-O ) :   0.9920 B(  3-C , 13-H ) :   0.9365
B(  4-O ,  5-C ) :   0.9235 B(  5-C ,  6-C ) :   0.9327 B(  5-C , 14-H ) :   0.9291
B(  5-C , 15-H ) :   0.9390 B(  6-C ,  7-C ) :   0.9302 B(  6-C , 16-H ) :   0.9166
B(  6-C , 17-H ) :   0.9166 B(  7-C ,  8-N ) :   0.8869 B(  7-C , 18-H ) :   0.9321
B(  7-C , 19-H ) :   0.9366

MP2 TOTAL ENERGY:     -402.408103661 Eh
FINAL SINGLE POINT ENERGY      -402.408103661170

DIPOLE MOMENT
-------------
                                X             Y             Z
Electronic contribution:      0.89403      -1.82344       2.83954
Nuclear contribution   :     -1.06187       2.20830      -2.96831
                        -----------------------------------------
Total Dipole Moment    :     -0.16785       0.38486      -0.12877
                        -----------------------------------------
Magnitude (a.u.)       :      0.43917
Magnitude (Debye)      :      1.11628

                             ****ORCA TERMINATED NORMALLY****
TOTAL RUN TIME: 0 days 0 hours 18 minutes 58 seconds 966 msec
