                         Program Version 3.0.3 - RELEASE   -
|  1> ! RI-MP2 RIJK def2-TZVP def2-TZVP/C def2-TZVP/JK TIGHTSCF
|  2> % maxcore 2000
|  3> % mp2 density relaxed end
|  4> *xyz 0 1
|  5>  O       -0.0748413188    -0.0571311911    -0.0473660420
|  6>  C       -0.0316397275     1.1457215175     0.0074809756
|  7>  C       -1.1884118070     2.0968452935     0.0424282997
|  8>  C       -0.7839876842     3.3437189468     0.3817020994
|  9>  C        0.6529499422     3.3475695961     0.5876333129
| 10>  C        1.5884413408     3.9217599213     1.3436541499
| 11>  C        2.8005566161     3.0084987538     1.3495149891
| 12>  O        2.3545978130     1.7715441951     0.7705006995
| 13>  C        1.2058011711     2.0708004507     0.0123406229
| 14>  H       -2.2097032257     1.7702361486    -0.1090186421
| 15>  H       -1.4350394615     4.1954929456     0.5412623174
| 16>  H        1.5112037903     4.8157701682     1.9481534744
| 17>  H        3.6451735808     3.4233986821     0.7733461174
| 18>  H        3.1628421314     2.8032658025     2.3642564116
| 19>  H        1.4623624192     2.2100248792    -1.0568662857
| 20> *
| 21>
| 22>                          ****END OF INPUT****

CARTESIAN COORDINATES (ANGSTROEM)
---------------------------------
  O     -0.074841   -0.057131   -0.047366
  C     -0.031640    1.145722    0.007481
  C     -1.188412    2.096845    0.042428
  C     -0.783988    3.343719    0.381702
  C      0.652950    3.347570    0.587633
  C      1.588441    3.921760    1.343654
  C      2.800557    3.008499    1.349515
  O      2.354598    1.771544    0.770501
  C      1.205801    2.070800    0.012341
  H     -2.209703    1.770236   -0.109019
  H     -1.435039    4.195493    0.541262
  H      1.511204    4.815770    1.948153
  H      3.645174    3.423399    0.773346
  H      3.162842    2.803266    2.364256
  H      1.462362    2.210025   -1.056866

 Total Charge           Charge          ....    0
 Multiplicity           Mult            ....    1
 Number of Electrons    NEL             ....   64
 Basis Dimension        Dim             ....  315

ORBITAL ENERGIES
----------------

  NO   OCC          E(Eh)            E(eV)
   0   2.0000     -20.571179      -559.7702
   1   2.0000     -20.550779      -559.2151
   2   2.0000     -11.338619      -308.5395
   3   2.0000     -11.299104      -307.4642
   4   2.0000     -11.297903      -307.4316
   5   2.0000     -11.284972      -307.0797
   6   2.0000     -11.261768      -306.4483
   7   2.0000     -11.259547      -306.3879
   8   2.0000     -11.257065      -306.3203
   9   2.0000      -1.403322       -38.1863
  10   2.0000      -1.386117       -37.7181
  11   2.0000      -1.169804       -31.8320
  12   2.0000      -1.066106       -29.0102
  13   2.0000      -0.993720       -27.0405
  14   2.0000      -0.919218       -25.0132
  15   2.0000      -0.836531       -22.7632
  16   2.0000      -0.770447       -20.9649
  17   2.0000      -0.757607       -20.6155
  18   2.0000      -0.692859       -18.8536
  19   2.0000      -0.685615       -18.6565
  20   2.0000      -0.641460       -17.4550
  21   2.0000      -0.626489       -17.0476
  22   2.0000      -0.617328       -16.7984
  23   2.0000      -0.601641       -16.3715
  24   2.0000      -0.570275       -15.5180
  25   2.0000      -0.542560       -14.7638
  26   2.0000      -0.519568       -14.1382
  27   2.0000      -0.513133       -13.9630
  28   2.0000      -0.459567       -12.5055
  29   2.0000      -0.451153       -12.2765
  30   2.0000      -0.401569       -10.9273
  31   2.0000      -0.340056        -9.2534
  32   0.0000       0.059792         1.6270
  33   0.0000       0.132101         3.5946
  34   0.0000       0.150815         4.1039
  35   0.0000       0.157121         4.2755
  36   0.0000       0.174434         4.7466

MULLIKEN ATOMIC CHARGES
-----------------------
   0 O :   -0.259712
   1 C :    0.158904
   2 C :   -0.160843
   3 C :   -0.138270
   4 C :   -0.007709
   5 C :   -0.217846
   6 C :    0.009864
   7 O :   -0.315629
   8 C :    0.139451
   9 H :    0.151394
  10 H :    0.153149
  11 H :    0.147067
  12 H :    0.107773
  13 H :    0.128518
  14 H :    0.103891
Sum of atomic charges:    0.0000000

LOEWDIN ATOMIC CHARGES
----------------------
   0 O :    0.165375
   1 C :   -0.287458
   2 C :   -0.091486
   3 C :   -0.071277
   4 C :   -0.146628
   5 C :   -0.116223
   6 C :   -0.264306
   7 O :    0.183776
   8 C :   -0.228430
   9 H :    0.145703
  10 H :    0.147931
  11 H :    0.142497
  12 H :    0.127083
  13 H :    0.132564
  14 H :    0.160880

  Mayer bond orders larger than 0.1
B(  0-O ,  1-C ) :   2.0158 B(  1-C ,  2-C ) :   0.9640 B(  1-C ,  8-C ) :   0.8723
B(  2-C ,  3-C ) :   1.5942 B(  2-C ,  9-H ) :   0.9118 B(  3-C ,  4-C ) :   0.9988
B(  3-C , 10-H ) :   0.9062 B(  4-C ,  5-C ) :   1.6607 B(  4-C ,  8-C ) :   0.9173
B(  5-C ,  6-C ) :   0.9666 B(  5-C , 11-H ) :   0.9135 B(  6-C ,  7-O ) :   0.9254
B(  6-C , 12-H ) :   0.9104 B(  6-C , 13-H ) :   0.9178 B(  7-O ,  8-C ) :   0.9561
B(  8-C , 14-H ) :   0.8884

MP2 TOTAL ENERGY:     -419.918819083 Eh
FINAL SINGLE POINT ENERGY      -419.918819083404

DIPOLE MOMENT
-------------
                                X             Y             Z
Electronic contribution:     -1.70025      -3.58301      -1.17404
Nuclear contribution   :      1.45271       5.34890       1.37862
                        -----------------------------------------
Total Dipole Moment    :     -0.24754       1.76588       0.20459
                        -----------------------------------------
Magnitude (a.u.)       :      1.79485
Magnitude (Debye)      :      4.56214

                             ****ORCA TERMINATED NORMALLY****
TOTAL RUN TIME: 0 days 0 hours 16 minutes 10 seconds 776 msec
