                         Program Version 3.0.3 - RELEASE   -
|  1> ! RI-MP2 RIJK def2-TZVP def2-TZVP/C def2-TZVP/JK TIGHTSCF
|  2> % maxcore 2000
|  3> % mp2 density relaxed end
|  4> *xyz 0 1
|  5>  C       -0.0432929118     1.5167245565     0.1281131325
|  6>  C       -0.0244096985     0.0287197869    -0.0007460623
|  7>  C       -0.0036808450    -0.7464519557    -1.1097868820
|  8>  C       -0.0279552463    -2.2293743242    -0.7808970949
|  9>  C        0.0285046566    -2.2464265301     0.7371922808
| 10>  O        1.2081900232    -1.6513315689     1.2801033395
| 11>  C        0.0082608675    -0.8503046945     1.2122795371
| 12>  C        0.0493042271    -0.2857514857    -2.4954967104
| 13>  O        0.0903551601    -1.0349502610    -3.4499155182
| 14>  H        0.8638008442     1.8661707799     0.6368564631
| 15>  H       -0.1176188086     2.0305945294    -0.8311821704
| 16>  H       -0.8893432717     1.8338767146     0.7505960109
| 17>  H       -0.9411210814    -2.7052679095    -1.1565428078
| 18>  H        0.8146554828    -2.7621823622    -1.2332103909
| 19>  H       -0.3842521918    -3.0709189139     1.3115470743
| 20>  H       -0.3878418068    -0.5236239085     2.1697823197
| 21>  H        0.0408217804     0.8151992270    -2.6418076309
| 22> *
| 23>
| 24>                          ****END OF INPUT****

CARTESIAN COORDINATES (ANGSTROEM)
---------------------------------
  C     -0.043293    1.516725    0.128113
  C     -0.024410    0.028720   -0.000746
  C     -0.003681   -0.746452   -1.109787
  C     -0.027955   -2.229374   -0.780897
  C      0.028505   -2.246427    0.737192
  O      1.208190   -1.651332    1.280103
  C      0.008261   -0.850305    1.212280
  C      0.049304   -0.285751   -2.495497
  O      0.090355   -1.034950   -3.449916
  H      0.863801    1.866171    0.636856
  H     -0.117619    2.030595   -0.831182
  H     -0.889343    1.833877    0.750596
  H     -0.941121   -2.705268   -1.156543
  H      0.814655   -2.762182   -1.233210
  H     -0.384252   -3.070919    1.311547
  H     -0.387842   -0.523624    2.169782
  H      0.040822    0.815199   -2.641808

 Total Charge           Charge          ....    0
 Multiplicity           Mult            ....    1
 Number of Electrons    NEL             ....   66
 Basis Dimension        Dim             ....  327

ORBITAL ENERGIES
----------------

  NO   OCC          E(Eh)            E(eV)
   0   2.0000     -20.579385      -559.9935
   1   2.0000     -20.551730      -559.2410
   2   2.0000     -11.331493      -308.3456
   3   2.0000     -11.300680      -307.5071
   4   2.0000     -11.297728      -307.4268
   5   2.0000     -11.276994      -306.8626
   6   2.0000     -11.251349      -306.1648
   7   2.0000     -11.247751      -306.0669
   8   2.0000     -11.241254      -305.8901
   9   2.0000      -1.423964       -38.7480
  10   2.0000      -1.387391       -37.7528
  11   2.0000      -1.143489       -31.1159
  12   2.0000      -1.035713       -28.1832
  13   2.0000      -0.962030       -26.1782
  14   2.0000      -0.937617       -25.5139
  15   2.0000      -0.852764       -23.2049
  16   2.0000      -0.806807       -21.9543
  17   2.0000      -0.734725       -19.9929
  18   2.0000      -0.713822       -19.4241
  19   2.0000      -0.666929       -18.1481
  20   2.0000      -0.634556       -17.2671
  21   2.0000      -0.614792       -16.7294
  22   2.0000      -0.603413       -16.4197
  23   2.0000      -0.598506       -16.2862
  24   2.0000      -0.583036       -15.8652
  25   2.0000      -0.554320       -15.0838
  26   2.0000      -0.534871       -14.5546
  27   2.0000      -0.527850       -14.3635
  28   2.0000      -0.518791       -14.1170
  29   2.0000      -0.472134       -12.8474
  30   2.0000      -0.438086       -11.9209
  31   2.0000      -0.422086       -11.4855
  32   2.0000      -0.360877        -9.8200
  33   0.0000       0.075011         2.0412
  34   0.0000       0.130620         3.5544
  35   0.0000       0.153481         4.1764
  36   0.0000       0.166740         4.5372
  37   0.0000       0.183629         4.9968

MULLIKEN ATOMIC CHARGES
-----------------------
   0 C :   -0.410867
   1 C :    0.039059
   2 C :   -0.039631
   3 C :   -0.116667
   4 C :   -0.030938
   5 O :   -0.312817
   6 C :    0.040741
   7 C :    0.058229
   8 O :   -0.284269
   9 H :    0.159441
  10 H :    0.140128
  11 H :    0.149559
  12 H :    0.128463
  13 H :    0.140631
  14 H :    0.132042
  15 H :    0.135617
  16 H :    0.071280
Sum of atomic charges:    0.0000000

LOEWDIN ATOMIC CHARGES
----------------------
   0 C :   -0.262347
   1 C :   -0.111829
   2 C :   -0.132489
   3 C :   -0.182892
   4 C :   -0.241307
   5 O :    0.174310
   6 C :   -0.207155
   7 C :   -0.273631
   8 O :    0.125164
   9 H :    0.141662
  10 H :    0.129193
  11 H :    0.138378
  12 H :    0.153324
  13 H :    0.157964
  14 H :    0.136506
  15 H :    0.139230
  16 H :    0.115919

  Mayer bond orders larger than 0.1
B(  0-C ,  1-C ) :   0.8800 B(  0-C ,  9-H ) :   0.9210 B(  0-C , 10-H ) :   0.9554
B(  0-C , 11-H ) :   0.9297 B(  1-C ,  2-C ) :   1.6005 B(  1-C ,  6-C ) :   0.9166
B(  2-C ,  3-C ) :   0.9494 B(  2-C ,  7-C ) :   0.8749 B(  2-C ,  8-O ) :  -0.1147
B(  2-C , 16-H ) :  -0.1094 B(  3-C ,  4-C ) :   0.9272 B(  3-C , 12-H ) :   0.8963
B(  3-C , 13-H ) :   0.8861 B(  4-C ,  5-O ) :   0.9336 B(  4-C ,  6-C ) :   0.9566
B(  4-C , 14-H ) :   0.9351 B(  5-O ,  6-C ) :   0.9110 B(  6-C , 15-H ) :   0.9228
B(  7-C ,  8-O ) :   1.9843 B(  7-C , 16-H ) :   0.9911

MP2 TOTAL ENERGY:     -421.117154574 Eh
FINAL SINGLE POINT ENERGY      -421.117154573777

DIPOLE MOMENT
-------------
                                X             Y             Z
Electronic contribution:      1.40290      -3.25073      -1.92103
Nuclear contribution   :     -2.10993       3.87108       2.88695
                        -----------------------------------------
Total Dipole Moment    :     -0.70703       0.62035       0.96591
                        -----------------------------------------
Magnitude (a.u.)       :      1.34823
Magnitude (Debye)      :      3.42692

                             ****ORCA TERMINATED NORMALLY****
TOTAL RUN TIME: 0 days 0 hours 16 minutes 14 seconds 192 msec
