                         Program Version 3.0.3 - RELEASE   -
|  1> ! RI-MP2 RIJK def2-TZVP def2-TZVP/C def2-TZVP/JK TIGHTSCF
|  2> % maxcore 2000
|  3> % mp2 density relaxed end
|  4> *xyz 0 1
|  5>  C       -0.0130300188     1.3275053054    -0.0365781406
|  6>  O        0.0097907738    -0.0794575143    -0.0837880070
|  7>  C       -1.2714469702    -0.6543668644     0.0825010479
|  8>  C       -1.1188418345    -2.1398550509     0.0564649980
|  9>  N       -0.4104485582    -2.9365848554     1.1122462547
| 10>  C       -0.8590001287    -3.9658202368     0.1184721814
| 11>  C       -2.2164371267    -3.2299757807    -0.1205546680
| 12>  N       -2.1138777248    -3.1793935977    -1.6156123946
| 13>  C       -0.6947237239    -3.0533436731    -1.1455488297
| 14>  H        1.0134610857     1.6760708956    -0.1736600597
| 15>  H       -0.6430436981     1.7526700837    -0.8338491149
| 16>  H       -0.3884857076     1.6978304096     0.9305089138
| 17>  H       -1.7165542934    -0.3413602293     1.0416268726
| 18>  H       -1.9536096589    -0.3479954684    -0.7272671543
| 19>  H        0.5984527489    -2.7837206483     1.0362653075
| 20>  H       -0.6711630042    -5.0354823152     0.2301970564
| 21>  H       -3.1543406874    -3.3341556542     0.4254447598
| 22>  H       -2.2740968611    -4.1102097598    -2.0097945558
| 23>  H        0.1589101081    -2.9395960660    -1.8159228474
| 24> *
| 25>
| 26>                          ****END OF INPUT****

CARTESIAN COORDINATES (ANGSTROEM)
---------------------------------
  C     -0.013030    1.327505   -0.036578
  O      0.009791   -0.079458   -0.083788
  C     -1.271447   -0.654367    0.082501
  C     -1.118842   -2.139855    0.056465
  N     -0.410449   -2.936585    1.112246
  C     -0.859000   -3.965820    0.118472
  C     -2.216437   -3.229976   -0.120555
  N     -2.113878   -3.179394   -1.615612
  C     -0.694724   -3.053344   -1.145549
  H      1.013461    1.676071   -0.173660
  H     -0.643044    1.752670   -0.833849
  H     -0.388486    1.697830    0.930509
  H     -1.716554   -0.341360    1.041627
  H     -1.953610   -0.347995   -0.727267
  H      0.598453   -2.783721    1.036265
  H     -0.671163   -5.035482    0.230197
  H     -3.154341   -3.334156    0.425445
  H     -2.274097   -4.110210   -2.009795
  H      0.158910   -2.939596   -1.815923

 Total Charge           Charge          ....    0
 Multiplicity           Mult            ....    1
 Number of Electrons    NEL             ....   68
 Basis Dimension        Dim             ....  339

ORBITAL ENERGIES
----------------

  NO   OCC          E(Eh)            E(eV)
   0   2.0000     -20.559126      -559.4423
   1   2.0000     -15.552606      -423.2079
   2   2.0000     -15.548172      -423.0873
   3   2.0000     -11.278598      -306.9062
   4   2.0000     -11.275798      -306.8301
   5   2.0000     -11.274688      -306.7998
   6   2.0000     -11.273782      -306.7752
   7   2.0000     -11.272510      -306.7406
   8   2.0000     -11.272148      -306.7307
   9   2.0000      -1.380036       -37.5527
  10   2.0000      -1.326488       -36.0956
  11   2.0000      -1.176897       -32.0250
  12   2.0000      -1.005975       -27.3740
  13   2.0000      -0.951810       -25.9001
  14   2.0000      -0.902274       -24.5521
  15   2.0000      -0.881843       -23.9962
  16   2.0000      -0.831055       -22.6142
  17   2.0000      -0.711601       -19.3636
  18   2.0000      -0.695228       -18.9181
  19   2.0000      -0.676378       -18.4052
  20   2.0000      -0.661378       -17.9970
  21   2.0000      -0.654826       -17.8187
  22   2.0000      -0.609074       -16.5738
  23   2.0000      -0.585900       -15.9431
  24   2.0000      -0.577923       -15.7261
  25   2.0000      -0.545176       -14.8350
  26   2.0000      -0.497380       -13.5344
  27   2.0000      -0.490487       -13.3468
  28   2.0000      -0.470893       -12.8136
  29   2.0000      -0.457179       -12.4405
  30   2.0000      -0.433480       -11.7956
  31   2.0000      -0.424869       -11.5613
  32   2.0000      -0.389450       -10.5975
  33   2.0000      -0.371661       -10.1134
  34   0.0000       0.144732         3.9384
  35   0.0000       0.148224         4.0334
  36   0.0000       0.159728         4.3464
  37   0.0000       0.176960         4.8153
  38   0.0000       0.182487         4.9657

MULLIKEN ATOMIC CHARGES
-----------------------
   0 C :   -0.226036
   1 O :   -0.303153
   2 C :   -0.165508
   3 C :    0.132058
   4 N :   -0.336421
   5 C :   -0.092863
   6 C :   -0.028618
   7 N :   -0.356282
   8 C :   -0.024339
   9 H :    0.139333
  10 H :    0.113840
  11 H :    0.114545
  12 H :    0.108483
  13 H :    0.124856
  14 H :    0.208237
  15 H :    0.129895
  16 H :    0.128562
  17 H :    0.199280
  18 H :    0.134131
Sum of atomic charges:    0.0000000

LOEWDIN ATOMIC CHARGES
----------------------
   0 C :   -0.360138
   1 O :    0.135446
   2 C :   -0.290941
   3 C :   -0.232022
   4 N :    0.016428
   5 C :   -0.198341
   6 C :   -0.165768
   7 N :   -0.010822
   8 C :   -0.176639
   9 H :    0.113598
  10 H :    0.102347
  11 H :    0.102212
  12 H :    0.130965
  13 H :    0.136692
  14 H :    0.162365
  15 H :    0.122693
  16 H :    0.127496
  17 H :    0.157695
  18 H :    0.126734

  Mayer bond orders larger than 0.1
B(  0-C ,  1-O ) :   0.9188 B(  0-C ,  9-H ) :   0.9394 B(  0-C , 10-H ) :   0.9371
B(  0-C , 11-H ) :   0.9384 B(  1-O ,  2-C ) :   1.0026 B(  2-C ,  3-C ) :   0.8705
B(  2-C , 12-H ) :   0.9216 B(  2-C , 13-H ) :   0.9265 B(  3-C ,  4-N ) :   0.9210
B(  3-C ,  6-C ) :   0.8478 B(  3-C ,  8-C ) :   0.8278 B(  4-N ,  5-C ) :   0.9118
B(  4-N , 14-H ) :   0.8748 B(  5-C ,  6-C ) :   0.8646 B(  5-C ,  8-C ) :   0.8533
B(  5-C , 15-H ) :   0.9134 B(  6-C ,  7-N ) :   0.9197 B(  6-C , 16-H ) :   0.8907
B(  7-N ,  8-C ) :   0.8996 B(  7-N , 17-H ) :   0.8695 B(  8-C , 18-H ) :   0.9042

MP2 TOTAL ENERGY:     -418.369476043 Eh
FINAL SINGLE POINT ENERGY      -418.369476043196

DIPOLE MOMENT
-------------
                                X             Y             Z
Electronic contribution:     -0.25796      -5.12072      -0.12854
Nuclear contribution   :      0.34708       5.06116      -0.07877
                        -----------------------------------------
Total Dipole Moment    :      0.08912      -0.05956      -0.20731
                        -----------------------------------------
Magnitude (a.u.)       :      0.23338
Magnitude (Debye)      :      0.59321

                             ****ORCA TERMINATED NORMALLY****
TOTAL RUN TIME: 0 days 0 hours 15 minutes 37 seconds 401 msec
