                         Program Version 3.0.3 - RELEASE   -
|  1> ! RI-MP2 RIJK def2-TZVP def2-TZVP/C def2-TZVP/JK TIGHTSCF
|  2> % maxcore 2000
|  3> % mp2 density relaxed end
|  4> *xyz 0 1
|  5>  C       -0.0126215170     1.6052922884     0.0271214811
|  6>  C        0.0311221282     0.0725701743     0.0363529206
|  7>  C        0.8516520127    -0.5356295916    -1.1459661791
|  8>  C        1.5902095772    -1.7873481561    -0.5861603470
|  9>  C        1.5505161826    -1.5352328232     0.8950830371
| 10>  C        0.7179189728    -0.5473201431     1.2266699379
| 11>  C        0.5801658105    -0.3792265977     2.7150029066
| 12>  C        1.7439732052    -1.2667506958     3.2552133024
| 13>  C        2.1424875610    -2.2261165435     2.0915105911
| 14>  H        0.9981889109     2.0240505329     0.0888913893
| 15>  H       -0.4763132060     1.9799696037    -0.8918060687
| 16>  H       -0.5897131018     1.9941682515     0.8728068893
| 17>  H       -1.0088618824    -0.2894648236    -0.0091795641
| 18>  H        0.2273861643    -0.7639251362    -2.0144664843
| 19>  H        1.5930173046     0.2029264747    -1.4716327168
| 20>  H        1.0657170294    -2.7199320976    -0.8418484045
| 21>  H        2.6039182914    -1.8891848169    -0.9922446378
| 22>  H        0.6621358218     0.6598747298     3.0552997794
| 23>  H       -0.4008010782    -0.7359287566     3.0629851555
| 24>  H        2.5975652005    -0.6278690075     3.5021313837
| 25>  H        1.4734553955    -1.8033589147     4.1684075557
| 26>  H        1.7109523588    -3.2296221211     2.2220582489
| 27>  H        3.2278449978    -2.3697942902     2.0268710937
| 28> *
| 29>
| 30>                          ****END OF INPUT****

CARTESIAN COORDINATES (ANGSTROEM)
---------------------------------
  C     -0.012622    1.605292    0.027121
  C      0.031122    0.072570    0.036353
  C      0.851652   -0.535630   -1.145966
  C      1.590210   -1.787348   -0.586160
  C      1.550516   -1.535233    0.895083
  C      0.717919   -0.547320    1.226670
  C      0.580166   -0.379227    2.715003
  C      1.743973   -1.266751    3.255213
  C      2.142488   -2.226117    2.091511
  H      0.998189    2.024051    0.088891
  H     -0.476313    1.979970   -0.891806
  H     -0.589713    1.994168    0.872807
  H     -1.008862   -0.289465   -0.009180
  H      0.227386   -0.763925   -2.014466
  H      1.593017    0.202926   -1.471633
  H      1.065717   -2.719932   -0.841848
  H      2.603918   -1.889185   -0.992245
  H      0.662136    0.659875    3.055300
  H     -0.400801   -0.735929    3.062985
  H      2.597565   -0.627869    3.502131
  H      1.473455   -1.803359    4.168408
  H      1.710952   -3.229622    2.222058
  H      3.227845   -2.369794    2.026871

 Total Charge           Charge          ....    0
 Multiplicity           Mult            ....    1
 Number of Electrons    NEL             ....   68
 Basis Dimension        Dim             ....  363

ORBITAL ENERGIES
----------------

  NO   OCC          E(Eh)            E(eV)
   0   2.0000     -11.225077      -305.4499
   1   2.0000     -11.219191      -305.2897
   2   2.0000     -11.219095      -305.2871
   3   2.0000     -11.218887      -305.2814
   4   2.0000     -11.217671      -305.2483
   5   2.0000     -11.215479      -305.1887
   6   2.0000     -11.209455      -305.0248
   7   2.0000     -11.206867      -304.9544
   8   2.0000     -11.203960      -304.8752
   9   2.0000      -1.153101       -31.3775
  10   2.0000      -1.066128       -29.0108
  11   2.0000      -1.003363       -27.3029
  12   2.0000      -0.944249       -25.6943
  13   2.0000      -0.925846       -25.1936
  14   2.0000      -0.867027       -23.5930
  15   2.0000      -0.793320       -21.5873
  16   2.0000      -0.766866       -20.8675
  17   2.0000      -0.662556       -18.0291
  18   2.0000      -0.652846       -17.7649
  19   2.0000      -0.634245       -17.2587
  20   2.0000      -0.605988       -16.4898
  21   2.0000      -0.572809       -15.5869
  22   2.0000      -0.559055       -15.2127
  23   2.0000      -0.542597       -14.7648
  24   2.0000      -0.537814       -14.6347
  25   2.0000      -0.508121       -13.8267
  26   2.0000      -0.493892       -13.4395
  27   2.0000      -0.482934       -13.1413
  28   2.0000      -0.473630       -12.8881
  29   2.0000      -0.465090       -12.6557
  30   2.0000      -0.459474       -12.5029
  31   2.0000      -0.453062       -12.3284
  32   2.0000      -0.439788       -11.9672
  33   2.0000      -0.314373        -8.5545
  34   0.0000       0.134441         3.6583
  35   0.0000       0.151201         4.1144
  36   0.0000       0.155081         4.2200
  37   0.0000       0.170500         4.6395
  38   0.0000       0.177381         4.8268

MULLIKEN ATOMIC CHARGES
-----------------------
   0 C :   -0.425483
   1 C :    0.037580
   2 C :   -0.263757
   3 C :   -0.183636
   4 C :   -0.056101
   5 C :   -0.076574
   6 C :   -0.229370
   7 C :   -0.219331
   8 C :   -0.208413
   9 H :    0.124323
  10 H :    0.132542
  11 H :    0.130066
  12 H :    0.086934
  13 H :    0.119993
  14 H :    0.107666
  15 H :    0.110240
  16 H :    0.119410
  17 H :    0.123303
  18 H :    0.111538
  19 H :    0.109567
  20 H :    0.118899
  21 H :    0.110611
  22 H :    0.119993
Sum of atomic charges:    0.0000000

LOEWDIN ATOMIC CHARGES
----------------------
   0 C :   -0.294611
   1 C :   -0.232230
   2 C :   -0.206827
   3 C :   -0.217181
   4 C :   -0.136988
   5 C :   -0.121251
   6 C :   -0.216962
   7 C :   -0.227990
   8 C :   -0.219155
   9 H :    0.122815
  10 H :    0.122793
  11 H :    0.121975
  12 H :    0.152972
  13 H :    0.129261
  14 H :    0.138544
  15 H :    0.138661
  16 H :    0.135296
  17 H :    0.135354
  18 H :    0.138320
  19 H :    0.135470
  20 H :    0.128277
  21 H :    0.138209
  22 H :    0.135247

  Mayer bond orders larger than 0.1
B(  0-C ,  1-C ) :   0.8907 B(  0-C ,  9-H ) :   0.9351 B(  0-C , 10-H ) :   0.9400
B(  0-C , 11-H ) :   0.9400 B(  1-C ,  2-C ) :   0.9346 B(  1-C ,  5-C ) :   0.9123
B(  1-C , 12-H ) :   0.9065 B(  2-C ,  3-C ) :   0.9511 B(  2-C , 13-H ) :   0.9344
B(  2-C , 14-H ) :   0.9248 B(  3-C ,  4-C ) :   0.9271 B(  3-C , 15-H ) :   0.9026
B(  3-C , 16-H ) :   0.9316 B(  4-C ,  5-C ) :   1.6682 B(  4-C ,  8-C ) :   0.9234
B(  5-C ,  6-C ) :   0.9169 B(  6-C ,  7-C ) :   0.9565 B(  6-C , 17-H ) :   0.9328
B(  6-C , 18-H ) :   0.9046 B(  7-C ,  8-C ) :   0.9532 B(  7-C , 19-H ) :   0.9292
B(  7-C , 20-H ) :   0.9384 B(  8-C , 21-H ) :   0.9024 B(  8-C , 22-H ) :   0.9343

MP2 TOTAL ENERGY:     -350.540878458 Eh
FINAL SINGLE POINT ENERGY      -350.540878457569

DIPOLE MOMENT
-------------
                                X             Y             Z
Electronic contribution:      0.46378      -2.28960       0.40268
Nuclear contribution   :     -0.51409       2.23909      -0.38755
                        -----------------------------------------
Total Dipole Moment    :     -0.05031      -0.05051       0.01514
                        -----------------------------------------
Magnitude (a.u.)       :      0.07288
Magnitude (Debye)      :      0.18525

                             ****ORCA TERMINATED NORMALLY****
TOTAL RUN TIME: 0 days 0 hours 19 minutes 36 seconds 437 msec
