                         Program Version 3.0.3 - RELEASE   -
|  1> ! RI-MP2 RIJK def2-TZVP def2-TZVP/C def2-TZVP/JK TIGHTSCF
|  2> % maxcore 2000
|  3> % mp2 density relaxed end
|  4> *xyz 0 1
|  5>  O        0.0016554756    -0.1109922635     0.2477550181
|  6>  C        0.0132046184     1.0396383436    -0.1088536122
|  7>  C        1.2909924313     1.8569319212    -0.1802317974
|  8>  N        2.4554833373     0.9986774879    -0.2273910769
|  9>  C        3.7158039759     1.7199693865    -0.1470172686
| 10>  C        3.8644066046     2.5733082416    -1.4099068460
| 11>  C        2.6606058567     3.5188336855    -1.5797765396
| 12>  C        1.3161486046     2.8424683078    -1.3611793673
| 13>  O        0.3307782717     3.0995951447    -2.0101829040
| 14>  H       -0.9092934397     1.5891801109    -0.3733815809
| 15>  H        1.2546087455     2.5099508428     0.7283584583
| 16>  H        2.3607792286     0.2528235208     0.4514304468
| 17>  H        3.7852731296     2.3675896723     0.7498514009
| 18>  H        4.5302640236     0.9921897855    -0.0853854494
| 19>  H        4.7902040902     3.1565317326    -1.3737453522
| 20>  H        3.9272109708     1.9040088564    -2.2741711343
| 21>  H        2.7178229399     4.3102617414    -0.8161617511
| 22>  H        2.6450960952     4.0135067017    -2.5539156240
| 23> *
| 24>
| 25>                          ****END OF INPUT****

CARTESIAN COORDINATES (ANGSTROEM)
---------------------------------
  O      0.001655   -0.110992    0.247755
  C      0.013205    1.039638   -0.108854
  C      1.290992    1.856932   -0.180232
  N      2.455483    0.998677   -0.227391
  C      3.715804    1.719969   -0.147017
  C      3.864407    2.573308   -1.409907
  C      2.660606    3.518834   -1.579777
  C      1.316149    2.842468   -1.361179
  O      0.330778    3.099595   -2.010183
  H     -0.909293    1.589180   -0.373382
  H      1.254609    2.509951    0.728358
  H      2.360779    0.252824    0.451430
  H      3.785273    2.367590    0.749851
  H      4.530264    0.992190   -0.085385
  H      4.790204    3.156532   -1.373745
  H      3.927211    1.904009   -2.274171
  H      2.717823    4.310262   -0.816162
  H      2.645096    4.013507   -2.553916

 Total Charge           Charge          ....    0
 Multiplicity           Mult            ....    1
 Number of Electrons    NEL             ....   68
 Basis Dimension        Dim             ....  333

ORBITAL ENERGIES
----------------

  NO   OCC          E(Eh)            E(eV)
   0   2.0000     -20.565381      -559.6125
   1   2.0000     -20.562447      -559.5326
   2   2.0000     -15.564023      -423.5186
   3   2.0000     -11.347610      -308.7842
   4   2.0000     -11.338643      -308.5401
   5   2.0000     -11.291668      -307.2619
   6   2.0000     -11.270534      -306.6868
   7   2.0000     -11.250930      -306.1534
   8   2.0000     -11.244406      -305.9758
   9   2.0000      -1.410149       -38.3721
  10   2.0000      -1.403079       -38.1797
  11   2.0000      -1.242287       -33.8044
  12   2.0000      -1.077594       -29.3228
  13   2.0000      -1.036689       -28.2097
  14   2.0000      -0.933287       -25.3960
  15   2.0000      -0.850693       -23.1485
  16   2.0000      -0.815472       -22.1901
  17   2.0000      -0.745405       -20.2835
  18   2.0000      -0.711154       -19.3515
  19   2.0000      -0.683842       -18.6083
  20   2.0000      -0.657759       -17.8985
  21   2.0000      -0.653417       -17.7804
  22   2.0000      -0.629021       -17.1165
  23   2.0000      -0.620478       -16.8841
  24   2.0000      -0.603869       -16.4321
  25   2.0000      -0.594082       -16.1658
  26   2.0000      -0.536045       -14.5865
  27   2.0000      -0.533932       -14.5290
  28   2.0000      -0.517502       -14.0819
  29   2.0000      -0.501357       -13.6426
  30   2.0000      -0.490026       -13.3343
  31   2.0000      -0.450477       -12.2581
  32   2.0000      -0.415074       -11.2947
  33   2.0000      -0.385204       -10.4819
  34   0.0000       0.107109         2.9146
  35   0.0000       0.127822         3.4782
  36   0.0000       0.144111         3.9215
  37   0.0000       0.151957         4.1350
  38   0.0000       0.159362         4.3365

MULLIKEN ATOMIC CHARGES
-----------------------
   0 O :   -0.275117
   1 C :    0.082587
   2 C :    0.066380
   3 N :   -0.368058
   4 C :   -0.154851
   5 C :   -0.203124
   6 C :   -0.190534
   7 C :    0.120906
   8 O :   -0.272977
   9 H :    0.119547
  10 H :    0.101222
  11 H :    0.224270
  12 H :    0.099929
  13 H :    0.132353
  14 H :    0.124244
  15 H :    0.119639
  16 H :    0.126761
  17 H :    0.146823
Sum of atomic charges:    0.0000000

LOEWDIN ATOMIC CHARGES
----------------------
   0 O :    0.137778
   1 C :   -0.255702
   2 C :   -0.285167
   3 N :    0.018758
   4 C :   -0.305864
   5 C :   -0.258039
   6 C :   -0.226357
   7 C :   -0.293343
   8 O :    0.160733
   9 H :    0.124433
  10 H :    0.160891
  11 H :    0.177564
  12 H :    0.119251
  13 H :    0.135597
  14 H :    0.138744
  15 H :    0.143528
  16 H :    0.157649
  17 H :    0.149545

  Mayer bond orders larger than 0.1
B(  0-O ,  1-C ) :   1.9747 B(  1-C ,  2-C ) :   0.8417 B(  1-C ,  9-H ) :   0.9420
B(  2-C ,  3-N ) :   0.9104 B(  2-C ,  7-C ) :   0.8601 B(  2-C , 10-H ) :   0.8614
B(  3-N ,  4-C ) :   0.9310 B(  3-N , 11-H ) :   0.8636 B(  4-C ,  5-C ) :   0.9334
B(  4-C , 12-H ) :   0.9328 B(  4-C , 13-H ) :   0.9241 B(  5-C ,  6-C ) :   0.9165
B(  5-C , 14-H ) :   0.9280 B(  5-C , 15-H ) :   0.9241 B(  6-C ,  7-C ) :   0.9457
B(  6-C , 16-H ) :   0.9034 B(  6-C , 17-H ) :   0.9222 B(  7-C ,  8-O ) :   2.0163

MP2 TOTAL ENERGY:     -438.387579506 Eh
FINAL SINGLE POINT ENERGY      -438.387579506340

DIPOLE MOMENT
-------------
                                X             Y             Z
Electronic contribution:     -7.75529      -2.67126      -0.47165
Nuclear contribution   :      8.93152       3.44801       1.06834
                        -----------------------------------------
Total Dipole Moment    :      1.17624       0.77675       0.59669
                        -----------------------------------------
Magnitude (a.u.)       :      1.53065
Magnitude (Debye)      :      3.89061

                             ****ORCA TERMINATED NORMALLY****
TOTAL RUN TIME: 0 days 0 hours 17 minutes 40 seconds 343 msec
