                         Program Version 3.0.3 - RELEASE   -
|  1> ! RI-MP2 RIJK def2-TZVP def2-TZVP/C def2-TZVP/JK TIGHTSCF
|  2> % maxcore 2000
|  3> % mp2 density relaxed end
|  4> *xyz 0 1
|  5>  C        0.2063526407     1.5818959787    -0.3104858204
|  6>  C       -0.0109661582     0.0921907539    -0.1504842939
|  7>  C       -1.4309418858    -0.4239473987    -0.3127746462
|  8>  C       -2.4005283990     0.1113838231     0.7487130920
|  9>  C       -3.7855467262    -0.5119362569     0.6378922245
| 10>  O       -4.6097436028     0.0740037612     1.6338702409
| 11>  C        1.1135080309    -0.8257956789    -0.3889950142
| 12>  O        0.7092106670    -0.5019152556     0.9436256727
| 13>  H        1.2621987354     1.8305081659    -0.1794276382
| 14>  H       -0.1101372891     1.9166867974    -1.3044775567
| 15>  H       -0.3671466570     2.1452280930     0.4318289264
| 16>  H       -1.7921501002    -0.1632836845    -1.3170452545
| 17>  H       -1.4045265648    -1.5186162778    -0.2600948556
| 18>  H       -1.9988705166    -0.0927193902     1.7473010040
| 19>  H       -2.5100535842     1.1983659548     0.6642805132
| 20>  H       -4.1941078877    -0.3350966099    -0.3715602914
| 21>  H       -3.7130437664    -1.6040372718     0.7707110885
| 22>  H       -5.4789084095    -0.3340542831     1.5838006993
| 23>  H        0.9199952073    -1.8519573994    -0.7007566105
| 24>  H        2.0816284761    -0.4283484212    -0.6931592498
| 25> *
| 26>
| 27>                          ****END OF INPUT****

CARTESIAN COORDINATES (ANGSTROEM)
---------------------------------
  C      0.206353    1.581896   -0.310486
  C     -0.010966    0.092191   -0.150484
  C     -1.430942   -0.423947   -0.312775
  C     -2.400528    0.111384    0.748713
  C     -3.785547   -0.511936    0.637892
  O     -4.609744    0.074004    1.633870
  C      1.113508   -0.825796   -0.388995
  O      0.709211   -0.501915    0.943626
  H      1.262199    1.830508   -0.179428
  H     -0.110137    1.916687   -1.304478
  H     -0.367147    2.145228    0.431829
  H     -1.792150   -0.163284   -1.317045
  H     -1.404527   -1.518616   -0.260095
  H     -1.998871   -0.092719    1.747301
  H     -2.510054    1.198366    0.664281
  H     -4.194108   -0.335097   -0.371560
  H     -3.713044   -1.604037    0.770711
  H     -5.478908   -0.334054    1.583801
  H      0.919995   -1.851957   -0.700757
  H      2.081628   -0.428348   -0.693159

 Total Charge           Charge          ....    0
 Multiplicity           Mult            ....    1
 Number of Electrons    NEL             ....   64
 Basis Dimension        Dim             ....  320

ORBITAL ENERGIES
----------------

  NO   OCC          E(Eh)            E(eV)
   0   2.0000     -20.559335      -559.4480
   1   2.0000     -20.554255      -559.3097
   2   2.0000     -11.289793      -307.2109
   3   2.0000     -11.276271      -306.8429
   4   2.0000     -11.275245      -306.8150
   5   2.0000     -11.229597      -305.5729
   6   2.0000     -11.222196      -305.3715
   7   2.0000     -11.218024      -305.2580
   8   2.0000      -1.404125       -38.2082
   9   2.0000      -1.358312       -36.9615
  10   2.0000      -1.074108       -29.2280
  11   2.0000      -1.004705       -27.3394
  12   2.0000      -0.931086       -25.3361
  13   2.0000      -0.901961       -24.5436
  14   2.0000      -0.817365       -22.2416
  15   2.0000      -0.765782       -20.8380
  16   2.0000      -0.695608       -18.9285
  17   2.0000      -0.674521       -18.3546
  18   2.0000      -0.656727       -17.8705
  19   2.0000      -0.643290       -17.5048
  20   2.0000      -0.599500       -16.3132
  21   2.0000      -0.575217       -15.6525
  22   2.0000      -0.568757       -15.4767
  23   2.0000      -0.550377       -14.9765
  24   2.0000      -0.519080       -14.1249
  25   2.0000      -0.517921       -14.0933
  26   2.0000      -0.508761       -13.8441
  27   2.0000      -0.484726       -13.1901
  28   2.0000      -0.476289       -12.9605
  29   2.0000      -0.442712       -12.0468
  30   2.0000      -0.435683       -11.8555
  31   2.0000      -0.418458       -11.3868
  32   0.0000       0.133746         3.6394
  33   0.0000       0.144173         3.9231
  34   0.0000       0.165138         4.4936
  35   0.0000       0.175529         4.7764
  36   0.0000       0.179593         4.8870

MULLIKEN ATOMIC CHARGES
-----------------------
   0 C :   -0.430204
   1 C :    0.226982
   2 C :   -0.238691
   3 C :   -0.201172
   4 C :   -0.069713
   5 O :   -0.464611
   6 C :   -0.085895
   7 O :   -0.348532
   8 H :    0.139654
   9 H :    0.129859
  10 H :    0.148664
  11 H :    0.112614
  12 H :    0.115912
  13 H :    0.133447
  14 H :    0.114249
  15 H :    0.087243
  16 H :    0.095297
  17 H :    0.314962
  18 H :    0.109100
  19 H :    0.110835
Sum of atomic charges:    0.0000000

LOEWDIN ATOMIC CHARGES
----------------------
   0 C :   -0.266501
   1 C :   -0.350257
   2 C :   -0.226988
   3 C :   -0.263408
   4 C :   -0.354026
   5 O :   -0.051559
   6 C :   -0.251355
   7 O :    0.156877
   8 H :    0.132042
   9 H :    0.130369
  10 H :    0.130546
  11 H :    0.144108
  12 H :    0.147257
  13 H :    0.146528
  14 H :    0.139588
  15 H :    0.113033
  16 H :    0.114444
  17 H :    0.171500
  18 H :    0.118631
  19 H :    0.119170

  Mayer bond orders larger than 0.1
B(  0-C ,  1-C ) :   0.8980 B(  0-C ,  8-H ) :   0.9354 B(  0-C ,  9-H ) :   0.9336
B(  0-C , 10-H ) :   0.9396 B(  1-C ,  2-C ) :   0.9172 B(  1-C ,  6-C ) :   0.9917
B(  1-C ,  7-O ) :   0.8145 B(  2-C ,  3-C ) :   0.9166 B(  2-C , 11-H ) :   0.9238
B(  2-C , 12-H ) :   0.9279 B(  3-C ,  4-C ) :   0.9387 B(  3-C ,  5-O ) :  -0.1021
B(  3-C , 13-H ) :   0.9231 B(  3-C , 14-H ) :   0.9231 B(  4-C ,  5-O ) :   1.0285
B(  4-C , 15-H ) :   0.9283 B(  4-C , 16-H ) :   0.9360 B(  5-O , 17-H ) :   0.8498
B(  6-C ,  7-O ) :   0.9178 B(  6-C , 18-H ) :   0.9000 B(  6-C , 19-H ) :   0.9129

MP2 TOTAL ENERGY:     -385.488838687 Eh
FINAL SINGLE POINT ENERGY      -385.488838687253

DIPOLE MOMENT
-------------
                                X             Y             Z
Electronic contribution:      0.80974      -1.55908       2.84683
Nuclear contribution   :     -1.17126       1.27199      -3.91829
                        -----------------------------------------
Total Dipole Moment    :     -0.36152      -0.28709      -1.07146
                        -----------------------------------------
Magnitude (a.u.)       :      1.16668
Magnitude (Debye)      :      2.96547

                             ****ORCA TERMINATED NORMALLY****
TOTAL RUN TIME: 0 days 0 hours 11 minutes 27 seconds 275 msec
