                         Program Version 3.0.3 - RELEASE   -
|  1> ! RI-MP2 RIJK def2-TZVP def2-TZVP/C def2-TZVP/JK TIGHTSCF
|  2> % maxcore 2000
|  3> % mp2 density relaxed end
|  4> *xyz 0 1
|  5>  O        0.0204196925     0.0487285472     0.4688489356
|  6>  C        0.0162986925     1.2093511216     0.1150611704
|  7>  C       -1.3054519609     1.9554554303    -0.1081413045
|  8>  N       -1.2774881673     3.1051153237    -1.0087314157
|  9>  C       -0.1408662746     3.9864255892    -0.7378639078
| 10>  C        1.2086248391     3.2709944396    -0.8834634109
| 11>  C        1.2767599071     2.0178577047    -0.0190830497
| 12>  C        2.1077910618     2.0420162996     1.2695763106
| 13>  C        2.5758207603     1.2540941607     0.0889300304
| 14>  H       -2.0545460031     1.2307274329    -0.4375026787
| 15>  H       -1.6257593384     2.3021974685     0.8869732909
| 16>  H       -1.2240448385     2.7787752568    -1.9693626154
| 17>  H       -0.1931040922     4.8455838287    -1.4146204623
| 18>  H       -0.2540632373     4.3751292926     0.2831113280
| 19>  H        1.3408401023     2.9934104706    -1.9391897511
| 20>  H        2.0382899812     3.9448521807    -0.6356071265
| 21>  H        2.6050682602     2.9759671968     1.5100612470
| 22>  H        1.7175365880     1.4941073284     2.1196427262
| 23>  H        2.4910679652     0.1752112266     0.1423433617
| 24>  H        3.4134868723     1.6349861408    -0.4856196281
| 25> *
| 26>
| 27>                          ****END OF INPUT****

CARTESIAN COORDINATES (ANGSTROEM)
---------------------------------
  O      0.020420    0.048729    0.468849
  C      0.016299    1.209351    0.115061
  C     -1.305452    1.955455   -0.108141
  N     -1.277488    3.105115   -1.008731
  C     -0.140866    3.986426   -0.737864
  C      1.208625    3.270994   -0.883463
  C      1.276760    2.017858   -0.019083
  C      2.107791    2.042016    1.269576
  C      2.575821    1.254094    0.088930
  H     -2.054546    1.230727   -0.437503
  H     -1.625759    2.302197    0.886973
  H     -1.224045    2.778775   -1.969363
  H     -0.193104    4.845584   -1.414620
  H     -0.254063    4.375129    0.283111
  H      1.340840    2.993410   -1.939190
  H      2.038290    3.944852   -0.635607
  H      2.605068    2.975967    1.510061
  H      1.717537    1.494107    2.119643
  H      2.491068    0.175211    0.142343
  H      3.413487    1.634986   -0.485620

 Total Charge           Charge          ....    0
 Multiplicity           Mult            ....    1
 Number of Electrons    NEL             ....   68
 Basis Dimension        Dim             ....  345

ORBITAL ENERGIES
----------------

  NO   OCC          E(Eh)            E(eV)
   0   2.0000     -20.537882      -558.8642
   1   2.0000     -15.555916      -423.2980
   2   2.0000     -11.325836      -308.1917
   3   2.0000     -11.262304      -306.4629
   4   2.0000     -11.259571      -306.3885
   5   2.0000     -11.249100      -306.1036
   6   2.0000     -11.242212      -305.9161
   7   2.0000     -11.237871      -305.7980
   8   2.0000     -11.233177      -305.6703
   9   2.0000      -1.383481       -37.6464
  10   2.0000      -1.225960       -33.3601
  11   2.0000      -1.159695       -31.5569
  12   2.0000      -1.021308       -27.7912
  13   2.0000      -0.975675       -26.5495
  14   2.0000      -0.854406       -23.2496
  15   2.0000      -0.846084       -23.0231
  16   2.0000      -0.829648       -22.5759
  17   2.0000      -0.723162       -19.6783
  18   2.0000      -0.681034       -18.5319
  19   2.0000      -0.675428       -18.3793
  20   2.0000      -0.641169       -17.4471
  21   2.0000      -0.624860       -17.0033
  22   2.0000      -0.604048       -16.4370
  23   2.0000      -0.589514       -16.0415
  24   2.0000      -0.568747       -15.4764
  25   2.0000      -0.563035       -15.3210
  26   2.0000      -0.534340       -14.5401
  27   2.0000      -0.508947       -13.8492
  28   2.0000      -0.498918       -13.5763
  29   2.0000      -0.491903       -13.3854
  30   2.0000      -0.444341       -12.0911
  31   2.0000      -0.443005       -12.0548
  32   2.0000      -0.403769       -10.9871
  33   2.0000      -0.360481        -9.8092
  34   0.0000       0.122137         3.3235
  35   0.0000       0.138998         3.7823
  36   0.0000       0.149123         4.0578
  37   0.0000       0.153819         4.1856
  38   0.0000       0.173814         4.7297

MULLIKEN ATOMIC CHARGES
-----------------------
   0 O :   -0.305603
   1 C :    0.138867
   2 C :   -0.196236
   3 N :   -0.309898
   4 C :   -0.156853
   5 C :   -0.263451
   6 C :    0.108011
   7 C :   -0.301475
   8 C :   -0.256156
   9 H :    0.156069
  10 H :    0.131509
  11 H :    0.200549
  12 H :    0.138851
  13 H :    0.115054
  14 H :    0.119730
  15 H :    0.112371
  16 H :    0.132381
  17 H :    0.146820
  18 H :    0.155105
  19 H :    0.134357
Sum of atomic charges:    0.0000000

LOEWDIN ATOMIC CHARGES
----------------------
   0 O :    0.144672
   1 C :   -0.293448
   2 C :   -0.274677
   3 N :   -0.022438
   4 C :   -0.303152
   5 C :   -0.230520
   6 C :   -0.216477
   7 C :   -0.185060
   8 C :   -0.193981
   9 H :    0.145437
  10 H :    0.150632
  11 H :    0.169712
  12 H :    0.133234
  13 H :    0.136031
  14 H :    0.141256
  15 H :    0.143535
  16 H :    0.133768
  17 H :    0.140376
  18 H :    0.144352
  19 H :    0.136748

  Mayer bond orders larger than 0.1
B(  0-O ,  1-C ) :   1.9666 B(  1-C ,  2-C ) :   0.8916 B(  1-C ,  6-C ) :   0.9371
B(  2-C ,  3-N ) :   0.9740 B(  2-C ,  9-H ) :   0.9353 B(  2-C , 10-H ) :   0.9127
B(  3-N ,  4-C ) :   0.9504 B(  3-N , 11-H ) :   0.8835 B(  4-C ,  5-C ) :   0.9435
B(  4-C , 12-H ) :   0.9373 B(  4-C , 13-H ) :   0.9335 B(  5-C ,  6-C ) :   0.8782
B(  5-C , 14-H ) :   0.9314 B(  5-C , 15-H ) :   0.9121 B(  6-C ,  7-C ) :   0.8293
B(  6-C ,  8-C ) :   0.8229 B(  7-C ,  8-C ) :   0.9542 B(  7-C , 16-H ) :   0.9235
B(  7-C , 17-H ) :   0.9205 B(  8-C , 18-H ) :   0.9117 B(  8-C , 19-H ) :   0.9300

MP2 TOTAL ENERGY:     -402.466777099 Eh
FINAL SINGLE POINT ENERGY      -402.466777099259

DIPOLE MOMENT
-------------
                                X             Y             Z
Electronic contribution:     -2.29116      -4.46504       0.48069
Nuclear contribution   :      2.80722       5.32616      -0.83655
                        -----------------------------------------
Total Dipole Moment    :      0.51607       0.86113      -0.35586
                        -----------------------------------------
Magnitude (a.u.)       :      1.06513
Magnitude (Debye)      :      2.70735

                             ****ORCA TERMINATED NORMALLY****
TOTAL RUN TIME: 0 days 0 hours 18 minutes 22 seconds 987 msec
