                         Program Version 3.0.3 - RELEASE   -
|  1> ! RI-MP2 RIJK def2-TZVP def2-TZVP/C def2-TZVP/JK TIGHTSCF
|  2> % maxcore 2000
|  3> % mp2 density relaxed end
|  4> *xyz 0 1
|  5>  C        0.2088368813     1.5228922914    -0.1469517128
|  6>  C        0.0468464008     0.0355589256     0.0876226382
|  7>  O        0.8350245966    -0.7758614299    -0.8271188342
|  8>  C        1.3370543164    -1.5916639861     0.2512797829
|  9>  C        2.7422841613    -1.1562231326     0.7210341838
| 10>  C        2.0795698047    -0.1954279270     1.7596892337
| 11>  C        0.6689746796    -0.6724785748     1.3126086668
| 12>  H        1.2534550438     1.8342773222    -0.0653109206
| 13>  H       -0.1411557435     1.7805713515    -1.1516697050
| 14>  H       -0.3860323664     2.0916029055     0.5762066562
| 15>  H       -1.0158424749    -0.2337722106    -0.0114459789
| 16>  H        1.1273942745    -2.6549112479     0.1030329706
| 17>  H        3.3241301929    -1.9599760211     1.1808759105
| 18>  H        3.3385651264    -0.6903573782    -0.0665355638
| 19>  H        2.3038338570    -0.4617620634     2.7950313568
| 20>  H        2.2881200892     0.8699831727     1.6375967761
| 21>  H       -0.0168968297    -1.0118500974     2.0881002097
| 22> *
| 23>
| 24>                          ****END OF INPUT****

CARTESIAN COORDINATES (ANGSTROEM)
---------------------------------
  C      0.208837    1.522892   -0.146952
  C      0.046846    0.035559    0.087623
  O      0.835025   -0.775861   -0.827119
  C      1.337054   -1.591664    0.251280
  C      2.742284   -1.156223    0.721034
  C      2.079570   -0.195428    1.759689
  C      0.668975   -0.672479    1.312609
  H      1.253455    1.834277   -0.065311
  H     -0.141156    1.780571   -1.151670
  H     -0.386032    2.091603    0.576207
  H     -1.015842   -0.233772   -0.011446
  H      1.127394   -2.654911    0.103033
  H      3.324130   -1.959976    1.180876
  H      3.338565   -0.690357   -0.066536
  H      2.303834   -0.461762    2.795031
  H      2.288120    0.869983    1.637597
  H     -0.016897   -1.011850    2.088100

 Total Charge           Charge          ....    0
 Multiplicity           Mult            ....    1
 Number of Electrons    NEL             ....   54
 Basis Dimension        Dim             ....  277

ORBITAL ENERGIES
----------------

  NO   OCC          E(Eh)            E(eV)
   0   2.0000     -20.539516      -558.9086
   1   2.0000     -11.280313      -306.9529
   2   2.0000     -11.275775      -306.8294
   3   2.0000     -11.228690      -305.5482
   4   2.0000     -11.225510      -305.4617
   5   2.0000     -11.220051      -305.3131
   6   2.0000     -11.214769      -305.1694
   7   2.0000      -1.372913       -37.3589
   8   2.0000      -1.102957       -30.0130
   9   2.0000      -1.020016       -27.7560
  10   2.0000      -0.921312       -25.0702
  11   2.0000      -0.879013       -23.9192
  12   2.0000      -0.811981       -22.0951
  13   2.0000      -0.711743       -19.3675
  14   2.0000      -0.691698       -18.8221
  15   2.0000      -0.649302       -17.6684
  16   2.0000      -0.612493       -16.6668
  17   2.0000      -0.602220       -16.3872
  18   2.0000      -0.572985       -15.5917
  19   2.0000      -0.551903       -15.0180
  20   2.0000      -0.515164       -14.0183
  21   2.0000      -0.505187       -13.7468
  22   2.0000      -0.489091       -13.3088
  23   2.0000      -0.470271       -12.7967
  24   2.0000      -0.442508       -12.0412
  25   2.0000      -0.411458       -11.1963
  26   2.0000      -0.391511       -10.6536
  27   0.0000       0.141368         3.8468
  28   0.0000       0.158775         4.3205
  29   0.0000       0.159888         4.3508
  30   0.0000       0.178433         4.8554
  31   0.0000       0.202472         5.5095

MULLIKEN ATOMIC CHARGES
-----------------------
   0 C :   -0.404955
   1 C :    0.083450
   2 O :   -0.335810
   3 C :    0.027473
   4 C :   -0.200799
   5 C :   -0.305147
   6 C :   -0.031236
   7 H :    0.125674
   8 H :    0.141091
   9 H :    0.128391
  10 H :    0.078026
  11 H :    0.103689
  12 H :    0.112020
  13 H :    0.112400
  14 H :    0.121456
  15 H :    0.122417
  16 H :    0.121861
Sum of atomic charges:   -0.0000000

LOEWDIN ATOMIC CHARGES
----------------------
   0 C :   -0.296603
   1 C :   -0.287180
   2 O :    0.149355
   3 C :   -0.239991
   4 C :   -0.223261
   5 C :   -0.220660
   6 C :   -0.177592
   7 H :    0.123018
   8 H :    0.130165
   9 H :    0.128680
  10 H :    0.136668
  11 H :    0.122324
  12 H :    0.130728
  13 H :    0.132556
  14 H :    0.131387
  15 H :    0.126517
  16 H :    0.133888

  Mayer bond orders larger than 0.1
B(  0-C ,  1-C ) :   0.9126 B(  0-C ,  7-H ) :   0.9383 B(  0-C ,  8-H ) :   0.9337
B(  0-C ,  9-H ) :   0.9296 B(  1-C ,  2-O ) :   0.9222 B(  1-C ,  6-C ) :   0.9243
B(  1-C , 10-H ) :   0.9177 B(  2-O ,  3-C ) :   0.9577 B(  3-C ,  4-C ) :   0.9099
B(  3-C ,  6-C ) :   0.9239 B(  3-C , 11-H ) :   0.9344 B(  4-C ,  5-C ) :   0.9558
B(  4-C , 12-H ) :   0.9122 B(  4-C , 13-H ) :   0.9122 B(  5-C ,  6-C ) :   0.9108
B(  5-C , 14-H ) :   0.9203 B(  5-C , 15-H ) :   0.9299 B(  6-C , 16-H ) :   0.9145

MP2 TOTAL ENERGY:     -309.149282456 Eh
FINAL SINGLE POINT ENERGY      -309.149282456400

DIPOLE MOMENT
-------------
                                X             Y             Z
Electronic contribution:     -0.82481      -3.10948      -1.93056
Nuclear contribution   :      0.75116       3.17568       2.63581
                        -----------------------------------------
Total Dipole Moment    :     -0.07365       0.06620       0.70525
                        -----------------------------------------
Magnitude (a.u.)       :      0.71217
Magnitude (Debye)      :      1.81019

                             ****ORCA TERMINATED NORMALLY****
TOTAL RUN TIME: 0 days 0 hours 9 minutes 28 seconds 867 msec
