                         Program Version 3.0.3 - RELEASE   -
|  1> ! RI-MP2 RIJK def2-TZVP def2-TZVP/C def2-TZVP/JK TIGHTSCF
|  2> % maxcore 2000
|  3> % mp2 density relaxed end
|  4> *xyz 0 1
|  5>  C       -0.1848435290     1.5099027314     0.0894120091
|  6>  C       -0.0764296250     0.0028856442     0.1553713031
|  7>  C        1.1554485064    -0.7257593498    -0.3002030253
|  8>  C        0.7975282594    -0.7208687255     1.1847125886
|  9>  C        1.6766426610     0.0620761850     2.1506801277
| 10>  C        0.2546097417    -1.9378676070     1.7292779275
| 11>  C       -0.1993767871    -2.9467488214     2.2085032602
| 12>  C       -0.7260989463    -4.1800779315     2.7742111776
| 13>  O       -2.0418561201    -3.9632488102     3.2764702551
| 14>  H        0.7798410181     2.0022074352     0.2379715519
| 15>  H       -0.5586206183     1.8181673656    -0.8933577616
| 16>  H       -0.8788726272     1.8950609699     0.8443132673
| 17>  H       -1.0115291887    -0.5117902398    -0.0447282087
| 18>  H        1.0475059792    -1.6546978033    -0.8475245543
| 19>  H        2.0175998147    -0.1301221055    -0.5851429069
| 20>  H        2.1004477281     0.9524027997     1.6802045451
| 21>  H        1.1071072145     0.3780055241     3.0304232633
| 22>  H        2.5073701470    -0.5610036609     2.4963260640
| 23>  H       -0.7242466396    -4.9635737492     1.9982608990
| 24>  H       -0.0503114443    -4.5263862529     3.5737325941
| 25>  H       -2.3492656343    -4.8001191980     3.6400516232
| 26> *
| 27>
| 28>                          ****END OF INPUT****

CARTESIAN COORDINATES (ANGSTROEM)
---------------------------------
  C     -0.184844    1.509903    0.089412
  C     -0.076430    0.002886    0.155371
  C      1.155449   -0.725759   -0.300203
  C      0.797528   -0.720869    1.184713
  C      1.676643    0.062076    2.150680
  C      0.254610   -1.937868    1.729278
  C     -0.199377   -2.946749    2.208503
  C     -0.726099   -4.180078    2.774211
  O     -2.041856   -3.963249    3.276470
  H      0.779841    2.002207    0.237972
  H     -0.558621    1.818167   -0.893358
  H     -0.878873    1.895061    0.844313
  H     -1.011529   -0.511790   -0.044728
  H      1.047506   -1.654698   -0.847525
  H      2.017600   -0.130122   -0.585143
  H      2.100448    0.952403    1.680205
  H      1.107107    0.378006    3.030423
  H      2.507370   -0.561004    2.496326
  H     -0.724247   -4.963574    1.998261
  H     -0.050311   -4.526386    3.573733
  H     -2.349266   -4.800119    3.640052

 Total Charge           Charge          ....    0
 Multiplicity           Mult            ....    1
 Number of Electrons    NEL             ....   68
 Basis Dimension        Dim             ....  351

ORBITAL ENERGIES
----------------

  NO   OCC          E(Eh)            E(eV)
   0   2.0000     -20.561246      -559.4999
   1   2.0000     -11.301797      -307.5375
   2   2.0000     -11.254884      -306.2610
   3   2.0000     -11.236357      -305.7568
   4   2.0000     -11.227411      -305.5134
   5   2.0000     -11.219669      -305.3027
   6   2.0000     -11.219630      -305.3017
   7   2.0000     -11.219260      -305.2916
   8   2.0000     -11.212025      -305.0947
   9   2.0000      -1.364279       -37.1239
  10   2.0000      -1.165216       -31.7071
  11   2.0000      -1.040713       -28.3193
  12   2.0000      -0.989046       -26.9133
  13   2.0000      -0.950265       -25.8580
  14   2.0000      -0.932069       -25.3629
  15   2.0000      -0.819245       -22.2928
  16   2.0000      -0.775474       -21.1017
  17   2.0000      -0.707038       -19.2395
  18   2.0000      -0.688802       -18.7433
  19   2.0000      -0.640625       -17.4323
  20   2.0000      -0.638615       -17.3776
  21   2.0000      -0.611634       -16.6434
  22   2.0000      -0.581838       -15.8326
  23   2.0000      -0.572130       -15.5685
  24   2.0000      -0.549229       -14.9453
  25   2.0000      -0.540727       -14.7139
  26   2.0000      -0.530462       -14.4346
  27   2.0000      -0.522128       -14.2078
  28   2.0000      -0.497288       -13.5319
  29   2.0000      -0.466932       -12.7059
  30   2.0000      -0.440018       -11.9735
  31   2.0000      -0.424730       -11.5575
  32   2.0000      -0.359087        -9.7712
  33   2.0000      -0.344017        -9.3612
  34   0.0000       0.126421         3.4401
  35   0.0000       0.142096         3.8666
  36   0.0000       0.165935         4.5153
  37   0.0000       0.172067         4.6822
  38   0.0000       0.181130         4.9288

MULLIKEN ATOMIC CHARGES
-----------------------
   0 C :   -0.396643
   1 C :   -0.074884
   2 C :   -0.290360
   3 C :   -0.070939
   4 C :   -0.396164
   5 C :    0.054939
   6 C :    0.066735
   7 C :   -0.208148
   8 O :   -0.443724
   9 H :    0.119597
  10 H :    0.137587
  11 H :    0.137299
  12 H :    0.131780
  13 H :    0.139828
  14 H :    0.127332
  15 H :    0.123190
  16 H :    0.139277
  17 H :    0.139300
  18 H :    0.124930
  19 H :    0.125410
  20 H :    0.313659
Sum of atomic charges:    0.0000000

LOEWDIN ATOMIC CHARGES
----------------------
   0 C :   -0.291366
   1 C :   -0.198443
   2 C :   -0.171773
   3 C :   -0.238407
   4 C :   -0.249232
   5 C :   -0.026431
   6 C :   -0.070478
   7 C :   -0.340935
   8 O :   -0.045943
   9 H :    0.123110
  10 H :    0.128150
  11 H :    0.127808
  12 H :    0.156066
  13 H :    0.136800
  14 H :    0.136619
  15 H :    0.124497
  16 H :    0.131292
  17 H :    0.131222
  18 H :    0.132304
  19 H :    0.132693
  20 H :    0.172450

  Mayer bond orders larger than 0.1
B(  0-C ,  1-C ) :   0.9054 B(  0-C ,  9-H ) :   0.9354 B(  0-C , 10-H ) :   0.9375
B(  0-C , 11-H ) :   0.9393 B(  1-C ,  2-C ) :   0.9137 B(  1-C ,  3-C ) :   0.8153
B(  1-C , 12-H ) :   0.9303 B(  2-C ,  3-C ) :   0.8427 B(  2-C , 13-H ) :   0.9268
B(  2-C , 14-H ) :   0.9237 B(  3-C ,  4-C ) :   0.9658 B(  3-C ,  5-C ) :   1.1637
B(  3-C ,  6-C ) :  -0.1759 B(  4-C , 15-H ) :   0.9294 B(  4-C , 16-H ) :   0.9366
B(  4-C , 17-H ) :   0.9359 B(  5-C ,  6-C ) :   2.6588 B(  6-C ,  7-C ) :   0.8937
B(  7-C ,  8-O ) :   1.1390 B(  7-C , 18-H ) :   0.9540 B(  7-C , 19-H ) :   0.9566
B(  8-O , 20-H ) :   0.8481

MP2 TOTAL ENERGY:     -386.361937570 Eh
FINAL SINGLE POINT ENERGY      -386.361937570259

DIPOLE MOMENT
-------------
                                X             Y             Z
Electronic contribution:     -3.05582      -7.24125       2.70497
Nuclear contribution   :      3.36986       6.88795      -2.79387
                        -----------------------------------------
Total Dipole Moment    :      0.31404      -0.35330      -0.08890
                        -----------------------------------------
Magnitude (a.u.)       :      0.48098
Magnitude (Debye)      :      1.22255

                             ****ORCA TERMINATED NORMALLY****
TOTAL RUN TIME: 0 days 0 hours 17 minutes 15 seconds 398 msec
