                         Program Version 3.0.3 - RELEASE   -
|  1> ! RI-MP2 RIJK def2-TZVP def2-TZVP/C def2-TZVP/JK TIGHTSCF
|  2> % maxcore 2000
|  3> % mp2 density relaxed end
|  4> *xyz 0 1
|  5>  N       -0.0970018005     1.2605721355     0.3162037500
|  6>  C        0.1136721668    -0.0168435830    -0.1079849634
|  7>  O        1.1514310266    -0.4369764286    -0.5599293185
|  8>  C       -1.1763443276    -0.8810621855    -0.0208580074
|  9>  N       -0.9462082502    -2.3038530571    -0.2490963896
| 10>  C       -1.4355431289    -2.9044143545     0.7625662371
| 11>  N       -2.0119638230    -2.0853196095     1.7361626465
| 12>  C       -1.8874413454    -0.7681605046     1.3393464322
| 13>  O       -2.2502977621     0.2169216453     1.9451826082
| 14>  H        0.7151090512     1.8537885360     0.3827706807
| 15>  H       -0.8945261523     1.4599061058     0.9068934722
| 16>  H       -1.8527380965    -0.4917292823    -0.7934746498
| 17>  H       -1.4333703836    -3.9802254344     0.9003427401
| 18>  H       -2.4087403645    -2.3753810633     2.6156586017
| 19> *
| 20>
| 21>                          ****END OF INPUT****

CARTESIAN COORDINATES (ANGSTROEM)
---------------------------------
  N     -0.097002    1.260572    0.316204
  C      0.113672   -0.016844   -0.107985
  O      1.151431   -0.436976   -0.559929
  C     -1.176344   -0.881062   -0.020858
  N     -0.946208   -2.303853   -0.249096
  C     -1.435543   -2.904414    0.762566
  N     -2.011964   -2.085320    1.736163
  C     -1.887441   -0.768161    1.339346
  O     -2.250298    0.216922    1.945183
  H      0.715109    1.853789    0.382771
  H     -0.894526    1.459906    0.906893
  H     -1.852738   -0.491729   -0.793475
  H     -1.433370   -3.980225    0.900343
  H     -2.408740   -2.375381    2.615659

 Total Charge           Charge          ....    0
 Multiplicity           Mult            ....    1
 Number of Electrons    NEL             ....   66
 Basis Dimension        Dim             ....  309

ORBITAL ENERGIES
----------------

  NO   OCC          E(Eh)            E(eV)
   0   2.0000     -20.566384      -559.6398
   1   2.0000     -20.526818      -558.5631
   2   2.0000     -15.635598      -425.4663
   3   2.0000     -15.580306      -423.9617
   4   2.0000     -15.575478      -423.8303
   5   2.0000     -11.392700      -310.0111
   6   2.0000     -11.363844      -309.2259
   7   2.0000     -11.346845      -308.7634
   8   2.0000     -11.301819      -307.5381
   9   2.0000      -1.431899       -38.9639
  10   2.0000      -1.392207       -37.8839
  11   2.0000      -1.343727       -36.5647
  12   2.0000      -1.217504       -33.1300
  13   2.0000      -1.200171       -32.6583
  14   2.0000      -1.034769       -28.1575
  15   2.0000      -0.883877       -24.0515
  16   2.0000      -0.848885       -23.0993
  17   2.0000      -0.795956       -21.6591
  18   2.0000      -0.748947       -20.3799
  19   2.0000      -0.729413       -19.8483
  20   2.0000      -0.688288       -18.7293
  21   2.0000      -0.681318       -18.5396
  22   2.0000      -0.646453       -17.5909
  23   2.0000      -0.632963       -17.2238
  24   2.0000      -0.604162       -16.4401
  25   2.0000      -0.587278       -15.9807
  26   2.0000      -0.553901       -15.0724
  27   2.0000      -0.525484       -14.2991
  28   2.0000      -0.510536       -13.8924
  29   2.0000      -0.438325       -11.9274
  30   2.0000      -0.432287       -11.7631
  31   2.0000      -0.418655       -11.3922
  32   2.0000      -0.394853       -10.7445
  33   0.0000       0.105052         2.8586
  34   0.0000       0.117695         3.2026
  35   0.0000       0.142177         3.8688
  36   0.0000       0.159852         4.3498
  37   0.0000       0.168673         4.5898

MULLIKEN ATOMIC CHARGES
-----------------------
   0 N :   -0.476914
   1 C :    0.217376
   2 O :   -0.302594
   3 C :    0.021368
   4 N :   -0.238216
   5 C :    0.073908
   6 N :   -0.291024
   7 C :    0.222807
   8 O :   -0.348466
   9 H :    0.259256
  10 H :    0.284533
  11 H :    0.159702
  12 H :    0.159741
  13 H :    0.258523
Sum of atomic charges:    0.0000000

LOEWDIN ATOMIC CHARGES
----------------------
   0 N :   -0.012213
   1 C :   -0.460382
   2 O :    0.117444
   3 C :   -0.213286
   4 N :    0.119542
   5 C :   -0.270457
   6 N :    0.150080
   7 C :   -0.393631
   8 O :    0.093613
   9 H :    0.175658
  10 H :    0.178298
  11 H :    0.183096
  12 H :    0.137973
  13 H :    0.194265

  Mayer bond orders larger than 0.1
B(  0-N ,  1-C ) :   1.1690 B(  0-N ,  9-H ) :   0.8591 B(  0-N , 10-H ) :   0.8358
B(  1-C ,  2-O ) :   2.0458 B(  1-C ,  3-C ) :   0.8591 B(  3-C ,  4-N ) :   0.9720
B(  3-C ,  7-C ) :   0.8827 B(  3-C , 11-H ) :   0.8743 B(  4-N ,  5-C ) :   1.7948
B(  5-C ,  6-N ) :   1.0030 B(  5-C , 12-H ) :   0.9162 B(  6-N ,  7-C ) :   1.1266
B(  6-N , 13-H ) :   0.8559 B(  7-C ,  8-O ) :   1.9035

MP2 TOTAL ENERGY:     -469.328985519 Eh
FINAL SINGLE POINT ENERGY      -469.328985518690

DIPOLE MOMENT
-------------
                                X             Y             Z
Electronic contribution:      0.03979      -0.94806       0.12904
Nuclear contribution   :     -1.11023       0.60742       0.99329
                        -----------------------------------------
Total Dipole Moment    :     -1.07044      -0.34064       1.12233
                        -----------------------------------------
Magnitude (a.u.)       :      1.58792
Magnitude (Debye)      :      4.03618

                             ****ORCA TERMINATED NORMALLY****
TOTAL RUN TIME: 0 days 0 hours 14 minutes 33 seconds 953 msec
