                         Program Version 3.0.3 - RELEASE   -
|  1> ! RI-MP2 RIJK def2-TZVP def2-TZVP/C def2-TZVP/JK TIGHTSCF
|  2> % maxcore 2000
|  3> % mp2 density relaxed end
|  4> *xyz 0 1
|  5>  C        0.1246819989     1.5772543462     0.1597803530
|  6>  C        0.0666222215     0.0828194243     0.1034991984
|  7>  C       -0.8543952957    -0.7625163065     0.9496791984
|  8>  C        0.6305120055    -0.9952877579     1.0026705369
|  9>  C        1.1754567786    -1.6621615139    -0.2652484033
| 10>  C        0.2460151795    -1.9343385791    -1.3892976311
| 11>  C       -1.1781420770    -2.4927728051    -1.4820456111
| 12>  O       -1.3644341714    -3.1817849698    -2.7097855049
| 13>  N        0.6776350826    -0.5354979217    -1.1532288197
| 14>  H        1.1239858301     1.9365668575    -0.1043544466
| 15>  H       -0.5861049390     2.0192221850    -0.5490961264
| 16>  H       -0.1249611063     1.9412708441     1.1611145253
| 17>  H       -1.2308638073    -0.2143888366     1.8096698046
| 18>  H       -1.5540878888    -1.4996133448     0.5833991114
| 19>  H        1.2155676192    -0.9038726811     1.9083900325
| 20>  H        2.2150815835    -1.9738463782    -0.3225964364
| 21>  H        0.8018706269    -2.3051006010    -2.2525909859
| 22>  H       -1.3625607372    -3.2370113815    -0.7013398385
| 23>  H       -1.9193579107    -1.6914744459    -1.3713954080
| 24>  H       -1.3379263629    -2.5305775838    -3.4184272685
| 25> *
| 26>
| 27>                          ****END OF INPUT****

CARTESIAN COORDINATES (ANGSTROEM)
---------------------------------
  C      0.124682    1.577254    0.159780
  C      0.066622    0.082819    0.103499
  C     -0.854395   -0.762516    0.949679
  C      0.630512   -0.995288    1.002671
  C      1.175457   -1.662162   -0.265248
  C      0.246015   -1.934339   -1.389298
  C     -1.178142   -2.492773   -1.482046
  O     -1.364434   -3.181785   -2.709786
  N      0.677635   -0.535498   -1.153229
  H      1.123986    1.936567   -0.104354
  H     -0.586105    2.019222   -0.549096
  H     -0.124961    1.941271    1.161115
  H     -1.230864   -0.214389    1.809670
  H     -1.554088   -1.499613    0.583399
  H      1.215568   -0.903873    1.908390
  H      2.215082   -1.973846   -0.322596
  H      0.801871   -2.305101   -2.252591
  H     -1.362561   -3.237011   -0.701340
  H     -1.919358   -1.691474   -1.371395
  H     -1.337926   -2.530578   -3.418427

 Total Charge           Charge          ....    0
 Multiplicity           Mult            ....    1
 Number of Electrons    NEL             ....   68
 Basis Dimension        Dim             ....  345

ORBITAL ENERGIES
----------------

  NO   OCC          E(Eh)            E(eV)
   0   2.0000     -20.560304      -559.4743
   1   2.0000     -15.558330      -423.3637
   2   2.0000     -11.285990      -307.1074
   3   2.0000     -11.273129      -306.7574
   4   2.0000     -11.268980      -306.6445
   5   2.0000     -11.267238      -306.5971
   6   2.0000     -11.238870      -305.8252
   7   2.0000     -11.237092      -305.7768
   8   2.0000     -11.220242      -305.3183
   9   2.0000      -1.365967       -37.1699
  10   2.0000      -1.297117       -35.2963
  11   2.0000      -1.119841       -30.4724
  12   2.0000      -0.990694       -26.9582
  13   2.0000      -0.970663       -26.4131
  14   2.0000      -0.887028       -24.1373
  15   2.0000      -0.855942       -23.2914
  16   2.0000      -0.768506       -20.9121
  17   2.0000      -0.716730       -19.5032
  18   2.0000      -0.707496       -19.2519
  19   2.0000      -0.679554       -18.4916
  20   2.0000      -0.653327       -17.7779
  21   2.0000      -0.614929       -16.7331
  22   2.0000      -0.584768       -15.9123
  23   2.0000      -0.579515       -15.7694
  24   2.0000      -0.563975       -15.3465
  25   2.0000      -0.551076       -14.9955
  26   2.0000      -0.530775       -14.4431
  27   2.0000      -0.516091       -14.0435
  28   2.0000      -0.492043       -13.3892
  29   2.0000      -0.463444       -12.6110
  30   2.0000      -0.454145       -12.3579
  31   2.0000      -0.437930       -11.9167
  32   2.0000      -0.372362       -10.1325
  33   2.0000      -0.337180        -9.1751
  34   0.0000       0.138507         3.7690
  35   0.0000       0.148015         4.0277
  36   0.0000       0.163093         4.4380
  37   0.0000       0.164010         4.4629
  38   0.0000       0.182309         4.9609

MULLIKEN ATOMIC CHARGES
-----------------------
   0 C :   -0.403051
   1 C :    0.117518
   2 C :   -0.263602
   3 C :   -0.193378
   4 C :   -0.022040
   5 C :   -0.104517
   6 C :   -0.047607
   7 O :   -0.469553
   8 N :   -0.259422
   9 H :    0.138224
  10 H :    0.131406
  11 H :    0.123043
  12 H :    0.130231
  13 H :    0.137309
  14 H :    0.141321
  15 H :    0.135451
  16 H :    0.123089
  17 H :    0.133862
  18 H :    0.130762
  19 H :    0.320954
Sum of atomic charges:   -0.0000000

LOEWDIN ATOMIC CHARGES
----------------------
   0 C :   -0.272301
   1 C :   -0.254356
   2 C :   -0.189726
   3 C :   -0.167641
   4 C :   -0.172979
   5 C :   -0.247483
   6 C :   -0.341255
   7 O :   -0.045493
   8 N :    0.147592
   9 H :    0.131284
  10 H :    0.130934
  11 H :    0.129589
  12 H :    0.147227
  13 H :    0.131406
  14 H :    0.140462
  15 H :    0.137213
  16 H :    0.161319
  17 H :    0.134512
  18 H :    0.124094
  19 H :    0.175603

  Mayer bond orders larger than 0.1
B(  0-C ,  1-C ) :   0.9155 B(  0-C ,  9-H ) :   0.9373 B(  0-C , 10-H ) :   0.9336
B(  0-C , 11-H ) :   0.9331 B(  1-C ,  2-C ) :   0.9001 B(  1-C ,  3-C ) :   0.8550
B(  1-C ,  8-N ) :   0.8909 B(  2-C ,  3-C ) :   0.8633 B(  2-C , 12-H ) :   0.9242
B(  2-C , 13-H ) :   0.8989 B(  3-C ,  4-C ) :   0.9413 B(  3-C , 14-H ) :   0.9139
B(  4-C ,  5-C ) :   0.9306 B(  4-C ,  8-N ) :   0.8430 B(  4-C , 15-H ) :   0.8912
B(  5-C ,  6-C ) :   0.8481 B(  5-C ,  8-N ) :   0.8919 B(  5-C , 16-H ) :   0.9264
B(  6-C ,  7-O ) :   0.9161 B(  6-C , 17-H ) :   0.9272 B(  6-C , 18-H ) :   0.9413
B(  7-O , 19-H ) :   0.8449

MP2 TOTAL ENERGY:     -402.355548312 Eh
FINAL SINGLE POINT ENERGY      -402.355548311943

DIPOLE MOMENT
-------------
                                X             Y             Z
Electronic contribution:      1.46214      -3.28798      -2.49958
Nuclear contribution   :     -1.56533       3.68219       2.99856
                        -----------------------------------------
Total Dipole Moment    :     -0.10319       0.39421       0.49898
                        -----------------------------------------
Magnitude (a.u.)       :      0.64423
Magnitude (Debye)      :      1.63750

                             ****ORCA TERMINATED NORMALLY****
TOTAL RUN TIME: 0 days 0 hours 19 minutes 1 seconds 730 msec
