                         Program Version 3.0.3 - RELEASE   -
|  1> ! RI-MP2 RIJK def2-TZVP def2-TZVP/C def2-TZVP/JK TIGHTSCF
|  2> % maxcore 2000
|  3> % mp2 density relaxed end
|  4> *xyz 0 1
|  5>  O       -0.1139622349     1.4484063802     0.2563172253
|  6>  C        0.0050015378     0.0454968164     0.0712193545
|  7>  C       -1.3947012114    -0.5538286937     0.0958503308
|  8>  C       -1.4008029416    -2.0712567177    -0.1096955686
|  9>  C       -2.8080724217    -2.6758357849    -0.0749820292
| 10>  C       -2.8200358956    -4.1948233307    -0.2925351430
| 11>  C       -4.2121428023    -4.7744840857    -0.2404922930
| 12>  C       -4.4996229813    -6.0961042391     0.3289731206
| 13>  O       -4.8013355845    -4.9051956470     1.0582063286
| 14>  H        0.7692776410     1.8282407857     0.2527751385
| 15>  H        0.4931214135    -0.1894249746    -0.8894560759
| 16>  H        0.6186603166    -0.4105699460     0.8658319310
| 17>  H       -1.8641062838    -0.3006405017     1.0543458889
| 18>  H       -1.9940422383    -0.0650479241    -0.6822648224
| 19>  H       -0.9249026722    -2.3140782727    -1.0703903893
| 20>  H       -0.7832310867    -2.5497903882     0.6632887765
| 21>  H       -3.2821514582    -2.4540860095     0.8890129979
| 22>  H       -3.4302202142    -2.1937191487    -0.8415904165
| 23>  H       -2.3722784899    -4.4357133461    -1.2666909804
| 24>  H       -2.2050404129    -4.6857102461     0.4715888140
| 25>  H       -4.9043808609    -4.3917805668    -0.9942176063
| 26>  H       -5.3614576313    -6.6646415132    -0.0185177824
| 27>  H       -3.6821906272    -6.6948163460     0.7297758904
| 28> *
| 29>
| 30>                          ****END OF INPUT****

CARTESIAN COORDINATES (ANGSTROEM)
---------------------------------
  O     -0.113962    1.448406    0.256317
  C      0.005002    0.045497    0.071219
  C     -1.394701   -0.553829    0.095850
  C     -1.400803   -2.071257   -0.109696
  C     -2.808072   -2.675836   -0.074982
  C     -2.820036   -4.194823   -0.292535
  C     -4.212143   -4.774484   -0.240492
  C     -4.499623   -6.096104    0.328973
  O     -4.801336   -4.905196    1.058206
  H      0.769278    1.828241    0.252775
  H      0.493121   -0.189425   -0.889456
  H      0.618660   -0.410570    0.865832
  H     -1.864106   -0.300641    1.054346
  H     -1.994042   -0.065048   -0.682265
  H     -0.924903   -2.314078   -1.070390
  H     -0.783231   -2.549790    0.663289
  H     -3.282151   -2.454086    0.889013
  H     -3.430220   -2.193719   -0.841590
  H     -2.372278   -4.435713   -1.266691
  H     -2.205040   -4.685710    0.471589
  H     -4.904381   -4.391781   -0.994218
  H     -5.361458   -6.664642   -0.018518
  H     -3.682191   -6.694816    0.729776

 Total Charge           Charge          ....    0
 Multiplicity           Mult            ....    1
 Number of Electrons    NEL             ....   72
 Basis Dimension        Dim             ....  363

ORBITAL ENERGIES
----------------

  NO   OCC          E(Eh)            E(eV)
   0   2.0000     -20.563084      -559.5500
   1   2.0000     -20.552820      -559.2707
   2   2.0000     -11.284153      -307.0574
   3   2.0000     -11.279406      -306.9282
   4   2.0000     -11.272920      -306.7517
   5   2.0000     -11.228146      -305.5334
   6   2.0000     -11.222179      -305.3710
   7   2.0000     -11.220884      -305.3358
   8   2.0000     -11.215616      -305.1924
   9   2.0000      -1.406284       -38.2669
  10   2.0000      -1.356635       -36.9159
  11   2.0000      -1.087382       -29.5892
  12   2.0000      -1.031271       -28.0623
  13   2.0000      -0.951055       -25.8795
  14   2.0000      -0.903984       -24.5987
  15   2.0000      -0.841488       -22.8981
  16   2.0000      -0.798660       -21.7326
  17   2.0000      -0.793606       -21.5951
  18   2.0000      -0.694250       -18.8915
  19   2.0000      -0.689746       -18.7690
  20   2.0000      -0.660961       -17.9857
  21   2.0000      -0.646580       -17.5943
  22   2.0000      -0.623372       -16.9628
  23   2.0000      -0.587497       -15.9866
  24   2.0000      -0.570778       -15.5317
  25   2.0000      -0.549028       -14.9398
  26   2.0000      -0.537428       -14.6242
  27   2.0000      -0.528882       -14.3916
  28   2.0000      -0.498685       -13.5699
  29   2.0000      -0.492738       -13.4081
  30   2.0000      -0.483989       -13.1700
  31   2.0000      -0.468616       -12.7517
  32   2.0000      -0.466790       -12.7020
  33   2.0000      -0.441043       -12.0014
  34   2.0000      -0.439556       -11.9609
  35   2.0000      -0.424095       -11.5402
  36   0.0000       0.134442         3.6584
  37   0.0000       0.144622         3.9354
  38   0.0000       0.160225         4.3599
  39   0.0000       0.162275         4.4157
  40   0.0000       0.174886         4.7589

MULLIKEN ATOMIC CHARGES
-----------------------
   0 O :   -0.465601
   1 C :   -0.062176
   2 C :   -0.152149
   3 C :   -0.254294
   4 C :   -0.241850
   5 C :   -0.215574
   6 C :    0.056950
   7 C :   -0.074229
   8 O :   -0.340537
   9 H :    0.314224
  10 H :    0.089155
  11 H :    0.090734
  12 H :    0.113127
  13 H :    0.110206
  14 H :    0.104440
  15 H :    0.109056
  16 H :    0.131964
  17 H :    0.109335
  18 H :    0.110362
  19 H :    0.117891
  20 H :    0.121536
  21 H :    0.114091
  22 H :    0.113341
Sum of atomic charges:   -0.0000000

LOEWDIN ATOMIC CHARGES
----------------------
   0 O :   -0.053407
   1 C :   -0.354613
   2 C :   -0.271988
   3 C :   -0.270164
   4 C :   -0.263125
   5 C :   -0.255406
   6 C :   -0.294871
   7 C :   -0.270250
   8 O :    0.138306
   9 H :    0.171009
  10 H :    0.113019
  11 H :    0.113408
  12 H :    0.140756
  13 H :    0.139889
  14 H :    0.135757
  15 H :    0.137097
  16 H :    0.143814
  17 H :    0.138006
  18 H :    0.143608
  19 H :    0.145209
  20 H :    0.137033
  21 H :    0.117949
  22 H :    0.118965

  Mayer bond orders larger than 0.1
B(  0-O ,  1-C ) :   1.0235 B(  0-O ,  9-H ) :   0.8500 B(  1-C ,  2-C ) :   0.9392
B(  1-C , 10-H ) :   0.9330 B(  1-C , 11-H ) :   0.9330 B(  2-C ,  3-C ) :   0.9267
B(  2-C , 12-H ) :   0.9254 B(  2-C , 13-H ) :   0.9251 B(  3-C ,  4-C ) :   0.9431
B(  3-C , 14-H ) :   0.9246 B(  3-C , 15-H ) :   0.9243 B(  4-C ,  5-C ) :   0.9326
B(  4-C , 16-H ) :   0.9302 B(  4-C , 17-H ) :   0.9329 B(  5-C ,  6-C ) :   0.9279
B(  5-C , 18-H ) :   0.9270 B(  5-C , 19-H ) :   0.9306 B(  6-C ,  7-C ) :   0.9899
B(  6-C ,  8-O ) :   0.8599 B(  6-C , 20-H ) :   0.9146 B(  7-C ,  8-O ) :   0.9202
B(  7-C , 21-H ) :   0.9209 B(  7-C , 22-H ) :   0.9087

MP2 TOTAL ENERGY:     -424.697619571 Eh
FINAL SINGLE POINT ENERGY      -424.697619571258

DIPOLE MOMENT
-------------
                                X             Y             Z
Electronic contribution:     -3.63704      -1.04009       1.88490
Nuclear contribution   :      4.49726       0.51587      -2.53747
                        -----------------------------------------
Total Dipole Moment    :      0.86022      -0.52422      -0.65257
                        -----------------------------------------
Magnitude (a.u.)       :      1.20026
Magnitude (Debye)      :      3.05082

                             ****ORCA TERMINATED NORMALLY****
TOTAL RUN TIME: 0 days 0 hours 14 minutes 18 seconds 990 msec
