                         Program Version 3.0.3 - RELEASE   -
|  1> ! RI-MP2 RIJK def2-TZVP def2-TZVP/C def2-TZVP/JK TIGHTSCF
|  2> % maxcore 2000
|  3> % mp2 density relaxed end
|  4> *xyz 0 1
|  5>  C        0.2644085622     1.3249029976    -0.0812384408
|  6>  O        0.1129139739    -0.0742773459     0.0083592002
|  7>  C        0.6118558336    -0.6211910337     1.2151123716
|  8>  C        0.5029531762    -2.1407686438     1.0855883092
|  9>  O        1.1571463252    -2.5640581439    -0.0991918964
| 10>  C        1.1350543689    -2.8416173884     2.2711106206
| 11>  C        1.6638542119    -4.2177230572     2.1397448572
| 12>  N        2.5871424490    -3.0734694430     2.2902754432
| 13>  H        1.3215616218     1.6235125525    -0.0138497878
| 14>  H       -0.1329058448     1.6355701213    -1.0503540376
| 15>  H       -0.2920631139     1.8424199254     0.7144283451
| 16>  H        1.6645448425    -0.3313721284     1.3627017268
| 17>  H        0.0323967807    -0.2611670984     2.0799098154
| 18>  H       -0.5679365146    -2.4017614372     1.0418810673
| 19>  H        0.9354333066    -1.9038161465    -0.7676765773
| 20>  H        0.7212789441    -2.5332781047     3.2299532896
| 21>  H        1.6275269378    -4.8936615327     2.9892915498
| 22>  H        1.5940984399    -4.6888821110     1.1647115715
| 23>  H        2.9412516491    -2.8453539519     1.3623285824
| 24> *
| 25>
| 26>                          ****END OF INPUT****

CARTESIAN COORDINATES (ANGSTROEM)
---------------------------------
  C      0.264409    1.324903   -0.081238
  O      0.112914   -0.074277    0.008359
  C      0.611856   -0.621191    1.215112
  C      0.502953   -2.140769    1.085588
  O      1.157146   -2.564058   -0.099192
  C      1.135054   -2.841617    2.271111
  C      1.663854   -4.217723    2.139745
  N      2.587142   -3.073469    2.290275
  H      1.321562    1.623513   -0.013850
  H     -0.132906    1.635570   -1.050354
  H     -0.292063    1.842420    0.714428
  H      1.664545   -0.331372    1.362702
  H      0.032397   -0.261167    2.079910
  H     -0.567937   -2.401761    1.041881
  H      0.935433   -1.903816   -0.767677
  H      0.721279   -2.533278    3.229953
  H      1.627527   -4.893662    2.989292
  H      1.594098   -4.688882    1.164712
  H      2.941252   -2.845354    1.362329

 Total Charge           Charge          ....    0
 Multiplicity           Mult            ....    1
 Number of Electrons    NEL             ....   64
 Basis Dimension        Dim             ....  314

ORBITAL ENERGIES
----------------

  NO   OCC          E(Eh)            E(eV)
   0   2.0000     -20.573697      -559.8388
   1   2.0000     -20.557823      -559.4068
   2   2.0000     -15.546954      -423.0541
   3   2.0000     -11.288037      -307.1631
   4   2.0000     -11.285294      -307.0884
   5   2.0000     -11.283859      -307.0494
   6   2.0000     -11.255388      -306.2747
   7   2.0000     -11.244510      -305.9787
   8   2.0000      -1.399717       -38.0882
   9   2.0000      -1.363535       -37.1037
  10   2.0000      -1.249586       -34.0030
  11   2.0000      -1.032619       -28.0990
  12   2.0000      -0.944108       -25.6905
  13   2.0000      -0.886038       -24.1103
  14   2.0000      -0.850450       -23.1419
  15   2.0000      -0.789393       -21.4805
  16   2.0000      -0.722754       -19.6671
  17   2.0000      -0.690193       -18.7811
  18   2.0000      -0.675133       -18.3713
  19   2.0000      -0.645964       -17.5776
  20   2.0000      -0.638959       -17.3870
  21   2.0000      -0.620155       -16.8753
  22   2.0000      -0.593774       -16.1574
  23   2.0000      -0.554755       -15.0956
  24   2.0000      -0.532833       -14.4991
  25   2.0000      -0.508882       -13.8474
  26   2.0000      -0.503101       -13.6901
  27   2.0000      -0.480299       -13.0696
  28   2.0000      -0.460929       -12.5425
  29   2.0000      -0.442360       -12.0372
  30   2.0000      -0.440253       -11.9799
  31   2.0000      -0.381944       -10.3932
  32   0.0000       0.135475         3.6865
  33   0.0000       0.158164         4.3039
  34   0.0000       0.166752         4.5375
  35   0.0000       0.178762         4.8643
  36   0.0000       0.191367         5.2074

MULLIKEN ATOMIC CHARGES
-----------------------
   0 C :   -0.214397
   1 O :   -0.336443
   2 C :   -0.088722
   3 C :    0.104259
   4 O :   -0.498557
   5 C :   -0.041847
   6 C :   -0.178896
   7 N :   -0.387269
   8 H :    0.118888
   9 H :    0.142239
  10 H :    0.118357
  11 H :    0.117557
  12 H :    0.101929
  13 H :    0.088176
  14 H :    0.332849
  15 H :    0.122812
  16 H :    0.119211
  17 H :    0.145284
  18 H :    0.234570
Sum of atomic charges:    0.0000000

LOEWDIN ATOMIC CHARGES
----------------------
   0 C :   -0.355498
   1 O :    0.121099
   2 C :   -0.310293
   3 C :   -0.347164
   4 O :   -0.015219
   5 C :   -0.271619
   6 C :   -0.262186
   7 N :   -0.021171
   8 H :    0.103902
   9 H :    0.114613
  10 H :    0.104618
  11 H :    0.127010
  12 H :    0.125437
  13 H :    0.143099
  14 H :    0.180560
  15 H :    0.144991
  16 H :    0.122200
  17 H :    0.127474
  18 H :    0.168147

  Mayer bond orders larger than 0.1
B(  0-C ,  1-O ) :   0.9069 B(  0-C ,  8-H ) :   0.9366 B(  0-C ,  9-H ) :   0.9381
B(  0-C , 10-H ) :   0.9381 B(  1-O ,  2-C ) :   0.9090 B(  2-C ,  3-C ) :   0.9521
B(  2-C , 11-H ) :   0.9252 B(  2-C , 12-H ) :   0.9216 B(  3-C ,  4-O ) :   0.9413
B(  3-C ,  5-C ) :   0.9207 B(  3-C , 13-H ) :   0.9248 B(  4-O , 14-H ) :   0.8204
B(  5-C ,  6-C ) :   0.9491 B(  5-C ,  7-N ) :   0.9445 B(  5-C , 15-H ) :   0.9127
B(  6-C ,  7-N ) :   0.9181 B(  6-C , 16-H ) :   0.9255 B(  6-C , 17-H ) :   0.9113
B(  7-N , 18-H ) :   0.8700

MP2 TOTAL ENERGY:     -401.510876930 Eh
FINAL SINGLE POINT ENERGY      -401.510876930293

DIPOLE MOMENT
-------------
                                X             Y             Z
Electronic contribution:      0.44549      -3.10399      -0.79597
Nuclear contribution   :     -1.04280       3.97049       0.54993
                        -----------------------------------------
Total Dipole Moment    :     -0.59731       0.86649      -0.24604
                        -----------------------------------------
Magnitude (a.u.)       :      1.08080
Magnitude (Debye)      :      2.74717

                             ****ORCA TERMINATED NORMALLY****
TOTAL RUN TIME: 0 days 0 hours 10 minutes 52 seconds 716 msec
