                         Program Version 3.0.3 - RELEASE   -
|  1> ! RI-MP2 RIJK def2-TZVP def2-TZVP/C def2-TZVP/JK TIGHTSCF
|  2> % maxcore 2000
|  3> % mp2 density relaxed end
|  4> *xyz 0 1
|  5>  C        0.1299303061    -1.1959790277    -0.0058788332
|  6>  C        0.0498251848     0.0035688548     0.0018714117
|  7>  C       -0.0455332052     1.4054372427     0.0110137337
|  8>  C       -1.1482935071     2.2239589646     0.0319011338
|  9>  O       -0.7432147813     3.4967696942     0.0324285478
| 10>  N        0.6833661778     3.4555450235     0.0119998981
| 11>  N        1.0486148859     2.2582552457     0.0002184217
| 12>  C       -2.5288251402     1.9330538413     0.0503686486
| 13>  N       -3.6568064774     1.6755504372     0.0652637466
| 14>  H        0.1973646765    -2.2568985363    -0.0128714788
| 15> *
| 16>
| 17>                          ****END OF INPUT****

CARTESIAN COORDINATES (ANGSTROEM)
---------------------------------
  C      0.129930   -1.195979   -0.005879
  C      0.049825    0.003569    0.001871
  C     -0.045533    1.405437    0.011014
  C     -1.148294    2.223959    0.031901
  O     -0.743215    3.496770    0.032429
  N      0.683366    3.455545    0.012000
  N      1.048615    2.258255    0.000218
  C     -2.528825    1.933054    0.050369
  N     -3.656806    1.675550    0.065264
  H      0.197365   -2.256899   -0.012871

 Total Charge           Charge          ....    0
 Multiplicity           Mult            ....    1
 Number of Electrons    NEL             ....   60
 Basis Dimension        Dim             ....  285

ORBITAL ENERGIES
----------------

  NO   OCC          E(Eh)            E(eV)
   0   2.0000     -20.708529      -563.5077
   1   2.0000     -15.741208      -428.3400
   2   2.0000     -15.682008      -426.7291
   3   2.0000     -15.627450      -425.2445
   4   2.0000     -11.399278      -310.1901
   5   2.0000     -11.351381      -308.8868
   6   2.0000     -11.322844      -308.1102
   7   2.0000     -11.281486      -306.9848
   8   2.0000     -11.277640      -306.8802
   9   2.0000      -1.577686       -42.9310
  10   2.0000      -1.365826       -37.1660
  11   2.0000      -1.265603       -34.4388
  12   2.0000      -1.176809       -32.0226
  13   2.0000      -1.068470       -29.0745
  14   2.0000      -0.976126       -26.5617
  15   2.0000      -0.923902       -25.1407
  16   2.0000      -0.854751       -23.2590
  17   2.0000      -0.781115       -21.2552
  18   2.0000      -0.733683       -19.9645
  19   2.0000      -0.732897       -19.9431
  20   2.0000      -0.666514       -18.1368
  21   2.0000      -0.611256       -16.6331
  22   2.0000      -0.596789       -16.2395
  23   2.0000      -0.556556       -15.1447
  24   2.0000      -0.542513       -14.7625
  25   2.0000      -0.538876       -14.6636
  26   2.0000      -0.498072       -13.5532
  27   2.0000      -0.480788       -13.0829
  28   2.0000      -0.443558       -12.0698
  29   2.0000      -0.380427       -10.3519
  30   0.0000       0.020646         0.5618
  31   0.0000       0.100550         2.7361
  32   0.0000       0.128406         3.4941
  33   0.0000       0.136282         3.7084
  34   0.0000       0.139018         3.7829

MULLIKEN ATOMIC CHARGES
-----------------------
   0 C :   -0.069372
   1 C :    0.085537
   2 C :   -0.161182
   3 C :    0.278392
   4 O :   -0.078728
   5 N :    0.001486
   6 N :   -0.070715
   7 C :   -0.178456
   8 N :   -0.020435
   9 H :    0.213472
Sum of atomic charges:   -0.0000000

LOEWDIN ATOMIC CHARGES
----------------------
   0 C :   -0.014405
   1 C :   -0.064116
   2 C :   -0.209756
   3 C :   -0.253203
   4 O :    0.305401
   5 N :    0.019509
   6 N :    0.090038
   7 C :   -0.134168
   8 N :    0.123835
   9 H :    0.136866

  Mayer bond orders larger than 0.1
B(  0-C ,  1-C ) :   2.6299 B(  0-C ,  2-C ) :  -0.1623 B(  0-C ,  9-H ) :   0.8566
B(  1-C ,  2-C ) :   1.2220 B(  2-C ,  3-C ) :   1.3986 B(  2-C ,  6-N ) :   1.2159
B(  3-C ,  4-O ) :   1.1443 B(  3-C ,  7-C ) :   0.9434 B(  4-O ,  5-N ) :   0.8573
B(  5-N ,  6-N ) :   1.4620 B(  7-C ,  8-N ) :   2.7895

MP2 TOTAL ENERGY:     -429.674177852 Eh
FINAL SINGLE POINT ENERGY      -429.674177852245

DIPOLE MOMENT
-------------
                                X             Y             Z
Electronic contribution:     -0.44828       2.90790       0.02274
Nuclear contribution   :      0.82470      -3.73187      -0.03285
                        -----------------------------------------
Total Dipole Moment    :      0.37641      -0.82397      -0.01011
                        -----------------------------------------
Magnitude (a.u.)       :      0.90593
Magnitude (Debye)      :      2.30270

                             ****ORCA TERMINATED NORMALLY****
TOTAL RUN TIME: 0 days 0 hours 12 minutes 10 seconds 156 msec
