                         Program Version 3.0.3 - RELEASE   -
|  1> ! RI-MP2 RIJK def2-TZVP def2-TZVP/C def2-TZVP/JK TIGHTSCF
|  2> % maxcore 2000
|  3> % mp2 density relaxed end
|  4> *xyz 0 1
|  5>  N       -0.1418689912     1.4735677920    -0.1550697506
|  6>  C       -0.1000955858     0.0581037913    -0.0431924175
|  7>  C       -0.4645781795    -0.7311876479     1.1561186125
|  8>  O       -1.4659565931    -0.0103783368     1.9094150767
|  9>  C       -2.3975187401    -0.1617965204     0.8778062830
| 10>  O       -3.5408804826     0.1336637864     0.8870879827
| 11>  C       -1.4054310897    -0.8177024760    -0.0563076058
| 12>  C       -1.6499413535    -1.8356473803    -1.0142294305
| 13>  N       -1.8307763704    -2.6648537052    -1.8009962145
| 14>  H       -0.5665109673     1.8982987468     0.6631091461
| 15>  H        0.7902327897     1.8533456700    -0.2685384833
| 16>  H        0.6530312586    -0.4063632840    -0.6741481679
| 17>  H        0.0708123250    -1.5195631158     1.6683200992
| 18> *
| 19>
| 20>                          ****END OF INPUT****

CARTESIAN COORDINATES (ANGSTROEM)
---------------------------------
  N     -0.141869    1.473568   -0.155070
  C     -0.100096    0.058104   -0.043192
  C     -0.464578   -0.731188    1.156119
  O     -1.465957   -0.010378    1.909415
  C     -2.397519   -0.161797    0.877806
  O     -3.540880    0.133664    0.887088
  C     -1.405431   -0.817702   -0.056308
  C     -1.649941   -1.835647   -1.014229
  N     -1.830776   -2.664854   -1.800996
  H     -0.566511    1.898299    0.663109
  H      0.790233    1.853346   -0.268538
  H      0.653031   -0.406363   -0.674148
  H      0.070812   -1.519563    1.668320

 Total Charge           Charge          ....    0
 Multiplicity           Mult            ....    1
 Number of Electrons    NEL             ....   64
 Basis Dimension        Dim             ....  303

ORBITAL ENERGIES
----------------

  NO   OCC          E(Eh)            E(eV)
   0   2.0000     -20.638106      -561.5914
   1   2.0000     -20.587463      -560.2134
   2   2.0000     -15.593595      -424.3233
   3   2.0000     -15.592367      -424.2899
   4   2.0000     -11.424313      -310.8714
   5   2.0000     -11.361722      -309.1682
   6   2.0000     -11.346952      -308.7663
   7   2.0000     -11.324795      -308.1633
   8   2.0000     -11.298582      -307.4501
   9   2.0000      -1.504517       -40.9400
  10   2.0000      -1.420957       -38.6662
  11   2.0000      -1.259322       -34.2679
  12   2.0000      -1.236342       -33.6426
  13   2.0000      -1.155404       -31.4402
  14   2.0000      -0.976776       -26.5794
  15   2.0000      -0.875664       -23.8280
  16   2.0000      -0.867687       -23.6110
  17   2.0000      -0.771149       -20.9840
  18   2.0000      -0.741246       -20.1703
  19   2.0000      -0.717748       -19.5309
  20   2.0000      -0.679773       -18.4976
  21   2.0000      -0.642328       -17.4786
  22   2.0000      -0.630560       -17.1584
  23   2.0000      -0.613090       -16.6830
  24   2.0000      -0.594856       -16.1868
  25   2.0000      -0.576361       -15.6836
  26   2.0000      -0.539227       -14.6731
  27   2.0000      -0.512491       -13.9456
  28   2.0000      -0.506728       -13.7888
  29   2.0000      -0.475520       -12.9396
  30   2.0000      -0.438669       -11.9368
  31   2.0000      -0.410832       -11.1793
  32   0.0000       0.109693         2.9849
  33   0.0000       0.115733         3.1493
  34   0.0000       0.128996         3.5101
  35   0.0000       0.141214         3.8426
  36   0.0000       0.160349         4.3633

MULLIKEN ATOMIC CHARGES
-----------------------
   0 N :   -0.503965
   1 C :   -0.082421
   2 C :    0.132010
   3 O :   -0.267245
   4 C :    0.281907
   5 O :   -0.210554
   6 C :    0.114357
   7 C :   -0.266860
   8 N :   -0.039405
   9 H :    0.260349
  10 H :    0.249349
  11 H :    0.156893
  12 H :    0.175585
Sum of atomic charges:    0.0000000

LOEWDIN ATOMIC CHARGES
----------------------
   0 N :   -0.109351
   1 C :   -0.223677
   2 C :   -0.165662
   3 O :    0.243596
   4 C :   -0.392963
   5 O :    0.203914
   6 C :   -0.144252
   7 C :   -0.155807
   8 N :    0.088475
   9 H :    0.171637
  10 H :    0.169651
  11 H :    0.168268
  12 H :    0.146171

  Mayer bond orders larger than 0.1
B(  0-N ,  1-C ) :   1.0831 B(  0-N ,  9-H ) :   0.8633 B(  0-N , 10-H ) :   0.8752
B(  1-C ,  2-C ) :   0.9272 B(  1-C ,  6-C ) :   0.7502 B(  1-C , 11-H ) :   0.9141
B(  2-C ,  3-O ) :   0.9042 B(  2-C ,  6-C ) :   0.7755 B(  2-C , 12-H ) :   0.8934
B(  3-O ,  4-C ) :   1.0172 B(  4-C ,  5-O ) :   2.0982 B(  4-C ,  6-C ) :   0.8837
B(  6-C ,  7-C ) :   0.9302 B(  7-C ,  8-N ) :   2.8377

MP2 TOTAL ENERGY:     -451.998332565 Eh
FINAL SINGLE POINT ENERGY      -451.998332565221

DIPOLE MOMENT
-------------
                                X             Y             Z
Electronic contribution:     -4.25203      -2.74079       0.34553
Nuclear contribution   :      6.27726       3.38227       0.42274
                        -----------------------------------------
Total Dipole Moment    :      2.02523       0.64148       0.76827
                        -----------------------------------------
Magnitude (a.u.)       :      2.25905
Magnitude (Debye)      :      5.74204

                             ****ORCA TERMINATED NORMALLY****
TOTAL RUN TIME: 0 days 0 hours 14 minutes 50 seconds 406 msec
