                         Program Version 3.0.3 - RELEASE   -
|  1> ! RI-MP2 RIJK def2-TZVP def2-TZVP/C def2-TZVP/JK TIGHTSCF
|  2> % maxcore 2000
|  3> % mp2 density relaxed end
|  4> *xyz 0 1
|  5>  C        0.0462503126     1.5469945571     0.1442816931
|  6>  C       -0.0171970027     0.0562982441    -0.0136637375
|  7>  C       -0.9108295069    -0.8110937600     0.7849951457
|  8>  N        0.5433860115    -0.9098439878     1.0245414249
|  9>  C        1.0600022163    -1.7527220031    -0.1091109814
| 10>  C        0.5686613140    -0.7418019337    -1.1799548095
| 11>  C       -0.2314032031    -1.2054943270    -2.4267625519
| 12>  C        1.0546018788    -1.0249418598    -3.2774908411
| 13>  C        1.6369806146    -0.1482113595    -2.1361409710
| 14>  H        1.0482212495     1.9313517812    -0.0735180686
| 15>  H       -0.6598447665     2.0443511461    -0.5317163942
| 16>  H       -0.2090091256     1.8339708517     1.1684832708
| 17>  H       -1.4466716898    -0.3522954314     1.6110402893
| 18>  H       -1.4271212720    -1.6516457929     0.3241546264
| 19>  H        2.1484692636    -1.8337674852    -0.0491230631
| 20>  H        0.6268874678    -2.7599415079    -0.1371011747
| 21>  H       -0.6839230093    -2.2002364244    -2.3905719618
| 22>  H       -1.0074920872    -0.4816667167    -2.6968063855
| 23>  H        1.6031373358    -1.9638308185    -3.3927528170
| 24>  H        0.9490210063    -0.5640155851    -4.2619309755
| 25>  H        1.4654631073     0.9170672955    -2.3213409866
| 26>  H        2.6871922049    -0.2862052328    -1.8635897906
| 27> *
| 28>
| 29>                          ****END OF INPUT****

CARTESIAN COORDINATES (ANGSTROEM)
---------------------------------
  C      0.046250    1.546995    0.144282
  C     -0.017197    0.056298   -0.013664
  C     -0.910830   -0.811094    0.784995
  N      0.543386   -0.909844    1.024541
  C      1.060002   -1.752722   -0.109111
  C      0.568661   -0.741802   -1.179955
  C     -0.231403   -1.205494   -2.426763
  C      1.054602   -1.024942   -3.277491
  C      1.636981   -0.148211   -2.136141
  H      1.048221    1.931352   -0.073518
  H     -0.659845    2.044351   -0.531716
  H     -0.209009    1.833971    1.168483
  H     -1.446672   -0.352295    1.611040
  H     -1.427121   -1.651646    0.324155
  H      2.148469   -1.833767   -0.049123
  H      0.626887   -2.759942   -0.137101
  H     -0.683923   -2.200236   -2.390572
  H     -1.007492   -0.481667   -2.696806
  H      1.603137   -1.963831   -3.392753
  H      0.949021   -0.564016   -4.261931
  H      1.465463    0.917067   -2.321341
  H      2.687192   -0.286205   -1.863590

 Total Charge           Charge          ....    0
 Multiplicity           Mult            ....    1
 Number of Electrons    NEL             ....   68
 Basis Dimension        Dim             ....  357

ORBITAL ENERGIES
----------------

  NO   OCC          E(Eh)            E(eV)
   0   2.0000     -15.550785      -423.1584
   1   2.0000     -11.259311      -306.3814
   2   2.0000     -11.247968      -306.0728
   3   2.0000     -11.247352      -306.0560
   4   2.0000     -11.236456      -305.7595
   5   2.0000     -11.223187      -305.3985
   6   2.0000     -11.222387      -305.3767
   7   2.0000     -11.221780      -305.3602
   8   2.0000     -11.219820      -305.3068
   9   2.0000      -1.284243       -34.9460
  10   2.0000      -1.125172       -30.6175
  11   2.0000      -1.002594       -27.2820
  12   2.0000      -0.964796       -26.2534
  13   2.0000      -0.903289       -24.5797
  14   2.0000      -0.883926       -24.0529
  15   2.0000      -0.817211       -22.2374
  16   2.0000      -0.786925       -21.4133
  17   2.0000      -0.690052       -18.7773
  18   2.0000      -0.673818       -18.3355
  19   2.0000      -0.646064       -17.5803
  20   2.0000      -0.627188       -17.0667
  21   2.0000      -0.588899       -16.0248
  22   2.0000      -0.573860       -15.6155
  23   2.0000      -0.561887       -15.2897
  24   2.0000      -0.546835       -14.8801
  25   2.0000      -0.535854       -14.5813
  26   2.0000      -0.505816       -13.7639
  27   2.0000      -0.500347       -13.6151
  28   2.0000      -0.486922       -13.2498
  29   2.0000      -0.452432       -12.3113
  30   2.0000      -0.433842       -11.8055
  31   2.0000      -0.415196       -11.2981
  32   2.0000      -0.409132       -11.1331
  33   2.0000      -0.353774        -9.6267
  34   0.0000       0.132176         3.5967
  35   0.0000       0.152066         4.1379
  36   0.0000       0.160704         4.3730
  37   0.0000       0.166657         4.5350
  38   0.0000       0.186314         5.0699

MULLIKEN ATOMIC CHARGES
-----------------------
   0 C :   -0.458492
   1 C :    0.035232
   2 C :   -0.153843
   3 N :   -0.219549
   4 C :   -0.194926
   5 C :    0.133859
   6 C :   -0.234763
   7 C :   -0.214610
   8 C :   -0.268977
   9 H :    0.138857
  10 H :    0.135968
  11 H :    0.142747
  12 H :    0.123816
  13 H :    0.116248
  14 H :    0.116404
  15 H :    0.110615
  16 H :    0.111056
  17 H :    0.111570
  18 H :    0.115414
  19 H :    0.117911
  20 H :    0.116374
  21 H :    0.119088
Sum of atomic charges:   -0.0000000

LOEWDIN ATOMIC CHARGES
----------------------
   0 C :   -0.271128
   1 C :   -0.244249
   2 C :   -0.229644
   3 N :    0.110609
   4 C :   -0.203864
   5 C :   -0.205868
   6 C :   -0.203921
   7 C :   -0.239124
   8 C :   -0.198630
   9 H :    0.129170
  10 H :    0.130493
  11 H :    0.134801
  12 H :    0.132310
  13 H :    0.126791
  14 H :    0.129476
  15 H :    0.121688
  16 H :    0.124586
  17 H :    0.137096
  18 H :    0.133389
  19 H :    0.122440
  20 H :    0.137280
  21 H :    0.126300

  Mayer bond orders larger than 0.1
B(  0-C ,  1-C ) :   0.8493 B(  0-C ,  9-H ) :   0.9426 B(  0-C , 10-H ) :   0.9419
B(  0-C , 11-H ) :   0.9368 B(  1-C ,  2-C ) :   0.9594 B(  1-C ,  3-N ) :   0.9092
B(  1-C ,  5-C ) :   0.8746 B(  2-C ,  3-N ) :   0.8923 B(  2-C , 12-H ) :   0.9217
B(  2-C , 13-H ) :   0.9012 B(  3-N ,  4-C ) :   0.9585 B(  4-C ,  5-C ) :   0.9535
B(  4-C , 14-H ) :   0.9090 B(  4-C , 15-H ) :   0.9297 B(  5-C ,  6-C ) :   0.9255
B(  5-C ,  8-C ) :   0.9108 B(  6-C ,  7-C ) :   0.9471 B(  6-C , 16-H ) :   0.9246
B(  6-C , 17-H ) :   0.9186 B(  7-C ,  8-C ) :   0.9488 B(  7-C , 18-H ) :   0.9258
B(  7-C , 19-H ) :   0.9290 B(  8-C , 20-H ) :   0.9231 B(  8-C , 21-H ) :   0.9245

MP2 TOTAL ENERGY:     -366.497727728 Eh
FINAL SINGLE POINT ENERGY      -366.497727728132

DIPOLE MOMENT
-------------
                                X             Y             Z
Electronic contribution:      0.02030      -1.54699       3.24688
Nuclear contribution   :     -0.29512       1.61259      -3.89679
                        -----------------------------------------
Total Dipole Moment    :     -0.27482       0.06560      -0.64991
                        -----------------------------------------
Magnitude (a.u.)       :      0.70867
Magnitude (Debye)      :      1.80129

                             ****ORCA TERMINATED NORMALLY****
TOTAL RUN TIME: 0 days 0 hours 22 minutes 22 seconds 679 msec
