                         Program Version 3.0.3 - RELEASE   -
|  1> ! RI-MP2 RIJK def2-TZVP def2-TZVP/C def2-TZVP/JK TIGHTSCF
|  2> % maxcore 2000
|  3> % mp2 density relaxed end
|  4> *xyz 0 1
|  5>  O        0.0856644123     1.4139091755     0.1685282787
|  6>  C        0.0458757591     0.0168711842    -0.0164637795
|  7>  C       -1.3831499486    -0.5081782367    -0.0328215634
|  8>  C       -1.4915083049    -2.0183440404    -0.2327654268
|  9>  C       -2.8370161621    -2.6008857688     0.1837778546
| 10>  O       -3.2182983225    -3.6820354067    -0.1641880470
| 11>  O       -3.5835906852    -1.8736177997     1.0561752923
| 12>  C       -3.2987597882    -0.4858338841     1.2742455402
| 13>  O       -1.9471223753    -0.1852098838     1.2435806269
| 14>  H       -0.4103582144     1.5966446911     0.9748329023
| 15>  H        0.5246931005    -0.1957903567    -0.9777018903
| 16>  H        0.6077484378    -0.5174517322     0.7669179032
| 17>  H       -1.9493251620     0.0284452710    -0.8107608283
| 18>  H       -1.3073217300    -2.3128723036    -1.2683948428
| 19>  H       -0.7402063489    -2.5247369765     0.3865781143
| 20>  H       -3.8503808725     0.0897145285     0.5143281213
| 21>  H       -3.6743980251    -0.2559654310     2.2724871043
| 22> *
| 23>
| 24>                          ****END OF INPUT****

CARTESIAN COORDINATES (ANGSTROEM)
---------------------------------
  O      0.085664    1.413909    0.168528
  C      0.045876    0.016871   -0.016464
  C     -1.383150   -0.508178   -0.032822
  C     -1.491508   -2.018344   -0.232765
  C     -2.837016   -2.600886    0.183778
  O     -3.218298   -3.682035   -0.164188
  O     -3.583591   -1.873618    1.056175
  C     -3.298760   -0.485834    1.274246
  O     -1.947122   -0.185210    1.243581
  H     -0.410358    1.596645    0.974833
  H      0.524693   -0.195790   -0.977702
  H      0.607748   -0.517452    0.766918
  H     -1.949325    0.028445   -0.810761
  H     -1.307322   -2.312872   -1.268395
  H     -0.740206   -2.524737    0.386578
  H     -3.850381    0.089715    0.514328
  H     -3.674398   -0.255965    2.272487

 Total Charge           Charge          ....    0
 Multiplicity           Mult            ....    1
 Number of Electrons    NEL             ....   70
 Basis Dimension        Dim             ....  327

ORBITAL ENERGIES
----------------

  NO   OCC          E(Eh)            E(eV)
   0   2.0000     -20.611520      -560.8680
   1   2.0000     -20.603518      -560.6502
   2   2.0000     -20.571207      -559.7710
   3   2.0000     -20.547172      -559.1170
   4   2.0000     -11.392991      -310.0191
   5   2.0000     -11.366662      -309.3026
   6   2.0000     -11.317278      -307.9588
   7   2.0000     -11.298039      -307.4353
   8   2.0000     -11.267552      -306.6057
   9   2.0000      -1.482881       -40.3513
  10   2.0000      -1.425328       -38.7852
  11   2.0000      -1.378934       -37.5227
  12   2.0000      -1.361537       -37.0493
  13   2.0000      -1.100067       -29.9343
  14   2.0000      -0.983790       -26.7703
  15   2.0000      -0.959830       -26.1183
  16   2.0000      -0.861306       -23.4373
  17   2.0000      -0.795325       -21.6419
  18   2.0000      -0.735616       -20.0171
  19   2.0000      -0.725827       -19.7507
  20   2.0000      -0.704530       -19.1712
  21   2.0000      -0.693015       -18.8579
  22   2.0000      -0.660675       -17.9779
  23   2.0000      -0.649211       -17.6659
  24   2.0000      -0.632770       -17.2185
  25   2.0000      -0.619073       -16.8458
  26   2.0000      -0.604169       -16.4403
  27   2.0000      -0.551336       -15.0026
  28   2.0000      -0.539761       -14.6877
  29   2.0000      -0.528037       -14.3686
  30   2.0000      -0.520391       -14.1605
  31   2.0000      -0.485996       -13.2246
  32   2.0000      -0.472915       -12.8687
  33   2.0000      -0.461018       -12.5450
  34   2.0000      -0.442317       -12.0361
  35   0.0000       0.123993         3.3740
  36   0.0000       0.141041         3.8379
  37   0.0000       0.148578         4.0430
  38   0.0000       0.154189         4.1957
  39   0.0000       0.177660         4.8344

MULLIKEN ATOMIC CHARGES
-----------------------
   0 O :   -0.471711
   1 C :    0.010983
   2 C :   -0.007666
   3 C :   -0.224399
   4 C :    0.236873
   5 O :   -0.276564
   6 O :   -0.215394
   7 C :    0.065411
   8 O :   -0.319229
   9 H :    0.327426
  10 H :    0.117036
  11 H :    0.106676
  12 H :    0.101692
  13 H :    0.150698
  14 H :    0.141089
  15 H :    0.110447
  16 H :    0.146632
Sum of atomic charges:    0.0000000

LOEWDIN ATOMIC CHARGES
----------------------
   0 O :   -0.035864
   1 C :   -0.329612
   2 C :   -0.325752
   3 C :   -0.211483
   4 C :   -0.470277
   5 O :    0.145883
   6 O :    0.247146
   7 C :   -0.362197
   8 O :    0.186717
   9 H :    0.179393
  10 H :    0.136961
  11 H :    0.124753
  12 H :    0.144681
  13 H :    0.160273
  14 H :    0.165427
  15 H :    0.115137
  16 H :    0.128813

  Mayer bond orders larger than 0.1
B(  0-O ,  1-C ) :   0.9410 B(  0-O ,  9-H ) :   0.8332 B(  1-C ,  2-C ) :   0.9369
B(  1-C , 10-H ) :   0.9194 B(  1-C , 11-H ) :   0.9238 B(  2-C ,  3-C ) :   0.9004
B(  2-C ,  8-O ) :   0.8601 B(  2-C , 12-H ) :   0.9296 B(  3-C ,  4-C ) :   0.9321
B(  3-C , 13-H ) :   0.9086 B(  3-C , 14-H ) :   0.8909 B(  4-C ,  5-O ) :   2.0284
B(  4-C ,  6-O ) :   1.1123 B(  6-O ,  7-C ) :   0.8901 B(  7-C ,  8-O ) :   1.0018
B(  7-C , 15-H ) :   0.9319 B(  7-C , 16-H ) :   0.9277

MP2 TOTAL ENERGY:     -495.371735423 Eh
FINAL SINGLE POINT ENERGY      -495.371735422511

DIPOLE MOMENT
-------------
                                X             Y             Z
Electronic contribution:     -4.13083      -3.29859       1.36887
Nuclear contribution   :      4.46456       4.14564      -1.24921
                        -----------------------------------------
Total Dipole Moment    :      0.33373       0.84705       0.11966
                        -----------------------------------------
Magnitude (a.u.)       :      0.91825
Magnitude (Debye)      :      2.33400

                             ****ORCA TERMINATED NORMALLY****
TOTAL RUN TIME: 0 days 0 hours 14 minutes 46 seconds 882 msec
