                         Program Version 3.0.3 - RELEASE   -
|  1> ! RI-MP2 RIJK def2-TZVP def2-TZVP/C def2-TZVP/JK TIGHTSCF
|  2> % maxcore 2000
|  3> % mp2 density relaxed end
|  4> *xyz 0 1
|  5>  C        0.0721811341     1.5405002023     0.3225444045
|  6>  C        0.0217381837     0.0517192621     0.0402045105
|  7>  O        0.6492289478    -0.6228152929     1.1487281940
|  8>  C        0.6899815577    -1.9738624107     1.0465267375
|  9>  O        0.2549484036    -2.6143998899     0.1317088209
| 10>  N        1.3225741489    -2.4579522638     2.1897339332
| 11>  C        1.5815249478    -3.7962206676     2.5112582327
| 12>  C        2.2923403346    -3.9405878899     3.8489150590
| 13>  O        1.2772664933    -4.7256780686     1.8107264891
| 14>  H        1.1051485195     1.8862199929     0.4206364795
| 15>  H       -0.3969833316     2.0875908588    -0.5004351680
| 16>  H       -0.4621848094     1.7829771651     1.2454896829
| 17>  H       -1.0055025300    -0.3124241135    -0.0598326066
| 18>  H        0.5533778168    -0.2099037828    -0.8799302937
| 19>  H        1.6163775860    -1.7485544201     2.8435860467
| 20>  H        3.2510463242    -3.4110651700     3.8403076339
| 21>  H        1.6863789656    -3.5215313717     4.6593679054
| 22>  H        2.4653148676    -4.9992621795     4.0368883585
| 23> *
| 24>
| 25>                          ****END OF INPUT****

CARTESIAN COORDINATES (ANGSTROEM)
---------------------------------
  C      0.072181    1.540500    0.322544
  C      0.021738    0.051719    0.040205
  O      0.649229   -0.622815    1.148728
  C      0.689982   -1.973862    1.046527
  O      0.254948   -2.614400    0.131709
  N      1.322574   -2.457952    2.189734
  C      1.581525   -3.796221    2.511258
  C      2.292340   -3.940588    3.848915
  O      1.277266   -4.725678    1.810726
  H      1.105149    1.886220    0.420636
  H     -0.396983    2.087591   -0.500435
  H     -0.462185    1.782977    1.245490
  H     -1.005503   -0.312424   -0.059833
  H      0.553378   -0.209904   -0.879930
  H      1.616378   -1.748554    2.843586
  H      3.251046   -3.411065    3.840308
  H      1.686379   -3.521531    4.659368
  H      2.465315   -4.999262    4.036888

 Total Charge           Charge          ....    0
 Multiplicity           Mult            ....    1
 Number of Electrons    NEL             ....   70
 Basis Dimension        Dim             ....  333

ORBITAL ENERGIES
----------------

  NO   OCC          E(Eh)            E(eV)
   0   2.0000     -20.609338      -560.8086
   1   2.0000     -20.539436      -558.9065
   2   2.0000     -20.538687      -558.8861
   3   2.0000     -15.615686      -424.9244
   4   2.0000     -11.415603      -310.6344
   5   2.0000     -11.371212      -309.4264
   6   2.0000     -11.295570      -307.3681
   7   2.0000     -11.251345      -306.1647
   8   2.0000     -11.231875      -305.6349
   9   2.0000      -1.475259       -40.1438
  10   2.0000      -1.402770       -38.1713
  11   2.0000      -1.367770       -37.2189
  12   2.0000      -1.251727       -34.0612
  13   2.0000      -1.051123       -28.6025
  14   2.0000      -1.019371       -27.7385
  15   2.0000      -0.903076       -24.5739
  16   2.0000      -0.831328       -22.6216
  17   2.0000      -0.783444       -21.3186
  18   2.0000      -0.760318       -20.6893
  19   2.0000      -0.697095       -18.9689
  20   2.0000      -0.686333       -18.6761
  21   2.0000      -0.665633       -18.1128
  22   2.0000      -0.637186       -17.3387
  23   2.0000      -0.616371       -16.7723
  24   2.0000      -0.599032       -16.3005
  25   2.0000      -0.598228       -16.2786
  26   2.0000      -0.574555       -15.6344
  27   2.0000      -0.555223       -15.1084
  28   2.0000      -0.542627       -14.7656
  29   2.0000      -0.522563       -14.2197
  30   2.0000      -0.512814       -13.9544
  31   2.0000      -0.477012       -12.9802
  32   2.0000      -0.468871       -12.7586
  33   2.0000      -0.433787       -11.8040
  34   2.0000      -0.431377       -11.7384
  35   0.0000       0.115735         3.1493
  36   0.0000       0.136754         3.7213
  37   0.0000       0.147316         4.0087
  38   0.0000       0.175301         4.7702
  39   0.0000       0.181179         4.9301

MULLIKEN ATOMIC CHARGES
-----------------------
   0 C :   -0.364235
   1 C :   -0.069486
   2 O :   -0.299292
   3 C :    0.421132
   4 O :   -0.303868
   5 N :   -0.328261
   6 C :    0.294035
   7 C :   -0.446800
   8 O :   -0.278292
   9 H :    0.132652
  10 H :    0.133258
  11 H :    0.132664
  12 H :    0.128385
  13 H :    0.128597
  14 H :    0.256541
  15 H :    0.150056
  16 H :    0.150190
  17 H :    0.162722
Sum of atomic charges:    0.0000000

LOEWDIN ATOMIC CHARGES
----------------------
   0 C :   -0.315929
   1 C :   -0.302206
   2 O :    0.220578
   3 C :   -0.553553
   4 O :    0.136785
   5 N :    0.135267
   6 C :   -0.438734
   7 C :   -0.279179
   8 O :    0.149137
   9 H :    0.124857
  10 H :    0.129607
  11 H :    0.124854
  12 H :    0.129682
  13 H :    0.129736
  14 H :    0.200975
  15 H :    0.134478
  16 H :    0.134565
  17 H :    0.139081

  Mayer bond orders larger than 0.1
B(  0-C ,  1-C ) :   0.9392 B(  0-C ,  9-H ) :   0.9335 B(  0-C , 10-H ) :   0.9339
B(  0-C , 11-H ) :   0.9335 B(  1-C ,  2-O ) :   0.8282 B(  1-C , 12-H ) :   0.9361
B(  1-C , 13-H ) :   0.9361 B(  2-O ,  3-C ) :   1.0878 B(  3-C ,  4-O ) :   1.9617
B(  3-C ,  5-N ) :   1.0255 B(  5-N ,  6-C ) :   0.9922 B(  5-N , 14-H ) :   0.8626
B(  6-C ,  7-C ) :   0.9126 B(  6-C ,  8-O ) :   2.0256 B(  7-C , 15-H ) :   0.9175
B(  7-C , 16-H ) :   0.9173 B(  7-C , 17-H ) :   0.9392

MP2 TOTAL ENERGY:     -475.544243107 Eh
FINAL SINGLE POINT ENERGY      -475.544243107091

DIPOLE MOMENT
-------------
                                X             Y             Z
Electronic contribution:     -0.18617      -7.69240      -1.35478
Nuclear contribution   :      0.64825       9.29384       2.44589
                        -----------------------------------------
Total Dipole Moment    :      0.46208       1.60144       1.09111
                        -----------------------------------------
Magnitude (a.u.)       :      1.99214
Magnitude (Debye)      :      5.06363

                             ****ORCA TERMINATED NORMALLY****
TOTAL RUN TIME: 0 days 0 hours 12 minutes 19 seconds 615 msec
