                         Program Version 3.0.3 - RELEASE   -
|  1> ! RI-MP2 RIJK def2-TZVP def2-TZVP/C def2-TZVP/JK TIGHTSCF
|  2> % maxcore 2000
|  3> % mp2 density relaxed end
|  4> *xyz 0 1
|  5>  C        0.1210998923     1.4949911744    -0.1668290740
|  6>  C        0.0574782636    -0.0290113207    -0.0118934775
|  7>  C        0.7239044495    -0.5020059327     1.2914690025
|  8>  O        2.0975666505    -0.1613088930     1.3823429478
|  9>  C       -1.3771817147    -0.5659036471    -0.0724349537
| 10>  N       -2.3682533373     0.0535479817     0.8603790952
| 11>  C       -3.3681313482     0.2787547355    -0.2179122215
| 12>  C       -2.2881896244    -0.1244470554    -1.2346694245
| 13>  O       -2.1797579124    -0.0826332690    -2.4227020961
| 14>  H        1.1578085571     1.8427963558    -0.1281682049
| 15>  H       -0.2870181733     1.8125099696    -1.1309233701
| 16>  H       -0.4492851274     1.9899316150     0.6253210172
| 17>  H        0.6000951797    -0.4922754171    -0.8465411690
| 18>  H        0.1572499580    -0.1123450472     2.1516644823
| 19>  H        0.6878252421    -1.5965601609     1.3440551280
| 20>  H        2.1596180435     0.7821269909     1.5571121585
| 21>  H       -1.3574767725    -1.6668051194    -0.0194307736
| 22>  H       -2.6906046407    -0.5721152400     1.5885101187
| 23>  H       -4.2250670245    -0.4088660304    -0.2290905385
| 24>  H       -3.7423718912     1.3059397700    -0.2885370370
| 25> *
| 26>
| 27>                          ****END OF INPUT****

CARTESIAN COORDINATES (ANGSTROEM)
---------------------------------
  C      0.121100    1.494991   -0.166829
  C      0.057478   -0.029011   -0.011893
  C      0.723904   -0.502006    1.291469
  O      2.097567   -0.161309    1.382343
  C     -1.377182   -0.565904   -0.072435
  N     -2.368253    0.053548    0.860379
  C     -3.368131    0.278755   -0.217912
  C     -2.288190   -0.124447   -1.234669
  O     -2.179758   -0.082633   -2.422702
  H      1.157809    1.842796   -0.128168
  H     -0.287018    1.812510   -1.130923
  H     -0.449285    1.989932    0.625321
  H      0.600095   -0.492275   -0.846541
  H      0.157250   -0.112345    2.151664
  H      0.687825   -1.596560    1.344055
  H      2.159618    0.782127    1.557112
  H     -1.357477   -1.666805   -0.019431
  H     -2.690605   -0.572115    1.588510
  H     -4.225067   -0.408866   -0.229091
  H     -3.742372    1.305940   -0.288537

 Total Charge           Charge          ....    0
 Multiplicity           Mult            ....    1
 Number of Electrons    NEL             ....   70
 Basis Dimension        Dim             ....  345

ORBITAL ENERGIES
----------------

  NO   OCC          E(Eh)            E(eV)
   0   2.0000     -20.564982      -559.6016
   1   2.0000     -20.558439      -559.4236
   2   2.0000     -15.566439      -423.5843
   3   2.0000     -11.341634      -308.6216
   4   2.0000     -11.279181      -306.9221
   5   2.0000     -11.278784      -306.9113
   6   2.0000     -11.276011      -306.8358
   7   2.0000     -11.238581      -305.8173
   8   2.0000     -11.218306      -305.2656
   9   2.0000      -1.408974       -38.3401
  10   2.0000      -1.363154       -37.0933
  11   2.0000      -1.253742       -34.1160
  12   2.0000      -1.076465       -29.2921
  13   2.0000      -0.952704       -25.9244
  14   2.0000      -0.942472       -25.6460
  15   2.0000      -0.924655       -25.1611
  16   2.0000      -0.806820       -21.9547
  17   2.0000      -0.722393       -19.6573
  18   2.0000      -0.708130       -19.2692
  19   2.0000      -0.700924       -19.0731
  20   2.0000      -0.667996       -18.1771
  21   2.0000      -0.643828       -17.5194
  22   2.0000      -0.614938       -16.7333
  23   2.0000      -0.612062       -16.6551
  24   2.0000      -0.590452       -16.0670
  25   2.0000      -0.555595       -15.1185
  26   2.0000      -0.551248       -15.0002
  27   2.0000      -0.541988       -14.7482
  28   2.0000      -0.521926       -14.2023
  29   2.0000      -0.512411       -13.9434
  30   2.0000      -0.492678       -13.4065
  31   2.0000      -0.476640       -12.9700
  32   2.0000      -0.449886       -12.2420
  33   2.0000      -0.403246       -10.9729
  34   2.0000      -0.399275       -10.8648
  35   0.0000       0.109086         2.9684
  36   0.0000       0.135590         3.6896
  37   0.0000       0.145811         3.9677
  38   0.0000       0.157385         4.2827
  39   0.0000       0.161338         4.3902

MULLIKEN ATOMIC CHARGES
-----------------------
   0 C :   -0.497533
   1 C :    0.037408
   2 C :   -0.081472
   3 O :   -0.472140
   4 C :   -0.029100
   5 N :   -0.377325
   6 C :   -0.128900
   7 C :    0.109446
   8 O :   -0.242939
   9 H :    0.126138
  10 H :    0.149089
  11 H :    0.148501
  12 H :    0.102778
  13 H :    0.120656
  14 H :    0.110741
  15 H :    0.319435
  16 H :    0.127943
  17 H :    0.214429
  18 H :    0.132154
  19 H :    0.130692
Sum of atomic charges:   -0.0000000

LOEWDIN ATOMIC CHARGES
----------------------
   0 C :   -0.296799
   1 C :   -0.273672
   2 C :   -0.327709
   3 O :   -0.042704
   4 C :   -0.226192
   5 N :   -0.006065
   6 C :   -0.243247
   7 C :   -0.299879
   8 O :    0.174286
   9 H :    0.120675
  10 H :    0.130107
  11 H :    0.128478
  12 H :    0.162561
  13 H :    0.120933
  14 H :    0.129534
  15 H :    0.171755
  16 H :    0.153215
  17 H :    0.158614
  18 H :    0.133121
  19 H :    0.132989

  Mayer bond orders larger than 0.1
B(  0-C ,  1-C ) :   0.8778 B(  0-C ,  9-H ) :   0.9393 B(  0-C , 10-H ) :   0.9373
B(  0-C , 11-H ) :   0.9291 B(  1-C ,  2-C ) :   0.8800 B(  1-C ,  4-C ) :   0.8545
B(  1-C , 12-H ) :   0.9172 B(  2-C ,  3-O ) :   0.9487 B(  2-C , 13-H ) :   0.9460
B(  2-C , 14-H ) :   0.9285 B(  3-O , 15-H ) :   0.8469 B(  4-C ,  5-N ) :   1.0086
B(  4-C ,  6-C ) :  -0.1090 B(  4-C ,  7-C ) :   0.8076 B(  4-C , 16-H ) :   0.9017
B(  5-N ,  6-C ) :   0.9616 B(  5-N , 17-H ) :   0.8768 B(  6-C ,  7-C ) :   0.9233
B(  6-C , 18-H ) :   0.9002 B(  6-C , 19-H ) :   0.9047 B(  7-C ,  8-O ) :   2.0613

MP2 TOTAL ENERGY:     -439.552726723 Eh
FINAL SINGLE POINT ENERGY      -439.552726723218

DIPOLE MOMENT
-------------
                                X             Y             Z
Electronic contribution:     -2.52344      -2.21992      -3.88669
Nuclear contribution   :      1.80490       2.19046       4.71903
                        -----------------------------------------
Total Dipole Moment    :     -0.71855      -0.02946       0.83234
                        -----------------------------------------
Magnitude (a.u.)       :      1.09998
Magnitude (Debye)      :      2.79593

                             ****ORCA TERMINATED NORMALLY****
TOTAL RUN TIME: 0 days 0 hours 17 minutes 16 seconds 502 msec
