                         Program Version 3.0.3 - RELEASE   -
|  1> ! RI-MP2 RIJK def2-TZVP def2-TZVP/C def2-TZVP/JK TIGHTSCF
|  2> % maxcore 2000
|  3> % mp2 density relaxed end
|  4> *xyz 0 1
|  5>  N       -0.0136978394     1.3183810876    -0.2527215967
|  6>  C        0.0592900754     0.0297657648     0.1981712704
|  7>  O        1.0864388795    -0.4410497994     0.6464143469
|  8>  C       -1.2468435245    -0.7581912101     0.1030653895
|  9>  C       -1.0131119721    -2.2660362203    -0.0125380028
| 10>  C       -2.3081768334    -3.0805645681     0.0568599011
| 11>  C       -2.0702227068    -4.5881428390    -0.0690304012
| 12>  C       -3.3541453290    -5.4029499093     0.0101908005
| 13>  O       -3.0141352338    -6.7748395302    -0.1260888989
| 14>  H        0.7873625660     1.9135472634    -0.1182624563
| 15>  H       -0.8795601524     1.7347555375    -0.5461510823
| 16>  H       -1.8212860040    -0.5401384714     1.0147932419
| 17>  H       -1.8521609268    -0.3889231250    -0.7342194816
| 18>  H       -0.4925413550    -2.4797200037    -0.9544082498
| 19>  H       -0.3270179496    -2.5693725655     0.7844018844
| 20>  H       -2.8201784790    -2.8674340819     1.0061584419
| 21>  H       -2.9942114137    -2.7507479250    -0.7365229852
| 22>  H       -1.5747808979    -4.8136301534    -1.0213887473
| 23>  H       -1.3917798881    -4.9296053468     0.7221712345
| 24>  H       -3.8574831654    -5.2110149820     0.9725080980
| 25>  H       -4.0471485791    -5.0835921831    -0.7862748841
| 26>  H       -3.8224137208    -7.2922747988    -0.0685377329
| 27> *
| 28>
| 29>                          ****END OF INPUT****

CARTESIAN COORDINATES (ANGSTROEM)
---------------------------------
  N     -0.013698    1.318381   -0.252722
  C      0.059290    0.029766    0.198171
  O      1.086439   -0.441050    0.646414
  C     -1.246844   -0.758191    0.103065
  C     -1.013112   -2.266036   -0.012538
  C     -2.308177   -3.080565    0.056860
  C     -2.070223   -4.588143   -0.069030
  C     -3.354145   -5.402950    0.010191
  O     -3.014135   -6.774840   -0.126089
  H      0.787363    1.913547   -0.118262
  H     -0.879560    1.734756   -0.546151
  H     -1.821286   -0.540138    1.014793
  H     -1.852161   -0.388923   -0.734219
  H     -0.492541   -2.479720   -0.954408
  H     -0.327018   -2.569373    0.784402
  H     -2.820178   -2.867434    1.006158
  H     -2.994211   -2.750748   -0.736523
  H     -1.574781   -4.813630   -1.021389
  H     -1.391780   -4.929605    0.722171
  H     -3.857483   -5.211015    0.972508
  H     -4.047149   -5.083592   -0.786275
  H     -3.822414   -7.292275   -0.068538

 Total Charge           Charge          ....    0
 Multiplicity           Mult            ....    1
 Number of Electrons    NEL             ....   72
 Basis Dimension        Dim             ....  357

ORBITAL ENERGIES
----------------

  NO   OCC          E(Eh)            E(eV)
   0   2.0000     -20.552958      -559.2744
   1   2.0000     -20.513959      -558.2132
   2   2.0000     -15.581435      -423.9924
   3   2.0000     -11.348397      -308.8056
   4   2.0000     -11.273341      -306.7632
   5   2.0000     -11.240379      -305.8663
   6   2.0000     -11.223833      -305.4160
   7   2.0000     -11.221220      -305.3449
   8   2.0000     -11.215829      -305.1982
   9   2.0000      -1.378918       -37.5223
  10   2.0000      -1.356802       -36.9205
  11   2.0000      -1.208445       -32.8835
  12   2.0000      -1.087805       -29.6007
  13   2.0000      -1.028122       -27.9766
  14   2.0000      -0.937934       -25.5225
  15   2.0000      -0.843790       -22.9607
  16   2.0000      -0.797518       -21.7016
  17   2.0000      -0.779644       -21.2152
  18   2.0000      -0.719649       -19.5826
  19   2.0000      -0.691055       -18.8046
  20   2.0000      -0.669983       -18.2312
  21   2.0000      -0.659242       -17.9389
  22   2.0000      -0.632792       -17.2191
  23   2.0000      -0.597754       -16.2657
  24   2.0000      -0.587513       -15.9870
  25   2.0000      -0.579145       -15.7593
  26   2.0000      -0.549016       -14.9395
  27   2.0000      -0.531953       -14.4752
  28   2.0000      -0.507072       -13.7981
  29   2.0000      -0.495645       -13.4872
  30   2.0000      -0.476292       -12.9606
  31   2.0000      -0.468587       -12.7509
  32   2.0000      -0.465153       -12.6575
  33   2.0000      -0.441220       -12.0062
  34   2.0000      -0.419681       -11.4201
  35   2.0000      -0.414302       -11.2737
  36   0.0000       0.121447         3.3047
  37   0.0000       0.135470         3.6863
  38   0.0000       0.147084         4.0024
  39   0.0000       0.166854         4.5403
  40   0.0000       0.170031         4.6268

MULLIKEN ATOMIC CHARGES
-----------------------
   0 N :   -0.482969
   1 C :    0.282456
   2 O :   -0.352348
   3 C :   -0.226816
   4 C :   -0.247493
   5 C :   -0.243134
   6 C :   -0.153810
   7 C :   -0.061154
   8 O :   -0.465029
   9 H :    0.258991
  10 H :    0.256780
  11 H :    0.131682
  12 H :    0.118361
  13 H :    0.114353
  14 H :    0.143329
  15 H :    0.105848
  16 H :    0.102519
  17 H :    0.111621
  18 H :    0.114726
  19 H :    0.089910
  20 H :    0.088235
  21 H :    0.313940
Sum of atomic charges:    0.0000000

LOEWDIN ATOMIC CHARGES
----------------------
   0 N :   -0.026608
   1 C :   -0.476402
   2 O :    0.084200
   3 C :   -0.242069
   4 C :   -0.260165
   5 C :   -0.271103
   6 C :   -0.271009
   7 C :   -0.354951
   8 O :   -0.053036
   9 H :    0.171940
  10 H :    0.168244
  11 H :    0.152180
  12 H :    0.139661
  13 H :    0.141629
  14 H :    0.148004
  15 H :    0.136052
  16 H :    0.134778
  17 H :    0.140491
  18 H :    0.141396
  19 H :    0.113128
  20 H :    0.112725
  21 H :    0.170914

  Mayer bond orders larger than 0.1
B(  0-N ,  1-C ) :   1.1565 B(  0-N ,  9-H ) :   0.8591 B(  0-N , 10-H ) :   0.8722
B(  1-C ,  2-O ) :   1.9769 B(  1-C ,  3-C ) :   0.9012 B(  3-C ,  4-C ) :   0.9432
B(  3-C , 11-H ) :   0.8971 B(  3-C , 12-H ) :   0.9201 B(  4-C ,  5-C ) :   0.9295
B(  4-C , 13-H ) :   0.9331 B(  4-C , 14-H ) :   0.9383 B(  5-C ,  6-C ) :   0.9290
B(  5-C , 15-H ) :   0.9250 B(  5-C , 16-H ) :   0.9204 B(  6-C ,  7-C ) :   0.9385
B(  6-C , 17-H ) :   0.9256 B(  6-C , 18-H ) :   0.9256 B(  7-C ,  8-O ) :   1.0239
B(  7-C , 19-H ) :   0.9332 B(  7-C , 20-H ) :   0.9323 B(  8-O , 21-H ) :   0.8501

MP2 TOTAL ENERGY:     -440.805943268 Eh
FINAL SINGLE POINT ENERGY      -440.805943268327

DIPOLE MOMENT
-------------
                                X             Y             Z
Electronic contribution:      5.60484       3.85451       0.79519
Nuclear contribution   :     -7.19341      -2.84440      -1.15413
                        -----------------------------------------
Total Dipole Moment    :     -1.58858       1.01011      -0.35895
                        -----------------------------------------
Magnitude (a.u.)       :      1.91644
Magnitude (Debye)      :      4.87120

                             ****ORCA TERMINATED NORMALLY****
TOTAL RUN TIME: 0 days 0 hours 15 minutes 17 seconds 175 msec
