                         Program Version 3.0.3 - RELEASE   -
|  1> ! RI-MP2 RIJK def2-TZVP def2-TZVP/C def2-TZVP/JK TIGHTSCF
|  2> % maxcore 2000
|  3> % mp2 density relaxed end
|  4> *xyz 0 1
|  5>  O       -0.7195179524     0.9316732837     0.8534426883
|  6>  C       -0.0167896297     1.0521930997    -0.1159665022
|  7>  C        1.3057454682     1.7844549953    -0.1451784451
|  8>  C        1.3151819948     2.9051546965    -1.1993124547
|  9>  C        2.6793659313     3.5931931404    -1.3192320118
| 10>  C        2.6887912943     4.7138996273    -2.3734268167
| 11>  C        4.0114598553     5.4458992729    -2.4023847300
| 12>  O        4.7149740354     5.5651997607    -3.3713811816
| 13>  H       -0.3178783613     0.6163414834    -1.0985699103
| 14>  H        1.5130436089     2.1710554854     0.8570147969
| 15>  H        2.0851802771     1.0498592118    -0.3960404365
| 16>  H        1.0282442906     2.4921321249    -2.1753353851
| 17>  H        0.5511850149     3.6503289960    -0.9438028633
| 18>  H        2.9663097246     4.0062271381    -0.3432158474
| 19>  H        3.4433703303     2.8480404297    -1.5747687262
| 20>  H        2.4816712152     4.3270187285    -3.3755589367
| 21>  H        1.9093678483     5.4484853341    -2.1226572021
| 22>  H        4.3120104742     5.8825595916    -1.4199747055
| 23> *
| 24>
| 25>                          ****END OF INPUT****

CARTESIAN COORDINATES (ANGSTROEM)
---------------------------------
  O     -0.719518    0.931673    0.853443
  C     -0.016790    1.052193   -0.115967
  C      1.305745    1.784455   -0.145178
  C      1.315182    2.905155   -1.199312
  C      2.679366    3.593193   -1.319232
  C      2.688791    4.713900   -2.373427
  C      4.011460    5.445899   -2.402385
  O      4.714974    5.565200   -3.371381
  H     -0.317878    0.616341   -1.098570
  H      1.513044    2.171055    0.857015
  H      2.085180    1.049859   -0.396040
  H      1.028244    2.492132   -2.175335
  H      0.551185    3.650329   -0.943803
  H      2.966310    4.006227   -0.343216
  H      3.443370    2.848040   -1.574769
  H      2.481671    4.327019   -3.375559
  H      1.909368    5.448485   -2.122657
  H      4.312010    5.882560   -1.419975

 Total Charge           Charge          ....    0
 Multiplicity           Mult            ....    1
 Number of Electrons    NEL             ....   62
 Basis Dimension        Dim             ....  308

ORBITAL ENERGIES
----------------

  NO   OCC          E(Eh)            E(eV)
   0   2.0000     -20.563545      -559.5625
   1   2.0000     -20.563544      -559.5625
   2   2.0000     -11.338394      -308.5334
   3   2.0000     -11.338393      -308.5334
   4   2.0000     -11.255969      -306.2905
   5   2.0000     -11.255374      -306.2743
   6   2.0000     -11.251808      -306.1773
   7   2.0000     -11.251800      -306.1771
   8   2.0000      -1.402348       -38.1598
   9   2.0000      -1.402329       -38.1593
  10   2.0000      -1.116786       -30.3893
  11   2.0000      -1.052149       -28.6304
  12   2.0000      -0.948672       -25.8147
  13   2.0000      -0.840794       -22.8792
  14   2.0000      -0.806915       -21.9573
  15   2.0000      -0.795478       -21.6460
  16   2.0000      -0.695414       -18.9232
  17   2.0000      -0.674884       -18.3645
  18   2.0000      -0.658176       -17.9099
  19   2.0000      -0.644751       -17.5446
  20   2.0000      -0.635466       -17.2919
  21   2.0000      -0.600583       -16.3427
  22   2.0000      -0.582517       -15.8511
  23   2.0000      -0.553221       -15.0539
  24   2.0000      -0.537216       -14.6184
  25   2.0000      -0.523966       -14.2578
  26   2.0000      -0.509047       -13.8519
  27   2.0000      -0.501412       -13.6441
  28   2.0000      -0.491940       -13.3864
  29   2.0000      -0.432181       -11.7602
  30   2.0000      -0.418995       -11.4014
  31   0.0000       0.118869         3.2346
  32   0.0000       0.122261         3.3269
  33   0.0000       0.134329         3.6553
  34   0.0000       0.145652         3.9634
  35   0.0000       0.147452         4.0124

MULLIKEN ATOMIC CHARGES
-----------------------
   0 O :   -0.261028
   1 C :    0.095487
   2 C :   -0.134776
   3 C :   -0.271398
   4 C :   -0.271450
   5 C :   -0.134733
   6 C :    0.095502
   7 O :   -0.261043
   8 H :    0.071212
   9 H :    0.123401
  10 H :    0.125758
  11 H :    0.122255
  12 H :    0.129095
  13 H :    0.122256
  14 H :    0.129114
  15 H :    0.123381
  16 H :    0.125739
  17 H :    0.071230
Sum of atomic charges:   -0.0000000

LOEWDIN ATOMIC CHARGES
----------------------
   0 O :    0.133185
   1 C :   -0.297468
   2 C :   -0.262105
   3 C :   -0.263144
   4 C :   -0.263122
   5 C :   -0.262086
   6 C :   -0.297472
   7 O :    0.133180
   8 H :    0.109374
   9 H :    0.145440
  10 H :    0.151762
  11 H :    0.140880
  12 H :    0.142072
  13 H :    0.140878
  14 H :    0.142076
  15 H :    0.145442
  16 H :    0.151730
  17 H :    0.109378

  Mayer bond orders larger than 0.1
B(  0-O ,  1-C ) :   2.0079 B(  1-C ,  2-C ) :   0.8773 B(  1-C ,  8-H ) :   0.9387
B(  2-C ,  3-C ) :   0.9086 B(  2-C ,  9-H ) :   0.9047 B(  2-C , 10-H ) :   0.9145
B(  3-C ,  4-C ) :   0.9252 B(  3-C , 11-H ) :   0.9316 B(  3-C , 12-H ) :   0.9263
B(  4-C ,  5-C ) :   0.9086 B(  4-C , 13-H ) :   0.9316 B(  4-C , 14-H ) :   0.9263
B(  5-C ,  6-C ) :   0.8773 B(  5-C , 15-H ) :   0.9048 B(  5-C , 16-H ) :   0.9145
B(  6-C ,  7-O ) :   2.0079 B(  6-C , 17-H ) :   0.9387

MP2 TOTAL ENERGY:     -384.317788223 Eh
FINAL SINGLE POINT ENERGY      -384.317788222647

DIPOLE MOMENT
-------------
                                X             Y             Z
Electronic contribution:      0.00096      -0.00163       0.00079
Nuclear contribution   :     -0.00150       0.00243      -0.00108
                        -----------------------------------------
Total Dipole Moment    :     -0.00053       0.00080      -0.00029
                        -----------------------------------------
Magnitude (a.u.)       :      0.00100
Magnitude (Debye)      :      0.00255

                             ****ORCA TERMINATED NORMALLY****
TOTAL RUN TIME: 0 days 0 hours 9 minutes 36 seconds 754 msec
