                         Program Version 3.0.3 - RELEASE   -
|  1> ! RI-MP2 RIJK def2-TZVP def2-TZVP/C def2-TZVP/JK TIGHTSCF
|  2> % maxcore 2000
|  3> % mp2 density relaxed end
|  4> *xyz 0 1
|  5>  C       -0.0659119244     1.4003350166    -0.2996255566
|  6>  O       -0.0351852402     0.0517743955     0.0964537216
|  7>  C       -1.2782876379    -0.5964955678    -0.0640711122
|  8>  C       -1.1354408009    -2.0439647406     0.3948279882
|  9>  C       -2.4417068704    -2.8032030682     0.2746231217
| 10>  C       -2.8478584757    -3.4730891234    -1.0179980611
| 11>  C       -2.5314576118    -4.3111607262     0.1956765898
| 12>  C       -1.3201449228    -5.2054697107     0.2205910467
| 13>  O       -1.6734192646    -6.4319496155    -0.4092283620
| 14>  H        0.9325850837     1.8141473163    -0.1373753015
| 15>  H       -0.3264024442     1.5098230299    -1.3648509315
| 16>  H       -0.7917604536     1.9845081442     0.2890904327
| 17>  H       -2.0580339720    -0.0824393569     0.5259323749
| 18>  H       -1.6006490211    -0.5610276134    -1.1189595366
| 19>  H       -0.3492976872    -2.5152280297    -0.2036882924
| 20>  H       -0.7831917135    -2.0437441822     1.4338153367
| 21>  H       -3.2551147909    -2.3420215423     0.8314110237
| 22>  H       -3.8767256391    -3.4029881170    -1.3527945835
| 23>  H       -2.1192123035    -3.4817352527    -1.8234553483
| 24>  H       -3.3844905681    -4.7543451277     0.7024861461
| 25>  H       -0.4771293326    -4.7260942769    -0.2991591747
| 26>  H       -1.0042324608    -5.3775956112     1.2625983391
| 27>  H       -0.9275900082    -7.0334859702    -0.3250062107
| 28> *
| 29>
| 30>                          ****END OF INPUT****

CARTESIAN COORDINATES (ANGSTROEM)
---------------------------------
  C     -0.065912    1.400335   -0.299626
  O     -0.035185    0.051774    0.096454
  C     -1.278288   -0.596496   -0.064071
  C     -1.135441   -2.043965    0.394828
  C     -2.441707   -2.803203    0.274623
  C     -2.847858   -3.473089   -1.017998
  C     -2.531458   -4.311161    0.195677
  C     -1.320145   -5.205470    0.220591
  O     -1.673419   -6.431950   -0.409228
  H      0.932585    1.814147   -0.137375
  H     -0.326402    1.509823   -1.364851
  H     -0.791760    1.984508    0.289090
  H     -2.058034   -0.082439    0.525932
  H     -1.600649   -0.561028   -1.118960
  H     -0.349298   -2.515228   -0.203688
  H     -0.783192   -2.043744    1.433815
  H     -3.255115   -2.342022    0.831411
  H     -3.876726   -3.402988   -1.352795
  H     -2.119212   -3.481735   -1.823455
  H     -3.384491   -4.754345    0.702486
  H     -0.477129   -4.726094   -0.299159
  H     -1.004232   -5.377596    1.262598
  H     -0.927590   -7.033486   -0.325006

 Total Charge           Charge          ....    0
 Multiplicity           Mult            ....    1
 Number of Electrons    NEL             ....   72
 Basis Dimension        Dim             ....  363

ORBITAL ENERGIES
----------------

  NO   OCC          E(Eh)            E(eV)
   0   2.0000     -20.552755      -559.2689
   1   2.0000     -20.551696      -559.2401
   2   2.0000     -11.275369      -306.8184
   3   2.0000     -11.271354      -306.7091
   4   2.0000     -11.268980      -306.6445
   5   2.0000     -11.231319      -305.6197
   6   2.0000     -11.225829      -305.4703
   7   2.0000     -11.221372      -305.3490
   8   2.0000     -11.219320      -305.2932
   9   2.0000      -1.374160       -37.3928
  10   2.0000      -1.355184       -36.8764
  11   2.0000      -1.149074       -31.2679
  12   2.0000      -1.028253       -27.9802
  13   2.0000      -0.944430       -25.6992
  14   2.0000      -0.918199       -24.9855
  15   2.0000      -0.844525       -22.9807
  16   2.0000      -0.796263       -21.6674
  17   2.0000      -0.755463       -20.5572
  18   2.0000      -0.696253       -18.9460
  19   2.0000      -0.676439       -18.4068
  20   2.0000      -0.662750       -18.0343
  21   2.0000      -0.648986       -17.6598
  22   2.0000      -0.627139       -17.0653
  23   2.0000      -0.608804       -16.5664
  24   2.0000      -0.596979       -16.2446
  25   2.0000      -0.576140       -15.6776
  26   2.0000      -0.544251       -14.8098
  27   2.0000      -0.519427       -14.1343
  28   2.0000      -0.506245       -13.7756
  29   2.0000      -0.497443       -13.5361
  30   2.0000      -0.479516       -13.0483
  31   2.0000      -0.475421       -12.9369
  32   2.0000      -0.449839       -12.2407
  33   2.0000      -0.421213       -11.4618
  34   2.0000      -0.402582       -10.9548
  35   2.0000      -0.401219       -10.9177
  36   0.0000       0.137354         3.7376
  37   0.0000       0.143878         3.9151
  38   0.0000       0.155213         4.2236
  39   0.0000       0.167705         4.5635
  40   0.0000       0.175196         4.7673

MULLIKEN ATOMIC CHARGES
-----------------------
   0 C :   -0.212633
   1 O :   -0.302171
   2 C :   -0.063795
   3 C :   -0.172388
   4 C :   -0.141360
   5 C :   -0.288823
   6 C :   -0.025524
   7 C :   -0.090740
   8 O :   -0.460114
   9 H :    0.137671
  10 H :    0.109835
  11 H :    0.109582
  12 H :    0.086655
  13 H :    0.097989
  14 H :    0.104385
  15 H :    0.119825
  16 H :    0.115399
  17 H :    0.131592
  18 H :    0.123614
  19 H :    0.117930
  20 H :    0.090709
  21 H :    0.099753
  22 H :    0.312611
Sum of atomic charges:    0.0000000

LOEWDIN ATOMIC CHARGES
----------------------
   0 C :   -0.364350
   1 O :    0.132649
   2 C :   -0.325922
   3 C :   -0.249218
   4 C :   -0.208083
   5 C :   -0.204280
   6 C :   -0.212582
   7 C :   -0.331521
   8 O :   -0.049366
   9 H :    0.112811
  10 H :    0.100596
  11 H :    0.100468
  12 H :    0.118015
  13 H :    0.120130
  14 H :    0.141251
  15 H :    0.143173
  16 H :    0.149968
  17 H :    0.130900
  18 H :    0.137367
  19 H :    0.151123
  20 H :    0.117563
  21 H :    0.118951
  22 H :    0.170357

  Mayer bond orders larger than 0.1
B(  0-C ,  1-O ) :   0.9225 B(  0-C ,  9-H ) :   0.9396 B(  0-C , 10-H ) :   0.9368
B(  0-C , 11-H ) :   0.9377 B(  1-O ,  2-C ) :   0.9602 B(  2-C ,  3-C ) :   0.9484
B(  2-C , 12-H ) :   0.9259 B(  2-C , 13-H ) :   0.9246 B(  3-C ,  4-C ) :   0.9004
B(  3-C , 14-H ) :   0.9283 B(  3-C , 15-H ) :   0.9239 B(  4-C ,  5-C ) :   0.9025
B(  4-C ,  6-C ) :   0.8505 B(  4-C , 16-H ) :   0.9226 B(  5-C ,  6-C ) :   0.8840
B(  5-C , 17-H ) :   0.9256 B(  5-C , 18-H ) :   0.9229 B(  6-C ,  7-C ) :   0.9403
B(  6-C , 19-H ) :   0.9295 B(  7-C ,  8-O ) :   1.0326 B(  7-C , 20-H ) :   0.9175
B(  7-C , 21-H ) :   0.9367 B(  8-O , 22-H ) :   0.8494

MP2 TOTAL ENERGY:     -424.687697930 Eh
FINAL SINGLE POINT ENERGY      -424.687697929779

DIPOLE MOMENT
-------------
                                X             Y             Z
Electronic contribution:      0.04784      -4.67244       0.58374
Nuclear contribution   :      0.10965       4.98005      -0.46040
                        -----------------------------------------
Total Dipole Moment    :      0.15749       0.30761       0.12333
                        -----------------------------------------
Magnitude (a.u.)       :      0.36693
Magnitude (Debye)      :      0.93265

                             ****ORCA TERMINATED NORMALLY****
TOTAL RUN TIME: 0 days 0 hours 15 minutes 54 seconds 212 msec
