                         Program Version 3.0.3 - RELEASE   -
|  1> ! RI-MP2 RIJK def2-TZVP def2-TZVP/C def2-TZVP/JK TIGHTSCF
|  2> % maxcore 2000
|  3> % mp2 density relaxed end
|  4> *xyz 0 1
|  5>  C       -0.0329312468     1.5514920779    -0.0698088817
|  6>  C        0.0785276400     0.0256841335    -0.0464925787
|  7>  C        0.6565720918    -0.4772415263     1.2941920718
|  8>  O       -0.1356912276    -0.0790976389     2.3764966894
|  9>  C        0.7947000863    -1.9892682902     1.2952730492
| 10>  O        0.2164051908    -2.6912367968     2.0912804764
| 11>  C        1.6791134301    -2.5722390588     0.2753133459
| 12>  N        2.3867301603    -3.0115853779    -0.5267057600
| 13>  H        0.9528826141     2.0201804089     0.0209450008
| 14>  H       -0.4814526521     1.8897276675    -1.0079379215
| 15>  H       -0.6538053716     1.9022009762     0.7576810099
| 16>  H       -0.9100916800    -0.4282477600    -0.1833548584
| 17>  H        0.7166447270    -0.3231182265    -0.8665146003
| 18>  H        1.6777517175    -0.0684349674     1.4015679416
| 19>  H       -0.4300221499    -0.8878319413     2.8218927558
| 20> *
| 21>
| 22>                          ****END OF INPUT****

CARTESIAN COORDINATES (ANGSTROEM)
---------------------------------
  C     -0.032931    1.551492   -0.069809
  C      0.078528    0.025684   -0.046493
  C      0.656572   -0.477242    1.294192
  O     -0.135691   -0.079098    2.376497
  C      0.794700   -1.989268    1.295273
  O      0.216405   -2.691237    2.091280
  C      1.679113   -2.572239    0.275313
  N      2.386730   -3.011585   -0.526706
  H      0.952883    2.020180    0.020945
  H     -0.481453    1.889728   -1.007938
  H     -0.653805    1.902201    0.757681
  H     -0.910092   -0.428248   -0.183355
  H      0.716645   -0.323118   -0.866515
  H      1.677752   -0.068435    1.401568
  H     -0.430022   -0.887832    2.821893

 Total Charge           Charge          ....    0
 Multiplicity           Mult            ....    1
 Number of Electrons    NEL             ....   60
 Basis Dimension        Dim             ....  290

ORBITAL ENERGIES
----------------

  NO   OCC          E(Eh)            E(eV)
   0   2.0000     -20.619414      -561.0828
   1   2.0000     -20.581385      -560.0479
   2   2.0000     -15.624638      -425.1680
   3   2.0000     -11.410388      -310.4925
   4   2.0000     -11.328647      -308.2682
   5   2.0000     -11.311624      -307.8049
   6   2.0000     -11.255276      -306.2716
   7   2.0000     -11.231163      -305.6155
   8   2.0000      -1.466424       -39.9034
   9   2.0000      -1.392385       -37.8887
  10   2.0000      -1.259968       -34.2855
  11   2.0000      -1.095664       -29.8145
  12   2.0000      -1.010812       -27.5056
  13   2.0000      -0.908390       -24.7185
  14   2.0000      -0.842024       -22.9126
  15   2.0000      -0.781583       -21.2679
  16   2.0000      -0.728765       -19.8307
  17   2.0000      -0.684957       -18.6386
  18   2.0000      -0.638985       -17.3877
  19   2.0000      -0.612907       -16.6780
  20   2.0000      -0.609607       -16.5882
  21   2.0000      -0.589405       -16.0385
  22   2.0000      -0.581311       -15.8183
  23   2.0000      -0.552792       -15.0422
  24   2.0000      -0.534535       -14.5454
  25   2.0000      -0.515977       -14.0405
  26   2.0000      -0.507086       -13.7985
  27   2.0000      -0.500632       -13.6229
  28   2.0000      -0.484375       -13.1805
  29   2.0000      -0.465526       -12.6676
  30   0.0000       0.045748         1.2449
  31   0.0000       0.124388         3.3848
  32   0.0000       0.144578         3.9342
  33   0.0000       0.152055         4.1376
  34   0.0000       0.166276         4.5246

MULLIKEN ATOMIC CHARGES
-----------------------
   0 C :   -0.398349
   1 C :   -0.190725
   2 C :    0.040731
   3 O :   -0.463935
   4 C :    0.341902
   5 O :   -0.260290
   6 C :   -0.161921
   7 N :   -0.030861
   8 H :    0.123515
   9 H :    0.140925
  10 H :    0.155486
  11 H :    0.113203
  12 H :    0.134501
  13 H :    0.116812
  14 H :    0.339007
Sum of atomic charges:   -0.0000000

LOEWDIN ATOMIC CHARGES
----------------------
   0 C :   -0.309675
   1 C :   -0.261344
   2 C :   -0.332066
   3 O :    0.012163
   4 C :   -0.302553
   5 O :    0.198835
   6 C :   -0.131653
   7 N :    0.112134
   8 H :    0.123515
   9 H :    0.124848
  10 H :    0.129928
  11 H :    0.143390
  12 H :    0.145963
  13 H :    0.161341
  14 H :    0.185174

  Mayer bond orders larger than 0.1
B(  0-C ,  1-C ) :   0.9206 B(  0-C ,  8-H ) :   0.9347 B(  0-C ,  9-H ) :   0.9374
B(  0-C , 10-H ) :   0.9364 B(  1-C ,  2-C ) :   0.8676 B(  1-C , 11-H ) :   0.9148
B(  1-C , 12-H ) :   0.9160 B(  2-C ,  3-O ) :   1.0815 B(  2-C ,  4-C ) :   0.9376
B(  2-C , 13-H ) :   0.9074 B(  3-O , 14-H ) :   0.8055 B(  4-C ,  5-O ) :   1.9039
B(  4-C ,  6-C ) :   0.8847 B(  6-C ,  7-N ) :   2.7769

MP2 TOTAL ENERGY:     -399.169449779 Eh
FINAL SINGLE POINT ENERGY      -399.169449778623

DIPOLE MOMENT
-------------
                                X             Y             Z
Electronic contribution:      3.19391     -10.37319       2.99462
Nuclear contribution   :     -3.47215      11.02758      -3.01614
                        -----------------------------------------
Total Dipole Moment    :     -0.27825       0.65439      -0.02152
                        -----------------------------------------
Magnitude (a.u.)       :      0.71142
Magnitude (Debye)      :      1.80828

                             ****ORCA TERMINATED NORMALLY****
TOTAL RUN TIME: 0 days 0 hours 10 minutes 32 seconds 998 msec
