                         Program Version 3.0.3 - RELEASE   -
|  1> ! RI-MP2 RIJK def2-TZVP def2-TZVP/C def2-TZVP/JK TIGHTSCF
|  2> % maxcore 2000
|  3> % mp2 density relaxed end
|  4> *xyz 0 1
|  5>  C       -0.0053584395     1.5447898768     0.2059232149
|  6>  C       -0.0325485746     0.0273985939    -0.0613020384
|  7>  C       -1.4171760661    -0.5322105748    -0.1040270739
|  8>  C       -2.0999815309    -1.0364457161    -1.1717007572
|  9>  C       -3.4159163902    -1.4427498472    -0.7139280440
| 10>  O       -4.3681147829    -1.9360070272    -1.2828642404
| 11>  C       -3.4245887426    -1.1152163344     0.7966598265
| 12>  N       -4.3370720326    -1.3056670815     1.6523137414
| 13>  N       -2.1812252020    -0.5532594224     1.0519387793
| 14>  H        1.0265490837     1.9047409795     0.2307676825
| 15>  H       -0.5399290710     2.0864567783    -0.5792005979
| 16>  H       -0.4724036400     1.7950855818     1.1629173642
| 17>  H        0.4602667382    -0.1939127802    -1.0114411738
| 18>  H        0.5357224508    -0.4912158046     0.7224205721
| 19>  H       -1.7249670330    -1.1154609178    -2.1797681095
| 20>  H       -5.1309665323    -1.7350172725     1.1663720392
| 21>  H       -1.8569170850    -0.3009252416     1.9699623950
| 22> *
| 23>
| 24>                          ****END OF INPUT****

CARTESIAN COORDINATES (ANGSTROEM)
---------------------------------
  C     -0.005358    1.544790    0.205923
  C     -0.032549    0.027399   -0.061302
  C     -1.417176   -0.532211   -0.104027
  C     -2.099982   -1.036446   -1.171701
  C     -3.415916   -1.442750   -0.713928
  O     -4.368115   -1.936007   -1.282864
  C     -3.424589   -1.115216    0.796660
  N     -4.337072   -1.305667    1.652314
  N     -2.181225   -0.553259    1.051939
  H      1.026549    1.904741    0.230768
  H     -0.539929    2.086457   -0.579201
  H     -0.472404    1.795086    1.162917
  H      0.460267   -0.193913   -1.011441
  H      0.535722   -0.491216    0.722421
  H     -1.724967   -1.115461   -2.179768
  H     -5.130967   -1.735017    1.166372
  H     -1.856917   -0.300925    1.969962

 Total Charge           Charge          ....    0
 Multiplicity           Mult            ....    1
 Number of Electrons    NEL             ....   66
 Basis Dimension        Dim             ....  327

ORBITAL ENERGIES
----------------

  NO   OCC          E(Eh)            E(eV)
   0   2.0000     -20.544542      -559.0454
   1   2.0000     -15.610915      -424.7946
   2   2.0000     -15.557375      -423.3377
   3   2.0000     -11.337351      -308.5050
   4   2.0000     -11.331612      -308.3488
   5   2.0000     -11.325629      -308.1860
   6   2.0000     -11.270118      -306.6755
   7   2.0000     -11.250492      -306.1415
   8   2.0000     -11.227708      -305.5215
   9   2.0000      -1.387116       -37.7454
  10   2.0000      -1.321565       -35.9616
  11   2.0000      -1.202485       -32.7213
  12   2.0000      -1.090584       -29.6763
  13   2.0000      -1.052985       -28.6532
  14   2.0000      -0.943976       -25.6869
  15   2.0000      -0.861672       -23.4473
  16   2.0000      -0.812656       -22.1135
  17   2.0000      -0.776516       -21.1301
  18   2.0000      -0.699608       -19.0373
  19   2.0000      -0.671835       -18.2816
  20   2.0000      -0.646183       -17.5835
  21   2.0000      -0.629634       -17.1332
  22   2.0000      -0.621789       -16.9197
  23   2.0000      -0.608089       -16.5469
  24   2.0000      -0.602847       -16.4043
  25   2.0000      -0.555397       -15.1131
  26   2.0000      -0.539128       -14.6704
  27   2.0000      -0.529650       -14.4125
  28   2.0000      -0.516144       -14.0450
  29   2.0000      -0.481098       -13.0914
  30   2.0000      -0.429286       -11.6815
  31   2.0000      -0.405833       -11.0433
  32   2.0000      -0.338205        -9.2030
  33   0.0000       0.059774         1.6265
  34   0.0000       0.112853         3.0709
  35   0.0000       0.149398         4.0653
  36   0.0000       0.158969         4.3258
  37   0.0000       0.171597         4.6694

MULLIKEN ATOMIC CHARGES
-----------------------
   0 C :   -0.380839
   1 C :   -0.266668
   2 C :    0.230845
   3 C :   -0.300292
   4 C :    0.247813
   5 O :   -0.309170
   6 C :    0.063524
   7 N :   -0.315798
   8 N :   -0.309212
   9 H :    0.144126
  10 H :    0.143397
  11 H :    0.125239
  12 H :    0.141509
  13 H :    0.139565
  14 H :    0.147809
  15 H :    0.247493
  16 H :    0.250658
Sum of atomic charges:   -0.0000000

LOEWDIN ATOMIC CHARGES
----------------------
   0 C :   -0.299939
   1 C :   -0.242575
   2 C :   -0.178775
   3 C :   -0.145645
   4 C :   -0.316173
   5 O :    0.137975
   6 C :   -0.315775
   7 N :   -0.018762
   8 N :    0.176482
   9 H :    0.126032
  10 H :    0.128158
  11 H :    0.121165
  12 H :    0.152664
  13 H :    0.151111
  14 H :    0.147523
  15 H :    0.182979
  16 H :    0.193556

  Mayer bond orders larger than 0.1
B(  0-C ,  1-C ) :   0.9153 B(  0-C ,  9-H ) :   0.9354 B(  0-C , 10-H ) :   0.9342
B(  0-C , 11-H ) :   0.9355 B(  1-C ,  2-C ) :   0.8889 B(  1-C , 12-H ) :   0.9459
B(  1-C , 13-H ) :   0.9232 B(  2-C ,  3-C ) :   1.5027 B(  2-C ,  8-N ) :   1.0448
B(  3-C ,  4-C ) :   1.0838 B(  3-C , 14-H ) :   0.9204 B(  4-C ,  5-O ) :   1.8901
B(  4-C ,  6-C ) :   0.8810 B(  6-C ,  7-N ) :   1.9912 B(  6-C ,  8-N ) :   1.0192
B(  7-N , 15-H ) :   0.8443 B(  8-N , 16-H ) :   0.8620

MP2 TOTAL ENERGY:     -417.339129356 Eh
FINAL SINGLE POINT ENERGY      -417.339129356149

DIPOLE MOMENT
-------------
                                X             Y             Z
Electronic contribution:     -8.68245      -6.18974      -0.74322
Nuclear contribution   :     10.49740       6.99109       1.00681
                        -----------------------------------------
Total Dipole Moment    :      1.81495       0.80135       0.26360
                        -----------------------------------------
Magnitude (a.u.)       :      2.00142
Magnitude (Debye)      :      5.08721

                             ****ORCA TERMINATED NORMALLY****
TOTAL RUN TIME: 0 days 0 hours 15 minutes 37 seconds 133 msec
