                         Program Version 3.0.3 - RELEASE   -
|  1> ! RI-MP2 RIJK def2-TZVP def2-TZVP/C def2-TZVP/JK TIGHTSCF
|  2> % maxcore 2000
|  3> % mp2 density relaxed end
|  4> *xyz 0 1
|  5>  C        0.0543431715     1.5670290461     0.0150206477
|  6>  C        0.0382032031     0.0370571251     0.0148367619
|  7>  C        0.7657210475    -0.5904215748    -1.2009199736
|  8>  C        1.2568692793    -1.9861819274    -0.7178691608
|  9>  C        2.4244576319    -2.4822386769    -1.4426901127
| 10>  N        3.3454274148    -2.8772924673    -2.0182858575
| 11>  C        1.4871915782    -1.7827568586     0.7803858459
| 12>  O        2.1779135356    -0.5748469750     1.0921884560
| 13>  C        0.7445039182    -0.5932297764     1.2039373592
| 14>  H        1.0830868317     1.9373337483     0.0636027783
| 15>  H       -0.4095211717     1.9660116527    -0.8923737440
| 16>  H       -0.4926383838     1.9689993619     0.8739153014
| 17>  H       -1.0034183975    -0.3134898157     0.0370842800
| 18>  H        0.1286471412    -0.6672607167    -2.0838268441
| 19>  H        1.6323890033     0.0185582748    -1.4648244597
| 20>  H        0.4558836160    -2.7287296738    -0.8298916379
| 21>  H        1.6970074225    -2.6351045778     1.4202186667
| 22>  H        0.3558741683    -0.4748581485     2.2125462832
| 23> *
| 24>
| 25>                          ****END OF INPUT****

CARTESIAN COORDINATES (ANGSTROEM)
---------------------------------
  C      0.054343    1.567029    0.015021
  C      0.038203    0.037057    0.014837
  C      0.765721   -0.590422   -1.200920
  C      1.256869   -1.986182   -0.717869
  C      2.424458   -2.482239   -1.442690
  N      3.345427   -2.877292   -2.018286
  C      1.487192   -1.782757    0.780386
  O      2.177914   -0.574847    1.092188
  C      0.744504   -0.593230    1.203937
  H      1.083087    1.937334    0.063603
  H     -0.409521    1.966012   -0.892374
  H     -0.492638    1.968999    0.873915
  H     -1.003418   -0.313490    0.037084
  H      0.128647   -0.667261   -2.083827
  H      1.632389    0.018558   -1.464824
  H      0.455884   -2.728730   -0.829892
  H      1.697007   -2.635105    1.420219
  H      0.355874   -0.474858    2.212546

 Total Charge           Charge          ....    0
 Multiplicity           Mult            ....    1
 Number of Electrons    NEL             ....   66
 Basis Dimension        Dim             ....  333

ORBITAL ENERGIES
----------------

  NO   OCC          E(Eh)            E(eV)
   0   2.0000     -20.585138      -560.1501
   1   2.0000     -15.568624      -423.6438
   2   2.0000     -11.310228      -307.7669
   3   2.0000     -11.302170      -307.5477
   4   2.0000     -11.293681      -307.3167
   5   2.0000     -11.271881      -306.7235
   6   2.0000     -11.257078      -306.3207
   7   2.0000     -11.252997      -306.2096
   8   2.0000     -11.231479      -305.6241
   9   2.0000      -1.434551       -39.0361
  10   2.0000      -1.218502       -33.1571
  11   2.0000      -1.132699       -30.8223
  12   2.0000      -1.055009       -28.7083
  13   2.0000      -0.947810       -25.7912
  14   2.0000      -0.931035       -25.3347
  15   2.0000      -0.843692       -22.9580
  16   2.0000      -0.790953       -21.5229
  17   2.0000      -0.742374       -20.2010
  18   2.0000      -0.703615       -19.1463
  19   2.0000      -0.664691       -18.0872
  20   2.0000      -0.630220       -17.1492
  21   2.0000      -0.587987       -15.9999
  22   2.0000      -0.569632       -15.5005
  23   2.0000      -0.567297       -15.4369
  24   2.0000      -0.553586       -15.0638
  25   2.0000      -0.542546       -14.7634
  26   2.0000      -0.532921       -14.5015
  27   2.0000      -0.513507       -13.9732
  28   2.0000      -0.502021       -13.6607
  29   2.0000      -0.465843       -12.6762
  30   2.0000      -0.457878       -12.4595
  31   2.0000      -0.451566       -12.2877
  32   2.0000      -0.431462       -11.7407
  33   0.0000       0.118267         3.2182
  34   0.0000       0.135856         3.6968
  35   0.0000       0.153936         4.1888
  36   0.0000       0.159794         4.3482
  37   0.0000       0.176995         4.8163

MULLIKEN ATOMIC CHARGES
-----------------------
   0 C :   -0.431715
   1 C :    0.021192
   2 C :   -0.327604
   3 C :    0.114408
   4 C :   -0.223653
   5 N :   -0.051226
   6 C :   -0.015702
   7 O :   -0.319730
   8 C :    0.002099
   9 H :    0.150231
  10 H :    0.139594
  11 H :    0.135162
  12 H :    0.096231
  13 H :    0.144711
  14 H :    0.150333
  15 H :    0.136258
  16 H :    0.142695
  17 H :    0.136718
Sum of atomic charges:    0.0000000

LOEWDIN ATOMIC CHARGES
----------------------
   0 C :   -0.286673
   1 C :   -0.253106
   2 C :   -0.178767
   3 C :   -0.212995
   4 C :   -0.166042
   5 N :    0.064374
   6 C :   -0.225903
   7 O :    0.184912
   8 C :   -0.227765
   9 H :    0.131517
  10 H :    0.126869
  11 H :    0.125449
  12 H :    0.158535
  13 H :    0.141431
  14 H :    0.154458
  15 H :    0.181761
  16 H :    0.142079
  17 H :    0.139864

  Mayer bond orders larger than 0.1
B(  0-C ,  1-C ) :   0.8926 B(  0-C ,  9-H ) :   0.9340 B(  0-C , 10-H ) :   0.9388
B(  0-C , 11-H ) :   0.9386 B(  1-C ,  2-C ) :   0.9232 B(  1-C ,  8-C ) :   0.9129
B(  1-C , 12-H ) :   0.9167 B(  2-C ,  3-C ) :   0.9053 B(  2-C , 13-H ) :   0.9271
B(  2-C , 14-H ) :   0.9211 B(  3-C ,  4-C ) :   0.9178 B(  3-C ,  6-C ) :   0.8614
B(  3-C , 15-H ) :   0.8947 B(  4-C ,  5-N ) :   2.8779 B(  6-C ,  7-O ) :   0.9578
B(  6-C ,  8-C ) :   0.9580 B(  6-C , 16-H ) :   0.9232 B(  7-O ,  8-C ) :   0.9046
B(  8-C , 17-H ) :   0.9167

MP2 TOTAL ENERGY:     -401.273426592 Eh
FINAL SINGLE POINT ENERGY      -401.273426592014

DIPOLE MOMENT
-------------
                                X             Y             Z
Electronic contribution:      6.25779      -6.96049      -0.59839
Nuclear contribution   :     -8.15857       7.38375       1.28260
                        -----------------------------------------
Total Dipole Moment    :     -1.90078       0.42326       0.68421
                        -----------------------------------------
Magnitude (a.u.)       :      2.06404
Magnitude (Debye)      :      5.24638

                             ****ORCA TERMINATED NORMALLY****
TOTAL RUN TIME: 0 days 0 hours 18 minutes 21 seconds 968 msec
