                         Program Version 3.0.3 - RELEASE   -
|  1> ! RI-MP2 RIJK def2-TZVP def2-TZVP/C def2-TZVP/JK TIGHTSCF
|  2> % maxcore 2000
|  3> % mp2 density relaxed end
|  4> *xyz 0 1
|  5>  C       -0.0733569401     0.5542920262     1.2152428193
|  6>  C       -0.0983489310     0.4529833815    -0.2926099803
|  7>  O        0.6388396492     1.0779056449    -1.0197080608
|  8>  C       -1.1466520186    -0.4862126849    -0.8879821544
|  9>  C       -0.7286382262    -1.2984406358    -2.1236256105
| 10>  C       -0.9630996339    -2.5371864309    -1.2142057508
| 11>  O       -1.3556148026    -1.6826164894    -0.1001311599
| 12>  C       -2.0034023086    -3.4667628990    -1.6161016585
| 13>  C       -2.8582996682    -4.2372918644    -1.9625493440
| 14>  H        0.6987692297     1.2570565529     1.5294120664
| 15>  H       -1.0517173564     0.8818191470     1.5860028349
| 16>  H        0.1027372239    -0.4353467437     1.6468618552
| 17>  H       -2.0820951041     0.0828400948    -0.9978466279
| 18>  H       -1.3986560165    -1.2326831335    -2.9790662708
| 19>  H        0.3006433401    -1.1356030209    -2.4412792208
| 20>  H       -0.0480465664    -3.0880700277    -0.9641081514
| 21>  H       -3.6141527704    -4.9203018770    -2.2634983556
| 22> *
| 23>
| 24>                          ****END OF INPUT****

CARTESIAN COORDINATES (ANGSTROEM)
---------------------------------
  C     -0.073357    0.554292    1.215243
  C     -0.098349    0.452983   -0.292610
  O      0.638840    1.077906   -1.019708
  C     -1.146652   -0.486213   -0.887982
  C     -0.728638   -1.298441   -2.123626
  C     -0.963100   -2.537186   -1.214206
  O     -1.355615   -1.682616   -0.100131
  C     -2.003402   -3.466763   -1.616102
  C     -2.858300   -4.237292   -1.962549
  H      0.698769    1.257057    1.529412
  H     -1.051717    0.881819    1.586003
  H      0.102737   -0.435347    1.646862
  H     -2.082095    0.082840   -0.997847
  H     -1.398656   -1.232683   -2.979066
  H      0.300643   -1.135603   -2.441279
  H     -0.048047   -3.088070   -0.964108
  H     -3.614153   -4.920302   -2.263498

 Total Charge           Charge          ....    0
 Multiplicity           Mult            ....    1
 Number of Electrons    NEL             ....   66
 Basis Dimension        Dim             ....  327

ORBITAL ENERGIES
----------------

  NO   OCC          E(Eh)            E(eV)
   0   2.0000     -20.574203      -559.8525
   1   2.0000     -20.555038      -559.3310
   2   2.0000     -11.337770      -308.5164
   3   2.0000     -11.324879      -308.1656
   4   2.0000     -11.306081      -307.6541
   5   2.0000     -11.250172      -306.1328
   6   2.0000     -11.243841      -305.9605
   7   2.0000     -11.238752      -305.8220
   8   2.0000     -11.235448      -305.7321
   9   2.0000      -1.408979       -38.3403
  10   2.0000      -1.392063       -37.8800
  11   2.0000      -1.069677       -29.1074
  12   2.0000      -1.040585       -28.3158
  13   2.0000      -1.015955       -27.6455
  14   2.0000      -0.960195       -26.1282
  15   2.0000      -0.846057       -23.0224
  16   2.0000      -0.758582       -20.6421
  17   2.0000      -0.727093       -19.7852
  18   2.0000      -0.701876       -19.0990
  19   2.0000      -0.694364       -18.8946
  20   2.0000      -0.652431       -17.7535
  21   2.0000      -0.638427       -17.3725
  22   2.0000      -0.612409       -16.6645
  23   2.0000      -0.594279       -16.1712
  24   2.0000      -0.574663       -15.6374
  25   2.0000      -0.549945       -14.9648
  26   2.0000      -0.526156       -14.3174
  27   2.0000      -0.501162       -13.6373
  28   2.0000      -0.490368       -13.3436
  29   2.0000      -0.468989       -12.7618
  30   2.0000      -0.413245       -11.2450
  31   2.0000      -0.403369       -10.9762
  32   2.0000      -0.396003       -10.7758
  33   0.0000       0.121731         3.3125
  34   0.0000       0.142429         3.8757
  35   0.0000       0.146167         3.9774
  36   0.0000       0.153677         4.1818
  37   0.0000       0.160842         4.3767

MULLIKEN ATOMIC CHARGES
-----------------------
   0 C :   -0.401837
   1 C :    0.150243
   2 O :   -0.281377
   3 C :    0.132448
   4 C :   -0.298070
   5 C :    0.015824
   6 O :   -0.334128
   7 C :   -0.079260
   8 C :   -0.100673
   9 H :    0.151016
  10 H :    0.145958
  11 H :    0.161730
  12 H :    0.118434
  13 H :    0.145435
  14 H :    0.154658
  15 H :    0.122530
  16 H :    0.197071
Sum of atomic charges:   -0.0000000

LOEWDIN ATOMIC CHARGES
----------------------
   0 C :   -0.276446
   1 C :   -0.334857
   2 O :    0.155633
   3 C :   -0.246681
   4 C :   -0.176331
   5 C :   -0.256411
   6 O :    0.163407
   7 C :   -0.087252
   8 C :   -0.075308
   9 H :    0.133142
  10 H :    0.141713
  11 H :    0.143503
  12 H :    0.150129
  13 H :    0.140666
  14 H :    0.142015
  15 H :    0.153744
  16 H :    0.129336

  Mayer bond orders larger than 0.1
B(  0-C ,  1-C ) :   0.9268 B(  0-C ,  9-H ) :   0.9333 B(  0-C , 10-H ) :   0.9065
B(  0-C , 11-H ) :   0.9076 B(  1-C ,  2-O ) :   2.0148 B(  1-C ,  3-C ) :   0.8882
B(  3-C ,  4-C ) :   0.9458 B(  3-C ,  6-O ) :   0.9155 B(  3-C , 12-H ) :   0.8836
B(  4-C ,  5-C ) :   0.9126 B(  4-C , 13-H ) :   0.9326 B(  4-C , 14-H ) :   0.9252
B(  5-C ,  6-O ) :   0.9123 B(  5-C ,  7-C ) :   1.1794 B(  5-C ,  8-C ) :  -0.1034
B(  5-C , 15-H ) :   0.9092 B(  7-C ,  8-C ) :   2.5711 B(  8-C , 16-H ) :   0.8918

MP2 TOTAL ENERGY:     -421.065668685 Eh
FINAL SINGLE POINT ENERGY      -421.065668684911

DIPOLE MOMENT
-------------
                                X             Y             Z
Electronic contribution:     -0.57782      -1.45994      -1.83290
Nuclear contribution   :      0.20426       1.07773       1.80527
                        -----------------------------------------
Total Dipole Moment    :     -0.37356      -0.38221      -0.02763
                        -----------------------------------------
Magnitude (a.u.)       :      0.53516
Magnitude (Debye)      :      1.36027

                             ****ORCA TERMINATED NORMALLY****
TOTAL RUN TIME: 0 days 0 hours 16 minutes 22 seconds 923 msec
