                         Program Version 3.0.3 - RELEASE   -
|  1> ! RI-MP2 RIJK def2-TZVP def2-TZVP/C def2-TZVP/JK TIGHTSCF
|  2> % maxcore 2000
|  3> % mp2 density relaxed end
|  4> *xyz 0 1
|  5>  C        0.0357021678    -1.2376403023     0.0368089623
|  6>  C        0.0005896925    -0.0337616923     0.0419744530
|  7>  C       -0.0506636524     1.3862237938     0.0468908138
|  8>  C       -0.7152266213     2.3692605915     1.0581527695
|  9>  C        0.3509656382     3.3466857373     0.7489579567
| 10>  C        1.2171706754     2.3593536555    -0.0536554701
| 11>  C        0.8877407475     2.6304515373    -1.5394939648
| 12>  C       -0.5542684829     2.3343601148    -1.1067820779
| 13>  N       -0.9287805800     3.3523449350    -0.0421959426
| 14>  H        0.0678352929    -2.2988568457     0.0321464871
| 15>  H       -1.3905977614     2.2368062832     1.8944143955
| 16>  H        0.6374967525     4.2604892367     1.2528368001
| 17>  H        2.2025610397     2.0821803527     0.3130046495
| 18>  H        1.1121063108     3.6159614863    -1.9554559246
| 19>  H        1.2748050725     1.8404329606    -2.1892607900
| 20>  H       -1.3679912017     2.1023544554    -1.7909200375
| 21> *
| 22>
| 23>                          ****END OF INPUT****

CARTESIAN COORDINATES (ANGSTROEM)
---------------------------------
  C      0.035702   -1.237640    0.036809
  C      0.000590   -0.033762    0.041974
  C     -0.050664    1.386224    0.046891
  C     -0.715227    2.369261    1.058153
  C      0.350966    3.346686    0.748958
  C      1.217171    2.359354   -0.053655
  C      0.887741    2.630452   -1.539494
  C     -0.554268    2.334360   -1.106782
  N     -0.928781    3.352345   -0.042196
  H      0.067835   -2.298857    0.032146
  H     -1.390598    2.236806    1.894414
  H      0.637497    4.260489    1.252837
  H      2.202561    2.082180    0.313005
  H      1.112106    3.615961   -1.955456
  H      1.274805    1.840433   -2.189261
  H     -1.367991    2.102354   -1.790920

 Total Charge           Charge          ....    0
 Multiplicity           Mult            ....    1
 Number of Electrons    NEL             ....   62
 Basis Dimension        Dim             ....  321

ORBITAL ENERGIES
----------------

  NO   OCC          E(Eh)            E(eV)
   0   2.0000     -15.566050      -423.5737
   1   2.0000     -11.273270      -306.7613
   2   2.0000     -11.271706      -306.7187
   3   2.0000     -11.269941      -306.6707
   4   2.0000     -11.266936      -306.5889
   5   2.0000     -11.255193      -306.2694
   6   2.0000     -11.241085      -305.8855
   7   2.0000     -11.233383      -305.6759
   8   2.0000     -11.231248      -305.6178
   9   2.0000      -1.335447       -36.3394
  10   2.0000      -1.096924       -29.8488
  11   2.0000      -1.041197       -28.3324
  12   2.0000      -0.984524       -26.7903
  13   2.0000      -0.942907       -25.6578
  14   2.0000      -0.830790       -22.6069
  15   2.0000      -0.786594       -21.4043
  16   2.0000      -0.763863       -20.7858
  17   2.0000      -0.722906       -19.6713
  18   2.0000      -0.700024       -19.0486
  19   2.0000      -0.649377       -17.6705
  20   2.0000      -0.635524       -17.2935
  21   2.0000      -0.590757       -16.0753
  22   2.0000      -0.543571       -14.7913
  23   2.0000      -0.502678       -13.6786
  24   2.0000      -0.486513       -13.2387
  25   2.0000      -0.469288       -12.7700
  26   2.0000      -0.444705       -12.1010
  27   2.0000      -0.431689       -11.7468
  28   2.0000      -0.413436       -11.2502
  29   2.0000      -0.377897       -10.2831
  30   2.0000      -0.343775        -9.3546
  31   0.0000       0.142673         3.8823
  32   0.0000       0.146496         3.9864
  33   0.0000       0.149352         4.0641
  34   0.0000       0.162563         4.4236
  35   0.0000       0.173998         4.7347

MULLIKEN ATOMIC CHARGES
-----------------------
   0 C :   -0.105379
   1 C :    0.002996
   2 C :   -0.085428
   3 C :   -0.151167
   4 C :   -0.121622
   5 C :   -0.071836
   6 C :   -0.272998
   7 C :    0.016412
   8 N :   -0.228502
   9 H :    0.193474
  10 H :    0.147100
  11 H :    0.144625
  12 H :    0.144786
  13 H :    0.125544
  14 H :    0.127693
  15 H :    0.134303
Sum of atomic charges:    0.0000000

LOEWDIN ATOMIC CHARGES
----------------------
   0 C :   -0.080175
   1 C :   -0.078892
   2 C :   -0.139281
   3 C :   -0.138265
   4 C :   -0.178661
   5 C :   -0.122432
   6 C :   -0.201126
   7 C :   -0.154097
   8 N :    0.143785
   9 H :    0.127895
  10 H :    0.132084
  11 H :    0.134533
  12 H :    0.140821
  13 H :    0.131291
  14 H :    0.146796
  15 H :    0.135725

  Mayer bond orders larger than 0.1
B(  0-C ,  1-C ) :   2.6169 B(  0-C ,  2-C ) :  -0.1478 B(  0-C ,  9-H ) :   0.8614
B(  1-C ,  2-C ) :   1.2125 B(  2-C ,  3-C ) :   0.9040 B(  2-C ,  5-C ) :   0.8400
B(  2-C ,  7-C ) :   0.8824 B(  3-C ,  4-C ) :   0.9159 B(  3-C ,  8-N ) :   0.9088
B(  3-C , 10-H ) :   0.8996 B(  4-C ,  5-C ) :   0.8779 B(  4-C ,  8-N ) :   0.9261
B(  4-C , 11-H ) :   0.9162 B(  5-C ,  6-C ) :   0.9513 B(  5-C , 12-H ) :   0.8966
B(  6-C ,  7-C ) :   0.9639 B(  6-C , 13-H ) :   0.9085 B(  6-C , 14-H ) :   0.9110
B(  7-C ,  8-N ) :   0.9148 B(  7-C , 15-H ) :   0.9053

MP2 TOTAL ENERGY:     -362.819939164 Eh
FINAL SINGLE POINT ENERGY      -362.819939164213

DIPOLE MOMENT
-------------
                                X             Y             Z
Electronic contribution:     -1.65709      -1.04628       1.61493
Nuclear contribution   :      2.17097       0.72030      -1.60412
                        -----------------------------------------
Total Dipole Moment    :      0.51389      -0.32598       0.01080
                        -----------------------------------------
Magnitude (a.u.)       :      0.60866
Magnitude (Debye)      :      1.54708

                             ****ORCA TERMINATED NORMALLY****
TOTAL RUN TIME: 0 days 0 hours 18 minutes 23 seconds 645 msec
