                         Program Version 3.0.3 - RELEASE   -
|  1> ! RI-MP2 RIJK def2-TZVP def2-TZVP/C def2-TZVP/JK TIGHTSCF
|  2> % maxcore 2000
|  3> % mp2 density relaxed end
|  4> *xyz 0 1
|  5>  C        0.2898008828     1.6290264549    -0.0942360422
|  6>  C        0.0979282980     0.1165539125     0.0376884580
|  7>  C        0.6302723818    -0.6595160616    -1.1577211121
|  8>  N        2.0927998982    -0.5337048002    -1.3143503398
|  9>  C        1.5219420836    -1.7424315802    -0.6865412432
| 10>  C        1.5818500974    -1.7000010616     0.8226416895
| 11>  N        0.8490927156    -0.4755258191     1.1628120972
| 12>  C        0.7648146901    -0.0736328650     2.4539838889
| 13>  O        1.3107768598    -0.6347240054     3.3849249094
| 14>  H        1.3481291436     1.8552013110    -0.2407611448
| 15>  H       -0.2736384869     1.9984483110    -0.9576515981
| 16>  H       -0.0712802486     2.1644375103     0.7874722377
| 17>  H       -0.9743149654    -0.1095154935     0.1395520192
| 18>  H        0.0013037640    -0.7572370579    -2.0358657300
| 19>  H        2.3468534786    -0.7394626888    -2.2773662392
| 20>  H        1.5947447205    -2.6967638053    -1.1957638156
| 21>  H        1.0983793703    -2.5819421083     1.2622886024
| 22>  H        2.6010648545    -1.6475034563     1.2156906809
| 23>  H        0.1386781118     0.8298796534     2.5831930719
| 24> *
| 25>
| 26>                          ****END OF INPUT****

CARTESIAN COORDINATES (ANGSTROEM)
---------------------------------
  C      0.289801    1.629026   -0.094236
  C      0.097928    0.116554    0.037688
  C      0.630272   -0.659516   -1.157721
  N      2.092800   -0.533705   -1.314350
  C      1.521942   -1.742432   -0.686541
  C      1.581850   -1.700001    0.822642
  N      0.849093   -0.475526    1.162812
  C      0.764815   -0.073633    2.453984
  O      1.310777   -0.634724    3.384925
  H      1.348129    1.855201   -0.240761
  H     -0.273638    1.998448   -0.957652
  H     -0.071280    2.164438    0.787472
  H     -0.974315   -0.109515    0.139552
  H      0.001304   -0.757237   -2.035866
  H      2.346853   -0.739463   -2.277366
  H      1.594745   -2.696764   -1.195764
  H      1.098379   -2.581942    1.262289
  H      2.601065   -1.647503    1.215691
  H      0.138678    0.829880    2.583193

 Total Charge           Charge          ....    0
 Multiplicity           Mult            ....    1
 Number of Electrons    NEL             ....   68
 Basis Dimension        Dim             ....  339

ORBITAL ENERGIES
----------------

  NO   OCC          E(Eh)            E(eV)
   0   2.0000     -20.512697      -558.1789
   1   2.0000     -15.581703      -423.9997
   2   2.0000     -15.572296      -423.7437
   3   2.0000     -11.337235      -308.5019
   4   2.0000     -11.285867      -307.1040
   5   2.0000     -11.276046      -306.8368
   6   2.0000     -11.274818      -306.8034
   7   2.0000     -11.265403      -306.5472
   8   2.0000     -11.226414      -305.4863
   9   2.0000      -1.373859       -37.3846
  10   2.0000      -1.302713       -35.4486
  11   2.0000      -1.226815       -33.3833
  12   2.0000      -1.049058       -28.5463
  13   2.0000      -0.994364       -27.0580
  14   2.0000      -0.921640       -25.0791
  15   2.0000      -0.851110       -23.1599
  16   2.0000      -0.803780       -21.8720
  17   2.0000      -0.767042       -20.8723
  18   2.0000      -0.734234       -19.9795
  19   2.0000      -0.674500       -18.3541
  20   2.0000      -0.649644       -17.6777
  21   2.0000      -0.636252       -17.3133
  22   2.0000      -0.613127       -16.6840
  23   2.0000      -0.590427       -16.0663
  24   2.0000      -0.561571       -15.2811
  25   2.0000      -0.543896       -14.8002
  26   2.0000      -0.529952       -14.4207
  27   2.0000      -0.525529       -14.3004
  28   2.0000      -0.511664       -13.9231
  29   2.0000      -0.492780       -13.4092
  30   2.0000      -0.473942       -12.8966
  31   2.0000      -0.419765       -11.4224
  32   2.0000      -0.398764       -10.8509
  33   2.0000      -0.369495       -10.0545
  34   0.0000       0.122164         3.3242
  35   0.0000       0.145708         3.9649
  36   0.0000       0.151365         4.1188
  37   0.0000       0.168985         4.5983
  38   0.0000       0.172922         4.7055

MULLIKEN ATOMIC CHARGES
-----------------------
   0 C :   -0.438104
   1 C :    0.001514
   2 C :   -0.020596
   3 N :   -0.397177
   4 C :   -0.089013
   5 C :   -0.120626
   6 N :   -0.071899
   7 C :    0.134884
   8 O :   -0.367851
   9 H :    0.161268
  10 H :    0.126470
  11 H :    0.136272
  12 H :    0.101567
  13 H :    0.147066
  14 H :    0.219415
  15 H :    0.143124
  16 H :    0.122127
  17 H :    0.135365
  18 H :    0.076193
Sum of atomic charges:    0.0000000

LOEWDIN ATOMIC CHARGES
----------------------
   0 C :   -0.286494
   1 C :   -0.251618
   2 C :   -0.228457
   3 N :    0.012771
   4 C :   -0.246409
   5 C :   -0.215435
   6 N :    0.199741
   7 C :   -0.416793
   8 O :    0.052991
   9 H :    0.134088
  10 H :    0.127466
  11 H :    0.121057
  12 H :    0.149761
  13 H :    0.139216
  14 H :    0.170739
  15 H :    0.138831
  16 H :    0.139519
  17 H :    0.145222
  18 H :    0.113806

  Mayer bond orders larger than 0.1
B(  0-C ,  1-C ) :   0.8884 B(  0-C ,  9-H ) :   0.9417 B(  0-C , 10-H ) :   0.9308
B(  0-C , 11-H ) :   0.9375 B(  1-C ,  2-C ) :   0.9188 B(  1-C ,  6-N ) :   0.9161
B(  1-C , 12-H ) :   0.9169 B(  2-C ,  3-N ) :   0.9009 B(  2-C ,  4-C ) :   0.9156
B(  2-C , 13-H ) :   0.9152 B(  3-N ,  4-C ) :   0.9181 B(  3-N , 14-H ) :   0.8637
B(  4-C ,  5-C ) :   0.9546 B(  4-C , 15-H ) :   0.9227 B(  5-C ,  6-N ) :   0.8892
B(  5-C , 16-H ) :   0.9346 B(  5-C , 17-H ) :   0.9064 B(  6-N ,  7-C ) :   1.1432
B(  7-C ,  8-O ) :   1.8931 B(  7-C , 18-H ) :   0.9329

MP2 TOTAL ENERGY:     -418.513880137 Eh
FINAL SINGLE POINT ENERGY      -418.513880137372

DIPOLE MOMENT
-------------
                                X             Y             Z
Electronic contribution:      1.47605      -2.70865       3.73627
Nuclear contribution   :     -2.23763       2.51916      -5.68375
                        -----------------------------------------
Total Dipole Moment    :     -0.76158      -0.18949      -1.94748
                        -----------------------------------------
Magnitude (a.u.)       :      2.09967
Magnitude (Debye)      :      5.33693

                             ****ORCA TERMINATED NORMALLY****
TOTAL RUN TIME: 0 days 0 hours 17 minutes 56 seconds 132 msec
