                         Program Version 3.0.3 - RELEASE   -
|  1> ! RI-MP2 RIJK def2-TZVP def2-TZVP/C def2-TZVP/JK TIGHTSCF
|  2> % maxcore 2000
|  3> % mp2 density relaxed end
|  4> *xyz 0 1
|  5>  C       -0.1445285322     1.5155107538     0.1037641667
|  6>  C        0.0970106642     0.0462957105     0.0440756075
|  7>  O       -0.7897015372    -0.8509912796     0.7223822189
|  8>  C        0.6250535058    -0.9458248713     0.9743083491
|  9>  C        1.2946287762    -1.7566038028    -0.1711014217
| 10>  C        0.3011148252    -2.1720554602    -1.2103497775
| 11>  C        0.7489955425    -0.7225501479    -1.1806298337
| 12>  C        1.4278010200    -0.0680641476    -2.2389155977
| 13>  C        1.9937594669     0.5197949652    -3.1256310249
| 14>  H        0.7421672819     2.0605859910    -0.2321363192
| 15>  H       -0.9774474835     1.7956742178    -0.5507037894
| 16>  H       -0.3886265245     1.8192161252     1.1248902825
| 17>  H        0.9572472451    -0.8697824819     2.0025373437
| 18>  H        2.3074300416    -2.1328800542    -0.1277628333
| 19>  H        0.7107888814    -2.7415583040    -2.0372406457
| 20>  H       -0.7139388476    -2.4158674599    -0.9245034841
| 21>  H        2.4925145444     1.0294095960    -3.9119120011
| 22> *
| 23>
| 24>                          ****END OF INPUT****

CARTESIAN COORDINATES (ANGSTROEM)
---------------------------------
  C     -0.144529    1.515511    0.103764
  C      0.097011    0.046296    0.044076
  O     -0.789702   -0.850991    0.722382
  C      0.625054   -0.945825    0.974308
  C      1.294629   -1.756604   -0.171101
  C      0.301115   -2.172055   -1.210350
  C      0.748996   -0.722550   -1.180630
  C      1.427801   -0.068064   -2.238916
  C      1.993759    0.519795   -3.125631
  H      0.742167    2.060586   -0.232136
  H     -0.977447    1.795674   -0.550704
  H     -0.388627    1.819216    1.124890
  H      0.957247   -0.869782    2.002537
  H      2.307430   -2.132880   -0.127763
  H      0.710789   -2.741558   -2.037241
  H     -0.713939   -2.415867   -0.924503
  H      2.492515    1.029410   -3.911912

 Total Charge           Charge          ....    0
 Multiplicity           Mult            ....    1
 Number of Electrons    NEL             ....   64
 Basis Dimension        Dim             ....  327

ORBITAL ENERGIES
----------------

  NO   OCC          E(Eh)            E(eV)
   0   2.0000     -20.571745      -559.7856
   1   2.0000     -11.304219      -307.6034
   2   2.0000     -11.293720      -307.3177
   3   2.0000     -11.265985      -306.5630
   4   2.0000     -11.255027      -306.2648
   5   2.0000     -11.245183      -305.9970
   6   2.0000     -11.239336      -305.8379
   7   2.0000     -11.230300      -305.5920
   8   2.0000     -11.224716      -305.4400
   9   2.0000      -1.425664       -38.7943
  10   2.0000      -1.177769       -32.0487
  11   2.0000      -1.033722       -28.1290
  12   2.0000      -1.015748       -27.6399
  13   2.0000      -0.940835       -25.6014
  14   2.0000      -0.882772       -24.0214
  15   2.0000      -0.804918       -21.9029
  16   2.0000      -0.783913       -21.3313
  17   2.0000      -0.713746       -19.4220
  18   2.0000      -0.701875       -19.0990
  19   2.0000      -0.666353       -18.1324
  20   2.0000      -0.631750       -17.1908
  21   2.0000      -0.594102       -16.1663
  22   2.0000      -0.577206       -15.7066
  23   2.0000      -0.552694       -15.0396
  24   2.0000      -0.532965       -14.5027
  25   2.0000      -0.514030       -13.9875
  26   2.0000      -0.500457       -13.6181
  27   2.0000      -0.468791       -12.7565
  28   2.0000      -0.456234       -12.4147
  29   2.0000      -0.404240       -10.9999
  30   2.0000      -0.379069       -10.3150
  31   2.0000      -0.332097        -9.0368
  32   0.0000       0.145470         3.9584
  33   0.0000       0.151699         4.1279
  34   0.0000       0.162183         4.4132
  35   0.0000       0.163453         4.4478
  36   0.0000       0.170652         4.6437

MULLIKEN ATOMIC CHARGES
-----------------------
   0 C :   -0.426131
   1 C :    0.110745
   2 O :   -0.316805
   3 C :   -0.018187
   4 C :   -0.106051
   5 C :   -0.247213
   6 C :   -0.093873
   7 C :    0.006237
   8 C :   -0.145651
   9 H :    0.150932
  10 H :    0.146385
  11 H :    0.146555
  12 H :    0.146629
  13 H :    0.151346
  14 H :    0.142999
  15 H :    0.161800
  16 H :    0.190283
Sum of atomic charges:    0.0000000

LOEWDIN ATOMIC CHARGES
----------------------
   0 C :   -0.261561
   1 C :   -0.248700
   2 O :    0.196921
   3 C :   -0.192745
   4 C :   -0.125123
   5 C :   -0.155350
   6 C :   -0.147047
   7 C :   -0.082219
   8 C :   -0.094550
   9 H :    0.139921
  10 H :    0.137618
  11 H :    0.136636
  12 H :    0.133964
  13 H :    0.143594
  14 H :    0.148503
  15 H :    0.143619
  16 H :    0.126518

  Mayer bond orders larger than 0.1
B(  0-C ,  1-C ) :   0.8732 B(  0-C ,  9-H ) :   0.9375 B(  0-C , 10-H ) :   0.9404
B(  0-C , 11-H ) :   0.9376 B(  1-C ,  2-O ) :   0.9371 B(  1-C ,  3-C ) :   0.9801
B(  1-C ,  6-C ) :   0.8786 B(  2-O ,  3-C ) :   0.8867 B(  3-C ,  4-C ) :   0.8595
B(  3-C , 12-H ) :   0.9133 B(  4-C ,  5-C ) :   0.9408 B(  4-C ,  6-C ) :   0.7680
B(  4-C , 13-H ) :   0.8984 B(  5-C ,  6-C ) :   0.8430 B(  5-C , 14-H ) :   0.9259
B(  5-C , 15-H ) :   0.8854 B(  6-C ,  7-C ) :   1.2381 B(  6-C ,  8-C ) :  -0.1461
B(  7-C ,  8-C ) :   2.5926 B(  8-C , 16-H ) :   0.8760

MP2 TOTAL ENERGY:     -383.896401388 Eh
FINAL SINGLE POINT ENERGY      -383.896401387649

DIPOLE MOMENT
-------------
                                X             Y             Z
Electronic contribution:      0.05208      -2.07090      -0.22629
Nuclear contribution   :      0.49935       2.26009       0.32754
                        -----------------------------------------
Total Dipole Moment    :      0.55143       0.18919       0.10125
                        -----------------------------------------
Magnitude (a.u.)       :      0.59170
Magnitude (Debye)      :      1.50399

                             ****ORCA TERMINATED NORMALLY****
TOTAL RUN TIME: 0 days 0 hours 18 minutes 31 seconds 461 msec
