                         Program Version 3.0.3 - RELEASE   -
|  1> ! RI-MP2 RIJK def2-TZVP def2-TZVP/C def2-TZVP/JK TIGHTSCF
|  2> % maxcore 2000
|  3> % mp2 density relaxed end
|  4> *xyz 0 1
|  5>  O       -0.1439012081     1.3620216765     0.1940574800
|  6>  C       -0.0090151324     0.0319758480     0.0129821756
|  7>  C       -0.0043647325    -0.8087613202    -1.0790523359
|  8>  N        0.1758885233    -2.0779362110    -0.6243645564
|  9>  N        0.2819841174    -2.0673787864     0.6717686581
| 10>  N        0.1698919410    -0.7734256521     1.0810522788
| 11>  C        0.2420585570    -0.3998748241     2.4661103939
| 12>  C       -0.3314306836    -1.3165941740     3.5108490215
| 13>  C        1.1648461202    -1.1483539154     3.3875009688
| 14>  H       -0.2621795734     1.7827271211    -0.6633981840
| 15>  H       -0.1166585038    -0.5786907844    -2.1259199574
| 16>  H        0.1313000354     0.6702479731     2.5821748690
| 17>  H       -0.8465734553    -0.8640793092     4.3505779395
| 18>  H       -0.7509499918    -2.2488662583     3.1527698932
| 19>  H        1.7161101338    -1.9714687295     2.9493963634
| 20>  H        1.6963237528    -0.5781489441     4.1409489519
| 21> *
| 22>
| 23>                          ****END OF INPUT****

CARTESIAN COORDINATES (ANGSTROEM)
---------------------------------
  O     -0.143901    1.362022    0.194057
  C     -0.009015    0.031976    0.012982
  C     -0.004365   -0.808761   -1.079052
  N      0.175889   -2.077936   -0.624365
  N      0.281984   -2.067379    0.671769
  N      0.169892   -0.773426    1.081052
  C      0.242059   -0.399875    2.466110
  C     -0.331431   -1.316594    3.510849
  C      1.164846   -1.148354    3.387501
  H     -0.262180    1.782727   -0.663398
  H     -0.116659   -0.578691   -2.125920
  H      0.131300    0.670248    2.582175
  H     -0.846573   -0.864079    4.350578
  H     -0.750950   -2.248866    3.152770
  H      1.716110   -1.971469    2.949396
  H      1.696324   -0.578149    4.140949

 Total Charge           Charge          ....    0
 Multiplicity           Mult            ....    1
 Number of Electrons    NEL             ....   66
 Basis Dimension        Dim             ....  321

ORBITAL ENERGIES
----------------

  NO   OCC          E(Eh)            E(eV)
   0   2.0000     -20.628390      -561.3270
   1   2.0000     -15.652381      -425.9229
   2   2.0000     -15.625140      -425.1817
   3   2.0000     -15.596809      -424.4108
   4   2.0000     -11.349828      -308.8445
   5   2.0000     -11.288881      -307.1861
   6   2.0000     -11.246346      -306.0286
   7   2.0000     -11.238493      -305.8149
   8   2.0000     -11.237837      -305.7971
   9   2.0000      -1.461941       -39.7814
  10   2.0000      -1.415531       -38.5186
  11   2.0000      -1.228845       -33.4386
  12   2.0000      -1.134564       -30.8731
  13   2.0000      -1.067632       -29.0517
  14   2.0000      -0.908853       -24.7311
  15   2.0000      -0.865113       -23.5409
  16   2.0000      -0.838371       -22.8132
  17   2.0000      -0.791395       -21.5349
  18   2.0000      -0.756253       -20.5787
  19   2.0000      -0.697030       -18.9671
  20   2.0000      -0.672094       -18.2886
  21   2.0000      -0.671098       -18.2615
  22   2.0000      -0.637328       -17.3426
  23   2.0000      -0.616719       -16.7818
  24   2.0000      -0.586439       -15.9578
  25   2.0000      -0.563158       -15.3243
  26   2.0000      -0.527760       -14.3611
  27   2.0000      -0.511798       -13.9267
  28   2.0000      -0.484493       -13.1837
  29   2.0000      -0.448097       -12.1933
  30   2.0000      -0.429397       -11.6845
  31   2.0000      -0.371510       -10.1093
  32   2.0000      -0.339678        -9.2431
  33   0.0000       0.115436         3.1412
  34   0.0000       0.148947         4.0531
  35   0.0000       0.156825         4.2674
  36   0.0000       0.178220         4.8496
  37   0.0000       0.180101         4.9008

MULLIKEN ATOMIC CHARGES
-----------------------
   0 O :   -0.435067
   1 C :    0.196464
   2 C :   -0.189843
   3 N :   -0.179047
   4 N :   -0.182169
   5 N :    0.132936
   6 C :   -0.101626
   7 C :   -0.248995
   8 C :   -0.248996
   9 H :    0.351154
  10 H :    0.141004
  11 H :    0.156814
  12 H :    0.138836
  13 H :    0.164841
  14 H :    0.164855
  15 H :    0.138839
Sum of atomic charges:    0.0000000

LOEWDIN ATOMIC CHARGES
----------------------
   0 O :    0.080203
   1 C :   -0.372979
   2 C :   -0.292290
   3 N :   -0.002672
   4 N :   -0.030066
   5 N :    0.220570
   6 C :   -0.228050
   7 C :   -0.213670
   8 C :   -0.213670
   9 H :    0.206084
  10 H :    0.134267
  11 H :    0.155582
  12 H :    0.133784
  13 H :    0.144560
  14 H :    0.144562
  15 H :    0.133785

  Mayer bond orders larger than 0.1
B(  0-O ,  1-C ) :   1.0911 B(  0-O ,  9-H ) :   0.8234 B(  1-C ,  2-C ) :   1.3980
B(  1-C ,  4-N ) :   0.1069 B(  1-C ,  5-N ) :   1.1918 B(  2-C ,  3-N ) :   1.3568
B(  2-C , 10-H ) :   0.9401 B(  3-N ,  4-N ) :   1.2813 B(  4-N ,  5-N ) :   0.9649
B(  5-N ,  6-C ) :   0.8836 B(  6-C ,  7-C ) :   0.8689 B(  6-C ,  8-C ) :   0.8689
B(  6-C , 11-H ) :   0.9251 B(  7-C ,  8-C ) :   0.8956 B(  7-C , 12-H ) :   0.9254
B(  7-C , 13-H ) :   0.9247 B(  8-C , 14-H ) :   0.9247 B(  8-C , 15-H ) :   0.9254

MP2 TOTAL ENERGY:     -433.320117422 Eh
FINAL SINGLE POINT ENERGY      -433.320117421538

DIPOLE MOMENT
-------------
                                X             Y             Z
Electronic contribution:     -0.53918       0.27525      -6.16630
Nuclear contribution   :      0.37350       1.43090       6.48824
                        -----------------------------------------
Total Dipole Moment    :     -0.16568       1.70615       0.32194
                        -----------------------------------------
Magnitude (a.u.)       :      1.74414
Magnitude (Debye)      :      4.43326

                             ****ORCA TERMINATED NORMALLY****
TOTAL RUN TIME: 0 days 0 hours 16 minutes 21 seconds 457 msec
