                         Program Version 3.0.3 - RELEASE   -
|  1> ! RI-MP2 RIJK def2-TZVP def2-TZVP/C def2-TZVP/JK TIGHTSCF
|  2> % maxcore 2000
|  3> % mp2 density relaxed end
|  4> *xyz 0 1
|  5>  C        0.6763050072    -0.3364932354     1.2963333836
|  6>  C        0.0448075466    -0.0718089404    -0.0821632645
|  7>  C        0.9845953763    -0.5595133679    -1.1937725750
|  8>  C       -1.3847287474    -0.6421319423    -0.1476652005
|  9>  C       -2.4342552732     0.1703204109     0.6048349352
| 10>  C       -2.7996624231     1.4955612990    -0.0607372594
| 11>  O       -3.8183593071     2.0990917688     0.7257687043
| 12>  C       -1.8910265173    -1.3677815406    -1.3778120134
| 13>  C       -1.5663275209    -2.1434316537    -0.1261314179
| 14>  H        1.6462197257     0.1643763540     1.3824976413
| 15>  H        0.0446099000     0.0232429989     2.1136235003
| 16>  H        0.8388761709    -1.4088894400     1.4503383526
| 17>  H       -0.0369704176     1.0171144671    -0.1992728469
| 18>  H        1.0995874635    -1.6495427537    -1.1862982296
| 19>  H        0.6332637025    -0.2623737133    -2.1857915460
| 20>  H        1.9818978690    -0.1298931246    -1.0550284240
| 21>  H       -3.3567278544    -0.4147644445     0.6936465973
| 22>  H       -2.1061264469     0.3791230839     1.6297567647
| 23>  H       -1.9182009252     2.1517452636    -0.1290055469
| 24>  H       -3.1463537427     1.3085164266    -1.0893751290
| 25>  H       -4.0479431862     2.9417062317     0.3237213567
| 26>  H       -2.9360891645    -1.2391110908    -1.6413364982
| 27>  H       -1.2374242835    -1.4922349637    -2.2326200274
| 28>  H       -0.6801175779    -2.7693192405    -0.1421411469
| 29>  H       -2.3819670338    -2.5532890332     0.4601129197
| 30> *
| 31>
| 32>                          ****END OF INPUT****

CARTESIAN COORDINATES (ANGSTROEM)
---------------------------------
  C      0.676305   -0.336493    1.296333
  C      0.044808   -0.071809   -0.082163
  C      0.984595   -0.559513   -1.193773
  C     -1.384729   -0.642132   -0.147665
  C     -2.434255    0.170320    0.604835
  C     -2.799662    1.495561   -0.060737
  O     -3.818359    2.099092    0.725769
  C     -1.891027   -1.367782   -1.377812
  C     -1.566328   -2.143432   -0.126131
  H      1.646220    0.164376    1.382498
  H      0.044610    0.023243    2.113624
  H      0.838876   -1.408889    1.450338
  H     -0.036970    1.017114   -0.199273
  H      1.099587   -1.649543   -1.186298
  H      0.633264   -0.262374   -2.185792
  H      1.981898   -0.129893   -1.055028
  H     -3.356728   -0.414764    0.693647
  H     -2.106126    0.379123    1.629757
  H     -1.918201    2.151745   -0.129006
  H     -3.146354    1.308516   -1.089375
  H     -4.047943    2.941706    0.323721
  H     -2.936089   -1.239111   -1.641336
  H     -1.237424   -1.492235   -2.232620
  H     -0.680118   -2.769319   -0.142141
  H     -2.381967   -2.553289    0.460113

 Total Charge           Charge          ....    0
 Multiplicity           Mult            ....    1
 Number of Electrons    NEL             ....   72
 Basis Dimension        Dim             ....  375

ORBITAL ENERGIES
----------------

  NO   OCC          E(Eh)            E(eV)
   0   2.0000     -20.551741      -559.2413
   1   2.0000     -11.270242      -306.6789
   2   2.0000     -11.233633      -305.6827
   3   2.0000     -11.229232      -305.5629
   4   2.0000     -11.218776      -305.2784
   5   2.0000     -11.217415      -305.2414
   6   2.0000     -11.215751      -305.1961
   7   2.0000     -11.212421      -305.1055
   8   2.0000     -11.208642      -305.0027
   9   2.0000      -1.355260       -36.8785
  10   2.0000      -1.155650       -31.4468
  11   2.0000      -1.047304       -28.4986
  12   2.0000      -1.008214       -27.4349
  13   2.0000      -0.927228       -25.2312
  14   2.0000      -0.861650       -23.4467
  15   2.0000      -0.824741       -22.4423
  16   2.0000      -0.813373       -22.1330
  17   2.0000      -0.723138       -19.6776
  18   2.0000      -0.693503       -18.8712
  19   2.0000      -0.664554       -18.0834
  20   2.0000      -0.638031       -17.3617
  21   2.0000      -0.609744       -16.5920
  22   2.0000      -0.603391       -16.4191
  23   2.0000      -0.578107       -15.7311
  24   2.0000      -0.560180       -15.2433
  25   2.0000      -0.544885       -14.8271
  26   2.0000      -0.532601       -14.4928
  27   2.0000      -0.515993       -14.0409
  28   2.0000      -0.508721       -13.8430
  29   2.0000      -0.491947       -13.3866
  30   2.0000      -0.481252       -13.0955
  31   2.0000      -0.479283       -13.0420
  32   2.0000      -0.451571       -12.2879
  33   2.0000      -0.438406       -11.9296
  34   2.0000      -0.404090       -10.9958
  35   2.0000      -0.387272       -10.5382
  36   0.0000       0.135831         3.6961
  37   0.0000       0.144553         3.9335
  38   0.0000       0.163204         4.4410
  39   0.0000       0.165371         4.5000
  40   0.0000       0.168371         4.5816

MULLIKEN ATOMIC CHARGES
-----------------------
   0 C :   -0.407958
   1 C :   -0.027147
   2 C :   -0.434668
   3 C :    0.104035
   4 C :   -0.175192
   5 C :   -0.103441
   6 O :   -0.463900
   7 C :   -0.286384
   8 C :   -0.306904
   9 H :    0.128978
  10 H :    0.129239
  11 H :    0.122294
  12 H :    0.074460
  13 H :    0.129943
  14 H :    0.135625
  15 H :    0.135641
  16 H :    0.111077
  17 H :    0.111782
  18 H :    0.093990
  19 H :    0.099775
  20 H :    0.314205
  21 H :    0.127416
  22 H :    0.131506
  23 H :    0.125979
  24 H :    0.129651
Sum of atomic charges:   -0.0000000

LOEWDIN ATOMIC CHARGES
----------------------
   0 C :   -0.286714
   1 C :   -0.262458
   2 C :   -0.291256
   3 C :   -0.226510
   4 C :   -0.223552
   5 C :   -0.345030
   6 O :   -0.053058
   7 C :   -0.210045
   8 C :   -0.208967
   9 H :    0.121341
  10 H :    0.122000
  11 H :    0.123710
  12 H :    0.152739
  13 H :    0.123363
  14 H :    0.122068
  15 H :    0.125123
  16 H :    0.148135
  17 H :    0.143105
  18 H :    0.111485
  19 H :    0.115061
  20 H :    0.170910
  21 H :    0.133136
  22 H :    0.131786
  23 H :    0.131563
  24 H :    0.132065

  Mayer bond orders larger than 0.1
B(  0-C ,  1-C ) :   0.9212 B(  0-C ,  9-H ) :   0.9407 B(  0-C , 10-H ) :   0.9378
B(  0-C , 11-H ) :   0.9317 B(  1-C ,  2-C ) :   0.9059 B(  1-C ,  3-C ) :   0.9038
B(  1-C , 12-H ) :   0.9243 B(  2-C , 13-H ) :   0.9355 B(  2-C , 14-H ) :   0.9404
B(  2-C , 15-H ) :   0.9384 B(  3-C ,  4-C ) :   0.8900 B(  3-C ,  7-C ) :   0.8715
B(  3-C ,  8-C ) :   0.8602 B(  4-C ,  5-C ) :   0.9258 B(  4-C ,  6-O ) :  -0.1077
B(  4-C , 16-H ) :   0.9204 B(  4-C , 17-H ) :   0.9231 B(  5-C ,  6-O ) :   1.0250
B(  5-C , 18-H ) :   0.9324 B(  5-C , 19-H ) :   0.9336 B(  6-O , 20-H ) :   0.8496
B(  7-C ,  8-C ) :   0.9096 B(  7-C , 21-H ) :   0.9276 B(  7-C , 22-H ) :   0.9210
B(  8-C , 23-H ) :   0.9317 B(  8-C , 24-H ) :   0.9231

MP2 TOTAL ENERGY:     -388.806594522 Eh
FINAL SINGLE POINT ENERGY      -388.806594521695

DIPOLE MOMENT
-------------
                                X             Y             Z
Electronic contribution:     -5.81806       2.57458       0.81245
Nuclear contribution   :      6.08895      -2.26678      -1.30181
                        -----------------------------------------
Total Dipole Moment    :      0.27089       0.30780      -0.48935
                        -----------------------------------------
Magnitude (a.u.)       :      0.63843
Magnitude (Debye)      :      1.62275

                             ****ORCA TERMINATED NORMALLY****
TOTAL RUN TIME: 0 days 0 hours 21 minutes 9 seconds 791 msec
