                         Program Version 3.0.3 - RELEASE   -
|  1> ! RI-MP2 RIJK def2-TZVP def2-TZVP/C def2-TZVP/JK TIGHTSCF
|  2> % maxcore 2000
|  3> % mp2 density relaxed end
|  4> *xyz 0 1
|  5>  C       -0.1413851042     1.6578924603    -0.8396142681
|  6>  N       -0.3278998546     0.2388753577    -1.0632773798
|  7>  C        0.1595605325    -0.5539321442    -0.2060147241
|  8>  N        0.0195408700    -1.9261819944    -0.3547693456
|  9>  C        0.5256163036    -2.8502684544     0.5416069920
| 10>  O        1.1401721714    -2.5374385341     1.5424760342
| 11>  C        0.2488546943    -4.2216899569     0.1657955026
| 12>  C        0.0393099171    -5.3759741049    -0.1116837416
| 13>  C       -0.2059864150    -6.7713634855    -0.4322933120
| 14>  H        0.4199927378     1.8944565246     0.0777540098
| 15>  H        0.3877701354     2.0970805501    -1.6933151164
| 16>  H       -1.1184424895     2.1520220558    -0.7857525902
| 17>  H        0.7128399571    -0.2756748447     0.6955966771
| 18>  H       -0.4831157203    -2.2486906501    -1.1692833491
| 19>  H       -0.8594653865    -7.2314471786     0.3167739493
| 20>  H       -0.6843597053    -6.8793199754    -1.4110874914
| 21>  H        0.7317288861    -7.3370235352    -0.4476347168
| 22> *
| 23>
| 24>                          ****END OF INPUT****

CARTESIAN COORDINATES (ANGSTROEM)
---------------------------------
  C     -0.141385    1.657892   -0.839614
  N     -0.327900    0.238875   -1.063277
  C      0.159561   -0.553932   -0.206015
  N      0.019541   -1.926182   -0.354769
  C      0.525616   -2.850268    0.541607
  O      1.140172   -2.537439    1.542476
  C      0.248855   -4.221690    0.165796
  C      0.039310   -5.375974   -0.111684
  C     -0.205986   -6.771363   -0.432293
  H      0.419993    1.894457    0.077754
  H      0.387770    2.097081   -1.693315
  H     -1.118442    2.152022   -0.785753
  H      0.712840   -0.275675    0.695597
  H     -0.483116   -2.248691   -1.169283
  H     -0.859465   -7.231447    0.316774
  H     -0.684360   -6.879320   -1.411087
  H      0.731729   -7.337024   -0.447635

 Total Charge           Charge          ....    0
 Multiplicity           Mult            ....    1
 Number of Electrons    NEL             ....   66
 Basis Dimension        Dim             ....  327

ORBITAL ENERGIES
----------------

  NO   OCC          E(Eh)            E(eV)
   0   2.0000     -20.542496      -558.9897
   1   2.0000     -15.609820      -424.7648
   2   2.0000     -15.551216      -423.1701
   3   2.0000     -11.391694      -309.9838
   4   2.0000     -11.317085      -307.9535
   5   2.0000     -11.272158      -306.7310
   6   2.0000     -11.270250      -306.6791
   7   2.0000     -11.247909      -306.0712
   8   2.0000     -11.245920      -306.0171
   9   2.0000      -1.408181       -38.3186
  10   2.0000      -1.287229       -35.0273
  11   2.0000      -1.200027       -32.6544
  12   2.0000      -1.090413       -29.6717
  13   2.0000      -1.006318       -27.3833
  14   2.0000      -0.957408       -26.0524
  15   2.0000      -0.881744       -23.9935
  16   2.0000      -0.818879       -22.2828
  17   2.0000      -0.760436       -20.6925
  18   2.0000      -0.686580       -18.6828
  19   2.0000      -0.661078       -17.9888
  20   2.0000      -0.637642       -17.3511
  21   2.0000      -0.623059       -16.9543
  22   2.0000      -0.620099       -16.8737
  23   2.0000      -0.611777       -16.6473
  24   2.0000      -0.608126       -16.5479
  25   2.0000      -0.583394       -15.8750
  26   2.0000      -0.550593       -14.9824
  27   2.0000      -0.491600       -13.3771
  28   2.0000      -0.471421       -12.8280
  29   2.0000      -0.415840       -11.3156
  30   2.0000      -0.409722       -11.1491
  31   2.0000      -0.409239       -11.1360
  32   2.0000      -0.368741       -10.0340
  33   0.0000       0.092379         2.5138
  34   0.0000       0.123660         3.3650
  35   0.0000       0.153058         4.1649
  36   0.0000       0.157899         4.2967
  37   0.0000       0.172308         4.6887

MULLIKEN ATOMIC CHARGES
-----------------------
   0 C :   -0.251424
   1 N :   -0.237367
   2 C :    0.035341
   3 N :   -0.273589
   4 C :    0.192659
   5 O :   -0.330856
   6 C :    0.005542
   7 C :    0.058258
   8 C :   -0.468116
   9 H :    0.100939
  10 H :    0.138069
  11 H :    0.138069
  12 H :    0.127007
  13 H :    0.252941
  14 H :    0.172350
  15 H :    0.167322
  16 H :    0.172855
Sum of atomic charges:   -0.0000000

LOEWDIN ATOMIC CHARGES
----------------------
   0 C :   -0.335884
   1 N :    0.052099
   2 C :   -0.291116
   3 N :    0.151811
   4 C :   -0.430746
   5 O :    0.121022
   6 C :   -0.040293
   7 C :   -0.061206
   8 C :   -0.283203
   9 H :    0.104763
  10 H :    0.118313
  11 H :    0.118315
  12 H :    0.133051
  13 H :    0.202596
  14 H :    0.147935
  15 H :    0.144692
  16 H :    0.147849

  Mayer bond orders larger than 0.1
B(  0-C ,  1-N ) :   0.8986 B(  0-C ,  9-H ) :   0.9298 B(  0-C , 10-H ) :   0.9314
B(  0-C , 11-H ) :   0.9314 B(  1-N ,  2-C ) :   1.8570 B(  2-C ,  3-N ) :   0.9987
B(  2-C , 12-H ) :   0.9177 B(  3-N ,  4-C ) :   1.1447 B(  3-N , 13-H ) :   0.8547
B(  4-C ,  5-O ) :   1.9502 B(  4-C ,  6-C ) :   0.9883 B(  6-C ,  7-C ) :   2.7206
B(  7-C ,  8-C ) :   0.8796 B(  8-C , 14-H ) :   0.9383 B(  8-C , 15-H ) :   0.9424
B(  8-C , 16-H ) :   0.9385

MP2 TOTAL ENERGY:     -417.290551342 Eh
FINAL SINGLE POINT ENERGY      -417.290551341751

DIPOLE MOMENT
-------------
                                X             Y             Z
Electronic contribution:      1.62468      -2.08226       2.81442
Nuclear contribution   :     -2.06879       1.41347      -3.50809
                        -----------------------------------------
Total Dipole Moment    :     -0.44411      -0.66879      -0.69367
                        -----------------------------------------
Magnitude (a.u.)       :      1.06098
Magnitude (Debye)      :      2.69680

                             ****ORCA TERMINATED NORMALLY****
TOTAL RUN TIME: 0 days 0 hours 12 minutes 38 seconds 758 msec
