                         Program Version 3.0.3 - RELEASE   -
|  1> ! RI-MP2 RIJK def2-TZVP def2-TZVP/C def2-TZVP/JK TIGHTSCF
|  2> % maxcore 2000
|  3> % mp2 density relaxed end
|  4> *xyz 0 1
|  5>  N        0.0082171252     1.5296196687    -0.0525401179
|  6>  C       -0.0070592535     0.0803073504    -0.0062694645
|  7>  C        0.9023421425    -0.5467511576    -0.9749068038
|  8>  N        1.6465457283    -0.9372162191    -1.7695817064
|  9>  C        0.0529170637    -0.6357822484     1.3834478069
| 10>  C       -1.0067488677     0.1003124360     2.2208007902
| 11>  C       -2.1518321561     0.0782146616     1.1600659567
| 12>  C       -1.3823805382    -0.6631262414     0.0535944856
| 13>  O       -0.7083237387    -1.7267845690     0.7876920791
| 14>  H        0.9494551553     1.8731788268     0.1202476165
| 15>  H       -0.2429090486     1.8504724645    -0.9841031911
| 16>  H        0.9950646964    -0.9432389196     1.8348893294
| 17>  H       -1.2448060773    -0.4708957103     3.1197976864
| 18>  H       -0.7024024349     1.1099519917     2.4994818777
| 19>  H       -3.0179780779    -0.5052546190     1.4771061338
| 20>  H       -2.4738922489     1.0757705856     0.8587392487
| 21>  H       -1.8976667297    -0.9983505909    -0.8453360071
| 22> *
| 23>
| 24>                          ****END OF INPUT****

CARTESIAN COORDINATES (ANGSTROEM)
---------------------------------
  N      0.008217    1.529620   -0.052540
  C     -0.007059    0.080307   -0.006269
  C      0.902342   -0.546751   -0.974907
  N      1.646546   -0.937216   -1.769582
  C      0.052917   -0.635782    1.383448
  C     -1.006749    0.100312    2.220801
  C     -2.151832    0.078215    1.160066
  C     -1.382381   -0.663126    0.053594
  O     -0.708324   -1.726785    0.787692
  H      0.949455    1.873179    0.120248
  H     -0.242909    1.850472   -0.984103
  H      0.995065   -0.943239    1.834889
  H     -1.244806   -0.470896    3.119798
  H     -0.702402    1.109952    2.499482
  H     -3.017978   -0.505255    1.477106
  H     -2.473892    1.075771    0.858739
  H     -1.897667   -0.998351   -0.845336

 Total Charge           Charge          ....    0
 Multiplicity           Mult            ....    1
 Number of Electrons    NEL             ....   66
 Basis Dimension        Dim             ....  327

ORBITAL ENERGIES
----------------

  NO   OCC          E(Eh)            E(eV)
   0   2.0000     -20.571470      -559.7782
   1   2.0000     -15.580809      -423.9754
   2   2.0000     -15.571016      -423.7089
   3   2.0000     -11.324031      -308.1425
   4   2.0000     -11.313929      -307.8677
   5   2.0000     -11.313925      -307.8675
   6   2.0000     -11.272205      -306.7323
   7   2.0000     -11.240814      -305.8781
   8   2.0000     -11.240273      -305.8634
   9   2.0000      -1.418576       -38.6014
  10   2.0000      -1.238437       -33.6996
  11   2.0000      -1.205598       -32.8060
  12   2.0000      -1.082997       -29.4699
  13   2.0000      -0.995091       -27.0778
  14   2.0000      -0.982818       -26.7438
  15   2.0000      -0.816097       -22.2071
  16   2.0000      -0.806382       -21.9428
  17   2.0000      -0.742445       -20.2030
  18   2.0000      -0.696852       -18.9623
  19   2.0000      -0.693967       -18.8838
  20   2.0000      -0.674960       -18.3666
  21   2.0000      -0.604975       -16.4622
  22   2.0000      -0.596009       -16.2182
  23   2.0000      -0.558891       -15.2082
  24   2.0000      -0.525037       -14.2870
  25   2.0000      -0.524494       -14.2722
  26   2.0000      -0.519900       -14.1472
  27   2.0000      -0.506033       -13.7699
  28   2.0000      -0.504504       -13.7282
  29   2.0000      -0.476156       -12.9569
  30   2.0000      -0.448523       -12.2049
  31   2.0000      -0.433468       -11.7953
  32   2.0000      -0.431786       -11.7495
  33   0.0000       0.112176         3.0525
  34   0.0000       0.151326         4.1178
  35   0.0000       0.152042         4.1373
  36   0.0000       0.166194         4.5224
  37   0.0000       0.175929         4.7873

MULLIKEN ATOMIC CHARGES
-----------------------
   0 N :   -0.548740
   1 C :    0.270392
   2 C :   -0.255988
   3 N :   -0.045556
   4 C :   -0.022001
   5 C :   -0.173411
   6 C :   -0.173592
   7 C :   -0.021869
   8 O :   -0.312605
   9 H :    0.247221
  10 H :    0.247218
  11 H :    0.144982
  12 H :    0.131603
  13 H :    0.117884
  14 H :    0.131615
  15 H :    0.117863
  16 H :    0.144985
Sum of atomic charges:   -0.0000000

LOEWDIN ATOMIC CHARGES
----------------------
   0 N :   -0.089854
   1 C :   -0.298989
   2 C :   -0.161319
   3 N :    0.064257
   4 C :   -0.210586
   5 C :   -0.222620
   6 C :   -0.222618
   7 C :   -0.210601
   8 O :    0.180166
   9 H :    0.168524
  10 H :    0.168525
  11 H :    0.139109
  12 H :    0.138947
  13 H :    0.139505
  14 H :    0.138954
  15 H :    0.139494
  16 H :    0.139106

  Mayer bond orders larger than 0.1
B(  0-N ,  1-C ) :   1.0208 B(  0-N ,  9-H ) :   0.8827 B(  0-N , 10-H ) :   0.8827
B(  1-C ,  2-C ) :   0.8986 B(  1-C ,  4-C ) :   0.9079 B(  1-C ,  7-C ) :   0.9078
B(  2-C ,  3-N ) :   2.8912 B(  4-C ,  5-C ) :   0.9733 B(  4-C ,  8-O ) :   0.9289
B(  4-C , 11-H ) :   0.9074 B(  5-C ,  6-C ) :   1.0013 B(  5-C , 12-H ) :   0.9259
B(  5-C , 13-H ) :   0.8936 B(  6-C ,  7-C ) :   0.9733 B(  6-C , 14-H ) :   0.9259
B(  6-C , 15-H ) :   0.8936 B(  7-C ,  8-O ) :   0.9288 B(  7-C , 16-H ) :   0.9074

MP2 TOTAL ENERGY:     -417.295944466 Eh
FINAL SINGLE POINT ENERGY      -417.295944466210

DIPOLE MOMENT
-------------
                                X             Y             Z
Electronic contribution:      4.09256      -3.71275      -4.34056
Nuclear contribution   :     -4.79832       4.93032       5.07686
                        -----------------------------------------
Total Dipole Moment    :     -0.70576       1.21757       0.73630
                        -----------------------------------------
Magnitude (a.u.)       :      1.58831
Magnitude (Debye)      :      4.03716

                             ****ORCA TERMINATED NORMALLY****
TOTAL RUN TIME: 0 days 0 hours 20 minutes 1 seconds 111 msec
