                         Program Version 3.0.3 - RELEASE   -
|  1> ! RI-MP2 RIJK def2-TZVP def2-TZVP/C def2-TZVP/JK TIGHTSCF
|  2> % maxcore 2000
|  3> % mp2 density relaxed end
|  4> *xyz 0 1
|  5>  C       -0.5587363234    -1.1135396543    -0.7031121082
|  6>  C       -0.3196618905    -0.0038097334    -0.3088424375
|  7>  C       -0.0451991396     1.3401880595     0.1635030721
|  8>  C       -0.2048648774     1.5550565804     1.6894868055
|  9>  C        0.7290703247     2.7546090632     1.9737826618
| 10>  O        1.4420723236     3.0293150068     0.7606965445
| 11>  C        1.4043504894     1.8696041130    -0.0568297674
| 12>  C        2.4408087996     0.8976611511     0.3064211876
| 13>  C        3.2991394309     0.1189986835     0.6241877980
| 14>  H       -0.7611865856    -2.0952779234    -1.0532395664
| 15>  H       -0.6974554051     2.0475431220    -0.3620853836
| 16>  H       -1.2431635635     1.7492017123     1.9640418041
| 17>  H        0.1258475250     0.6616057516     2.2227244212
| 18>  H        0.1865729909     3.6670391438     2.2379501070
| 19>  H        1.4338717152     2.5253618709     2.7823296261
| 20>  H        1.5553020878     2.2000197068    -1.0887957317
| 21>  H        4.0592477178    -0.5715078539     0.8954395367
| 22> *
| 23>
| 24>                          ****END OF INPUT****

CARTESIAN COORDINATES (ANGSTROEM)
---------------------------------
  C     -0.558736   -1.113540   -0.703112
  C     -0.319662   -0.003810   -0.308842
  C     -0.045199    1.340188    0.163503
  C     -0.204865    1.555057    1.689487
  C      0.729070    2.754609    1.973783
  O      1.442072    3.029315    0.760697
  C      1.404350    1.869604   -0.056830
  C      2.440809    0.897661    0.306421
  C      3.299139    0.118999    0.624188
  H     -0.761187   -2.095278   -1.053240
  H     -0.697455    2.047543   -0.362085
  H     -1.243164    1.749202    1.964042
  H      0.125848    0.661606    2.222724
  H      0.186573    3.667039    2.237950
  H      1.433872    2.525362    2.782330
  H      1.555302    2.200020   -1.088796
  H      4.059248   -0.571508    0.895440

 Total Charge           Charge          ....    0
 Multiplicity           Mult            ....    1
 Number of Electrons    NEL             ....   64
 Basis Dimension        Dim             ....  327

ORBITAL ENERGIES
----------------

  NO   OCC          E(Eh)            E(eV)
   0   2.0000     -20.565935      -559.6275
   1   2.0000     -11.317462      -307.9638
   2   2.0000     -11.282196      -307.0042
   3   2.0000     -11.270630      -306.6894
   4   2.0000     -11.240266      -305.8632
   5   2.0000     -11.237232      -305.7806
   6   2.0000     -11.234589      -305.7087
   7   2.0000     -11.229201      -305.5621
   8   2.0000     -11.226370      -305.4851
   9   2.0000      -1.392583       -37.8941
  10   2.0000      -1.110013       -30.2050
  11   2.0000      -1.050604       -28.5884
  12   2.0000      -1.018399       -27.7121
  13   2.0000      -0.987583       -26.8735
  14   2.0000      -0.871430       -23.7128
  15   2.0000      -0.831059       -22.6143
  16   2.0000      -0.749085       -20.3836
  17   2.0000      -0.719954       -19.5910
  18   2.0000      -0.702802       -19.1242
  19   2.0000      -0.688564       -18.7368
  20   2.0000      -0.642567       -17.4851
  21   2.0000      -0.623089       -16.9551
  22   2.0000      -0.590474       -16.0676
  23   2.0000      -0.545770       -14.8512
  24   2.0000      -0.531264       -14.4564
  25   2.0000      -0.511237       -13.9115
  26   2.0000      -0.495714       -13.4891
  27   2.0000      -0.445891       -12.1333
  28   2.0000      -0.401143       -10.9157
  29   2.0000      -0.397253       -10.8098
  30   2.0000      -0.388827       -10.5805
  31   2.0000      -0.380389       -10.3509
  32   0.0000       0.131440         3.5767
  33   0.0000       0.152737         4.1562
  34   0.0000       0.162178         4.4131
  35   0.0000       0.163762         4.4562
  36   0.0000       0.166438         4.5290

MULLIKEN ATOMIC CHARGES
-----------------------
   0 C :   -0.157845
   1 C :    0.002474
   2 C :   -0.227905
   3 C :   -0.270213
   4 C :   -0.028571
   5 O :   -0.312351
   6 C :    0.103463
   7 C :   -0.076930
   8 C :   -0.172983
   9 H :    0.191792
  10 H :    0.127729
  11 H :    0.134240
  12 H :    0.141548
  13 H :    0.116948
  14 H :    0.103215
  15 H :    0.134166
  16 H :    0.191222
Sum of atomic charges:    0.0000000

LOEWDIN ATOMIC CHARGES
----------------------
   0 C :   -0.088432
   1 C :   -0.084689
   2 C :   -0.207879
   3 C :   -0.215299
   4 C :   -0.283770
   5 O :    0.180591
   6 C :   -0.275270
   7 C :   -0.075573
   8 C :   -0.079919
   9 H :    0.127408
  10 H :    0.175952
  11 H :    0.139572
  12 H :    0.146505
  13 H :    0.125020
  14 H :    0.123781
  15 H :    0.163883
  16 H :    0.128119

  Mayer bond orders larger than 0.1
B(  0-C ,  1-C ) :   2.6106 B(  0-C ,  9-H ) :   0.8892 B(  1-C ,  2-C ) :   1.1253
B(  2-C ,  3-C ) :   0.9104 B(  2-C ,  6-C ) :   0.9162 B(  2-C , 10-H ) :   0.9246
B(  3-C ,  4-C ) :   0.9470 B(  3-C , 11-H ) :   0.9269 B(  3-C , 12-H ) :   0.9242
B(  4-C ,  5-O ) :   0.9246 B(  4-C , 13-H ) :   0.9275 B(  4-C , 14-H ) :   0.9239
B(  5-O ,  6-C ) :   0.9227 B(  6-C ,  7-C ) :   1.1145 B(  6-C , 15-H ) :   0.9102
B(  7-C ,  8-C ) :   2.5995 B(  8-C , 16-H ) :   0.8994

MP2 TOTAL ENERGY:     -383.930710628 Eh
FINAL SINGLE POINT ENERGY      -383.930710627502

DIPOLE MOMENT
-------------
                                X             Y             Z
Electronic contribution:      2.05864      -0.65924      -2.86050
Nuclear contribution   :     -2.41624       0.34604       3.12578
                        -----------------------------------------
Total Dipole Moment    :     -0.35760      -0.31320       0.26528
                        -----------------------------------------
Magnitude (a.u.)       :      0.54438
Magnitude (Debye)      :      1.38370

                             ****ORCA TERMINATED NORMALLY****
TOTAL RUN TIME: 0 days 0 hours 17 minutes 4 seconds 734 msec
