                         Program Version 3.0.3 - RELEASE   -
|  1> ! RI-MP2 RIJK def2-TZVP def2-TZVP/C def2-TZVP/JK TIGHTSCF
|  2> % maxcore 2000
|  3> % mp2 density relaxed end
|  4> *xyz 0 1
|  5>  C        0.3027904326     1.2727578817     0.5820030347
|  6>  C       -0.3859471137     0.2125154413    -0.2966264898
|  7>  C        0.4222266218    -0.1971622584    -1.4406208404
|  8>  C        1.1171483692    -0.5104337160    -2.3743653399
|  9>  C        1.9239516585    -0.9472361386    -3.5164570354
| 10>  O        2.5644795347    -2.2012435384    -3.2631326885
| 11>  C        1.0903482463    -0.9843968953    -4.8095863794
| 12>  C        1.9204263010    -1.3775987723    -6.0248214910
| 13>  O        1.0573174304    -1.3752850663    -7.1531229405
| 14>  H        1.2488850830     0.8939155354     0.9776748594
| 15>  H        0.5166651130     2.1759966615     0.0043216753
| 16>  H       -0.3400849993     1.5457955939     1.4240772612
| 17>  H       -0.6227106827    -0.6701376693     0.3114377773
| 18>  H       -1.3500047755     0.5984737582    -0.6520656824
| 19>  H        2.7560475618    -0.2444766586    -3.6571283143
| 20>  H        1.8897588476    -2.7992569006    -2.9226296266
| 21>  H        0.2636683682    -1.6945663426    -4.6888786250
| 22>  H        0.6412565909     0.0004771669    -4.9775377748
| 23>  H        2.7484332616    -0.6602180631    -6.1546643729
| 24>  H        2.3685047639    -2.3662201879    -5.8568305637
| 25>  H        1.5585150567    -1.6871171116    -7.9120442633
| 26> *
| 27>
| 28>                          ****END OF INPUT****

CARTESIAN COORDINATES (ANGSTROEM)
---------------------------------
  C      0.302790    1.272758    0.582003
  C     -0.385947    0.212515   -0.296626
  C      0.422227   -0.197162   -1.440621
  C      1.117148   -0.510434   -2.374365
  C      1.923952   -0.947236   -3.516457
  O      2.564480   -2.201244   -3.263133
  C      1.090348   -0.984397   -4.809586
  C      1.920426   -1.377599   -6.024821
  O      1.057317   -1.375285   -7.153123
  H      1.248885    0.893916    0.977675
  H      0.516665    2.175997    0.004322
  H     -0.340085    1.545796    1.424077
  H     -0.622711   -0.670138    0.311438
  H     -1.350005    0.598474   -0.652066
  H      2.756048   -0.244477   -3.657128
  H      1.889759   -2.799257   -2.922630
  H      0.263668   -1.694566   -4.688879
  H      0.641257    0.000477   -4.977538
  H      2.748433   -0.660218   -6.154664
  H      2.368505   -2.366220   -5.856831
  H      1.558515   -1.687117   -7.912044

 Total Charge           Charge          ....    0
 Multiplicity           Mult            ....    1
 Number of Electrons    NEL             ....   70
 Basis Dimension        Dim             ....  351

ORBITAL ENERGIES
----------------

  NO   OCC          E(Eh)            E(eV)
   0   2.0000     -20.560714      -559.4855
   1   2.0000     -20.554170      -559.3074
   2   2.0000     -11.306621      -307.6688
   3   2.0000     -11.272817      -306.7489
   4   2.0000     -11.253726      -306.2294
   5   2.0000     -11.229135      -305.5603
   6   2.0000     -11.226083      -305.4772
   7   2.0000     -11.224585      -305.4365
   8   2.0000     -11.219179      -305.2894
   9   2.0000      -1.367290       -37.2059
  10   2.0000      -1.357433       -36.9376
  11   2.0000      -1.085591       -29.5404
  12   2.0000      -1.056793       -28.7568
  13   2.0000      -0.998380       -27.1673
  14   2.0000      -0.921437       -25.0736
  15   2.0000      -0.867389       -23.6028
  16   2.0000      -0.818262       -22.2660
  17   2.0000      -0.724001       -19.7011
  18   2.0000      -0.699343       -19.0301
  19   2.0000      -0.663264       -18.0483
  20   2.0000      -0.649164       -17.6646
  21   2.0000      -0.626795       -17.0560
  22   2.0000      -0.611360       -16.6360
  23   2.0000      -0.602406       -16.3923
  24   2.0000      -0.569319       -15.4920
  25   2.0000      -0.551665       -15.0116
  26   2.0000      -0.538349       -14.6492
  27   2.0000      -0.523669       -14.2498
  28   2.0000      -0.514059       -13.9883
  29   2.0000      -0.512932       -13.9576
  30   2.0000      -0.481707       -13.1079
  31   2.0000      -0.462807       -12.5936
  32   2.0000      -0.441505       -12.0140
  33   2.0000      -0.378787       -10.3073
  34   2.0000      -0.371174       -10.1001
  35   0.0000       0.125189         3.4066
  36   0.0000       0.140512         3.8235
  37   0.0000       0.151112         4.1120
  38   0.0000       0.164771         4.4836
  39   0.0000       0.171188         4.6583

MULLIKEN ATOMIC CHARGES
-----------------------
   0 C :   -0.359841
   1 C :   -0.301599
   2 C :    0.078463
   3 C :   -0.055828
   4 C :   -0.095294
   5 O :   -0.463661
   6 C :   -0.097044
   7 C :   -0.091565
   8 O :   -0.466846
   9 H :    0.132748
  10 H :    0.130487
  11 H :    0.132775
  12 H :    0.140752
  13 H :    0.143684
  14 H :    0.113394
  15 H :    0.318705
  16 H :    0.104335
  17 H :    0.120320
  18 H :    0.085494
  19 H :    0.113665
  20 H :    0.316857
Sum of atomic charges:    0.0000000

LOEWDIN ATOMIC CHARGES
----------------------
   0 C :   -0.298691
   1 C :   -0.277261
   2 C :   -0.069685
   3 C :   -0.068560
   4 C :   -0.335067
   5 O :   -0.015063
   6 C :   -0.244132
   7 C :   -0.349904
   8 O :   -0.053676
   9 H :    0.124991
  10 H :    0.124484
  11 H :    0.121276
  12 H :    0.153991
  13 H :    0.153746
  14 H :    0.159887
  15 H :    0.178127
  16 H :    0.142741
  17 H :    0.148309
  18 H :    0.114638
  19 H :    0.117913
  20 H :    0.171935

  Mayer bond orders larger than 0.1
B(  0-C ,  1-C ) :   0.9447 B(  0-C ,  9-H ) :   0.9349 B(  0-C , 10-H ) :   0.9352
B(  0-C , 11-H ) :   0.9391 B(  1-C ,  2-C ) :   0.9276 B(  1-C , 12-H ) :   0.9357
B(  1-C , 13-H ) :   0.9419 B(  2-C ,  3-C ) :   2.6443 B(  3-C ,  4-C ) :   1.0864
B(  4-C ,  5-O ) :   0.9052 B(  4-C ,  6-C ) :   0.9610 B(  4-C , 14-H ) :   0.8957
B(  5-O , 15-H ) :   0.8398 B(  6-C ,  7-C ) :   0.9286 B(  6-C ,  8-O ) :  -0.1023
B(  6-C , 16-H ) :   0.8991 B(  6-C , 17-H ) :   0.9180 B(  7-C ,  8-O ) :   1.0302
B(  7-C , 18-H ) :   0.9322 B(  7-C , 19-H ) :   0.9340 B(  8-O , 20-H ) :   0.8496

MP2 TOTAL ENERGY:     -423.485909409 Eh
FINAL SINGLE POINT ENERGY      -423.485909409029

DIPOLE MOMENT
-------------
                                X             Y             Z
Electronic contribution:      1.75002      -3.47935      -4.22754
Nuclear contribution   :     -1.88958       3.49592       4.46763
                        -----------------------------------------
Total Dipole Moment    :     -0.13956       0.01657       0.24009
                        -----------------------------------------
Magnitude (a.u.)       :      0.27820
Magnitude (Debye)      :      0.70713

                             ****ORCA TERMINATED NORMALLY****
TOTAL RUN TIME: 0 days 0 hours 15 minutes 25 seconds 799 msec
