                         Program Version 3.0.3 - RELEASE   -
|  1> ! RI-MP2 RIJK def2-TZVP def2-TZVP/C def2-TZVP/JK TIGHTSCF
|  2> % maxcore 2000
|  3> % mp2 density relaxed end
|  4> *xyz 0 1
|  5>  C        0.0143566618     1.5711800076    -0.1317894343
|  6>  C        0.0663904832     0.0388924730    -0.0604994668
|  7>  C        0.6891418397    -0.5650060064    -1.3111634575
|  8>  C        2.1675187870    -0.7622783662    -1.4703988059
|  9>  C        1.2613836306    -1.9672653537    -1.2177041492
| 10>  C        1.2447263527    -2.6053024290     0.1152252140
| 11>  C        0.9824174023    -1.9349916156     1.2411252027
| 12>  C        0.7171295963    -0.4506898740     1.2503011219
| 13>  O        1.9308292039     0.2987658841     1.4585820994
| 14>  H        1.0214695937     1.9915252522    -0.1689600348
| 15>  H       -0.5297531420     1.8952349995    -1.0249413633
| 16>  H       -0.4944177552     1.9904966163     0.7426686545
| 17>  H       -0.9669646262    -0.3341861736    -0.0175505630
| 18>  H        0.1383458001    -0.3395794491    -2.2206474860
| 19>  H        2.5910561987    -0.6643027608    -2.4645131382
| 20>  H        2.8096318308    -0.4517188583    -0.6564365648
| 21>  H        1.1098647853    -2.6336663223    -2.0606170341
| 22>  H        1.4495033623    -3.6725917432     0.1569742284
| 23>  H        0.9861317051    -2.4490169128     2.1991729791
| 24>  H        0.0233548399    -0.2125806946     2.0721474733
| 25>  H        2.4555515498    -0.1807045131     2.1074274847
| 26> *
| 27>
| 28>                          ****END OF INPUT****

CARTESIAN COORDINATES (ANGSTROEM)
---------------------------------
  C      0.014357    1.571180   -0.131789
  C      0.066390    0.038892   -0.060499
  C      0.689142   -0.565006   -1.311163
  C      2.167519   -0.762278   -1.470399
  C      1.261384   -1.967265   -1.217704
  C      1.244726   -2.605302    0.115225
  C      0.982417   -1.934992    1.241125
  C      0.717130   -0.450690    1.250301
  O      1.930829    0.298766    1.458582
  H      1.021470    1.991525   -0.168960
  H     -0.529753    1.895235   -1.024941
  H     -0.494418    1.990497    0.742669
  H     -0.966965   -0.334186   -0.017551
  H      0.138346   -0.339579   -2.220647
  H      2.591056   -0.664303   -2.464513
  H      2.809632   -0.451719   -0.656437
  H      1.109865   -2.633666   -2.060617
  H      1.449503   -3.672592    0.156974
  H      0.986132   -2.449017    2.199173
  H      0.023355   -0.212581    2.072147
  H      2.455552   -0.180705    2.107427

 Total Charge           Charge          ....    0
 Multiplicity           Mult            ....    1
 Number of Electrons    NEL             ....   68
 Basis Dimension        Dim             ....  351

ORBITAL ENERGIES
----------------

  NO   OCC          E(Eh)            E(eV)
   0   2.0000     -20.549112      -559.1698
   1   2.0000     -11.279944      -306.9429
   2   2.0000     -11.236449      -305.7593
   3   2.0000     -11.229325      -305.5655
   4   2.0000     -11.227410      -305.5134
   5   2.0000     -11.226792      -305.4965
   6   2.0000     -11.219597      -305.3008
   7   2.0000     -11.219360      -305.2943
   8   2.0000     -11.203451      -304.8614
   9   2.0000      -1.353370       -36.8271
  10   2.0000      -1.162623       -31.6366
  11   2.0000      -1.051514       -28.6132
  12   2.0000      -1.036816       -28.2132
  13   2.0000      -0.918785       -25.0014
  14   2.0000      -0.851765       -23.1777
  15   2.0000      -0.832358       -22.6496
  16   2.0000      -0.772512       -21.0211
  17   2.0000      -0.711710       -19.3666
  18   2.0000      -0.696507       -18.9529
  19   2.0000      -0.646077       -17.5806
  20   2.0000      -0.635422       -17.2907
  21   2.0000      -0.612737       -16.6734
  22   2.0000      -0.578954       -15.7541
  23   2.0000      -0.572986       -15.5917
  24   2.0000      -0.552856       -15.0440
  25   2.0000      -0.533796       -14.5253
  26   2.0000      -0.512750       -13.9526
  27   2.0000      -0.506723       -13.7886
  28   2.0000      -0.486377       -13.2350
  29   2.0000      -0.456527       -12.4227
  30   2.0000      -0.438058       -11.9202
  31   2.0000      -0.426921       -11.6171
  32   2.0000      -0.399040       -10.8584
  33   2.0000      -0.336910        -9.1678
  34   0.0000       0.127496         3.4694
  35   0.0000       0.142987         3.8909
  36   0.0000       0.161046         4.3823
  37   0.0000       0.164514         4.4767
  38   0.0000       0.177660         4.8344

MULLIKEN ATOMIC CHARGES
-----------------------
   0 C :   -0.414207
   1 C :    0.003970
   2 C :   -0.138305
   3 C :   -0.280364
   4 C :   -0.034103
   5 C :   -0.165981
   6 C :   -0.280995
   7 C :    0.145572
   8 O :   -0.478084
   9 H :    0.149209
  10 H :    0.124878
  11 H :    0.123812
  12 H :    0.088525
  13 H :    0.117428
  14 H :    0.127200
  15 H :    0.145009
  16 H :    0.120782
  17 H :    0.120781
  18 H :    0.126457
  19 H :    0.089340
  20 H :    0.309075
Sum of atomic charges:   -0.0000000

LOEWDIN ATOMIC CHARGES
----------------------
   0 C :   -0.284456
   1 C :   -0.234178
   2 C :   -0.177428
   3 C :   -0.186108
   4 C :   -0.188928
   5 C :   -0.134837
   6 C :   -0.172364
   7 C :   -0.301441
   8 O :   -0.025730
   9 H :    0.129480
  10 H :    0.121707
  11 H :    0.123385
  12 H :    0.163548
  13 H :    0.150667
  14 H :    0.131077
  15 H :    0.139853
  16 H :    0.148258
  17 H :    0.146284
  18 H :    0.140386
  19 H :    0.139972
  20 H :    0.170852

  Mayer bond orders larger than 0.1
B(  0-C ,  1-C ) :   0.8840 B(  0-C ,  9-H ) :   0.9373 B(  0-C , 10-H ) :   0.9396
B(  0-C , 11-H ) :   0.9384 B(  1-C ,  2-C ) :   0.9605 B(  1-C ,  7-C ) :   0.8979
B(  1-C , 12-H ) :   0.9217 B(  2-C ,  3-C ) :   0.8857 B(  2-C ,  4-C ) :   0.8458
B(  2-C , 13-H ) :   0.9315 B(  3-C ,  4-C ) :   0.8507 B(  3-C , 14-H ) :   0.9260
B(  3-C , 15-H ) :   0.9145 B(  4-C ,  5-C ) :   0.9736 B(  4-C , 16-H ) :   0.9291
B(  5-C ,  6-C ) :   1.7823 B(  5-C , 17-H ) :   0.9318 B(  6-C ,  7-C ) :   0.9436
B(  6-C , 18-H ) :   0.9352 B(  7-C ,  8-O ) :   0.9256 B(  7-C , 19-H ) :   0.9278
B(  8-O , 20-H ) :   0.8450

MP2 TOTAL ENERGY:     -386.414565924 Eh
FINAL SINGLE POINT ENERGY      -386.414565924381

DIPOLE MOMENT
-------------
                                X             Y             Z
Electronic contribution:      1.49466      -3.02768       1.59009
Nuclear contribution   :     -1.59439       2.56379      -1.49927
                        -----------------------------------------
Total Dipole Moment    :     -0.09974      -0.46389       0.09081
                        -----------------------------------------
Magnitude (a.u.)       :      0.48310
Magnitude (Debye)      :      1.22794

                             ****ORCA TERMINATED NORMALLY****
TOTAL RUN TIME: 0 days 0 hours 26 minutes 29 seconds 684 msec
