                         Program Version 3.0.3 - RELEASE   -
|  1> ! RI-MP2 RIJK def2-TZVP def2-TZVP/C def2-TZVP/JK TIGHTSCF
|  2> % maxcore 2000
|  3> % mp2 density relaxed end
|  4> *xyz 0 1
|  5>  C       -0.0197936257     1.2902393968    -0.1786227674
|  6>  O       -0.0452930849    -0.0522594382     0.2445312812
|  7>  C       -1.3121298076    -0.6522238174     0.1445503166
|  8>  C       -1.7453490004    -1.0676135469    -1.3021146801
|  9>  C       -1.8329699709    -2.5956907028    -1.0606931385
| 10>  C       -2.0491389939    -3.5210254172    -2.2242170619
| 11>  C       -2.6022282926    -2.6868027012     0.2847990864
| 12>  C       -1.2647215239    -2.0715248376     0.7407026613
| 13>  O       -0.5955717472    -2.8329937363    -0.3056807955
| 14>  H        0.9961565348     1.6606026464    -0.0215837489
| 15>  H       -0.2717540353     1.3970270898    -1.2447140366
| 16>  H       -0.7191768678     1.9137898250     0.4017409963
| 17>  H       -2.0666186912    -0.0230057414     0.6425212172
| 18>  H       -2.6901926470    -0.6247872521    -1.6286964202
| 19>  H       -0.9633656863    -0.8311217445    -2.0277877658
| 20>  H       -1.2558714137    -3.3920340088    -2.9679175381
| 21>  H       -2.0485093780    -4.5644237211    -1.8968920807
| 22>  H       -3.0079015187    -3.3081605205    -2.7083554679
| 23>  H       -3.5299018676    -2.1213095335     0.4123529275
| 24>  H       -2.7114560574    -3.7182601938     0.6221468794
| 25>  H       -0.8342872449    -2.1934576849     1.7336655955
| 26> *
| 27>
| 28>                          ****END OF INPUT****

CARTESIAN COORDINATES (ANGSTROEM)
---------------------------------
  C     -0.019794    1.290239   -0.178623
  O     -0.045293   -0.052259    0.244531
  C     -1.312130   -0.652224    0.144550
  C     -1.745349   -1.067614   -1.302115
  C     -1.832970   -2.595691   -1.060693
  C     -2.049139   -3.521025   -2.224217
  C     -2.602228   -2.686803    0.284799
  C     -1.264722   -2.071525    0.740703
  O     -0.595572   -2.832994   -0.305681
  H      0.996157    1.660603   -0.021584
  H     -0.271754    1.397027   -1.244714
  H     -0.719177    1.913790    0.401741
  H     -2.066619   -0.023006    0.642521
  H     -2.690193   -0.624787   -1.628696
  H     -0.963366   -0.831122   -2.027788
  H     -1.255871   -3.392034   -2.967918
  H     -2.048509   -4.564424   -1.896892
  H     -3.007902   -3.308161   -2.708355
  H     -3.529902   -2.121310    0.412353
  H     -2.711456   -3.718260    0.622147
  H     -0.834287   -2.193458    1.733666

 Total Charge           Charge          ....    0
 Multiplicity           Mult            ....    1
 Number of Electrons    NEL             ....   70
 Basis Dimension        Dim             ....  351

ORBITAL ENERGIES
----------------

  NO   OCC          E(Eh)            E(eV)
   0   2.0000     -20.553024      -559.2762
   1   2.0000     -20.540456      -558.9342
   2   2.0000     -11.290646      -307.2341
   3   2.0000     -11.281174      -306.9764
   4   2.0000     -11.280434      -306.9562
   5   2.0000     -11.269992      -306.6721
   6   2.0000     -11.228591      -305.5455
   7   2.0000     -11.223619      -305.4102
   8   2.0000     -11.219506      -305.2983
   9   2.0000      -1.393443       -37.9175
  10   2.0000      -1.366690       -37.1895
  11   2.0000      -1.075671       -29.2705
  12   2.0000      -1.017388       -27.6845
  13   2.0000      -0.969545       -26.3827
  14   2.0000      -0.933715       -25.4077
  15   2.0000      -0.873487       -23.7688
  16   2.0000      -0.776602       -21.1324
  17   2.0000      -0.751143       -20.4396
  18   2.0000      -0.678160       -18.4537
  19   2.0000      -0.668783       -18.1985
  20   2.0000      -0.659559       -17.9475
  21   2.0000      -0.621923       -16.9234
  22   2.0000      -0.608516       -16.5586
  23   2.0000      -0.605914       -16.4878
  24   2.0000      -0.562137       -15.2965
  25   2.0000      -0.559508       -15.2250
  26   2.0000      -0.531344       -14.4586
  27   2.0000      -0.511117       -13.9082
  28   2.0000      -0.508572       -13.8390
  29   2.0000      -0.493145       -13.4192
  30   2.0000      -0.474635       -12.9155
  31   2.0000      -0.462693       -12.5905
  32   2.0000      -0.442671       -12.0457
  33   2.0000      -0.424550       -11.5526
  34   2.0000      -0.397494       -10.8164
  35   0.0000       0.134657         3.6642
  36   0.0000       0.151905         4.1335
  37   0.0000       0.165452         4.5022
  38   0.0000       0.175878         4.7859
  39   0.0000       0.192936         5.2501

MULLIKEN ATOMIC CHARGES
-----------------------
   0 C :   -0.221366
   1 O :   -0.291579
   2 C :    0.021184
   3 C :   -0.212574
   4 C :    0.114387
   5 C :   -0.401342
   6 C :   -0.206009
   7 C :    0.056726
   8 O :   -0.306547
   9 H :    0.143533
  10 H :    0.111409
  11 H :    0.109209
  12 H :    0.069563
  13 H :    0.119473
  14 H :    0.113988
  15 H :    0.142142
  16 H :    0.139044
  17 H :    0.131657
  18 H :    0.115495
  19 H :    0.119867
  20 H :    0.131740
Sum of atomic charges:    0.0000000

LOEWDIN ATOMIC CHARGES
----------------------
   0 C :   -0.358014
   1 O :    0.166567
   2 C :   -0.301840
   3 C :   -0.194747
   4 C :   -0.328087
   5 C :   -0.269649
   6 C :   -0.180844
   7 C :   -0.241633
   8 O :    0.181078
   9 H :    0.114332
  10 H :    0.100986
  11 H :    0.100655
  12 H :    0.132161
  13 H :    0.133920
  14 H :    0.144184
  15 H :    0.134433
  16 H :    0.131398
  17 H :    0.132589
  18 H :    0.128611
  19 H :    0.140225
  20 H :    0.133675

  Mayer bond orders larger than 0.1
B(  0-C ,  1-O ) :   0.9145 B(  0-C ,  9-H ) :   0.9417 B(  0-C , 10-H ) :   0.9328
B(  0-C , 11-H ) :   0.9350 B(  1-O ,  2-C ) :   0.9895 B(  2-C ,  3-C ) :   0.9685
B(  2-C ,  7-C ) :   0.9155 B(  2-C , 12-H ) :   0.9308 B(  3-C ,  4-C ) :   0.9492
B(  3-C , 13-H ) :   0.9065 B(  3-C , 14-H ) :   0.9071 B(  4-C ,  5-C ) :   0.8576
B(  4-C ,  6-C ) :   0.9181 B(  4-C ,  8-O ) :   0.9528 B(  5-C , 15-H ) :   0.9419
B(  5-C , 16-H ) :   0.9400 B(  5-C , 17-H ) :   0.9350 B(  6-C ,  7-C ) :   0.9164
B(  6-C , 18-H ) :   0.9162 B(  6-C , 19-H ) :   0.9140 B(  7-C ,  8-O ) :   0.9272
B(  7-C , 20-H ) :   0.9080

MP2 TOTAL ENERGY:     -423.499478216 Eh
FINAL SINGLE POINT ENERGY      -423.499478215799

DIPOLE MOMENT
-------------
                                X             Y             Z
Electronic contribution:      2.91368      -2.06676       3.30265
Nuclear contribution   :     -3.88072       2.55548      -3.48722
                        -----------------------------------------
Total Dipole Moment    :     -0.96703       0.48871      -0.18457
                        -----------------------------------------
Magnitude (a.u.)       :      1.09912
Magnitude (Debye)      :      2.79374

                             ****ORCA TERMINATED NORMALLY****
TOTAL RUN TIME: 0 days 0 hours 29 minutes 52 seconds 145 msec
