                         Program Version 3.0.3 - RELEASE   -
|  1> ! RI-MP2 RIJK def2-TZVP def2-TZVP/C def2-TZVP/JK TIGHTSCF
|  2> % maxcore 2000
|  3> % mp2 density relaxed end
|  4> *xyz 0 1
|  5>  C        0.1482630055    -1.1753737905    -0.0047830146
|  6>  C        0.0411951333     0.0248305889     0.0027376099
|  7>  C       -0.0837030353     1.4248476022     0.0115254737
|  8>  C       -1.1871320105     2.2650195761     0.0312435251
|  9>  N       -0.8110121998     3.5700823800     0.0325124216
| 10>  C        0.5173850418     3.5617730215     0.0138221569
| 11>  N        0.9981047980     2.2811292758     0.0006228901
| 12>  C        1.3735937227     4.6846910642     0.0074346236
| 13>  C        2.1245512504     5.6252967292     0.0016085427
| 14>  H        0.2347849405    -2.2337427080    -0.0112983733
| 15>  H       -2.2249859295     1.9700596699     0.0443370726
| 16>  H        1.9671631776     2.0075899234    -0.0143627156
| 17>  H        2.7758495853     6.4642922274    -0.0033284127
| 18> *
| 19>
| 20>                          ****END OF INPUT****

CARTESIAN COORDINATES (ANGSTROEM)
---------------------------------
  C      0.148263   -1.175374   -0.004783
  C      0.041195    0.024831    0.002738
  C     -0.083703    1.424848    0.011525
  C     -1.187132    2.265020    0.031244
  N     -0.811012    3.570082    0.032512
  C      0.517385    3.561773    0.013822
  N      0.998105    2.281129    0.000623
  C      1.373594    4.684691    0.007435
  C      2.124551    5.625297    0.001609
  H      0.234785   -2.233743   -0.011298
  H     -2.224986    1.970060    0.044337
  H      1.967163    2.007590   -0.014363
  H      2.775850    6.464292   -0.003328

 Total Charge           Charge          ....    0
 Multiplicity           Mult            ....    1
 Number of Electrons    NEL             ....   60
 Basis Dimension        Dim             ....  303

ORBITAL ENERGIES
----------------

  NO   OCC          E(Eh)            E(eV)
   0   2.0000     -15.640736      -425.6061
   1   2.0000     -15.566877      -423.5963
   2   2.0000     -11.335434      -308.4528
   3   2.0000     -11.297117      -307.4102
   4   2.0000     -11.267483      -306.6038
   5   2.0000     -11.259318      -306.3816
   6   2.0000     -11.256282      -306.2990
   7   2.0000     -11.254979      -306.2635
   8   2.0000     -11.246975      -306.0457
   9   2.0000      -1.364853       -37.1395
  10   2.0000      -1.191755       -32.4293
  11   2.0000      -1.096689       -29.8424
  12   2.0000      -1.054873       -28.7045
  13   2.0000      -1.000162       -27.2158
  14   2.0000      -0.881916       -23.9982
  15   2.0000      -0.842130       -22.9155
  16   2.0000      -0.819521       -22.3003
  17   2.0000      -0.742598       -20.2071
  18   2.0000      -0.721390       -19.6300
  19   2.0000      -0.670848       -18.2547
  20   2.0000      -0.645616       -17.5681
  21   2.0000      -0.631585       -17.1863
  22   2.0000      -0.603705       -16.4277
  23   2.0000      -0.475183       -12.9304
  24   2.0000      -0.466808       -12.7025
  25   2.0000      -0.425174       -11.5696
  26   2.0000      -0.423195       -11.5157
  27   2.0000      -0.417929       -11.3724
  28   2.0000      -0.411394       -11.1946
  29   2.0000      -0.303777        -8.2662
  30   0.0000       0.082681         2.2499
  31   0.0000       0.129778         3.5314
  32   0.0000       0.144208         3.9241
  33   0.0000       0.148105         4.0301
  34   0.0000       0.153213         4.1691

MULLIKEN ATOMIC CHARGES
-----------------------
   0 C :   -0.124166
   1 C :    0.037840
   2 C :   -0.013522
   3 C :   -0.124799
   4 N :   -0.261733
   5 C :    0.064510
   6 N :   -0.300860
   7 C :   -0.006244
   8 C :   -0.080475
   9 H :    0.200340
  10 H :    0.146059
  11 H :    0.261549
  12 H :    0.201501
Sum of atomic charges:    0.0000000

LOEWDIN ATOMIC CHARGES
----------------------
   0 C :   -0.062694
   1 C :   -0.085869
   2 C :   -0.220819
   3 C :   -0.198937
   4 N :    0.141655
   5 C :   -0.304771
   6 N :    0.255425
   7 C :   -0.075697
   8 C :   -0.057697
   9 H :    0.130678
  10 H :    0.141225
  11 H :    0.206633
  12 H :    0.130868

  Mayer bond orders larger than 0.1
B(  0-C ,  1-C ) :   2.6216 B(  0-C ,  2-C ) :  -0.1355 B(  0-C ,  9-H ) :   0.8713
B(  1-C ,  2-C ) :   1.1431 B(  2-C ,  3-C ) :   1.4334 B(  2-C ,  6-N ) :   1.1289
B(  3-C ,  4-N ) :   1.3486 B(  3-C , 10-H ) :   0.9373 B(  4-N ,  5-C ) :   1.4317
B(  5-C ,  6-N ) :   1.1658 B(  5-C ,  7-C ) :   1.2211 B(  5-C ,  8-C ) :  -0.1638
B(  6-N , 11-H ) :   0.8584 B(  7-C ,  8-C ) :   2.6370 B(  8-C , 12-H ) :   0.8619

MP2 TOTAL ENERGY:     -377.749948067 Eh
FINAL SINGLE POINT ENERGY      -377.749948067173

DIPOLE MOMENT
-------------
                                X             Y             Z
Electronic contribution:     -0.16252       0.80509       0.00632
Nuclear contribution   :      1.26653      -1.58033      -0.02572
                        -----------------------------------------
Total Dipole Moment    :      1.10401      -0.77524      -0.01940
                        -----------------------------------------
Magnitude (a.u.)       :      1.34915
Magnitude (Debye)      :      3.42928

                             ****ORCA TERMINATED NORMALLY****
TOTAL RUN TIME: 0 days 0 hours 12 minutes 30 seconds 131 msec
