                         Program Version 3.0.3 - RELEASE   -
|  1> ! RI-MP2 RIJK def2-TZVP def2-TZVP/C def2-TZVP/JK TIGHTSCF
|  2> % maxcore 2000
|  3> % mp2 density relaxed end
|  4> *xyz 0 1
|  5>  C       -0.1634708549     1.5864764147    -0.0866251394
|  6>  C        0.0394562774     0.0791964838    -0.0576203317
|  7>  C        0.7163818618    -0.6187770464    -1.2469761477
|  8>  C        2.1635959466    -0.2316868879    -1.3659287899
|  9>  C        1.7689156421    -1.2448591415    -0.3323053749
| 10>  C        1.1462084402    -0.5515547388     0.8937617985
| 11>  C        2.0005616641     0.3584081173     1.6452373358
| 12>  N        2.6736787521     1.1002059691     2.2237432729
| 13>  H        0.7654857610     2.1215715999    -0.3005272016
| 14>  H       -0.8927601116     1.8535097771    -0.8587497598
| 15>  H       -0.5404740940     1.9509989502     0.8742620901
| 16>  H       -0.9087577439    -0.4136910745     0.1744180726
| 17>  H        0.1826522527    -1.0797700814    -2.0689813328
| 18>  H        2.6768918790    -0.6413338301    -2.2295784343
| 19>  H        2.5179092998     0.7515010130    -1.0689669769
| 20>  H        2.1641197705    -2.2522215496    -0.3178491139
| 21>  H        0.6960508771    -1.2629315149     1.5896792728
| 22> *
| 23>
| 24>                          ****END OF INPUT****

CARTESIAN COORDINATES (ANGSTROEM)
---------------------------------
  C     -0.163471    1.586476   -0.086625
  C      0.039456    0.079196   -0.057620
  C      0.716382   -0.618777   -1.246976
  C      2.163596   -0.231687   -1.365929
  C      1.768916   -1.244859   -0.332305
  C      1.146208   -0.551555    0.893762
  C      2.000562    0.358408    1.645237
  N      2.673679    1.100206    2.223743
  H      0.765486    2.121572   -0.300527
  H     -0.892760    1.853510   -0.858750
  H     -0.540474    1.950999    0.874262
  H     -0.908758   -0.413691    0.174418
  H      0.182652   -1.079770   -2.068981
  H      2.676892   -0.641334   -2.229578
  H      2.517909    0.751501   -1.068967
  H      2.164120   -2.252222   -0.317849
  H      0.696051   -1.262932    1.589679

 Total Charge           Charge          ....    0
 Multiplicity           Mult            ....    1
 Number of Electrons    NEL             ....   58
 Basis Dimension        Dim             ....  302

ORBITAL ENERGIES
----------------

  NO   OCC          E(Eh)            E(eV)
   0   2.0000     -15.562940      -423.4891
   1   2.0000     -11.283046      -307.0273
   2   2.0000     -11.265814      -306.5584
   3   2.0000     -11.261493      -306.4408
   4   2.0000     -11.257275      -306.3260
   5   2.0000     -11.250585      -306.1440
   6   2.0000     -11.243009      -305.9378
   7   2.0000     -11.224413      -305.4318
   8   2.0000      -1.226064       -33.3629
   9   2.0000      -1.200477       -32.6666
  10   2.0000      -1.043833       -28.4041
  11   2.0000      -0.991089       -26.9689
  12   2.0000      -0.890338       -24.2273
  13   2.0000      -0.821329       -22.3495
  14   2.0000      -0.764184       -20.7945
  15   2.0000      -0.720172       -19.5969
  16   2.0000      -0.668390       -18.1878
  17   2.0000      -0.638564       -17.3762
  18   2.0000      -0.599261       -16.3067
  19   2.0000      -0.579099       -15.7581
  20   2.0000      -0.557623       -15.1737
  21   2.0000      -0.553908       -15.0726
  22   2.0000      -0.524409       -14.2699
  23   2.0000      -0.505711       -13.7611
  24   2.0000      -0.492980       -13.4147
  25   2.0000      -0.452980       -12.3262
  26   2.0000      -0.435998       -11.8641
  27   2.0000      -0.427369       -11.6293
  28   2.0000      -0.403101       -10.9689
  29   0.0000       0.125923         3.4265
  30   0.0000       0.144969         3.9448
  31   0.0000       0.153606         4.1798
  32   0.0000       0.160526         4.3681
  33   0.0000       0.185767         5.0550

MULLIKEN ATOMIC CHARGES
-----------------------
   0 C :   -0.393489
   1 C :   -0.061077
   2 C :   -0.107904
   3 C :   -0.292735
   4 C :   -0.110203
   5 C :    0.009456
   6 C :   -0.229192
   7 N :   -0.053380
   8 H :    0.133183
   9 H :    0.136339
  10 H :    0.141336
  11 H :    0.111019
  12 H :    0.136094
  13 H :    0.138741
  14 H :    0.152136
  15 H :    0.142033
  16 H :    0.147643
Sum of atomic charges:    0.0000000

LOEWDIN ATOMIC CHARGES
----------------------
   0 C :   -0.287506
   1 C :   -0.193569
   2 C :   -0.159415
   3 C :   -0.195799
   4 C :   -0.147165
   5 C :   -0.174068
   6 C :   -0.173181
   7 N :    0.058200
   8 H :    0.128241
   9 H :    0.128891
  10 H :    0.129952
  11 H :    0.155234
  12 H :    0.137313
  13 H :    0.143980
  14 H :    0.137022
  15 H :    0.138615
  16 H :    0.173255

  Mayer bond orders larger than 0.1
B(  0-C ,  1-C ) :   0.9310 B(  0-C ,  8-H ) :   0.9294 B(  0-C ,  9-H ) :   0.9346
B(  0-C , 10-H ) :   0.9346 B(  1-C ,  2-C ) :   0.9336 B(  1-C ,  5-C ) :   0.9415
B(  1-C , 11-H ) :   0.9265 B(  2-C ,  3-C ) :   0.8758 B(  2-C ,  4-C ) :   0.8290
B(  2-C , 12-H ) :   0.9263 B(  3-C ,  4-C ) :   0.8910 B(  3-C , 13-H ) :   0.9308
B(  3-C , 14-H ) :   0.9190 B(  4-C ,  5-C ) :   0.8949 B(  4-C , 15-H ) :   0.9237
B(  5-C ,  6-C ) :   0.9483 B(  5-C , 16-H ) :   0.9069 B(  6-C ,  7-N ) :   2.8583

MP2 TOTAL ENERGY:     -326.123098320 Eh
FINAL SINGLE POINT ENERGY      -326.123098319627

DIPOLE MOMENT
-------------
                                X             Y             Z
Electronic contribution:      3.51355      -1.17786       4.54658
Nuclear contribution   :     -4.48372       0.26320      -5.53435
                        -----------------------------------------
Total Dipole Moment    :     -0.97018      -0.91465      -0.98777
                        -----------------------------------------
Magnitude (a.u.)       :      1.65937
Magnitude (Debye)      :      4.21779

                             ****ORCA TERMINATED NORMALLY****
TOTAL RUN TIME: 0 days 0 hours 13 minutes 13 seconds 376 msec
