                         Program Version 3.0.3 - RELEASE   -
|  1> ! RI-MP2 RIJK def2-TZVP def2-TZVP/C def2-TZVP/JK TIGHTSCF
|  2> % maxcore 2000
|  3> % mp2 density relaxed end
|  4> *xyz 0 1
|  5>  O       -0.0824771980     1.3174183342     0.4732510194
|  6>  N        0.0640791934    -0.0782757011     0.3479499681
|  7>  C       -1.0105207220    -0.6091954601    -0.0566775472
|  8>  C       -2.3967827204    -0.1203160387    -0.4386114158
|  9>  C       -2.7346433127    -1.5885268847    -0.7606242554
| 10>  C       -4.0577299920    -2.2787590521    -0.5593325124
| 11>  C       -3.5135156064    -2.0377358479    -1.9505096358
| 12>  O       -4.0596210988    -1.0248380121    -2.7427113138
| 13>  C       -1.3307693868    -2.0683206735    -0.3325482337
| 14>  H        0.7917514161     1.5850991965     0.7758389801
| 15>  H       -2.9562828884     0.3307685706     0.3873732631
| 16>  H       -2.4300645050     0.5630803994    -1.2918380543
| 17>  H       -4.0662936457    -3.2942023464    -0.1745938669
| 18>  H       -4.8930480989    -1.6606731367    -0.2441531893
| 19>  H       -3.1377601404    -2.9019318691    -2.5009605532
| 20>  H       -4.9288599135    -1.3119667801    -3.0410545876
| 21>  H       -0.7298606159    -2.5392217893    -1.1174467843
| 22>  H       -1.3107123345    -2.7098772390     0.5547591889
| 23> *
| 24>
| 25>                          ****END OF INPUT****

CARTESIAN COORDINATES (ANGSTROEM)
---------------------------------
  O     -0.082477    1.317418    0.473251
  N      0.064079   -0.078276    0.347950
  C     -1.010521   -0.609195   -0.056678
  C     -2.396783   -0.120316   -0.438611
  C     -2.734643   -1.588527   -0.760624
  C     -4.057730   -2.278759   -0.559333
  C     -3.513516   -2.037736   -1.950510
  O     -4.059621   -1.024838   -2.742711
  C     -1.330769   -2.068321   -0.332548
  H      0.791751    1.585099    0.775839
  H     -2.956283    0.330769    0.387373
  H     -2.430065    0.563080   -1.291838
  H     -4.066294   -3.294202   -0.174594
  H     -4.893048   -1.660673   -0.244153
  H     -3.137760   -2.901932   -2.500961
  H     -4.928860   -1.311967   -3.041055
  H     -0.729861   -2.539222   -1.117447
  H     -1.310712   -2.709877    0.554759

 Total Charge           Charge          ....    0
 Multiplicity           Mult            ....    1
 Number of Electrons    NEL             ....   68
 Basis Dimension        Dim             ....  333

ORBITAL ENERGIES
----------------

  NO   OCC          E(Eh)            E(eV)
   0   2.0000     -20.584425      -560.1307
   1   2.0000     -20.569969      -559.7373
   2   2.0000     -15.607304      -424.6963
   3   2.0000     -11.288893      -307.1864
   4   2.0000     -11.272957      -306.7527
   5   2.0000     -11.246507      -306.0330
   6   2.0000     -11.239388      -305.8393
   7   2.0000     -11.234396      -305.7035
   8   2.0000     -11.233027      -305.6662
   9   2.0000      -1.409118       -38.3440
  10   2.0000      -1.379286       -37.5323
  11   2.0000      -1.188310       -32.3356
  12   2.0000      -1.133415       -30.8418
  13   2.0000      -1.039489       -28.2859
  14   2.0000      -0.927315       -25.2335
  15   2.0000      -0.836772       -22.7697
  16   2.0000      -0.763665       -20.7804
  17   2.0000      -0.719176       -19.5698
  18   2.0000      -0.709370       -19.3029
  19   2.0000      -0.684813       -18.6347
  20   2.0000      -0.677595       -18.4383
  21   2.0000      -0.636894       -17.3308
  22   2.0000      -0.632731       -17.2175
  23   2.0000      -0.587422       -15.9846
  24   2.0000      -0.571375       -15.5479
  25   2.0000      -0.554658       -15.0930
  26   2.0000      -0.547481       -14.8977
  27   2.0000      -0.526980       -14.3399
  28   2.0000      -0.503086       -13.6897
  29   2.0000      -0.468113       -12.7380
  30   2.0000      -0.422305       -11.4915
  31   2.0000      -0.415324       -11.3015
  32   2.0000      -0.402860       -10.9624
  33   2.0000      -0.375074       -10.2063
  34   0.0000       0.134839         3.6691
  35   0.0000       0.141685         3.8554
  36   0.0000       0.155311         4.2262
  37   0.0000       0.156635         4.2623
  38   0.0000       0.171911         4.6779

MULLIKEN ATOMIC CHARGES
-----------------------
   0 O :   -0.363880
   1 N :   -0.075637
   2 C :   -0.059112
   3 C :   -0.206736
   4 C :    0.131317
   5 C :   -0.359916
   6 C :   -0.019019
   7 O :   -0.464857
   8 C :   -0.156401
   9 H :    0.335422
  10 H :    0.130992
  11 H :    0.152238
  12 H :    0.129651
  13 H :    0.143666
  14 H :    0.106957
  15 H :    0.325083
  16 H :    0.126032
  17 H :    0.124201
Sum of atomic charges:    0.0000000

LOEWDIN ATOMIC CHARGES
----------------------
   0 O :   -0.076871
   1 N :    0.020223
   2 C :   -0.268738
   3 C :   -0.158039
   4 C :   -0.199784
   5 C :   -0.201543
   6 C :   -0.306046
   7 O :    0.000813
   8 C :   -0.152833
   9 H :    0.168333
  10 H :    0.146867
  11 H :    0.152561
  12 H :    0.134963
  13 H :    0.139349
  14 H :    0.132336
  15 H :    0.181722
  16 H :    0.143082
  17 H :    0.143607

  Mayer bond orders larger than 0.1
B(  0-O ,  1-N ) :   0.8050 B(  0-O ,  9-H ) :   0.8449 B(  1-N ,  2-C ) :   1.9083
B(  2-C ,  3-C ) :   0.9686 B(  2-C ,  8-C ) :   0.9530 B(  3-C ,  4-C ) :   0.9431
B(  3-C , 10-H ) :   0.9044 B(  3-C , 11-H ) :   0.8957 B(  4-C ,  5-C ) :   0.8410
B(  4-C ,  6-C ) :   0.8106 B(  4-C ,  7-O ) :  -0.1471 B(  4-C ,  8-C ) :   0.9064
B(  5-C ,  6-C ) :   0.9177 B(  5-C , 12-H ) :   0.9153 B(  5-C , 13-H ) :   0.9280
B(  6-C ,  7-O ) :   1.0682 B(  6-C , 14-H ) :   0.9576 B(  7-O , 15-H ) :   0.8400
B(  8-C , 16-H ) :   0.8975 B(  8-C , 17-H ) :   0.8971

MP2 TOTAL ENERGY:     -438.279241520 Eh
FINAL SINGLE POINT ENERGY      -438.279241519997

DIPOLE MOMENT
-------------
                                X             Y             Z
Electronic contribution:      3.63617       3.06011       0.40901
Nuclear contribution   :     -4.25962      -3.66274      -0.44641
                        -----------------------------------------
Total Dipole Moment    :     -0.62345      -0.60263      -0.03740
                        -----------------------------------------
Magnitude (a.u.)       :      0.86790
Magnitude (Debye)      :      2.20602

                             ****ORCA TERMINATED NORMALLY****
TOTAL RUN TIME: 0 days 0 hours 15 minutes 15 seconds 986 msec
