                         Program Version 3.0.3 - RELEASE   -
|  1> ! RI-MP2 RIJK def2-TZVP def2-TZVP/C def2-TZVP/JK TIGHTSCF
|  2> % maxcore 2000
|  3> % mp2 density relaxed end
|  4> *xyz 0 1
|  5>  C        0.0099671130     1.5715708011     0.0333334458
|  6>  C        0.0467781664     0.0331615914     0.0053402986
|  7>  C        0.7373723226    -0.4801212856    -1.2710166738
|  8>  C        0.7060910904    -0.5211960616     1.2437062881
|  9>  N        1.9768521262    -0.2294996821     1.5216338892
| 10>  N        2.2333287865    -0.8792950515     2.6712723000
| 11>  C        1.1660687819    -1.5736774097     3.1342556117
| 12>  C        0.1397941789    -1.3712542225     2.2337131476
| 13>  C       -1.2507593115    -1.9270303211     2.2970000589
| 14>  H        1.0263729816     1.9749272710     0.0624954239
| 15>  H       -0.4930318610     1.9650040281    -0.8565628612
| 16>  H       -0.5209970328     1.9398227070     0.9167218045
| 17>  H       -0.9882476115    -0.3305698941    -0.0000333726
| 18>  H        1.7820246626    -0.1561110035    -1.2934118711
| 19>  H        0.7256897045    -1.5736259889    -1.3164000685
| 20>  H        0.2366302270    -0.0955728876    -2.1660671585
| 21>  H        3.1480908566    -0.8052845461     3.0813209266
| 22>  H        1.2116903495    -2.1472075500     4.0472540997
| 23>  H       -2.0074763350    -1.1349699242     2.3356721530
| 24>  H       -1.4838311984    -2.5494182426     1.4253399912
| 25>  H       -1.3837919576    -2.5489905275     3.1868629869
| 26> *
| 27>
| 28>                          ****END OF INPUT****

CARTESIAN COORDINATES (ANGSTROEM)
---------------------------------
  C      0.009967    1.571571    0.033333
  C      0.046778    0.033162    0.005340
  C      0.737372   -0.480121   -1.271017
  C      0.706091   -0.521196    1.243706
  N      1.976852   -0.229500    1.521634
  N      2.233329   -0.879295    2.671272
  C      1.166069   -1.573677    3.134256
  C      0.139794   -1.371254    2.233713
  C     -1.250759   -1.927030    2.297000
  H      1.026373    1.974927    0.062495
  H     -0.493032    1.965004   -0.856563
  H     -0.520997    1.939823    0.916722
  H     -0.988248   -0.330570   -0.000033
  H      1.782025   -0.156111   -1.293412
  H      0.725690   -1.573626   -1.316400
  H      0.236630   -0.095573   -2.166067
  H      3.148091   -0.805285    3.081321
  H      1.211690   -2.147208    4.047254
  H     -2.007476   -1.134970    2.335672
  H     -1.483831   -2.549418    1.425340
  H     -1.383792   -2.548991    3.186863

 Total Charge           Charge          ....    0
 Multiplicity           Mult            ....    1
 Number of Electrons    NEL             ....   68
 Basis Dimension        Dim             ....  351

ORBITAL ENERGIES
----------------

  NO   OCC          E(Eh)            E(eV)
   0   2.0000     -15.626089      -425.2075
   1   2.0000     -15.571717      -423.7280
   2   2.0000     -11.264777      -306.5302
   3   2.0000     -11.243106      -305.9405
   4   2.0000     -11.227836      -305.5250
   5   2.0000     -11.224613      -305.4372
   6   2.0000     -11.218173      -305.2620
   7   2.0000     -11.204991      -304.9033
   8   2.0000     -11.204783      -304.8977
   9   2.0000      -1.363137       -37.0928
  10   2.0000      -1.112804       -30.2809
  11   2.0000      -1.067855       -29.0578
  12   2.0000      -1.033918       -28.1343
  13   2.0000      -0.943727       -25.6801
  14   2.0000      -0.919881       -25.0312
  15   2.0000      -0.844983       -22.9932
  16   2.0000      -0.781348       -21.2616
  17   2.0000      -0.729083       -19.8394
  18   2.0000      -0.724409       -19.7122
  19   2.0000      -0.617621       -16.8063
  20   2.0000      -0.610823       -16.6213
  21   2.0000      -0.599073       -16.3016
  22   2.0000      -0.580500       -15.7962
  23   2.0000      -0.558038       -15.1850
  24   2.0000      -0.552348       -15.0302
  25   2.0000      -0.547508       -14.8984
  26   2.0000      -0.533450       -14.5159
  27   2.0000      -0.525744       -14.3062
  28   2.0000      -0.481883       -13.1127
  29   2.0000      -0.474827       -12.9207
  30   2.0000      -0.469405       -12.7731
  31   2.0000      -0.435604       -11.8534
  32   2.0000      -0.341103        -9.2819
  33   2.0000      -0.328907        -8.9500
  34   0.0000       0.132555         3.6070
  35   0.0000       0.140782         3.8309
  36   0.0000       0.155313         4.2263
  37   0.0000       0.163927         4.4607
  38   0.0000       0.181246         4.9319

MULLIKEN ATOMIC CHARGES
-----------------------
   0 C :   -0.404508
   1 C :   -0.045225
   2 C :   -0.405065
   3 C :    0.065340
   4 N :   -0.238606
   5 N :   -0.109903
   6 C :   -0.110987
   7 C :   -0.018339
   8 C :   -0.427204
   9 H :    0.138937
  10 H :    0.123661
  11 H :    0.126395
  12 H :    0.088107
  13 H :    0.138664
  14 H :    0.126454
  15 H :    0.123741
  16 H :    0.252360
  17 H :    0.144631
  18 H :    0.147392
  19 H :    0.147394
  20 H :    0.136760
Sum of atomic charges:   -0.0000000

LOEWDIN ATOMIC CHARGES
----------------------
   0 C :   -0.287121
   1 C :   -0.270842
   2 C :   -0.287034
   3 C :   -0.234766
   4 N :    0.049728
   5 N :    0.126648
   6 C :   -0.229006
   7 C :   -0.200318
   8 C :   -0.275871
   9 H :    0.127497
  10 H :    0.119829
  11 H :    0.122597
  12 H :    0.155459
  13 H :    0.127467
  14 H :    0.122541
  15 H :    0.119847
  16 H :    0.185694
  17 H :    0.136033
  18 H :    0.130498
  19 H :    0.130489
  20 H :    0.130631

  Mayer bond orders larger than 0.1
B(  0-C ,  1-C ) :   0.9201 B(  0-C ,  9-H ) :   0.9319 B(  0-C , 10-H ) :   0.9375
B(  0-C , 11-H ) :   0.9375 B(  1-C ,  2-C ) :   0.9197 B(  1-C ,  3-C ) :   0.9196
B(  1-C , 12-H ) :   0.9402 B(  2-C , 13-H ) :   0.9321 B(  2-C , 14-H ) :   0.9375
B(  2-C , 15-H ) :   0.9375 B(  3-C ,  4-N ) :   1.5702 B(  3-C ,  7-C ) :   1.2437
B(  4-N ,  5-N ) :   1.0620 B(  4-N ,  6-C ) :   0.1163 B(  5-N ,  6-C ) :   1.2016
B(  5-N , 16-H ) :   0.8757 B(  6-C ,  7-C ) :   1.4429 B(  6-C , 17-H ) :   0.9056
B(  7-C ,  8-C ) :   0.8545 B(  8-C , 18-H ) :   0.9403 B(  8-C , 19-H ) :   0.9403
B(  8-C , 20-H ) :   0.9421

MP2 TOTAL ENERGY:     -382.630929209 Eh
FINAL SINGLE POINT ENERGY      -382.630929209060

DIPOLE MOMENT
-------------
                                X             Y             Z
Electronic contribution:      5.91092      -1.89546       6.38200
Nuclear contribution   :     -5.96226       1.43087      -5.69414
                        -----------------------------------------
Total Dipole Moment    :     -0.05134      -0.46460       0.68786
                        -----------------------------------------
Magnitude (a.u.)       :      0.83165
Magnitude (Debye)      :      2.11388

                             ****ORCA TERMINATED NORMALLY****
TOTAL RUN TIME: 0 days 0 hours 19 minutes 58 seconds 485 msec
