                         Program Version 3.0.3 - RELEASE   -
|  1> ! RI-MP2 RIJK def2-TZVP def2-TZVP/C def2-TZVP/JK TIGHTSCF
|  2> % maxcore 2000
|  3> % mp2 density relaxed end
|  4> *xyz 0 1
|  5>  C        0.6759910414     1.3680432105     0.2872943473
|  6>  C       -0.2497342315     0.2326535552    -0.1684042262
|  7>  C        0.2828167381    -0.4601217188    -1.3995275167
|  8>  O        1.4075673699    -1.3373938951    -1.2318947345
|  9>  C        0.1741183786    -1.8985025983    -1.6974358337
| 10>  C       -0.4824278824    -2.9307597943    -0.8108031110
| 11>  C        0.3234887630    -4.2451871963    -0.8005264560
| 12>  C       -0.2451973779    -5.2462561573     0.1767966591
| 13>  O       -0.5993497592    -6.3626629859    -0.1009074059
| 14>  H        1.6703442879     0.9793804982     0.5259597759
| 15>  H        0.7910671581     2.1246463738    -0.4963950106
| 16>  H        0.2800993883     1.8655367193     1.1772556164
| 17>  H       -0.3748271555    -0.4873660345     0.6453831856
| 18>  H       -1.2462833526     0.6309105589    -0.3997355471
| 19>  H        0.3854600737     0.2015448591    -2.2642586500
| 20>  H        0.2011430131    -2.1816559124    -2.7530617194
| 21>  H       -0.5720997158    -2.5509688604     0.2113003773
| 22>  H       -1.4989107038    -3.1207510784    -1.1773829049
| 23>  H        0.3625144414    -4.7043647176    -1.7924922561
| 24>  H        1.3499578562    -4.0106974645    -0.4859345444
| 25>  H       -0.3254351209    -4.8651799713     1.2232156249
| 26> *
| 27>
| 28>                          ****END OF INPUT****

CARTESIAN COORDINATES (ANGSTROEM)
---------------------------------
  C      0.675991    1.368043    0.287294
  C     -0.249734    0.232654   -0.168404
  C      0.282817   -0.460122   -1.399528
  O      1.407567   -1.337394   -1.231895
  C      0.174118   -1.898503   -1.697436
  C     -0.482428   -2.930760   -0.810803
  C      0.323489   -4.245187   -0.800526
  C     -0.245197   -5.246256    0.176797
  O     -0.599350   -6.362663   -0.100907
  H      1.670344    0.979380    0.525960
  H      0.791067    2.124646   -0.496395
  H      0.280099    1.865537    1.177256
  H     -0.374827   -0.487366    0.645383
  H     -1.246283    0.630911   -0.399736
  H      0.385460    0.201545   -2.264259
  H      0.201143   -2.181656   -2.753062
  H     -0.572100   -2.550969    0.211300
  H     -1.498911   -3.120751   -1.177383
  H      0.362514   -4.704365   -1.792492
  H      1.349958   -4.010697   -0.485935
  H     -0.325435   -4.865180    1.223216

 Total Charge           Charge          ....    0
 Multiplicity           Mult            ....    1
 Number of Electrons    NEL             ....   70
 Basis Dimension        Dim             ....  351

ORBITAL ENERGIES
----------------

  NO   OCC          E(Eh)            E(eV)
   0   2.0000     -20.570084      -559.7404
   1   2.0000     -20.557854      -559.4077
   2   2.0000     -11.332825      -308.3818
   3   2.0000     -11.295308      -307.3610
   4   2.0000     -11.292825      -307.2934
   5   2.0000     -11.250716      -306.1475
   6   2.0000     -11.244223      -305.9708
   7   2.0000     -11.238150      -305.8056
   8   2.0000     -11.223377      -305.4036
   9   2.0000      -1.414574       -38.4925
  10   2.0000      -1.396608       -38.0036
  11   2.0000      -1.085416       -29.5357
  12   2.0000      -1.059468       -28.8296
  13   2.0000      -0.963759       -26.2252
  14   2.0000      -0.913126       -24.8474
  15   2.0000      -0.846897       -23.0453
  16   2.0000      -0.795390       -21.6437
  17   2.0000      -0.784482       -21.3469
  18   2.0000      -0.707075       -19.2405
  19   2.0000      -0.677383       -18.4325
  20   2.0000      -0.656737       -17.8707
  21   2.0000      -0.629252       -17.1228
  22   2.0000      -0.616853       -16.7854
  23   2.0000      -0.605594       -16.4791
  24   2.0000      -0.579163       -15.7598
  25   2.0000      -0.557133       -15.1604
  26   2.0000      -0.544193       -14.8082
  27   2.0000      -0.531114       -14.4523
  28   2.0000      -0.518898       -14.1199
  29   2.0000      -0.501889       -13.6571
  30   2.0000      -0.498642       -13.5687
  31   2.0000      -0.488675       -13.2975
  32   2.0000      -0.452000       -12.2996
  33   2.0000      -0.433098       -11.7852
  34   2.0000      -0.414825       -11.2880
  35   0.0000       0.129557         3.5254
  36   0.0000       0.137977         3.7546
  37   0.0000       0.148227         4.0335
  38   0.0000       0.150830         4.1043
  39   0.0000       0.163861         4.4589

MULLIKEN ATOMIC CHARGES
-----------------------
   0 C :   -0.398351
   1 C :   -0.186790
   2 C :    0.029035
   3 O :   -0.349511
   4 C :    0.066633
   5 C :   -0.283803
   6 C :   -0.148129
   7 C :    0.085661
   8 O :   -0.262551
   9 H :    0.143031
  10 H :    0.124325
  11 H :    0.135780
  12 H :    0.107824
  13 H :    0.112461
  14 H :    0.113968
  15 H :    0.121417
  16 H :    0.121907
  17 H :    0.129799
  18 H :    0.122691
  19 H :    0.143893
  20 H :    0.070710
Sum of atomic charges:   -0.0000000

LOEWDIN ATOMIC CHARGES
----------------------
   0 C :   -0.311328
   1 C :   -0.277638
   2 C :   -0.266064
   3 O :    0.155799
   4 C :   -0.270714
   5 C :   -0.244248
   6 C :   -0.254777
   7 C :   -0.298265
   8 O :    0.131290
   9 H :    0.126992
  10 H :    0.121773
  11 H :    0.121770
  12 H :    0.138295
  13 H :    0.143551
  14 H :    0.139946
  15 H :    0.140478
  16 H :    0.142275
  17 H :    0.148182
  18 H :    0.145468
  19 H :    0.158111
  20 H :    0.109103

  Mayer bond orders larger than 0.1
B(  0-C ,  1-C ) :   0.9250 B(  0-C ,  9-H ) :   0.9362 B(  0-C , 10-H ) :   0.9378
B(  0-C , 11-H ) :   0.9401 B(  1-C ,  2-C ) :   0.9107 B(  1-C , 12-H ) :   0.9367
B(  1-C , 13-H ) :   0.9235 B(  2-C ,  3-O ) :   0.8766 B(  2-C ,  4-C ) :   0.9953
B(  2-C , 14-H ) :   0.9117 B(  3-O ,  4-C ) :   0.8774 B(  4-C ,  5-C ) :   0.8986
B(  4-C , 15-H ) :   0.9093 B(  5-C ,  6-C ) :   0.9067 B(  5-C , 16-H ) :   0.9426
B(  5-C , 17-H ) :   0.9185 B(  6-C ,  7-C ) :   0.8766 B(  6-C , 18-H ) :   0.9036
B(  6-C , 19-H ) :   0.9101 B(  7-C ,  8-O ) :   2.0077 B(  7-C , 20-H ) :   0.9409

MP2 TOTAL ENERGY:     -423.508496738 Eh
FINAL SINGLE POINT ENERGY      -423.508496738397

DIPOLE MOMENT
-------------
                                X             Y             Z
Electronic contribution:      0.39964      -9.78647      -1.80372
Nuclear contribution   :     -0.76459      10.98557       1.78086
                        -----------------------------------------
Total Dipole Moment    :     -0.36494       1.19910      -0.02287
                        -----------------------------------------
Magnitude (a.u.)       :      1.25362
Magnitude (Debye)      :      3.18644

                             ****ORCA TERMINATED NORMALLY****
TOTAL RUN TIME: 0 days 0 hours 25 minutes 31 seconds 452 msec
