                         Program Version 3.0.3 - RELEASE   -
|  1> ! RI-MP2 RIJK def2-TZVP def2-TZVP/C def2-TZVP/JK TIGHTSCF
|  2> % maxcore 2000
|  3> % mp2 density relaxed end
|  4> *xyz 0 1
|  5>  C       -0.0115344060     1.4947842836     0.0156243850
|  6>  C        0.0055085995    -0.0046266471     0.0137245136
|  7>  N        0.1140597910    -0.6107053677    -1.1807751175
|  8>  C        0.1297151838    -1.9352626641    -1.1872939049
|  9>  C        0.0381572344    -2.6908183075    -0.0102305031
| 10>  C       -0.0712533123    -1.9602750803     1.1775744351
| 11>  N       -0.0878837859    -0.6323431946     1.1951093502
| 12>  C        0.0555169779    -4.1153334134    -0.0237670035
| 13>  N        0.0696903621    -5.2729130638    -0.0354877616
| 14>  H        0.9061593609     1.8802513006    -0.4399218427
| 15>  H       -0.8436985014     1.8606742365    -0.5941297772
| 16>  H       -0.1051630293     1.8743634702     1.0326070274
| 17>  H        0.2174257340    -2.4287038059    -2.1520486175
| 18>  H       -0.1468613385    -2.4709058363     2.1342109867
| 19> *
| 20>
| 21>                          ****END OF INPUT****

CARTESIAN COORDINATES (ANGSTROEM)
---------------------------------
  C     -0.011534    1.494784    0.015624
  C      0.005509   -0.004627    0.013725
  N      0.114060   -0.610705   -1.180775
  C      0.129715   -1.935263   -1.187294
  C      0.038157   -2.690818   -0.010231
  C     -0.071253   -1.960275    1.177574
  N     -0.087884   -0.632343    1.195109
  C      0.055517   -4.115333   -0.023767
  N      0.069690   -5.272913   -0.035488
  H      0.906159    1.880251   -0.439922
  H     -0.843699    1.860674   -0.594130
  H     -0.105163    1.874363    1.032607
  H      0.217426   -2.428704   -2.152049
  H     -0.146861   -2.470906    2.134211

 Total Charge           Charge          ....    0
 Multiplicity           Mult            ....    1
 Number of Electrons    NEL             ....   62
 Basis Dimension        Dim             ....  309

ORBITAL ENERGIES
----------------

  NO   OCC          E(Eh)            E(eV)
   0   2.0000     -15.594099      -424.3370
   1   2.0000     -15.593747      -424.3274
   2   2.0000     -15.586204      -424.1222
   3   2.0000     -11.351005      -308.8766
   4   2.0000     -11.333245      -308.3933
   5   2.0000     -11.333095      -308.3892
   6   2.0000     -11.297800      -307.4288
   7   2.0000     -11.290595      -307.2327
   8   2.0000     -11.243221      -305.9436
   9   2.0000      -1.342773       -36.5387
  10   2.0000      -1.233654       -33.5694
  11   2.0000      -1.223315       -33.2881
  12   2.0000      -1.127855       -30.6905
  13   2.0000      -1.017897       -27.6984
  14   2.0000      -0.927948       -25.2507
  15   2.0000      -0.893507       -24.3136
  16   2.0000      -0.786776       -21.4093
  17   2.0000      -0.746222       -20.3057
  18   2.0000      -0.712155       -19.3787
  19   2.0000      -0.630811       -17.1653
  20   2.0000      -0.630089       -17.1456
  21   2.0000      -0.589828       -16.0500
  22   2.0000      -0.574268       -15.6266
  23   2.0000      -0.571614       -15.5544
  24   2.0000      -0.566569       -15.4171
  25   2.0000      -0.509326       -13.8595
  26   2.0000      -0.503132       -13.6909
  27   2.0000      -0.490342       -13.3429
  28   2.0000      -0.452422       -12.3110
  29   2.0000      -0.431145       -11.7321
  30   2.0000      -0.382480       -10.4078
  31   0.0000       0.061288         1.6677
  32   0.0000       0.069375         1.8878
  33   0.0000       0.131685         3.5833
  34   0.0000       0.146169         3.9775
  35   0.0000       0.162410         4.4194

MULLIKEN ATOMIC CHARGES
-----------------------
   0 C :   -0.400721
   1 C :    0.246900
   2 N :   -0.236414
   3 C :   -0.076032
   4 C :    0.229740
   5 C :   -0.068057
   6 N :   -0.236231
   7 C :   -0.192985
   8 N :   -0.038269
   9 H :    0.148982
  10 H :    0.149038
  11 H :    0.154542
  12 H :    0.159742
  13 H :    0.159765
Sum of atomic charges:   -0.0000000

LOEWDIN ATOMIC CHARGES
----------------------
   0 C :   -0.263530
   1 C :   -0.298168
   2 N :    0.170734
   3 C :   -0.142437
   4 C :   -0.158019
   5 C :   -0.141534
   6 N :    0.167718
   7 C :   -0.146183
   8 N :    0.091976
   9 H :    0.139641
  10 H :    0.139602
  11 H :    0.134210
  12 H :    0.152962
  13 H :    0.153028

  Mayer bond orders larger than 0.1
B(  0-C ,  1-C ) :   0.9029 B(  0-C ,  9-H ) :   0.9219 B(  0-C , 10-H ) :   0.9221
B(  0-C , 11-H ) :   0.9503 B(  1-C ,  2-N ) :   1.3223 B(  1-C ,  6-N ) :   1.3947
B(  2-N ,  3-C ) :   1.4451 B(  3-C ,  4-C ) :   1.2656 B(  3-C , 12-H ) :   0.9443
B(  4-C ,  5-C ) :   1.2786 B(  4-C ,  7-C ) :   0.8917 B(  5-C ,  6-N ) :   1.4133
B(  5-C , 13-H ) :   0.9453 B(  7-C ,  8-N ) :   2.8392

MP2 TOTAL ENERGY:     -395.096217368 Eh
FINAL SINGLE POINT ENERGY      -395.096217367847

DIPOLE MOMENT
-------------
                                X             Y             Z
Electronic contribution:      0.08607      -7.56203      -0.00909
Nuclear contribution   :     -0.09685       8.58564       0.00109
                        -----------------------------------------
Total Dipole Moment    :     -0.01078       1.02361      -0.00800
                        -----------------------------------------
Magnitude (a.u.)       :      1.02369
Magnitude (Debye)      :      2.60203

                             ****ORCA TERMINATED NORMALLY****
TOTAL RUN TIME: 0 days 0 hours 14 minutes 29 seconds 950 msec
