                         Program Version 3.0.3 - RELEASE   -
|  1> ! RI-MP2 RIJK def2-TZVP def2-TZVP/C def2-TZVP/JK TIGHTSCF
|  2> % maxcore 2000
|  3> % mp2 density relaxed end
|  4> *xyz 0 1
|  5>  O       -0.1799169705     0.0528191067    -0.2579396238
|  6>  C       -0.0843004083     1.2101389998     0.0008942016
|  7>  O       -1.0539715379     2.0546485876     0.4815702067
|  8>  C       -0.1370160502     3.2036794905     0.5079328936
|  9>  C        0.9768256854     2.3060593044    -0.0262034096
| 10>  C        2.4269916593     2.2258061893     0.5023673527
| 11>  C        2.8281488241     1.4313808217    -0.7616374980
| 12>  C        1.9566099769     2.6397241191    -1.1740332138
| 13>  O        2.7125268019     3.4903202620    -0.2208256142
| 14>  H       -0.4886999206     3.9943065098    -0.1571430755
| 15>  H       -0.0164986174     3.5788476124     1.5256873842
| 16>  H        2.7698563017     2.1387000185     1.5330325216
| 17>  H        3.8794109045     1.5172754239    -1.0354034788
| 18>  H        2.4105626189     0.4315835493    -0.8913264661
| 19>  H        1.7340125522     3.0501962450    -2.1586028705
| 20> *
| 21>
| 22>                          ****END OF INPUT****

CARTESIAN COORDINATES (ANGSTROEM)
---------------------------------
  O     -0.179917    0.052819   -0.257940
  C     -0.084300    1.210139    0.000894
  O     -1.053972    2.054649    0.481570
  C     -0.137016    3.203679    0.507933
  C      0.976826    2.306059   -0.026203
  C      2.426992    2.225806    0.502367
  C      2.828149    1.431381   -0.761637
  C      1.956610    2.639724   -1.174033
  O      2.712527    3.490320   -0.220826
  H     -0.488700    3.994307   -0.157143
  H     -0.016499    3.578848    1.525687
  H      2.769856    2.138700    1.533033
  H      3.879411    1.517275   -1.035403
  H      2.410563    0.431584   -0.891326
  H      1.734013    3.050196   -2.158603

 Total Charge           Charge          ....    0
 Multiplicity           Mult            ....    1
 Number of Electrons    NEL             ....   66
 Basis Dimension        Dim             ....  315

ORBITAL ENERGIES
----------------

  NO   OCC          E(Eh)            E(eV)
   0   2.0000     -20.609967      -560.8257
   1   2.0000     -20.576951      -559.9273
   2   2.0000     -20.563270      -559.5550
   3   2.0000     -11.393068      -310.0211
   4   2.0000     -11.332719      -308.3790
   5   2.0000     -11.332637      -308.3767
   6   2.0000     -11.314161      -307.8740
   7   2.0000     -11.287128      -307.1384
   8   2.0000     -11.258993      -306.3728
   9   2.0000      -1.472364       -40.0651
  10   2.0000      -1.423317       -38.7304
  11   2.0000      -1.388713       -37.7888
  12   2.0000      -1.115555       -30.3558
  13   2.0000      -1.014318       -27.6010
  14   2.0000      -0.919906       -25.0319
  15   2.0000      -0.915014       -24.8988
  16   2.0000      -0.848153       -23.0794
  17   2.0000      -0.736207       -20.0332
  18   2.0000      -0.717066       -19.5124
  19   2.0000      -0.696265       -18.9463
  20   2.0000      -0.693084       -18.8598
  21   2.0000      -0.686398       -18.6778
  22   2.0000      -0.614424       -16.7193
  23   2.0000      -0.581594       -15.8260
  24   2.0000      -0.580733       -15.8025
  25   2.0000      -0.570880       -15.5344
  26   2.0000      -0.540983       -14.7209
  27   2.0000      -0.511718       -13.9246
  28   2.0000      -0.506262       -13.7761
  29   2.0000      -0.487928       -13.2772
  30   2.0000      -0.463042       -12.6000
  31   2.0000      -0.458579       -12.4786
  32   2.0000      -0.427963       -11.6455
  33   0.0000       0.132961         3.6181
  34   0.0000       0.137633         3.7452
  35   0.0000       0.157045         4.2734
  36   0.0000       0.166075         4.5191
  37   0.0000       0.169982         4.6254

MULLIKEN ATOMIC CHARGES
-----------------------
   0 O :   -0.264741
   1 C :    0.265283
   2 O :   -0.233932
   3 C :   -0.031905
   4 C :   -0.034575
   5 C :   -0.040069
   6 C :   -0.167950
   7 C :   -0.040080
   8 O :   -0.306122
   9 H :    0.130172
  10 H :    0.130173
  11 H :    0.154133
  12 H :    0.132353
  13 H :    0.153130
  14 H :    0.154131
Sum of atomic charges:    0.0000000

LOEWDIN ATOMIC CHARGES
----------------------
   0 O :    0.156487
   1 C :   -0.427501
   2 O :    0.236902
   3 C :   -0.183076
   4 C :   -0.180763
   5 C :   -0.180253
   6 C :   -0.179175
   7 C :   -0.180257
   8 O :    0.134283
   9 H :    0.130232
  10 H :    0.130233
  11 H :    0.131849
  12 H :    0.137425
  13 H :    0.141766
  14 H :    0.131848

  Mayer bond orders larger than 0.1
B(  0-O ,  1-C ) :   2.0241 B(  1-C ,  2-O ) :   1.1142 B(  1-C ,  4-C ) :   0.8966
B(  2-O ,  3-C ) :   0.8806 B(  3-C ,  4-C ) :   0.9555 B(  3-C ,  9-H ) :   0.9154
B(  3-C , 10-H ) :   0.9154 B(  4-C ,  5-C ) :   0.9089 B(  4-C ,  7-C ) :   0.9089
B(  5-C ,  6-C ) :   0.9251 B(  5-C ,  7-C ) :   0.1008 B(  5-C ,  8-O ) :   0.9198
B(  5-C , 11-H ) :   0.8781 B(  6-C ,  7-C ) :   0.9251 B(  6-C , 12-H ) :   0.9175
B(  6-C , 13-H ) :   0.9081 B(  7-C ,  8-O ) :   0.9198 B(  7-C , 14-H ) :   0.8781

MP2 TOTAL ENERGY:     -456.969771213 Eh
FINAL SINGLE POINT ENERGY      -456.969771213122

DIPOLE MOMENT
-------------
                                X             Y             Z
Electronic contribution:     -3.24551      -1.51646       0.53625
Nuclear contribution   :      3.83853       2.15451      -0.54517
                        -----------------------------------------
Total Dipole Moment    :      0.59302       0.63805      -0.00892
                        -----------------------------------------
Magnitude (a.u.)       :      0.87112
Magnitude (Debye)      :      2.21422

                             ****ORCA TERMINATED NORMALLY****
TOTAL RUN TIME: 0 days 0 hours 15 minutes 32 seconds 691 msec
