                         Program Version 3.0.3 - RELEASE   -
|  1> ! RI-MP2 RIJK def2-TZVP def2-TZVP/C def2-TZVP/JK TIGHTSCF
|  2> % maxcore 2000
|  3> % mp2 density relaxed end
|  4> *xyz 0 1
|  5>  C        0.0135730942     1.6155765601     0.0079743028
|  6>  C        1.5503309495     2.0059327912     0.0094892281
|  7>  C        1.8663867161     1.5454876372    -1.4015935331
|  8>  C        1.9261111216     0.1874484199    -1.3402438249
|  9>  C        0.5597464663    -0.4569363051    -1.5164395670
| 10>  C        0.0622602410     0.0740132364    -0.0933438808
| 11>  N        1.1665140299    -0.2855356175     0.8651838346
| 12>  C        2.0974184743     0.8914535954     0.9115287768
| 13>  C        2.3928586206    -0.2512695725     0.0310064389
| 14>  H       -0.4146722803     1.8900627201     0.9795825645
| 15>  H       -0.5716820676     2.1010169546    -0.7792821690
| 16>  H        1.7528946669     3.0309642817     0.3261290628
| 17>  H        1.3706753867     2.0496817020    -2.2301951311
| 18>  H       -0.0346699651    -0.0554627098    -2.3400266454
| 19>  H        0.5381223142    -1.5512324938    -1.5392666085
| 20>  H       -0.8708546619    -0.4016190385     0.2165555925
| 21>  H        2.5750896539     1.0998807943     1.8618290573
| 22>  H        3.1476123997    -1.0148631359     0.1919152816
| 23> *
| 24>
| 25>                          ****END OF INPUT****

CARTESIAN COORDINATES (ANGSTROEM)
---------------------------------
  C      0.013573    1.615577    0.007974
  C      1.550331    2.005933    0.009489
  C      1.866387    1.545488   -1.401594
  C      1.926111    0.187448   -1.340244
  C      0.559746   -0.456936   -1.516440
  C      0.062260    0.074013   -0.093344
  N      1.166514   -0.285536    0.865184
  C      2.097418    0.891454    0.911529
  C      2.392859   -0.251270    0.031006
  H     -0.414672    1.890063    0.979583
  H     -0.571682    2.101017   -0.779282
  H      1.752895    3.030964    0.326129
  H      1.370675    2.049682   -2.230195
  H     -0.034670   -0.055463   -2.340027
  H      0.538122   -1.551232   -1.539267
  H     -0.870855   -0.401619    0.216556
  H      2.575090    1.099881    1.861829
  H      3.147612   -1.014863    0.191915

 Total Charge           Charge          ....    0
 Multiplicity           Mult            ....    1
 Number of Electrons    NEL             ....   64
 Basis Dimension        Dim             ....  333

ORBITAL ENERGIES
----------------

  NO   OCC          E(Eh)            E(eV)
   0   2.0000     -15.555794      -423.2947
   1   2.0000     -11.265464      -306.5489
   2   2.0000     -11.258427      -306.3574
   3   2.0000     -11.255580      -306.2799
   4   2.0000     -11.251649      -306.1729
   5   2.0000     -11.246356      -306.0289
   6   2.0000     -11.239664      -305.8468
   7   2.0000     -11.237663      -305.7924
   8   2.0000     -11.232503      -305.6519
   9   2.0000      -1.303067       -35.4583
  10   2.0000      -1.107753       -30.1435
  11   2.0000      -1.039240       -28.2792
  12   2.0000      -1.031244       -28.0616
  13   2.0000      -0.877616       -23.8811
  14   2.0000      -0.855083       -23.2680
  15   2.0000      -0.781427       -21.2637
  16   2.0000      -0.774035       -21.0626
  17   2.0000      -0.741257       -20.1706
  18   2.0000      -0.684357       -18.6223
  19   2.0000      -0.627748       -17.0819
  20   2.0000      -0.609337       -16.5809
  21   2.0000      -0.594511       -16.1775
  22   2.0000      -0.574844       -15.6423
  23   2.0000      -0.527227       -14.3466
  24   2.0000      -0.514278       -13.9942
  25   2.0000      -0.498326       -13.5601
  26   2.0000      -0.491145       -13.3647
  27   2.0000      -0.476238       -12.9591
  28   2.0000      -0.444206       -12.0875
  29   2.0000      -0.428965       -11.6727
  30   2.0000      -0.374593       -10.1932
  31   2.0000      -0.312302        -8.4982
  32   0.0000       0.092280         2.5111
  33   0.0000       0.137906         3.7526
  34   0.0000       0.163502         4.4491
  35   0.0000       0.170542         4.6407
  36   0.0000       0.176939         4.8147

MULLIKEN ATOMIC CHARGES
-----------------------
   0 C :   -0.311382
   1 C :    0.037791
   2 C :   -0.236386
   3 C :    0.119512
   4 C :   -0.316851
   5 C :    0.079209
   6 N :   -0.218514
   7 C :   -0.191026
   8 C :   -0.128200
   9 H :    0.131560
  10 H :    0.128683
  11 H :    0.135714
  12 H :    0.122924
  13 H :    0.124552
  14 H :    0.124100
  15 H :    0.129932
  16 H :    0.135391
  17 H :    0.132991
Sum of atomic charges:    0.0000000

LOEWDIN ATOMIC CHARGES
----------------------
   0 C :   -0.195419
   1 C :   -0.193625
   2 C :   -0.095782
   3 C :   -0.146395
   4 C :   -0.187488
   5 C :   -0.226259
   6 N :    0.146808
   7 C :   -0.179104
   8 C :   -0.192299
   9 H :    0.150443
  10 H :    0.137642
  11 H :    0.143591
  12 H :    0.138777
  13 H :    0.140464
  14 H :    0.137484
  15 H :    0.145762
  16 H :    0.138120
  17 H :    0.137280

  Mayer bond orders larger than 0.1
B(  0-C ,  1-C ) :   0.8521 B(  0-C ,  5-C ) :   0.9468 B(  0-C ,  9-H ) :   0.8979
B(  0-C , 10-H ) :   0.9177 B(  1-C ,  2-C ) :   0.9492 B(  1-C ,  7-C ) :   0.8653
B(  1-C , 11-H ) :   0.9052 B(  2-C ,  3-C ) :   1.5991 B(  2-C , 12-H ) :   0.9378
B(  3-C ,  4-C ) :   0.9366 B(  3-C ,  8-C ) :   0.8993 B(  4-C ,  5-C ) :   0.8902
B(  4-C , 13-H ) :   0.9158 B(  4-C , 14-H ) :   0.9038 B(  5-C ,  6-N ) :   0.8980
B(  5-C , 15-H ) :   0.9102 B(  6-N ,  7-C ) :   0.9264 B(  6-N ,  8-C ) :   0.8964
B(  7-C ,  8-C ) :   0.9579 B(  7-C , 16-H ) :   0.9116 B(  8-C , 17-H ) :   0.9126

MP2 TOTAL ENERGY:     -364.083474698 Eh
FINAL SINGLE POINT ENERGY      -364.083474698349

DIPOLE MOMENT
-------------
                                X             Y             Z
Electronic contribution:      3.12816      -1.21635       0.65113
Nuclear contribution   :     -3.57332       1.69869      -0.83737
                        -----------------------------------------
Total Dipole Moment    :     -0.44516       0.48235      -0.18623
                        -----------------------------------------
Magnitude (a.u.)       :      0.68228
Magnitude (Debye)      :      1.73423

                             ****ORCA TERMINATED NORMALLY****
TOTAL RUN TIME: 0 days 0 hours 23 minutes 29 seconds 707 msec
