                         Program Version 3.0.3 - RELEASE   -
|  1> ! RI-MP2 RIJK def2-TZVP def2-TZVP/C def2-TZVP/JK TIGHTSCF
|  2> % maxcore 2000
|  3> % mp2 density relaxed end
|  4> *xyz 0 1
|  5>  C       -1.1114302131    -0.2272309973    -0.7834652684
|  6>  C       -1.4310179536    -0.6273001728     0.6627774764
|  7>  C       -0.1974667323    -0.8216891234     1.5250421647
|  8>  C        0.4781157594     0.4527149463     2.0036464587
|  9>  O       -0.3625443338     1.1618905507     2.8983707803
| 10>  O       -0.3355973850    -1.7687256251     2.6114251654
| 11>  C        0.5769363697    -2.0770837153     1.5466497075
| 12>  C        0.2800729315    -3.2974715245     0.7123502212
| 13>  H       -0.5185044853    -0.9957706177    -1.2900559791
| 14>  H       -2.0327531172    -0.0839905436    -1.3556314714
| 15>  H       -0.5490870035     0.7108249531    -0.8308606054
| 16>  H       -2.0426319464     0.1483369139     1.1373318510
| 17>  H       -2.0234460654    -1.5458151364     0.6804252104
| 18>  H        1.4402324699     0.2017900365     2.4742290181
| 19>  H        0.6798151681     1.1306503890     1.1678239287
| 20>  H       -0.5813350495     0.5425412635     3.6050626104
| 21>  H        1.6249905124    -1.9938888823     1.8452397421
| 22>  H       -0.7629852677    -3.3349128348     0.3937506353
| 23>  H        0.9197580414    -3.3128525980    -0.1766638212
| 24>  H        0.4909163706    -4.2039905017     1.2893908652
| 25> *
| 26>
| 27>                          ****END OF INPUT****

CARTESIAN COORDINATES (ANGSTROEM)
---------------------------------
  C     -1.111430   -0.227231   -0.783465
  C     -1.431018   -0.627300    0.662777
  C     -0.197467   -0.821689    1.525042
  C      0.478116    0.452715    2.003646
  O     -0.362544    1.161891    2.898371
  O     -0.335597   -1.768726    2.611425
  C      0.576936   -2.077084    1.546650
  C      0.280073   -3.297472    0.712350
  H     -0.518504   -0.995771   -1.290056
  H     -2.032753   -0.083991   -1.355631
  H     -0.549087    0.710825   -0.830861
  H     -2.042632    0.148337    1.137332
  H     -2.023446   -1.545815    0.680425
  H      1.440232    0.201790    2.474229
  H      0.679815    1.130650    1.167824
  H     -0.581335    0.542541    3.605063
  H      1.624991   -1.993889    1.845240
  H     -0.762985   -3.334913    0.393751
  H      0.919758   -3.312853   -0.176664
  H      0.490916   -4.203991    1.289391

 Total Charge           Charge          ....    0
 Multiplicity           Mult            ....    1
 Number of Electrons    NEL             ....   64
 Basis Dimension        Dim             ....  320

ORBITAL ENERGIES
----------------

  NO   OCC          E(Eh)            E(eV)
   0   2.0000     -20.564028      -559.5757
   1   2.0000     -20.554671      -559.3210
   2   2.0000     -11.291211      -307.2495
   3   2.0000     -11.288245      -307.1688
   4   2.0000     -11.279162      -306.9216
   5   2.0000     -11.229608      -305.5732
   6   2.0000     -11.227127      -305.5057
   7   2.0000     -11.222833      -305.3888
   8   2.0000      -1.410237       -38.3745
   9   2.0000      -1.357530       -36.9403
  10   2.0000      -1.060671       -28.8623
  11   2.0000      -1.013716       -27.5846
  12   2.0000      -0.969814       -26.3900
  13   2.0000      -0.879606       -23.9353
  14   2.0000      -0.848475       -23.0882
  15   2.0000      -0.760569       -20.6961
  16   2.0000      -0.710048       -19.3214
  17   2.0000      -0.672286       -18.2938
  18   2.0000      -0.636164       -17.3109
  19   2.0000      -0.612523       -16.6676
  20   2.0000      -0.602926       -16.4064
  21   2.0000      -0.585650       -15.9363
  22   2.0000      -0.574830       -15.6419
  23   2.0000      -0.566105       -15.4045
  24   2.0000      -0.536856       -14.6086
  25   2.0000      -0.525780       -14.3072
  26   2.0000      -0.505538       -13.7564
  27   2.0000      -0.496744       -13.5171
  28   2.0000      -0.480491       -13.0748
  29   2.0000      -0.462359       -12.5814
  30   2.0000      -0.431717       -11.7476
  31   2.0000      -0.419002       -11.4016
  32   0.0000       0.131842         3.5876
  33   0.0000       0.160253         4.3607
  34   0.0000       0.162647         4.4258
  35   0.0000       0.169986         4.6256
  36   0.0000       0.186083         5.0636

MULLIKEN ATOMIC CHARGES
-----------------------
   0 C :   -0.430978
   1 C :   -0.209251
   2 C :    0.105732
   3 C :    0.007249
   4 O :   -0.474723
   5 O :   -0.362125
   6 C :    0.043069
   7 C :   -0.395592
   8 H :    0.129810
   9 H :    0.140196
  10 H :    0.129449
  11 H :    0.136929
  12 H :    0.126982
  13 H :    0.100441
  14 H :    0.104982
  15 H :    0.327459
  16 H :    0.105799
  17 H :    0.138469
  18 H :    0.131284
  19 H :    0.144818
Sum of atomic charges:   -0.0000000

LOEWDIN ATOMIC CHARGES
----------------------
   0 C :   -0.309018
   1 C :   -0.250961
   2 C :   -0.314514
   3 C :   -0.304345
   4 O :   -0.041172
   5 O :    0.161719
   6 C :   -0.271921
   7 C :   -0.292267
   8 H :    0.121133
   9 H :    0.124024
  10 H :    0.120973
  11 H :    0.149251
  12 H :    0.142361
  13 H :    0.123980
  14 H :    0.132267
  15 H :    0.180916
  16 H :    0.137183
  17 H :    0.128572
  18 H :    0.130439
  19 H :    0.131382

  Mayer bond orders larger than 0.1
B(  0-C ,  1-C ) :   0.9026 B(  0-C ,  8-H ) :   0.9384 B(  0-C ,  9-H ) :   0.9392
B(  0-C , 10-H ) :   0.9381 B(  1-C ,  2-C ) :   0.8617 B(  1-C , 11-H ) :   0.9289
B(  1-C , 12-H ) :   0.9423 B(  2-C ,  3-C ) :   0.9452 B(  2-C ,  5-O ) :   0.8493
B(  2-C ,  6-C ) :   0.9835 B(  3-C ,  4-O ) :   0.9168 B(  3-C , 13-H ) :   0.9114
B(  3-C , 14-H ) :   0.9230 B(  4-O , 15-H ) :   0.8347 B(  5-O ,  6-C ) :   0.8768
B(  6-C ,  7-C ) :   0.8962 B(  6-C , 16-H ) :   0.8965 B(  7-C , 17-H ) :   0.9418
B(  7-C , 18-H ) :   0.9277 B(  7-C , 19-H ) :   0.9322

MP2 TOTAL ENERGY:     -385.497174752 Eh
FINAL SINGLE POINT ENERGY      -385.497174752398

DIPOLE MOMENT
-------------
                                X             Y             Z
Electronic contribution:      0.48370       1.57028       6.92464
Nuclear contribution   :     -0.10431      -2.06661      -7.58710
                        -----------------------------------------
Total Dipole Moment    :      0.37939      -0.49633      -0.66246
                        -----------------------------------------
Magnitude (a.u.)       :      0.91056
Magnitude (Debye)      :      2.31447

                             ****ORCA TERMINATED NORMALLY****
TOTAL RUN TIME: 0 days 0 hours 13 minutes 15 seconds 918 msec
