                         Program Version 3.0.3 - RELEASE   -
|  1> ! RI-MP2 RIJK def2-TZVP def2-TZVP/C def2-TZVP/JK TIGHTSCF
|  2> % maxcore 2000
|  3> % mp2 density relaxed end
|  4> *xyz 0 1
|  5>  O       -0.0104373068     0.5899466794     1.3345975727
|  6>  C        0.0174753182     1.4322820986     0.4664447189
|  7>  N        1.0998155631     1.7603105287    -0.3001889136
|  8>  C        2.3667322821     1.0996428138    -0.2511306473
|  9>  C        3.0806971147     0.9525440554     1.0692351418
| 10>  C        3.6734851679     1.8502782554     0.0147407279
| 11>  C        4.7289465518     1.2802426202    -0.9304840437
| 12>  C        4.0018252425     0.1569380445    -1.6440509672
| 13>  C        2.7186255653     0.0784904148    -1.2875344566
| 14>  H       -0.8590065339     2.0607285865     0.2038728862
| 15>  H        0.9484760880     2.4295167447    -1.0406150817
| 16>  H        2.6250451404     1.4360760723     1.9248383737
| 17>  H        3.5412851893    -0.0066005506     1.2798961384
| 18>  H        3.6483280341     2.9175265788     0.2011669089
| 19>  H        5.0965598130     2.0351222944    -1.6383987994
| 20>  H        5.6102831669     0.9131801092    -0.3888069394
| 21>  H        4.5032641599    -0.5139895058    -2.3322647461
| 22>  H        1.9937483735    -0.6403605903    -1.6514751735
| 23> *
| 24>
| 25>                          ****END OF INPUT****

CARTESIAN COORDINATES (ANGSTROEM)
---------------------------------
  O     -0.010437    0.589947    1.334598
  C      0.017475    1.432282    0.466445
  N      1.099816    1.760311   -0.300189
  C      2.366732    1.099643   -0.251131
  C      3.080697    0.952544    1.069235
  C      3.673485    1.850278    0.014741
  C      4.728947    1.280243   -0.930484
  C      4.001825    0.156938   -1.644051
  C      2.718626    0.078490   -1.287534
  H     -0.859007    2.060729    0.203873
  H      0.948476    2.429517   -1.040615
  H      2.625045    1.436076    1.924838
  H      3.541285   -0.006601    1.279896
  H      3.648328    2.917527    0.201167
  H      5.096560    2.035122   -1.638399
  H      5.610283    0.913180   -0.388807
  H      4.503264   -0.513990   -2.332265
  H      1.993748   -0.640361   -1.651475

 Total Charge           Charge          ....    0
 Multiplicity           Mult            ....    1
 Number of Electrons    NEL             ....   66
 Basis Dimension        Dim             ....  333

ORBITAL ENERGIES
----------------

  NO   OCC          E(Eh)            E(eV)
   0   2.0000     -20.522869      -558.4556
   1   2.0000     -15.592504      -424.2936
   2   2.0000     -11.349215      -308.8279
   3   2.0000     -11.276940      -306.8611
   4   2.0000     -11.237563      -305.7896
   5   2.0000     -11.235509      -305.7337
   6   2.0000     -11.232213      -305.6441
   7   2.0000     -11.230240      -305.5904
   8   2.0000     -11.229921      -305.5817
   9   2.0000      -1.383354       -37.6430
  10   2.0000      -1.253081       -34.0981
  11   2.0000      -1.165758       -31.7219
  12   2.0000      -1.042405       -28.3653
  13   2.0000      -0.967021       -26.3140
  14   2.0000      -0.873977       -23.7821
  15   2.0000      -0.811353       -22.0780
  16   2.0000      -0.778317       -21.1791
  17   2.0000      -0.745411       -20.2837
  18   2.0000      -0.724005       -19.7012
  19   2.0000      -0.691138       -18.8068
  20   2.0000      -0.634162       -17.2564
  21   2.0000      -0.616830       -16.7848
  22   2.0000      -0.599970       -16.3260
  23   2.0000      -0.583793       -15.8858
  24   2.0000      -0.560250       -15.2452
  25   2.0000      -0.540627       -14.7112
  26   2.0000      -0.527396       -14.3512
  27   2.0000      -0.490166       -13.3381
  28   2.0000      -0.458565       -12.4782
  29   2.0000      -0.442956       -12.0534
  30   2.0000      -0.423622       -11.5273
  31   2.0000      -0.382362       -10.4046
  32   2.0000      -0.341677        -9.2975
  33   0.0000       0.128175         3.4878
  34   0.0000       0.145764         3.9665
  35   0.0000       0.153356         4.1730
  36   0.0000       0.173971         4.7340
  37   0.0000       0.177588         4.8324

MULLIKEN ATOMIC CHARGES
-----------------------
   0 O :   -0.347911
   1 C :    0.196332
   2 N :   -0.363273
   3 C :    0.274154
   4 C :   -0.275594
   5 C :   -0.139416
   6 C :   -0.167112
   7 C :   -0.178100
   8 C :   -0.246059
   9 H :    0.073965
  10 H :    0.238454
  11 H :    0.148284
  12 H :    0.138162
  13 H :    0.133362
  14 H :    0.120605
  15 H :    0.128328
  16 H :    0.129461
  17 H :    0.136358
Sum of atomic charges:   -0.0000000

LOEWDIN ATOMIC CHARGES
----------------------
   0 O :    0.070841
   1 C :   -0.430078
   2 N :    0.126049
   3 C :   -0.248959
   4 C :   -0.161803
   5 C :   -0.165966
   6 C :   -0.221384
   7 C :   -0.147680
   8 C :   -0.121498
   9 H :    0.108247
  10 H :    0.189726
  11 H :    0.144770
  12 H :    0.141789
  13 H :    0.145644
  14 H :    0.142522
  15 H :    0.146512
  16 H :    0.136915
  17 H :    0.144352

  Mayer bond orders larger than 0.1
B(  0-O ,  1-C ) :   1.9147 B(  1-C ,  2-N ) :   1.1340 B(  1-C ,  9-H ) :   0.9280
B(  2-N ,  3-C ) :   0.7142 B(  2-N , 10-H ) :   0.8682 B(  3-C ,  4-C ) :   0.8651
B(  3-C ,  5-C ) :   0.8362 B(  3-C ,  8-C ) :   0.9445 B(  4-C ,  5-C ) :   0.9054
B(  4-C , 11-H ) :   0.9278 B(  4-C , 12-H ) :   0.9198 B(  5-C ,  6-C ) :   0.9322
B(  5-C , 13-H ) :   0.9259 B(  6-C ,  7-C ) :   0.9620 B(  6-C , 14-H ) :   0.9087
B(  6-C , 15-H ) :   0.9116 B(  7-C ,  8-C ) :   1.7830 B(  7-C , 16-H ) :   0.9260
B(  8-C , 17-H ) :   0.9310

MP2 TOTAL ENERGY:     -401.271131619 Eh
FINAL SINGLE POINT ENERGY      -401.271131618576

DIPOLE MOMENT
-------------
                                X             Y             Z
Electronic contribution:     -4.88429      -0.42724       1.02156
Nuclear contribution   :      5.51839       1.25791      -2.03548
                        -----------------------------------------
Total Dipole Moment    :      0.63410       0.83067      -1.01392
                        -----------------------------------------
Magnitude (a.u.)       :      1.45606
Magnitude (Debye)      :      3.70102

                             ****ORCA TERMINATED NORMALLY****
TOTAL RUN TIME: 0 days 0 hours 16 minutes 25 seconds 337 msec
