                         Program Version 3.0.3 - RELEASE   -
|  1> ! RI-MP2 RIJK def2-TZVP def2-TZVP/C def2-TZVP/JK TIGHTSCF
|  2> % maxcore 2000
|  3> % mp2 density relaxed end
|  4> *xyz 0 1
|  5>  N        0.1444657986    -1.1170852349     0.0965863000
|  6>  C        0.0885488410     0.0367852981     0.0473472165
|  7>  C       -0.0300370500     1.4719121254    -0.0080055790
|  8>  C        0.2692261006     2.2407040866    -1.2570292997
|  9>  N        1.2153905013     2.2789962175    -0.1437565223
| 10>  C        1.1098616225     3.4269849932     0.7921299060
| 11>  C       -0.2258300803     3.3384698920     1.5185457417
| 12>  N       -1.3960692099     3.4741697998     0.6304517293
| 13>  C       -0.9338473263     2.1314204103     1.0199555823
| 14>  H        0.6305493227     1.7065248130    -2.1308889757
| 15>  H       -0.3706047697     3.0973636187    -1.4416412630
| 16>  H        1.9286720657     3.3397684243     1.5131716108
| 17>  H        1.2323345426     4.3668187092     0.2456800275
| 18>  H       -0.2989901016     3.6663660559     2.5508891847
| 19>  H       -2.2213003058     3.7228562992     1.1703286789
| 20>  H       -1.5497099214     1.4999847718     1.6487108520
| 21> *
| 22>
| 23>                          ****END OF INPUT****

CARTESIAN COORDINATES (ANGSTROEM)
---------------------------------
  N      0.144466   -1.117085    0.096586
  C      0.088549    0.036785    0.047347
  C     -0.030037    1.471912   -0.008006
  C      0.269226    2.240704   -1.257029
  N      1.215391    2.278996   -0.143757
  C      1.109862    3.426985    0.792130
  C     -0.225830    3.338470    1.518546
  N     -1.396069    3.474170    0.630452
  C     -0.933847    2.131420    1.019956
  H      0.630549    1.706525   -2.130889
  H     -0.370605    3.097364   -1.441641
  H      1.928672    3.339768    1.513172
  H      1.232335    4.366819    0.245680
  H     -0.298990    3.666366    2.550889
  H     -2.221300    3.722856    1.170329
  H     -1.549710    1.499985    1.648711

 Total Charge           Charge          ....    0
 Multiplicity           Mult            ....    1
 Number of Electrons    NEL             ....   64
 Basis Dimension        Dim             ....  321

ORBITAL ENERGIES
----------------

  NO   OCC          E(Eh)            E(eV)
   0   2.0000     -15.589239      -424.2048
   1   2.0000     -15.587163      -424.1483
   2   2.0000     -15.571813      -423.7306
   3   2.0000     -11.315251      -307.9036
   4   2.0000     -11.294971      -307.3518
   5   2.0000     -11.286565      -307.1230
   6   2.0000     -11.280202      -306.9499
   7   2.0000     -11.275648      -306.8260
   8   2.0000     -11.274315      -306.7897
   9   2.0000      -1.335956       -36.3532
  10   2.0000      -1.265413       -34.4336
  11   2.0000      -1.215237       -33.0683
  12   2.0000      -1.044913       -28.4335
  13   2.0000      -0.981191       -26.6996
  14   2.0000      -0.880341       -23.9553
  15   2.0000      -0.856279       -23.3005
  16   2.0000      -0.816674       -22.2228
  17   2.0000      -0.759812       -20.6755
  18   2.0000      -0.694650       -18.9024
  19   2.0000      -0.653895       -17.7934
  20   2.0000      -0.637780       -17.3549
  21   2.0000      -0.595393       -16.2015
  22   2.0000      -0.569529       -15.4977
  23   2.0000      -0.552336       -15.0298
  24   2.0000      -0.538951       -14.6656
  25   2.0000      -0.534273       -14.5383
  26   2.0000      -0.501105       -13.6358
  27   2.0000      -0.498422       -13.5628
  28   2.0000      -0.462915       -12.5965
  29   2.0000      -0.440802       -11.9948
  30   2.0000      -0.408475       -11.1152
  31   2.0000      -0.389231       -10.5915
  32   0.0000       0.118880         3.2349
  33   0.0000       0.146131         3.9764
  34   0.0000       0.156837         4.2677
  35   0.0000       0.160298         4.3619
  36   0.0000       0.175458         4.7745

MULLIKEN ATOMIC CHARGES
-----------------------
   0 N :   -0.047435
   1 C :   -0.256462
   2 C :    0.312404
   3 C :   -0.186265
   4 N :   -0.232304
   5 C :   -0.106655
   6 C :   -0.074489
   7 N :   -0.383977
   8 C :   -0.118858
   9 H :    0.142842
  10 H :    0.163635
  11 H :    0.135405
  12 H :    0.125350
  13 H :    0.139818
  14 H :    0.226099
  15 H :    0.160891
Sum of atomic charges:   -0.0000000

LOEWDIN ATOMIC CHARGES
----------------------
   0 N :    0.073266
   1 C :   -0.144490
   2 C :   -0.245689
   3 C :   -0.188134
   4 N :    0.149570
   5 C :   -0.241074
   6 C :   -0.240131
   7 N :    0.014838
   8 C :   -0.195954
   9 H :    0.134607
  10 H :    0.139182
  11 H :    0.142041
  12 H :    0.140880
  13 H :    0.138909
  14 H :    0.173104
  15 H :    0.149076

  Mayer bond orders larger than 0.1
B(  0-N ,  1-C ) :   2.8801 B(  1-C ,  2-C ) :   0.8470 B(  2-C ,  3-C ) :   0.9062
B(  2-C ,  4-N ) :   0.8035 B(  2-C ,  8-C ) :   0.8984 B(  3-C ,  4-N ) :   0.9055
B(  3-C ,  9-H ) :   0.9138 B(  3-C , 10-H ) :   0.8917 B(  4-N ,  5-C ) :   0.9209
B(  5-C ,  6-C ) :   0.9578 B(  5-C , 11-H ) :   0.9284 B(  5-C , 12-H ) :   0.9169
B(  6-C ,  7-N ) :   0.9200 B(  6-C ,  8-C ) :   0.9211 B(  6-C , 13-H ) :   0.9116
B(  7-N ,  8-C ) :   0.9552 B(  7-N , 14-H ) :   0.8685 B(  8-C , 15-H ) :   0.9236

MP2 TOTAL ENERGY:     -396.200173781 Eh
FINAL SINGLE POINT ENERGY      -396.200173781049

DIPOLE MOMENT
-------------
                                X             Y             Z
Electronic contribution:      0.06537      -5.40279      -0.65344
Nuclear contribution   :     -0.72742       7.14573       1.32152
                        -----------------------------------------
Total Dipole Moment    :     -0.66205       1.74295       0.66808
                        -----------------------------------------
Magnitude (a.u.)       :      1.98053
Magnitude (Debye)      :      5.03410

                             ****ORCA TERMINATED NORMALLY****
TOTAL RUN TIME: 0 days 0 hours 16 minutes 54 seconds 796 msec
