                         Program Version 3.0.3 - RELEASE   -
|  1> ! RI-MP2 RIJK def2-TZVP def2-TZVP/C def2-TZVP/JK TIGHTSCF
|  2> % maxcore 2000
|  3> % mp2 density relaxed end
|  4> *xyz 0 1
|  5>  N       -0.1474582101     1.2345876567    -0.1785286941
|  6>  C       -0.0300835684     0.0012432789     0.0282274555
|  7>  O        1.1307078385    -0.6977594023     0.2028987763
|  8>  C        0.8170052873    -2.0488304057     0.5570030357
|  9>  C       -0.6388564771    -2.1662762717     0.1521647137
| 10>  C       -1.1760307553    -3.1272083818    -0.8638860869
| 11>  C       -1.5909869210    -3.2177767909     0.5985466119
| 12>  O       -1.0999112696    -0.8271038811     0.1100202827
| 13>  H        0.7672988769     1.6790449518    -0.1633357958
| 14>  H        1.4795631388    -2.7233703451     0.0101155516
| 15>  H        0.9663685758    -2.1842841906     1.6354648264
| 16>  H       -1.9073101187    -2.7418935245    -1.5648874581
| 17>  H       -0.5072496174    -3.8830938480    -1.2624100179
| 18>  H       -1.2081979477    -4.0347164387     1.2016562899
| 19>  H       -2.5933253520    -2.8939887671     0.8542513692
| 20> *
| 21>
| 22>                          ****END OF INPUT****

CARTESIAN COORDINATES (ANGSTROEM)
---------------------------------
  N     -0.147458    1.234588   -0.178529
  C     -0.030084    0.001243    0.028227
  O      1.130708   -0.697759    0.202899
  C      0.817005   -2.048830    0.557003
  C     -0.638856   -2.166276    0.152165
  C     -1.176031   -3.127208   -0.863886
  C     -1.590987   -3.217777    0.598547
  O     -1.099911   -0.827104    0.110020
  H      0.767299    1.679045   -0.163336
  H      1.479563   -2.723370    0.010116
  H      0.966369   -2.184284    1.635465
  H     -1.907310   -2.741894   -1.564887
  H     -0.507250   -3.883094   -1.262410
  H     -1.208198   -4.034716    1.201656
  H     -2.593325   -2.893989    0.854251

 Total Charge           Charge          ....    0
 Multiplicity           Mult            ....    1
 Number of Electrons    NEL             ....   60
 Basis Dimension        Dim             ....  290

ORBITAL ENERGIES
----------------

  NO   OCC          E(Eh)            E(eV)
   0   2.0000     -20.613072      -560.9102
   1   2.0000     -20.610141      -560.8305
   2   2.0000     -15.524478      -422.4425
   3   2.0000     -11.392065      -309.9939
   4   2.0000     -11.320337      -308.0420
   5   2.0000     -11.315732      -307.9167
   6   2.0000     -11.251322      -306.1640
   7   2.0000     -11.248635      -306.0909
   8   2.0000      -1.501346       -40.8537
   9   2.0000      -1.386850       -37.7381
  10   2.0000      -1.209515       -32.9126
  11   2.0000      -1.155833       -31.4518
  12   2.0000      -0.988690       -26.9036
  13   2.0000      -0.858085       -23.3497
  14   2.0000      -0.848669       -23.0935
  15   2.0000      -0.823311       -22.4034
  16   2.0000      -0.716997       -19.5105
  17   2.0000      -0.706754       -19.2318
  18   2.0000      -0.680903       -18.5283
  19   2.0000      -0.667887       -18.1741
  20   2.0000      -0.640671       -17.4335
  21   2.0000      -0.607443       -16.5294
  22   2.0000      -0.563083       -15.3223
  23   2.0000      -0.555503       -15.1160
  24   2.0000      -0.540207       -14.6998
  25   2.0000      -0.537236       -14.6189
  26   2.0000      -0.458061       -12.4645
  27   2.0000      -0.442797       -12.0491
  28   2.0000      -0.425790       -11.5863
  29   2.0000      -0.387916       -10.5557
  30   0.0000       0.132843         3.6148
  31   0.0000       0.154250         4.1974
  32   0.0000       0.160609         4.3704
  33   0.0000       0.172601         4.6967
  34   0.0000       0.182656         4.9703

MULLIKEN ATOMIC CHARGES
-----------------------
   0 N :   -0.390483
   1 C :    0.274487
   2 O :   -0.272866
   3 C :   -0.029448
   4 C :    0.164798
   5 C :   -0.292825
   6 C :   -0.281764
   7 O :   -0.227818
   8 H :    0.233296
   9 H :    0.127543
  10 H :    0.115926
  11 H :    0.149687
  12 H :    0.137213
  13 H :    0.140061
  14 H :    0.152192
Sum of atomic charges:    0.0000000

LOEWDIN ATOMIC CHARGES
----------------------
   0 N :   -0.077029
   1 C :   -0.526915
   2 O :    0.230319
   3 C :   -0.227866
   4 C :   -0.318159
   5 C :   -0.197194
   6 C :   -0.196136
   7 O :    0.308007
   8 H :    0.174633
   9 H :    0.135876
  10 H :    0.131787
  11 H :    0.143668
  12 H :    0.135515
  13 H :    0.137707
  14 H :    0.145787

  Mayer bond orders larger than 0.1
B(  0-N ,  1-C ) :   2.0048 B(  0-N ,  8-H ) :   0.8477 B(  1-C ,  2-O ) :   1.0652
B(  1-C ,  7-O ) :   1.0730 B(  2-O ,  3-C ) :   0.9019 B(  3-C ,  4-C ) :   0.9377
B(  3-C ,  9-H ) :   0.9156 B(  3-C , 10-H ) :   0.9209 B(  4-C ,  5-C ) :   0.8694
B(  4-C ,  6-C ) :   0.8747 B(  4-C ,  7-O ) :   0.9355 B(  5-C ,  6-C ) :   0.9039
B(  5-C , 11-H ) :   0.9188 B(  5-C , 12-H ) :   0.9158 B(  6-C , 13-H ) :   0.9176
B(  6-C , 14-H ) :   0.9164

MP2 TOTAL ENERGY:     -399.145372793 Eh
FINAL SINGLE POINT ENERGY      -399.145372792900

DIPOLE MOMENT
-------------
                                X             Y             Z
Electronic contribution:      1.24979       5.32926       0.10126
Nuclear contribution   :     -0.71307      -6.95620       0.15154
                        -----------------------------------------
Total Dipole Moment    :      0.53672      -1.62693       0.25280
                        -----------------------------------------
Magnitude (a.u.)       :      1.73173
Magnitude (Debye)      :      4.40170

                             ****ORCA TERMINATED NORMALLY****
TOTAL RUN TIME: 0 days 0 hours 10 minutes 39 seconds 425 msec
