                         Program Version 3.0.3 - RELEASE   -
|  1> ! RI-MP2 RIJK def2-TZVP def2-TZVP/C def2-TZVP/JK TIGHTSCF
|  2> % maxcore 2000
|  3> % mp2 density relaxed end
|  4> *xyz 0 1
|  5>  C       -0.0476119618     1.6040281492     0.0970199786
|  6>  C       -0.0038969801     0.0645472130     0.0550960065
|  7>  C        0.8183670658    -0.4870098432     1.2369925614
|  8>  C       -1.3887636414    -0.5332817699     0.0153367747
|  9>  C       -1.9046192578    -1.3478676328    -0.9178443839
| 10>  C       -1.2673409735    -1.8710177478    -2.1683662581
| 11>  C       -3.3481120677    -1.7008100687    -0.6143843350
| 12>  C       -3.5284630834    -1.2596718829     0.8539624865
| 13>  C       -2.4220173737    -0.2070307628     1.0839018127
| 14>  H        0.9651539346     2.0197692056     0.0666524349
| 15>  H       -0.6067017437     2.0083350906    -0.7525841593
| 16>  H       -0.5248629579     1.9640605233     1.0148325242
| 17>  H        0.5193496757    -0.2222215363    -0.8645980272
| 18>  H        0.3692140467    -0.2147813766     2.1982600473
| 19>  H        0.8853191811    -1.5783061442     1.1953266594
| 20>  H        1.8358228028    -0.0815515950     1.2220811068
| 21>  H       -1.2584569368    -2.9689599683    -2.1742166735
| 22>  H       -1.8390081506    -1.5650090548    -3.0548522328
| 23>  H       -0.2383436088    -1.5287727938    -2.3012691500
| 24>  H       -4.0237565392    -1.1573446382    -1.2928053656
| 25>  H       -3.5624833917    -2.7661563520    -0.7659294277
| 26>  H       -4.5312483687    -0.8818239029     1.0707009392
| 27>  H       -3.3554286819    -2.1167255989     1.5131858044
| 28>  H       -2.0184006706    -0.2424241920     2.1022756874
| 29>  H       -2.8047455376     0.8148019394     0.9459728690
| 30> *
| 31>
| 32>                          ****END OF INPUT****

CARTESIAN COORDINATES (ANGSTROEM)
---------------------------------
  C     -0.047612    1.604028    0.097020
  C     -0.003897    0.064547    0.055096
  C      0.818367   -0.487010    1.236993
  C     -1.388764   -0.533282    0.015337
  C     -1.904619   -1.347868   -0.917844
  C     -1.267341   -1.871018   -2.168366
  C     -3.348112   -1.700810   -0.614384
  C     -3.528463   -1.259672    0.853962
  C     -2.422017   -0.207031    1.083902
  H      0.965154    2.019769    0.066652
  H     -0.606702    2.008335   -0.752584
  H     -0.524863    1.964061    1.014833
  H      0.519350   -0.222222   -0.864598
  H      0.369214   -0.214781    2.198260
  H      0.885319   -1.578306    1.195327
  H      1.835823   -0.081552    1.222081
  H     -1.258457   -2.968960   -2.174217
  H     -1.839008   -1.565009   -3.054852
  H     -0.238344   -1.528773   -2.301269
  H     -4.023757   -1.157345   -1.292805
  H     -3.562483   -2.766156   -0.765929
  H     -4.531248   -0.881824    1.070701
  H     -3.355429   -2.116726    1.513186
  H     -2.018401   -0.242424    2.102276
  H     -2.804746    0.814802    0.945973

 Total Charge           Charge          ....    0
 Multiplicity           Mult            ....    1
 Number of Electrons    NEL             ....   70
 Basis Dimension        Dim             ....  375

ORBITAL ENERGIES
----------------

  NO   OCC          E(Eh)            E(eV)
   0   2.0000     -11.226181      -305.4799
   1   2.0000     -11.216350      -305.2124
   2   2.0000     -11.215539      -305.1903
   3   2.0000     -11.214215      -305.1543
   4   2.0000     -11.214142      -305.1523
   5   2.0000     -11.212847      -305.1171
   6   2.0000     -11.212130      -305.0976
   7   2.0000     -11.209929      -305.0377
   8   2.0000     -11.209384      -305.0228
   9   2.0000      -1.136484       -30.9253
  10   2.0000      -1.059858       -28.8402
  11   2.0000      -1.003313       -27.3015
  12   2.0000      -0.941813       -25.6280
  13   2.0000      -0.924221       -25.1493
  14   2.0000      -0.897276       -24.4161
  15   2.0000      -0.810846       -22.0642
  16   2.0000      -0.772164       -21.0117
  17   2.0000      -0.671911       -18.2836
  18   2.0000      -0.637841       -17.3565
  19   2.0000      -0.630419       -17.1546
  20   2.0000      -0.607933       -16.5427
  21   2.0000      -0.576423       -15.6853
  22   2.0000      -0.564078       -15.3493
  23   2.0000      -0.558791       -15.2055
  24   2.0000      -0.545841       -14.8531
  25   2.0000      -0.540570       -14.7096
  26   2.0000      -0.523514       -14.2455
  27   2.0000      -0.501148       -13.6369
  28   2.0000      -0.480868       -13.0851
  29   2.0000      -0.475874       -12.9492
  30   2.0000      -0.470261       -12.7964
  31   2.0000      -0.466531       -12.6949
  32   2.0000      -0.453823       -12.3492
  33   2.0000      -0.440855       -11.9963
  34   2.0000      -0.316730        -8.6187
  35   0.0000       0.129990         3.5372
  36   0.0000       0.152753         4.1566
  37   0.0000       0.158147         4.3034
  38   0.0000       0.169549         4.6137
  39   0.0000       0.178351         4.8532

MULLIKEN ATOMIC CHARGES
-----------------------
   0 C :   -0.417184
   1 C :   -0.031375
   2 C :   -0.404484
   3 C :    0.020191
   4 C :   -0.023209
   5 C :   -0.422496
   6 C :   -0.194366
   7 C :   -0.219571
   8 C :   -0.241406
   9 H :    0.130507
  10 H :    0.133693
  11 H :    0.128398
  12 H :    0.071828
  13 H :    0.120335
  14 H :    0.133347
  15 H :    0.128753
  16 H :    0.138278
  17 H :    0.136948
  18 H :    0.128819
  19 H :    0.108588
  20 H :    0.114491
  21 H :    0.119284
  22 H :    0.105775
  23 H :    0.118559
  24 H :    0.116296
Sum of atomic charges:   -0.0000000

LOEWDIN ATOMIC CHARGES
----------------------
   0 C :   -0.286856
   1 C :   -0.270192
   2 C :   -0.286690
   3 C :   -0.127370
   4 C :   -0.167373
   5 C :   -0.276141
   6 C :   -0.218276
   7 C :   -0.239991
   8 C :   -0.214977
   9 H :    0.122151
  10 H :    0.124202
  11 H :    0.123124
  12 H :    0.152849
  13 H :    0.121147
  14 H :    0.123977
  15 H :    0.121792
  16 H :    0.130682
  17 H :    0.131205
  18 H :    0.124506
  19 H :    0.138459
  20 H :    0.134448
  21 H :    0.129128
  22 H :    0.136748
  23 H :    0.134116
  24 H :    0.139330

  Mayer bond orders larger than 0.1
B(  0-C ,  1-C ) :   0.9072 B(  0-C ,  9-H ) :   0.9376 B(  0-C , 10-H ) :   0.9396
B(  0-C , 11-H ) :   0.9322 B(  1-C ,  2-C ) :   0.9126 B(  1-C ,  3-C ) :   0.9070
B(  1-C , 12-H ) :   0.9419 B(  2-C , 13-H ) :   0.9329 B(  2-C , 14-H ) :   0.9403
B(  2-C , 15-H ) :   0.9368 B(  3-C ,  4-C ) :   1.6924 B(  3-C ,  8-C ) :   0.9162
B(  4-C ,  5-C ) :   0.8822 B(  4-C ,  6-C ) :   0.9503 B(  5-C , 16-H ) :   0.9364
B(  5-C , 17-H ) :   0.9305 B(  5-C , 18-H ) :   0.9514 B(  6-C ,  7-C ) :   0.9480
B(  6-C , 19-H ) :   0.9040 B(  6-C , 20-H ) :   0.9315 B(  7-C ,  8-C ) :   0.9518
B(  7-C , 21-H ) :   0.9396 B(  7-C , 22-H ) :   0.9315 B(  8-C , 23-H ) :   0.9298
B(  8-C , 24-H ) :   0.9122

MP2 TOTAL ENERGY:     -351.736266059 Eh
FINAL SINGLE POINT ENERGY      -351.736266058787

DIPOLE MOMENT
-------------
                                X             Y             Z
Electronic contribution:     -2.49127      -1.37906      -0.69444
Nuclear contribution   :      2.52007       1.37476       0.62043
                        -----------------------------------------
Total Dipole Moment    :      0.02880      -0.00430      -0.07400
                        -----------------------------------------
Magnitude (a.u.)       :      0.07953
Magnitude (Debye)      :      0.20215

                             ****ORCA TERMINATED NORMALLY****
TOTAL RUN TIME: 0 days 0 hours 24 minutes 19 seconds 342 msec
