                         Program Version 3.0.3 - RELEASE   -
|  1> ! RI-MP2 RIJK def2-TZVP def2-TZVP/C def2-TZVP/JK TIGHTSCF
|  2> % maxcore 2000
|  3> % mp2 density relaxed end
|  4> *xyz 0 1
|  5>  C        0.1587382456     1.5386190943    -0.2253730653
|  6>  C        0.2356238338     0.0147254074    -0.1044154029
|  7>  C        0.4591920712    -0.4634671083     1.3373836589
|  8>  C        0.5179658989    -1.9732715425     1.4479017494
|  9>  C        1.8066118918    -2.7278232193     1.2255816334
| 10>  C        1.1717862757    -2.7053621342     2.6000753652
| 11>  C        1.8378870176    -1.9947228353     3.7653267965
| 12>  C        2.9004846082    -2.8653158194     4.4044711289
| 13>  O        2.9654746996    -3.1263956786     5.5780076729
| 14>  H        1.0843893191     2.0116624308     0.1216141905
| 15>  H       -0.0042510985     1.8492235671    -1.2619990071
| 16>  H       -0.6627366037     1.9433757473     0.3763741500
| 17>  H       -0.6895358144    -0.4319193858    -0.4917925414
| 18>  H        1.0450778700    -0.3689273222    -0.7381311901
| 19>  H        1.3859359656    -0.0166702009     1.7182999840
| 20>  H       -0.3486348329    -0.0778471824     1.9748940109
| 21>  H       -0.3745376540    -2.4641251217     1.0652952481
| 22>  H        1.7939204229    -3.6507402469     0.6565549046
| 23>  H        2.7063508117    -2.1354193213     1.0835926747
| 24>  H        0.6702915142    -3.6239252643     2.8950622520
| 25>  H        2.3380132276    -1.0823601629     3.4142050103
| 26>  H        1.1182254585    -1.7061106358     4.5379146474
| 27>  H        3.6468794816    -3.2724516052     3.6832603190
| 28> *
| 29>
| 30>                          ****END OF INPUT****

CARTESIAN COORDINATES (ANGSTROEM)
---------------------------------
  C      0.158738    1.538619   -0.225373
  C      0.235624    0.014725   -0.104415
  C      0.459192   -0.463467    1.337384
  C      0.517966   -1.973272    1.447902
  C      1.806612   -2.727823    1.225582
  C      1.171786   -2.705362    2.600075
  C      1.837887   -1.994723    3.765327
  C      2.900485   -2.865316    4.404471
  O      2.965475   -3.126396    5.578008
  H      1.084389    2.011662    0.121614
  H     -0.004251    1.849224   -1.261999
  H     -0.662737    1.943376    0.376374
  H     -0.689536   -0.431919   -0.491793
  H      1.045078   -0.368927   -0.738131
  H      1.385936   -0.016670    1.718300
  H     -0.348635   -0.077847    1.974894
  H     -0.374538   -2.464125    1.065295
  H      1.793920   -3.650740    0.656555
  H      2.706351   -2.135419    1.083593
  H      0.670292   -3.623925    2.895062
  H      2.338013   -1.082360    3.414205
  H      1.118225   -1.706111    4.537915
  H      3.646879   -3.272452    3.683260

 Total Charge           Charge          ....    0
 Multiplicity           Mult            ....    1
 Number of Electrons    NEL             ....   70
 Basis Dimension        Dim             ....  363

ORBITAL ENERGIES
----------------

  NO   OCC          E(Eh)            E(eV)
   0   2.0000     -20.553424      -559.2871
   1   2.0000     -11.327871      -308.2470
   2   2.0000     -11.245634      -306.0092
   3   2.0000     -11.242127      -305.9138
   4   2.0000     -11.239808      -305.8507
   5   2.0000     -11.233289      -305.6733
   6   2.0000     -11.229299      -305.5648
   7   2.0000     -11.224852      -305.4437
   8   2.0000     -11.217357      -305.2398
   9   2.0000      -1.392143       -37.8821
  10   2.0000      -1.164739       -31.6942
  11   2.0000      -1.063621       -28.9426
  12   2.0000      -1.017425       -27.6856
  13   2.0000      -0.945804       -25.7366
  14   2.0000      -0.835671       -22.7398
  15   2.0000      -0.817306       -22.2400
  16   2.0000      -0.789940       -21.4954
  17   2.0000      -0.763524       -20.7765
  18   2.0000      -0.692234       -18.8367
  19   2.0000      -0.658528       -17.9194
  20   2.0000      -0.629660       -17.1339
  21   2.0000      -0.628284       -17.0965
  22   2.0000      -0.619534       -16.8584
  23   2.0000      -0.577939       -15.7265
  24   2.0000      -0.565537       -15.3890
  25   2.0000      -0.549282       -14.9467
  26   2.0000      -0.532618       -14.4933
  27   2.0000      -0.528118       -14.3708
  28   2.0000      -0.500262       -13.6128
  29   2.0000      -0.492583       -13.4039
  30   2.0000      -0.479758       -13.0549
  31   2.0000      -0.471911       -12.8414
  32   2.0000      -0.434557       -11.8249
  33   2.0000      -0.416323       -11.3287
  34   2.0000      -0.394466       -10.7340
  35   0.0000       0.129497         3.5238
  36   0.0000       0.136497         3.7143
  37   0.0000       0.144350         3.9280
  38   0.0000       0.154062         4.1922
  39   0.0000       0.157458         4.2846

MULLIKEN ATOMIC CHARGES
-----------------------
   0 C :   -0.384867
   1 C :   -0.189849
   2 C :   -0.252098
   3 C :   -0.056583
   4 C :   -0.310926
   5 C :   -0.123032
   6 C :   -0.168891
   7 C :    0.096870
   8 O :   -0.265287
   9 H :    0.121818
  10 H :    0.135198
  11 H :    0.122678
  12 H :    0.106130
  13 H :    0.112869
  14 H :    0.099600
  15 H :    0.117958
  16 H :    0.119240
  17 H :    0.137343
  18 H :    0.126580
  19 H :    0.127240
  20 H :    0.122747
  21 H :    0.127840
  22 H :    0.077421
Sum of atomic charges:    0.0000000

LOEWDIN ATOMIC CHARGES
----------------------
   0 C :   -0.321474
   1 C :   -0.290701
   2 C :   -0.251886
   3 C :   -0.208499
   4 C :   -0.209685
   5 C :   -0.207697
   6 C :   -0.244404
   7 C :   -0.290753
   8 O :    0.128879
   9 H :    0.119945
  10 H :    0.121121
  11 H :    0.120517
  12 H :    0.135110
  13 H :    0.136148
  14 H :    0.138070
  15 H :    0.141639
  16 H :    0.151565
  17 H :    0.131406
  18 H :    0.135542
  19 H :    0.152208
  20 H :    0.153582
  21 H :    0.148225
  22 H :    0.111142

  Mayer bond orders larger than 0.1
B(  0-C ,  1-C ) :   0.9201 B(  0-C ,  9-H ) :   0.9401 B(  0-C , 10-H ) :   0.9435
B(  0-C , 11-H ) :   0.9385 B(  1-C ,  2-C ) :   0.9312 B(  1-C , 12-H ) :   0.9330
B(  1-C , 13-H ) :   0.9343 B(  2-C ,  3-C ) :   0.9231 B(  2-C , 14-H ) :   0.9325
B(  2-C , 15-H ) :   0.9286 B(  3-C ,  4-C ) :   0.8877 B(  3-C ,  5-C ) :   0.8592
B(  3-C , 16-H ) :   0.9258 B(  4-C ,  5-C ) :   0.8962 B(  4-C , 17-H ) :   0.9260
B(  4-C , 18-H ) :   0.9251 B(  5-C ,  6-C ) :   0.8904 B(  5-C , 19-H ) :   0.9259
B(  6-C ,  7-C ) :   0.8810 B(  6-C , 20-H ) :   0.9154 B(  6-C , 21-H ) :   0.9087
B(  7-C ,  8-O ) :   1.9999 B(  7-C , 22-H ) :   0.9383

MP2 TOTAL ENERGY:     -387.608619556 Eh
FINAL SINGLE POINT ENERGY      -387.608619555945

DIPOLE MOMENT
-------------
                                X             Y             Z
Electronic contribution:      4.53297      -7.93616      10.32652
Nuclear contribution   :     -4.85150       8.30005     -11.44211
                        -----------------------------------------
Total Dipole Moment    :     -0.31852       0.36389      -1.11558
                        -----------------------------------------
Magnitude (a.u.)       :      1.21589
Magnitude (Debye)      :      3.09056

                             ****ORCA TERMINATED NORMALLY****
TOTAL RUN TIME: 0 days 0 hours 18 minutes 27 seconds 995 msec
