                         Program Version 3.0.3 - RELEASE   -
|  1> ! RI-MP2 RIJK def2-TZVP def2-TZVP/C def2-TZVP/JK TIGHTSCF
|  2> % maxcore 2000
|  3> % mp2 density relaxed end
|  4> *xyz 0 1
|  5>  C       -0.0060242152     1.4031747601    -0.0040728826
|  6>  O        0.0132830394    -0.0027733173     0.0133853416
|  7>  C       -1.2780824320    -0.5734435857     0.0234290260
|  8>  C       -1.1477120013    -2.0978596294    -0.0190865236
|  9>  C       -2.5144144587    -2.7711340503     0.1863091473
| 10>  C       -2.4477104391    -4.2695934515    -0.1310179160
| 11>  C       -2.0413288695    -4.5048378420    -1.5931980858
| 12>  C       -0.9060108119    -3.6062481982    -2.0113327136
| 13>  C       -0.4985370638    -2.5521647273    -1.3052055848
| 14>  H        1.0315719655     1.7463765428    -0.0104599914
| 15>  H       -0.5157445143     1.7952522031    -0.8987423587
| 16>  H       -0.5109775109     1.8166497702     0.8838260883
| 17>  H       -1.8240539834    -0.2658859594     0.9325474069
| 18>  H       -1.8614875978    -0.2191616041    -0.8444968130
| 19>  H       -0.4876129300    -2.3670948535     0.8198871693
| 20>  H       -2.8618702272    -2.6090867419     1.2130370611
| 21>  H       -3.2531182480    -2.2963876633    -0.4749532330
| 22>  H       -1.7091255995    -4.7421928831     0.5291396341
| 23>  H       -3.4097537770    -4.7494210443     0.0783528099
| 24>  H       -1.7599947155    -5.5548880593    -1.7442642271
| 25>  H       -2.9034416340    -4.3377599487    -2.2568952700
| 26>  H       -0.4027994548    -3.8529723104    -2.9439535206
| 27>  H        0.3393757892    -1.9518146766    -1.6479626043
| 28> *
| 29>
| 30>                          ****END OF INPUT****

CARTESIAN COORDINATES (ANGSTROEM)
---------------------------------
  C     -0.006024    1.403175   -0.004073
  O      0.013283   -0.002773    0.013385
  C     -1.278082   -0.573444    0.023429
  C     -1.147712   -2.097860   -0.019087
  C     -2.514414   -2.771134    0.186309
  C     -2.447710   -4.269593   -0.131018
  C     -2.041329   -4.504838   -1.593198
  C     -0.906011   -3.606248   -2.011333
  C     -0.498537   -2.552165   -1.305206
  H      1.031572    1.746377   -0.010460
  H     -0.515745    1.795252   -0.898742
  H     -0.510978    1.816650    0.883826
  H     -1.824054   -0.265886    0.932547
  H     -1.861488   -0.219162   -0.844497
  H     -0.487613   -2.367095    0.819887
  H     -2.861870   -2.609087    1.213037
  H     -3.253118   -2.296388   -0.474953
  H     -1.709126   -4.742193    0.529140
  H     -3.409754   -4.749421    0.078353
  H     -1.759995   -5.554888   -1.744264
  H     -2.903442   -4.337760   -2.256895
  H     -0.402799   -3.852972   -2.943954
  H      0.339376   -1.951815   -1.647963

 Total Charge           Charge          ....    0
 Multiplicity           Mult            ....    1
 Number of Electrons    NEL             ....   70
 Basis Dimension        Dim             ....  363

ORBITAL ENERGIES
----------------

  NO   OCC          E(Eh)            E(eV)
   0   2.0000     -20.553069      -559.2774
   1   2.0000     -11.271155      -306.7037
   2   2.0000     -11.269312      -306.6536
   3   2.0000     -11.224617      -305.4374
   4   2.0000     -11.220076      -305.3138
   5   2.0000     -11.218534      -305.2718
   6   2.0000     -11.217454      -305.2424
   7   2.0000     -11.216673      -305.2212
   8   2.0000     -11.212380      -305.1044
   9   2.0000      -1.374816       -37.4106
  10   2.0000      -1.121753       -30.5245
  11   2.0000      -1.030862       -28.0512
  12   2.0000      -1.002331       -27.2748
  13   2.0000      -0.943700       -25.6794
  14   2.0000      -0.877503       -23.8781
  15   2.0000      -0.817118       -22.2349
  16   2.0000      -0.810290       -22.0491
  17   2.0000      -0.706260       -19.2183
  18   2.0000      -0.667918       -18.1750
  19   2.0000      -0.657233       -17.8842
  20   2.0000      -0.647647       -17.6234
  21   2.0000      -0.626306       -17.0426
  22   2.0000      -0.594509       -16.1774
  23   2.0000      -0.581420       -15.8212
  24   2.0000      -0.558951       -15.2098
  25   2.0000      -0.545772       -14.8512
  26   2.0000      -0.529177       -14.3996
  27   2.0000      -0.514010       -13.9869
  28   2.0000      -0.506780       -13.7902
  29   2.0000      -0.480399       -13.0723
  30   2.0000      -0.463531       -12.6133
  31   2.0000      -0.447173       -12.1682
  32   2.0000      -0.435804       -11.8588
  33   2.0000      -0.418400       -11.3852
  34   2.0000      -0.339571        -9.2402
  35   0.0000       0.131435         3.5765
  36   0.0000       0.149805         4.0764
  37   0.0000       0.163968         4.4618
  38   0.0000       0.170647         4.6435
  39   0.0000       0.182938         4.9780

MULLIKEN ATOMIC CHARGES
-----------------------
   0 C :   -0.217152
   1 O :   -0.307918
   2 C :   -0.080721
   3 C :    0.074981
   4 C :   -0.266106
   5 C :   -0.201957
   6 C :   -0.176938
   7 C :   -0.158669
   8 C :   -0.255675
   9 H :    0.138464
  10 H :    0.111240
  11 H :    0.109598
  12 H :    0.096045
  13 H :    0.095228
  14 H :    0.092717
  15 H :    0.123638
  16 H :    0.106458
  17 H :    0.109266
  18 H :    0.123475
  19 H :    0.122905
  20 H :    0.113111
  21 H :    0.118093
  22 H :    0.129915
Sum of atomic charges:   -0.0000000

LOEWDIN ATOMIC CHARGES
----------------------
   0 C :   -0.363430
   1 O :    0.137616
   2 C :   -0.304905
   3 C :   -0.247416
   4 C :   -0.234233
   5 C :   -0.256192
   6 C :   -0.257282
   7 C :   -0.172590
   8 C :   -0.150544
   9 H :    0.113080
  10 H :    0.101051
  11 H :    0.101077
  12 H :    0.121632
  13 H :    0.122030
  14 H :    0.162626
  15 H :    0.137018
  16 H :    0.142545
  17 H :    0.140678
  18 H :    0.134634
  19 H :    0.141580
  20 H :    0.142974
  21 H :    0.140393
  22 H :    0.147658

  Mayer bond orders larger than 0.1
B(  0-C ,  1-O ) :   0.9215 B(  0-C ,  9-H ) :   0.9397 B(  0-C , 10-H ) :   0.9366
B(  0-C , 11-H ) :   0.9368 B(  1-O ,  2-C ) :   0.9464 B(  2-C ,  3-C ) :   0.9286
B(  2-C , 12-H ) :   0.9224 B(  2-C , 13-H ) :   0.9184 B(  3-C ,  4-C ) :   0.9255
B(  3-C ,  8-C ) :   0.9118 B(  3-C , 14-H ) :   0.9040 B(  4-C ,  5-C ) :   0.9181
B(  4-C , 15-H ) :   0.9303 B(  4-C , 16-H ) :   0.9241 B(  5-C ,  6-C ) :   0.9443
B(  5-C , 17-H ) :   0.9322 B(  5-C , 18-H ) :   0.9376 B(  6-C ,  7-C ) :   0.9246
B(  6-C , 19-H ) :   0.9294 B(  6-C , 20-H ) :   0.9151 B(  7-C ,  8-C ) :   1.7866
B(  7-C , 21-H ) :   0.9313 B(  8-C , 22-H ) :   0.9316

MP2 TOTAL ENERGY:     -387.617188007 Eh
FINAL SINGLE POINT ENERGY      -387.617188006806

DIPOLE MOMENT
-------------
                                X             Y             Z
Electronic contribution:      2.79230      -0.55512      -0.67881
Nuclear contribution   :     -3.22658       0.76261       0.74986
                        -----------------------------------------
Total Dipole Moment    :     -0.43427       0.20750       0.07105
                        -----------------------------------------
Magnitude (a.u.)       :      0.48651
Magnitude (Debye)      :      1.23662

                             ****ORCA TERMINATED NORMALLY****
TOTAL RUN TIME: 0 days 0 hours 18 minutes 22 seconds 29 msec
