                         Program Version 3.0.3 - RELEASE   -
|  1> ! RI-MP2 RIJK def2-TZVP def2-TZVP/C def2-TZVP/JK TIGHTSCF
|  2> % maxcore 2000
|  3> % mp2 density relaxed end
|  4> *xyz 0 1
|  5>  C        0.3697151657     1.6307814439     0.1507119857
|  6>  C        0.1950845497     0.1218980668    -0.0248557178
|  7>  C        1.1499858991    -0.4888452631    -1.0745200252
|  8>  O        1.6169682840    -1.7297088923    -0.5371635114
|  9>  C        1.7575466693    -1.5443423238     0.8585705839
| 10>  C        2.9988834519    -0.8418708157     1.2172791243
| 11>  C        3.9889774258    -0.2272005974     1.5188282119
| 12>  C        0.5031601150    -0.7092118355     1.2700949155
| 13>  O        0.6429666020     0.0177099133     2.4633413514
| 14>  H        1.4059900291     1.8861900452     0.3978629826
| 15>  H        0.1125058912     2.1581363896    -0.7736853042
| 16>  H       -0.2701519730     2.0082609698     0.9518300434
| 17>  H       -0.8398907448    -0.0785014509    -0.3174031718
| 18>  H        0.6731250157    -0.7148609269    -2.0308482376
| 19>  H        2.0008436683     0.1831382608    -1.2606513726
| 20>  H        1.7567147789    -2.5359477924     1.3201323831
| 21>  H        4.8854608993     0.2822238325     1.7760151997
| 22>  H       -0.3147136452    -1.4108029296     1.4507556668
| 23>  H        1.5135353178     0.4365602958     2.4557994722
| 24> *
| 25>
| 26>                          ****END OF INPUT****

CARTESIAN COORDINATES (ANGSTROEM)
---------------------------------
  C      0.369715    1.630781    0.150712
  C      0.195085    0.121898   -0.024856
  C      1.149986   -0.488845   -1.074520
  O      1.616968   -1.729709   -0.537164
  C      1.757547   -1.544342    0.858571
  C      2.998883   -0.841871    1.217279
  C      3.988977   -0.227201    1.518828
  C      0.503160   -0.709212    1.270095
  O      0.642967    0.017710    2.463341
  H      1.405990    1.886190    0.397863
  H      0.112506    2.158136   -0.773685
  H     -0.270152    2.008261    0.951830
  H     -0.839891   -0.078501   -0.317403
  H      0.673125   -0.714861   -2.030848
  H      2.000844    0.183138   -1.260651
  H      1.756715   -2.535948    1.320132
  H      4.885461    0.282224    1.776015
  H     -0.314714   -1.410803    1.450756
  H      1.513535    0.436560    2.455799

 Total Charge           Charge          ....    0
 Multiplicity           Mult            ....    1
 Number of Electrons    NEL             ....   68
 Basis Dimension        Dim             ....  339

ORBITAL ENERGIES
----------------

  NO   OCC          E(Eh)            E(eV)
   0   2.0000     -20.568047      -559.6850
   1   2.0000     -20.561172      -559.4979
   2   2.0000     -11.312173      -307.8199
   3   2.0000     -11.292265      -307.2781
   4   2.0000     -11.277911      -306.8876
   5   2.0000     -11.247987      -306.0733
   6   2.0000     -11.242497      -305.9239
   7   2.0000     -11.235851      -305.7431
   8   2.0000     -11.220116      -305.3149
   9   2.0000      -1.398321       -38.0502
  10   2.0000      -1.369209       -37.2581
  11   2.0000      -1.072955       -29.1966
  12   2.0000      -1.066414       -29.0186
  13   2.0000      -0.994268       -27.0554
  14   2.0000      -0.930522       -25.3208
  15   2.0000      -0.862738       -23.4763
  16   2.0000      -0.787594       -21.4315
  17   2.0000      -0.738126       -20.0854
  18   2.0000      -0.721677       -19.6378
  19   2.0000      -0.693296       -18.8655
  20   2.0000      -0.663702       -18.0602
  21   2.0000      -0.624775       -17.0010
  22   2.0000      -0.607830       -16.5399
  23   2.0000      -0.597426       -16.2568
  24   2.0000      -0.576055       -15.6752
  25   2.0000      -0.559369       -15.2212
  26   2.0000      -0.527655       -14.3582
  27   2.0000      -0.509969       -13.8770
  28   2.0000      -0.481460       -13.1012
  29   2.0000      -0.471038       -12.8176
  30   2.0000      -0.453636       -12.3441
  31   2.0000      -0.428806       -11.6684
  32   2.0000      -0.411965       -11.2101
  33   2.0000      -0.398175       -10.8349
  34   0.0000       0.133492         3.6325
  35   0.0000       0.139479         3.7954
  36   0.0000       0.153710         4.1827
  37   0.0000       0.158690         4.3182
  38   0.0000       0.172437         4.6922

MULLIKEN ATOMIC CHARGES
-----------------------
   0 C :   -0.463555
   1 C :   -0.022281
   2 C :   -0.069606
   3 O :   -0.311762
   4 C :    0.184502
   5 C :   -0.175347
   6 C :   -0.184510
   7 C :   -0.016742
   8 O :   -0.448595
   9 H :    0.126698
  10 H :    0.136838
  11 H :    0.154841
  12 H :    0.097920
  13 H :    0.123865
  14 H :    0.100610
  15 H :    0.132661
  16 H :    0.194640
  17 H :    0.112057
  18 H :    0.327765
Sum of atomic charges:   -0.0000000

LOEWDIN ATOMIC CHARGES
----------------------
   0 C :   -0.300551
   1 C :   -0.255336
   2 C :   -0.270917
   3 O :    0.185200
   4 C :   -0.295852
   5 C :   -0.092983
   6 C :   -0.089113
   7 C :   -0.288019
   8 O :    0.008528
   9 H :    0.122372
  10 H :    0.125475
  11 H :    0.128966
  12 H :    0.150566
  13 H :    0.127028
  14 H :    0.125270
  15 H :    0.161799
  16 H :    0.130135
  17 H :    0.147121
  18 H :    0.180311

  Mayer bond orders larger than 0.1
B(  0-C ,  1-C ) :   0.8932 B(  0-C ,  9-H ) :   0.9328 B(  0-C , 10-H ) :   0.9365
B(  0-C , 11-H ) :   0.9332 B(  1-C ,  2-C ) :   0.9293 B(  1-C ,  7-C ) :   0.8879
B(  1-C , 12-H ) :   0.9189 B(  2-C ,  3-O ) :   0.9249 B(  2-C , 13-H ) :   0.9236
B(  2-C , 14-H ) :   0.9198 B(  3-O ,  4-C ) :   0.9335 B(  4-C ,  5-C ) :   1.0278
B(  4-C ,  7-C ) :   0.9242 B(  4-C , 15-H ) :   0.9111 B(  5-C ,  6-C ) :   2.5902
B(  6-C , 16-H ) :   0.9061 B(  7-C ,  8-O ) :   1.0267 B(  7-C , 17-H ) :   0.9262
B(  8-O , 18-H ) :   0.8220

MP2 TOTAL ENERGY:     -422.284730447 Eh
FINAL SINGLE POINT ENERGY      -422.284730447370

DIPOLE MOMENT
-------------
                                X             Y             Z
Electronic contribution:      3.24194      -5.28520       2.17280
Nuclear contribution   :     -3.06082       5.77376      -2.35362
                        -----------------------------------------
Total Dipole Moment    :      0.18112       0.48857      -0.18082
                        -----------------------------------------
Magnitude (a.u.)       :      0.55154
Magnitude (Debye)      :      1.40190

                             ****ORCA TERMINATED NORMALLY****
TOTAL RUN TIME: 0 days 0 hours 19 minutes 41 seconds 249 msec
