                         Program Version 3.0.3 - RELEASE   -
|  1> ! RI-MP2 RIJK def2-TZVP def2-TZVP/C def2-TZVP/JK TIGHTSCF
|  2> % maxcore 2000
|  3> % mp2 density relaxed end
|  4> *xyz 0 1
|  5>  O        0.0255168511    -0.1512614340     0.0066941811
|  6>  C       -0.0284287801     1.0650569366    -0.0372635994
|  7>  C       -1.3787169728     1.7826997919     0.0491036442
|  8>  N       -1.6125490393     2.7470237592    -1.0236590933
|  9>  C       -2.2899964546     3.9900140380    -0.6475813078
| 10>  C       -0.8406756298     3.9900112745    -0.9789699321
| 11>  C        0.2371167339     4.1617272016     0.0677534120
| 12>  C        1.4189542325     3.2292834061    -0.2065840344
| 13>  N        1.1266489560     1.8031990575    -0.0898331496
| 14>  H       -2.1312012355     0.9956293420    -0.0233444655
| 15>  H       -1.4636597534     2.2219327750     1.0573010349
| 16>  H       -3.0216637706     4.3656181515    -1.3574093023
| 17>  H       -2.5640730482     4.1188459483     0.3989290302
| 18>  H       -0.5445236737     4.3362740037    -1.9695255263
| 19>  H        0.6109722329     5.1913681390     0.0411247647
| 20>  H       -0.1490636732     3.9983887414     1.0778000500
| 21>  H        1.8046827282     3.4451702009    -1.2147231962
| 22>  H        2.2289693317     3.4625512653     0.4954697388
| 23>  H        1.9323013450     1.1947324012    -0.1416588090
| 24> *
| 25>
| 26>                          ****END OF INPUT****

CARTESIAN COORDINATES (ANGSTROEM)
---------------------------------
  O      0.025517   -0.151261    0.006694
  C     -0.028429    1.065057   -0.037264
  C     -1.378717    1.782700    0.049104
  N     -1.612549    2.747024   -1.023659
  C     -2.289996    3.990014   -0.647581
  C     -0.840676    3.990011   -0.978970
  C      0.237117    4.161727    0.067753
  C      1.418954    3.229283   -0.206584
  N      1.126649    1.803199   -0.089833
  H     -2.131201    0.995629   -0.023344
  H     -1.463660    2.221933    1.057301
  H     -3.021664    4.365618   -1.357409
  H     -2.564073    4.118846    0.398929
  H     -0.544524    4.336274   -1.969526
  H      0.610972    5.191368    0.041125
  H     -0.149064    3.998389    1.077800
  H      1.804683    3.445170   -1.214723
  H      2.228969    3.462551    0.495470
  H      1.932301    1.194732   -0.141659

 Total Charge           Charge          ....    0
 Multiplicity           Mult            ....    1
 Number of Electrons    NEL             ....   68
 Basis Dimension        Dim             ....  339

ORBITAL ENERGIES
----------------

  NO   OCC          E(Eh)            E(eV)
   0   2.0000     -20.509718      -558.0978
   1   2.0000     -15.579467      -423.9388
   2   2.0000     -15.570623      -423.6982
   3   2.0000     -11.346496      -308.7538
   4   2.0000     -11.283956      -307.0521
   5   2.0000     -11.271748      -306.7198
   6   2.0000     -11.266794      -306.5851
   7   2.0000     -11.265994      -306.5633
   8   2.0000     -11.249994      -306.1279
   9   2.0000      -1.376800       -37.4646
  10   2.0000      -1.289289       -35.0833
  11   2.0000      -1.223454       -33.2919
  12   2.0000      -1.062676       -28.9169
  13   2.0000      -1.011149       -27.5148
  14   2.0000      -0.919000       -25.0073
  15   2.0000      -0.854657       -23.2564
  16   2.0000      -0.800588       -21.7851
  17   2.0000      -0.765313       -20.8252
  18   2.0000      -0.707070       -19.2404
  19   2.0000      -0.681725       -18.5507
  20   2.0000      -0.666874       -18.1466
  21   2.0000      -0.644829       -17.5467
  22   2.0000      -0.608865       -16.5681
  23   2.0000      -0.595345       -16.2002
  24   2.0000      -0.577950       -15.7268
  25   2.0000      -0.562924       -15.3179
  26   2.0000      -0.549837       -14.9618
  27   2.0000      -0.527733       -14.3604
  28   2.0000      -0.513810       -13.9815
  29   2.0000      -0.475570       -12.9409
  30   2.0000      -0.461559       -12.5597
  31   2.0000      -0.414509       -11.2794
  32   2.0000      -0.386809       -10.5256
  33   2.0000      -0.377925       -10.2839
  34   0.0000       0.124481         3.3873
  35   0.0000       0.144066         3.9202
  36   0.0000       0.158362         4.3093
  37   0.0000       0.167028         4.5451
  38   0.0000       0.175514         4.7760

MULLIKEN ATOMIC CHARGES
-----------------------
   0 O :   -0.352835
   1 C :    0.199233
   2 C :   -0.121694
   3 N :   -0.224548
   4 C :   -0.180498
   5 C :   -0.066828
   6 C :   -0.237120
   7 C :   -0.101803
   8 N :   -0.309537
   9 H :    0.146236
  10 H :    0.116666
  11 H :    0.133127
  12 H :    0.121982
  13 H :    0.121624
  14 H :    0.138980
  15 H :    0.127339
  16 H :    0.118538
  17 H :    0.132257
  18 H :    0.238880
Sum of atomic charges:    0.0000000

LOEWDIN ATOMIC CHARGES
----------------------
   0 O :    0.078578
   1 C :   -0.452237
   2 C :   -0.251794
   3 N :    0.113367
   4 C :   -0.239272
   5 C :   -0.261173
   6 C :   -0.253197
   7 C :   -0.277214
   8 N :    0.105990
   9 H :    0.149791
  10 H :    0.132269
  11 H :    0.126870
  12 H :    0.124926
  13 H :    0.144847
  14 H :    0.151679
  15 H :    0.144072
  16 H :    0.134166
  17 H :    0.134862
  18 H :    0.193470

  Mayer bond orders larger than 0.1
B(  0-O ,  1-C ) :   1.9801 B(  1-C ,  2-C ) :   0.9282 B(  1-C ,  8-N ) :   1.1662
B(  2-C ,  3-N ) :   0.8491 B(  2-C ,  9-H ) :   0.9165 B(  2-C , 10-H ) :   0.9144
B(  3-N ,  4-C ) :   0.8818 B(  3-N ,  5-C ) :   0.9148 B(  4-C ,  5-C ) :   0.9495
B(  4-C , 11-H ) :   0.9239 B(  4-C , 12-H ) :   0.9160 B(  5-C ,  6-C ) :   0.9253
B(  5-C , 13-H ) :   0.9134 B(  6-C ,  7-C ) :   0.9407 B(  6-C , 14-H ) :   0.9245
B(  6-C , 15-H ) :   0.9317 B(  7-C ,  8-N ) :   0.8785 B(  7-C , 16-H ) :   0.9261
B(  7-C , 17-H ) :   0.9281 B(  8-N , 18-H ) :   0.8587

MP2 TOTAL ENERGY:     -418.504314148 Eh
FINAL SINGLE POINT ENERGY      -418.504314147820

DIPOLE MOMENT
-------------
                                X             Y             Z
Electronic contribution:      0.25685      -6.08721      -0.95971
Nuclear contribution   :      0.21024       7.89755       1.30765
                        -----------------------------------------
Total Dipole Moment    :      0.46710       1.81034       0.34794
                        -----------------------------------------
Magnitude (a.u.)       :      1.90172
Magnitude (Debye)      :      4.83380

                             ****ORCA TERMINATED NORMALLY****
TOTAL RUN TIME: 0 days 0 hours 23 minutes 37 seconds 526 msec
