                         Program Version 3.0.3 - RELEASE   -
|  1> ! RI-MP2 RIJK def2-TZVP def2-TZVP/C def2-TZVP/JK TIGHTSCF
|  2> % maxcore 2000
|  3> % mp2 density relaxed end
|  4> *xyz 0 1
|  5>  O        0.1909597845     1.2732657878    -0.5657442304
|  6>  C        0.0326781263     0.0778866258     0.1801320746
|  7>  C       -1.3284074347    -0.4612206313     0.1356089793
|  8>  C       -2.4676502839    -0.8485999178     0.1060887651
|  9>  C       -3.8239565260    -1.3847614932     0.0450009161
| 10>  C       -3.8246067542    -2.9418673531    -0.1005367388
| 11>  O       -5.1242617473    -3.4536964558    -0.2284531912
| 12>  C       -4.6179487652    -1.0196790453     1.2292954671
| 13>  N       -5.2655793950    -0.7964691582     2.1599352727
| 14>  H       -0.4462469187     1.9133044244    -0.2312720463
| 15>  H        0.7317769489    -0.6430236333    -0.2574812444
| 16>  H        0.3309627273     0.2109592621     1.2319177754
| 17>  H       -4.3471507044    -0.9847244022    -0.8333095413
| 18>  H       -3.2874558090    -3.1874614508    -1.0196339479
| 19>  H       -3.2759400748    -3.3740966617     0.7465203416
| 20>  H       -5.5751701339    -3.3612408072     0.6188816084
| 21> *
| 22>
| 23>                          ****END OF INPUT****

CARTESIAN COORDINATES (ANGSTROEM)
---------------------------------
  O      0.190960    1.273266   -0.565744
  C      0.032678    0.077887    0.180132
  C     -1.328407   -0.461221    0.135609
  C     -2.467650   -0.848600    0.106089
  C     -3.823957   -1.384761    0.045001
  C     -3.824607   -2.941867   -0.100537
  O     -5.124262   -3.453696   -0.228453
  C     -4.617949   -1.019679    1.229295
  N     -5.265579   -0.796469    2.159935
  H     -0.446247    1.913304   -0.231272
  H      0.731777   -0.643024   -0.257481
  H      0.330963    0.210959    1.231918
  H     -4.347151   -0.984724   -0.833310
  H     -3.287456   -3.187461   -1.019634
  H     -3.275940   -3.374097    0.746520
  H     -5.575170   -3.361241    0.618882

 Total Charge           Charge          ....    0
 Multiplicity           Mult            ....    1
 Number of Electrons    NEL             ....   66
 Basis Dimension        Dim             ....  321

ORBITAL ENERGIES
----------------

  NO   OCC          E(Eh)            E(eV)
   0   2.0000     -20.585174      -560.1511
   1   2.0000     -20.580344      -560.0196
   2   2.0000     -15.587551      -424.1588
   3   2.0000     -11.323868      -308.1381
   4   2.0000     -11.322591      -308.1034
   5   2.0000     -11.318852      -308.0016
   6   2.0000     -11.291020      -307.2443
   7   2.0000     -11.261569      -306.4429
   8   2.0000     -11.257172      -306.3232
   9   2.0000      -1.395364       -37.9698
  10   2.0000      -1.385480       -37.7008
  11   2.0000      -1.237407       -33.6716
  12   2.0000      -1.128958       -30.7205
  13   2.0000      -1.051851       -28.6223
  14   2.0000      -0.958564       -26.0839
  15   2.0000      -0.916516       -24.9397
  16   2.0000      -0.764049       -20.7908
  17   2.0000      -0.740335       -20.1455
  18   2.0000      -0.726199       -19.7609
  19   2.0000      -0.697846       -18.9894
  20   2.0000      -0.672853       -18.3093
  21   2.0000      -0.636222       -17.3125
  22   2.0000      -0.627766       -17.0824
  23   2.0000      -0.620859       -16.8944
  24   2.0000      -0.574196       -15.6247
  25   2.0000      -0.551969       -15.0198
  26   2.0000      -0.533397       -14.5145
  27   2.0000      -0.501390       -13.6435
  28   2.0000      -0.492089       -13.3904
  29   2.0000      -0.483516       -13.1571
  30   2.0000      -0.471201       -12.8220
  31   2.0000      -0.411368       -11.1939
  32   2.0000      -0.406360       -11.0576
  33   0.0000       0.110995         3.0203
  34   0.0000       0.131230         3.5710
  35   0.0000       0.145173         3.9503
  36   0.0000       0.149425         4.0661
  37   0.0000       0.155333         4.2268

MULLIKEN ATOMIC CHARGES
-----------------------
   0 O :   -0.454622
   1 C :   -0.065450
   2 C :   -0.032112
   3 C :   -0.061940
   4 C :    0.023290
   5 C :   -0.049371
   6 O :   -0.458053
   7 C :   -0.211980
   8 N :   -0.051602
   9 H :    0.322976
  10 H :    0.142790
  11 H :    0.141958
  12 H :    0.153544
  13 H :    0.138977
  14 H :    0.126102
  15 H :    0.335493
Sum of atomic charges:    0.0000000

LOEWDIN ATOMIC CHARGES
----------------------
   0 O :   -0.034430
   1 C :   -0.331217
   2 C :   -0.062222
   3 C :   -0.040981
   4 C :   -0.235954
   5 C :   -0.298036
   6 O :   -0.017312
   7 C :   -0.163558
   8 N :    0.069658
   9 H :    0.179787
  10 H :    0.148324
  11 H :    0.137826
  12 H :    0.194914
  13 H :    0.139929
  14 H :    0.128840
  15 H :    0.184431

  Mayer bond orders larger than 0.1
B(  0-O ,  1-C ) :   0.9574 B(  0-O ,  9-H ) :   0.8412 B(  1-C ,  2-C ) :   0.8582
B(  1-C , 10-H ) :   0.9163 B(  1-C , 11-H ) :   0.9825 B(  2-C ,  3-C ) :   2.7057
B(  3-C ,  4-C ) :   1.0223 B(  4-C ,  5-C ) :   0.8835 B(  4-C ,  7-C ) :   0.8904
B(  4-C , 12-H ) :   0.8868 B(  5-C ,  6-O ) :   0.9828 B(  5-C , 13-H ) :   0.9250
B(  5-C , 14-H ) :   0.9277 B(  6-O , 15-H ) :   0.8330 B(  7-C ,  8-N ) :   2.8487

MP2 TOTAL ENERGY:     -437.129888823 Eh
FINAL SINGLE POINT ENERGY      -437.129888823018

DIPOLE MOMENT
-------------
                                X             Y             Z
Electronic contribution:     -3.41865       1.57717       1.54211
Nuclear contribution   :      4.06936      -1.78042      -1.71076
                        -----------------------------------------
Total Dipole Moment    :      0.65070      -0.20325      -0.16865
                        -----------------------------------------
Magnitude (a.u.)       :      0.70226
Magnitude (Debye)      :      1.78500

                             ****ORCA TERMINATED NORMALLY****
TOTAL RUN TIME: 0 days 0 hours 12 minutes 5 seconds 217 msec
