                         Program Version 3.0.3 - RELEASE   -
|  1> ! RI-MP2 RIJK def2-TZVP def2-TZVP/C def2-TZVP/JK TIGHTSCF
|  2> % maxcore 2000
|  3> % mp2 density relaxed end
|  4> *xyz 0 1
|  5>  C       -0.0555295775     1.5553999091     0.0806404099
|  6>  C        0.0056612921     0.0614250349     0.0389997054
|  7>  C       -0.2361857732    -0.7259182557    -1.0118099195
|  8>  C       -0.0282127239    -2.1982181507    -0.7130908901
|  9>  C        0.1197778464    -2.2084412146     0.8370379955
| 10>  C        0.4346339093    -0.7490564413     1.2431367280
| 11>  C       -1.2065274461    -3.0363982327    -1.1701558192
| 12>  O       -1.1660510705    -3.9053252697    -2.0013691776
| 13>  H        0.9188918051     1.9823487669     0.3504553558
| 14>  H       -0.3573217750     1.9767460493    -0.8816966401
| 15>  H       -0.7656365926     1.8987812604     0.8434775381
| 16>  H       -0.5135390687    -0.3742955237    -2.0000456779
| 17>  H        0.8601700694    -2.5894297683    -1.2242431070
| 18>  H       -0.8323058821    -2.5141856315     1.2867754818
| 19>  H        0.8743577707    -2.9238879934     1.1702854303
| 20>  H        1.5055820941    -0.5968874684     1.4390231475
| 21>  H       -0.0862838457    -0.4485642590     2.1600988272
| 22>  H       -2.1634723819    -2.7679925616    -0.6599147582
| 23> *
| 24>
| 25>                          ****END OF INPUT****

CARTESIAN COORDINATES (ANGSTROEM)
---------------------------------
  C     -0.055530    1.555400    0.080640
  C      0.005661    0.061425    0.039000
  C     -0.236186   -0.725918   -1.011810
  C     -0.028213   -2.198218   -0.713091
  C      0.119778   -2.208441    0.837038
  C      0.434634   -0.749056    1.243137
  C     -1.206527   -3.036398   -1.170156
  O     -1.166051   -3.905325   -2.001369
  H      0.918892    1.982349    0.350455
  H     -0.357322    1.976746   -0.881697
  H     -0.765637    1.898781    0.843478
  H     -0.513539   -0.374296   -2.000046
  H      0.860170   -2.589430   -1.224243
  H     -0.832306   -2.514186    1.286775
  H      0.874358   -2.923888    1.170285
  H      1.505582   -0.596887    1.439023
  H     -0.086284   -0.448564    2.160099
  H     -2.163472   -2.767993   -0.659915

 Total Charge           Charge          ....    0
 Multiplicity           Mult            ....    1
 Number of Electrons    NEL             ....   60
 Basis Dimension        Dim             ....  308

ORBITAL ENERGIES
----------------

  NO   OCC          E(Eh)            E(eV)
   0   2.0000     -20.552743      -559.2686
   1   2.0000     -11.325282      -308.1766
   2   2.0000     -11.246081      -306.0214
   3   2.0000     -11.243909      -305.9623
   4   2.0000     -11.239197      -305.8341
   5   2.0000     -11.236860      -305.7705
   6   2.0000     -11.232794      -305.6599
   7   2.0000     -11.229426      -305.5682
   8   2.0000      -1.391690       -37.8698
   9   2.0000      -1.154579       -31.4177
  10   2.0000      -1.035690       -28.1826
  11   2.0000      -0.984103       -26.7788
  12   2.0000      -0.929076       -25.2814
  13   2.0000      -0.839207       -22.8360
  14   2.0000      -0.780983       -21.2516
  15   2.0000      -0.722533       -19.6611
  16   2.0000      -0.677383       -18.4325
  17   2.0000      -0.654590       -17.8123
  18   2.0000      -0.633478       -17.2378
  19   2.0000      -0.599567       -16.3150
  20   2.0000      -0.585496       -15.9322
  21   2.0000      -0.567844       -15.4518
  22   2.0000      -0.544138       -14.8068
  23   2.0000      -0.532558       -14.4916
  24   2.0000      -0.512699       -13.9512
  25   2.0000      -0.498124       -13.5546
  26   2.0000      -0.484953       -13.1963
  27   2.0000      -0.477735       -12.9998
  28   2.0000      -0.417651       -11.3649
  29   2.0000      -0.350030        -9.5248
  30   0.0000       0.122705         3.3390
  31   0.0000       0.128891         3.5073
  32   0.0000       0.148849         4.0504
  33   0.0000       0.161903         4.4056
  34   0.0000       0.174763         4.7555

MULLIKEN ATOMIC CHARGES
-----------------------
   0 C :   -0.423291
   1 C :    0.035013
   2 C :   -0.285861
   3 C :    0.131350
   4 C :   -0.319909
   5 C :   -0.162861
   6 C :    0.054605
   7 O :   -0.259074
   8 H :    0.140119
   9 H :    0.139749
  10 H :    0.141940
  11 H :    0.134365
  12 H :    0.103442
  13 H :    0.121266
  14 H :    0.136954
  15 H :    0.118630
  16 H :    0.122893
  17 H :    0.070670
Sum of atomic charges:   -0.0000000

LOEWDIN ATOMIC CHARGES
----------------------
   0 C :   -0.271326
   1 C :   -0.185283
   2 C :   -0.121257
   3 C :   -0.226756
   4 C :   -0.205705
   5 C :   -0.212221
   6 C :   -0.279019
   7 O :    0.132921
   8 H :    0.132947
   9 H :    0.131324
  10 H :    0.132620
  11 H :    0.142572
  12 H :    0.158518
  13 H :    0.141471
  14 H :    0.136332
  15 H :    0.142667
  16 H :    0.138928
  17 H :    0.111267

  Mayer bond orders larger than 0.1
B(  0-C ,  1-C ) :   0.8914 B(  0-C ,  8-H ) :   0.9245 B(  0-C ,  9-H ) :   0.9465
B(  0-C , 10-H ) :   0.9352 B(  1-C ,  2-C ) :   1.7427 B(  1-C ,  5-C ) :   0.9260
B(  2-C ,  3-C ) :   0.8800 B(  2-C , 11-H ) :   0.9186 B(  3-C ,  4-C ) :   0.8984
B(  3-C ,  6-C ) :   0.8431 B(  3-C , 12-H ) :   0.8939 B(  4-C ,  5-C ) :   0.9312
B(  4-C , 13-H ) :   0.9303 B(  4-C , 14-H ) :   0.9329 B(  5-C , 15-H ) :   0.9030
B(  5-C , 16-H ) :   0.9258 B(  6-C ,  7-O ) :   1.9993 B(  6-C , 17-H ) :   0.9334

MP2 TOTAL ENERGY:     -347.219741811 Eh
FINAL SINGLE POINT ENERGY      -347.219741810689

DIPOLE MOMENT
-------------
                                X             Y             Z
Electronic contribution:     -1.82511      -6.34259      -4.68924
Nuclear contribution   :      2.08740       7.33490       5.53112
                        -----------------------------------------
Total Dipole Moment    :      0.26228       0.99231       0.84188
                        -----------------------------------------
Magnitude (a.u.)       :      1.32749
Magnitude (Debye)      :      3.37422

                             ****ORCA TERMINATED NORMALLY****
TOTAL RUN TIME: 0 days 0 hours 12 minutes 33 seconds 589 msec
