                         Program Version 3.0.3 - RELEASE   -
|  1> ! RI-MP2 RIJK def2-TZVP def2-TZVP/C def2-TZVP/JK TIGHTSCF
|  2> % maxcore 2000
|  3> % mp2 density relaxed end
|  4> *xyz 0 1
|  5>  C       -0.4353886923    -0.9459288042    -0.7132669378
|  6>  C       -0.2743744212     0.1596234226    -0.2662186479
|  7>  C       -0.0478301718     1.4794090129     0.2817351743
|  8>  C        0.1847035371     1.6424091278     1.8183686430
|  9>  C        1.2524096068     2.7202461377     1.5013191243
| 10>  C        1.3308262103     2.1877032530     0.0514965496
| 11>  C        2.5605452016     1.3760468313    -0.4060555672
| 12>  O        2.7933914823     2.2716063641    -1.5136149416
| 13>  C        1.6368000635     3.0603596977    -1.1744072071
| 14>  H       -0.5898455966    -1.9186627864    -1.1100206049
| 15>  H       -0.8458931094     2.1583907428    -0.0426913844
| 16>  H       -0.6794561002     1.9322570061     2.4186073506
| 17>  H        0.6258263436     0.7382520191     2.2435884854
| 18>  H        0.8381869645     3.7331223347     1.5353422640
| 19>  H        2.1772537643     2.7034077005     2.0829173949
| 20>  H        3.4043761225     1.3633756287     0.2963868912
| 21>  H        2.3486628444     0.3540454668    -0.7419089394
| 22>  H        0.8749282501     3.0394946059    -1.9660043929
| 23>  H        1.8961372005     4.1055178989    -0.9565075740
| 24> *
| 25>
| 26>                          ****END OF INPUT****

CARTESIAN COORDINATES (ANGSTROEM)
---------------------------------
  C     -0.435389   -0.945929   -0.713267
  C     -0.274374    0.159623   -0.266219
  C     -0.047830    1.479409    0.281735
  C      0.184704    1.642409    1.818369
  C      1.252410    2.720246    1.501319
  C      1.330826    2.187703    0.051497
  C      2.560545    1.376047   -0.406056
  O      2.793391    2.271606   -1.513615
  C      1.636800    3.060360   -1.174407
  H     -0.589846   -1.918663   -1.110021
  H     -0.845893    2.158391   -0.042691
  H     -0.679456    1.932257    2.418607
  H      0.625826    0.738252    2.243588
  H      0.838187    3.733122    1.535342
  H      2.177254    2.703408    2.082917
  H      3.404376    1.363376    0.296387
  H      2.348663    0.354045   -0.741909
  H      0.874928    3.039495   -1.966004
  H      1.896137    4.105518   -0.956508

 Total Charge           Charge          ....    0
 Multiplicity           Mult            ....    1
 Number of Electrons    NEL             ....   66
 Basis Dimension        Dim             ....  339

ORBITAL ENERGIES
----------------

  NO   OCC          E(Eh)            E(eV)
   0   2.0000     -20.545322      -559.0666
   1   2.0000     -11.277114      -306.8659
   2   2.0000     -11.274954      -306.8071
   3   2.0000     -11.261671      -306.4456
   4   2.0000     -11.249392      -306.1115
   5   2.0000     -11.238769      -305.8224
   6   2.0000     -11.235932      -305.7452
   7   2.0000     -11.234854      -305.7159
   8   2.0000     -11.225221      -305.4538
   9   2.0000      -1.375923       -37.4408
  10   2.0000      -1.154936       -31.4274
  11   2.0000      -1.035862       -28.1872
  12   2.0000      -0.969740       -26.3880
  13   2.0000      -0.934820       -25.4377
  14   2.0000      -0.927351       -25.2345
  15   2.0000      -0.828950       -22.5569
  16   2.0000      -0.752132       -20.4665
  17   2.0000      -0.716567       -19.4988
  18   2.0000      -0.683497       -18.5989
  19   2.0000      -0.672111       -18.2891
  20   2.0000      -0.669830       -18.2270
  21   2.0000      -0.592215       -16.1150
  22   2.0000      -0.585829       -15.9412
  23   2.0000      -0.561899       -15.2900
  24   2.0000      -0.552132       -15.0243
  25   2.0000      -0.519737       -14.1428
  26   2.0000      -0.514319       -13.9953
  27   2.0000      -0.482942       -13.1415
  28   2.0000      -0.448251       -12.1975
  29   2.0000      -0.436530       -11.8786
  30   2.0000      -0.410335       -11.1658
  31   2.0000      -0.384602       -10.4656
  32   2.0000      -0.380573       -10.3559
  33   0.0000       0.128334         3.4922
  34   0.0000       0.148110         4.0303
  35   0.0000       0.157274         4.2796
  36   0.0000       0.163387         4.4460
  37   0.0000       0.172630         4.6975

MULLIKEN ATOMIC CHARGES
-----------------------
   0 C :   -0.141523
   1 C :   -0.040638
   2 C :   -0.199158
   3 C :   -0.220731
   4 C :   -0.231382
   5 C :    0.019259
   6 C :   -0.039907
   7 O :   -0.328682
   8 C :   -0.016150
   9 H :    0.190658
  10 H :    0.122359
  11 H :    0.124712
  12 H :    0.128441
  13 H :    0.115808
  14 H :    0.125783
  15 H :    0.089496
  16 H :    0.113389
  17 H :    0.096342
  18 H :    0.091924
Sum of atomic charges:   -0.0000000

LOEWDIN ATOMIC CHARGES
----------------------
   0 C :   -0.096639
   1 C :   -0.094261
   2 C :   -0.183602
   3 C :   -0.194041
   4 C :   -0.199931
   5 C :   -0.203922
   6 C :   -0.223031
   7 O :    0.113336
   8 C :   -0.237199
   9 H :    0.127171
  10 H :    0.172015
  11 H :    0.126537
  12 H :    0.141078
  13 H :    0.138396
  14 H :    0.129853
  15 H :    0.118190
  16 H :    0.125765
  17 H :    0.121007
  18 H :    0.119276

  Mayer bond orders larger than 0.1
B(  0-C ,  1-C ) :   2.5776 B(  0-C ,  2-C ) :  -0.1015 B(  0-C ,  9-H ) :   0.8945
B(  1-C ,  2-C ) :   1.1739 B(  2-C ,  3-C ) :   0.9041 B(  2-C ,  5-C ) :   0.8793
B(  2-C , 10-H ) :   0.9178 B(  3-C ,  4-C ) :   0.9365 B(  3-C , 11-H ) :   0.9251
B(  3-C , 12-H ) :   0.9228 B(  4-C ,  5-C ) :   0.9031 B(  4-C , 13-H ) :   0.9161
B(  4-C , 14-H ) :   0.9187 B(  5-C ,  6-C ) :   0.9748 B(  5-C ,  8-C ) :   0.9619
B(  6-C ,  7-O ) :   0.9654 B(  6-C , 15-H ) :   0.9045 B(  6-C , 16-H ) :   0.9016
B(  7-O ,  8-C ) :   0.9723 B(  8-C , 17-H ) :   0.9036 B(  8-C , 18-H ) :   0.9028

MP2 TOTAL ENERGY:     -385.132338932 Eh
FINAL SINGLE POINT ENERGY      -385.132338932202

DIPOLE MOMENT
-------------
                                X             Y             Z
Electronic contribution:      0.01805      -1.99003      -3.39206
Nuclear contribution   :     -0.48140       2.11963       4.06628
                        -----------------------------------------
Total Dipole Moment    :     -0.46335       0.12959       0.67422
                        -----------------------------------------
Magnitude (a.u.)       :      0.82829
Magnitude (Debye)      :      2.10535

                             ****ORCA TERMINATED NORMALLY****
TOTAL RUN TIME: 0 days 0 hours 19 minutes 34 seconds 675 msec
