                         Program Version 3.0.3 - RELEASE   -
|  1> ! RI-MP2 RIJK def2-TZVP def2-TZVP/C def2-TZVP/JK TIGHTSCF
|  2> % maxcore 2000
|  3> % mp2 density relaxed end
|  4> *xyz 0 1
|  5>  C        0.0647680951     1.4401019327     0.0713291729
|  6>  O       -0.0144692126     0.0276276905     0.0401405599
|  7>  C        0.5589577831    -0.5623668156    -1.0420630662
|  8>  C        0.6311135219    -1.9335375305    -1.2169713171
|  9>  C        0.1451836717    -3.0759470488    -0.3919884487
| 10>  O        0.9365327115    -4.2131899641    -0.7245148218
| 11>  N        1.2512040335    -2.1075512723    -2.4125054489
| 12>  N        1.6059192088    -0.9640668566    -3.0122054449
| 13>  C        1.1755013088    -0.0065914931    -2.1860462870
| 14>  H        1.1079241154     1.7836670737     0.0647750419
| 15>  H       -0.4614859764     1.8900828778    -0.7813451469
| 16>  H       -0.4144638571     1.7596744220     0.9982808706
| 17>  H        0.2260044749    -2.8123280102     0.6728639647
| 18>  H       -0.9201977367    -3.2745447642    -0.5943320614
| 19>  H        0.5196090879    -4.9900461948    -0.3412944025
| 20>  H        1.5257310262    -2.9946052923    -2.7998613825
| 21>  H        1.3279763140     1.0306379057    -2.4399679120
| 22> *
| 23>
| 24>                          ****END OF INPUT****

CARTESIAN COORDINATES (ANGSTROEM)
---------------------------------
  C      0.064768    1.440102    0.071329
  O     -0.014469    0.027628    0.040141
  C      0.558958   -0.562367   -1.042063
  C      0.631114   -1.933538   -1.216971
  C      0.145184   -3.075947   -0.391988
  O      0.936533   -4.213190   -0.724515
  N      1.251204   -2.107551   -2.412505
  N      1.605919   -0.964067   -3.012205
  C      1.175501   -0.006591   -2.186046
  H      1.107924    1.783667    0.064775
  H     -0.461486    1.890083   -0.781345
  H     -0.414464    1.759674    0.998281
  H      0.226004   -2.812328    0.672864
  H     -0.920198   -3.274545   -0.594332
  H      0.519609   -4.990046   -0.341294
  H      1.525731   -2.994605   -2.799861
  H      1.327976    1.030638   -2.439968

 Total Charge           Charge          ....    0
 Multiplicity           Mult            ....    1
 Number of Electrons    NEL             ....   68
 Basis Dimension        Dim             ....  327

ORBITAL ENERGIES
----------------

  NO   OCC          E(Eh)            E(eV)
   0   2.0000     -20.580323      -560.0191
   1   2.0000     -20.576637      -559.9188
   2   2.0000     -15.627320      -425.2410
   3   2.0000     -15.580895      -423.9777
   4   2.0000     -11.301606      -307.5323
   5   2.0000     -11.283275      -307.0335
   6   2.0000     -11.274808      -306.8031
   7   2.0000     -11.264050      -306.5104
   8   2.0000     -11.245091      -305.9945
   9   2.0000      -1.408135       -38.3173
  10   2.0000      -1.383271       -37.6407
  11   2.0000      -1.361060       -37.0363
  12   2.0000      -1.097175       -29.8557
  13   2.0000      -1.054988       -28.7077
  14   2.0000      -0.955998       -26.0140
  15   2.0000      -0.930899       -25.3310
  16   2.0000      -0.818455       -22.2713
  17   2.0000      -0.781794       -21.2737
  18   2.0000      -0.719828       -19.5875
  19   2.0000      -0.707369       -19.2485
  20   2.0000      -0.669144       -18.2083
  21   2.0000      -0.656204       -17.8562
  22   2.0000      -0.640431       -17.4270
  23   2.0000      -0.625860       -17.0305
  24   2.0000      -0.598419       -16.2838
  25   2.0000      -0.588995       -16.0274
  26   2.0000      -0.562181       -15.2977
  27   2.0000      -0.537299       -14.6207
  28   2.0000      -0.508458       -13.8359
  29   2.0000      -0.496124       -13.5002
  30   2.0000      -0.474054       -12.8997
  31   2.0000      -0.446525       -12.1506
  32   2.0000      -0.352381        -9.5888
  33   2.0000      -0.308606        -8.3976
  34   0.0000       0.120760         3.2861
  35   0.0000       0.145985         3.9725
  36   0.0000       0.158949         4.3252
  37   0.0000       0.165625         4.5069
  38   0.0000       0.182008         4.9527

MULLIKEN ATOMIC CHARGES
-----------------------
   0 C :   -0.238558
   1 O :   -0.310783
   2 C :    0.217545
   3 C :    0.035049
   4 C :   -0.109500
   5 O :   -0.481328
   6 N :   -0.079010
   7 N :   -0.232663
   8 C :   -0.189960
   9 H :    0.132110
  10 H :    0.130590
  11 H :    0.145827
  12 H :    0.129171
  13 H :    0.119427
  14 H :    0.323784
  15 H :    0.269454
  16 H :    0.138845
Sum of atomic charges:    0.0000000

LOEWDIN ATOMIC CHARGES
----------------------
   0 C :   -0.329292
   1 O :    0.213558
   2 C :   -0.287089
   3 C :   -0.228344
   4 C :   -0.304802
   5 O :   -0.050471
   6 N :    0.156990
   7 N :    0.014840
   8 C :   -0.282040
   9 H :    0.109604
  10 H :    0.109015
  11 H :    0.115552
  12 H :    0.132174
  13 H :    0.126912
  14 H :    0.175707
  15 H :    0.193732
  16 H :    0.133953

  Mayer bond orders larger than 0.1
B(  0-C ,  1-O ) :   0.8830 B(  0-C ,  9-H ) :   0.9358 B(  0-C , 10-H ) :   0.9364
B(  0-C , 11-H ) :   0.9392 B(  1-O ,  2-C ) :   1.0789 B(  2-C ,  3-C ) :   1.3316
B(  2-C ,  8-C ) :   1.2594 B(  3-C ,  4-C ) :   0.8945 B(  3-C ,  5-O ) :  -0.1177
B(  3-C ,  6-N ) :   1.2005 B(  3-C ,  7-N ) :   0.1468 B(  4-C ,  5-O ) :   1.0410
B(  4-C , 12-H ) :   0.9410 B(  4-C , 13-H ) :   0.9275 B(  5-O , 14-H ) :   0.8438
B(  6-N ,  7-N ) :   1.0755 B(  6-N , 15-H ) :   0.8622 B(  7-N ,  8-C ) :   1.4940
B(  8-C , 16-H ) :   0.9397

MP2 TOTAL ENERGY:     -454.406607212 Eh
FINAL SINGLE POINT ENERGY      -454.406607212035

DIPOLE MOMENT
-------------
                                X             Y             Z
Electronic contribution:      1.74217      -3.03157      -3.05702
Nuclear contribution   :     -2.45982       2.64053       3.86268
                        -----------------------------------------
Total Dipole Moment    :     -0.71765      -0.39104       0.80567
                        -----------------------------------------
Magnitude (a.u.)       :      1.14762
Magnitude (Debye)      :      2.91702

                             ****ORCA TERMINATED NORMALLY****
TOTAL RUN TIME: 0 days 0 hours 16 minutes 24 seconds 610 msec
