                         Program Version 3.0.3 - RELEASE   -
|  1> ! RI-MP2 RIJK def2-TZVP def2-TZVP/C def2-TZVP/JK TIGHTSCF
|  2> % maxcore 2000
|  3> % mp2 density relaxed end
|  4> *xyz 0 1
|  5>  C       -0.1181974191     1.5772412213     0.0196837913
|  6>  C        0.0260721022     0.0493687270     0.0334781626
|  7>  C        0.8383081509    -0.4696058574    -1.1677141762
|  8>  O        0.6353261912    -0.1812701568    -2.3173066201
|  9>  C        1.9570246384    -1.3878030951    -0.6518181657
| 10>  C        1.8146435668    -1.2991119455     0.8380349277
| 11>  C        0.7795171853    -0.5301036097     1.2200561724
| 12>  C        0.3834674023    -0.2654456987     2.5528050911
| 13>  C        0.0053712482    -0.0122155287     3.6688399581
| 14>  H        0.8590424605     2.0637023801     0.0989875517
| 15>  H       -0.5842570301     1.8934836197    -0.9167840852
| 16>  H       -0.7346206481     1.9142882270     0.8569790823
| 17>  H       -0.9792871332    -0.3919039323    -0.0280403728
| 18>  H        1.8166858482    -2.4047332234    -1.0434406383
| 19>  H        2.9313277123    -1.0520143519    -1.0293782643
| 20>  H        2.4758854227    -1.8096018462     1.5274335574
| 21>  H       -0.3150837984     0.2014813006     4.6584828981
| 22> *
| 23>
| 24>                          ****END OF INPUT****

CARTESIAN COORDINATES (ANGSTROEM)
---------------------------------
  C     -0.118197    1.577241    0.019684
  C      0.026072    0.049369    0.033478
  C      0.838308   -0.469606   -1.167714
  O      0.635326   -0.181270   -2.317307
  C      1.957025   -1.387803   -0.651818
  C      1.814644   -1.299112    0.838035
  C      0.779517   -0.530104    1.220056
  C      0.383467   -0.265446    2.552805
  C      0.005371   -0.012216    3.668840
  H      0.859042    2.063702    0.098988
  H     -0.584257    1.893484   -0.916784
  H     -0.734621    1.914288    0.856979
  H     -0.979287   -0.391904   -0.028040
  H      1.816686   -2.404733   -1.043441
  H      2.931328   -1.052014   -1.029378
  H      2.475885   -1.809602    1.527434
  H     -0.315084    0.201481    4.658483

 Total Charge           Charge          ....    0
 Multiplicity           Mult            ....    1
 Number of Electrons    NEL             ....   64
 Basis Dimension        Dim             ....  327

ORBITAL ENERGIES
----------------

  NO   OCC          E(Eh)            E(eV)
   0   2.0000     -20.552907      -559.2730
   1   2.0000     -11.336884      -308.4923
   2   2.0000     -11.269143      -306.6490
   3   2.0000     -11.258915      -306.3706
   4   2.0000     -11.255839      -306.2870
   5   2.0000     -11.252177      -306.1873
   6   2.0000     -11.247931      -306.0718
   7   2.0000     -11.239886      -305.8528
   8   2.0000     -11.226563      -305.4903
   9   2.0000      -1.397811       -38.0364
  10   2.0000      -1.167423       -31.7672
  11   2.0000      -1.051452       -28.6115
  12   2.0000      -1.035165       -28.1683
  13   2.0000      -0.964504       -26.2455
  14   2.0000      -0.895037       -24.3552
  15   2.0000      -0.815382       -22.1877
  16   2.0000      -0.743827       -20.2406
  17   2.0000      -0.725078       -19.7304
  18   2.0000      -0.694530       -18.8991
  19   2.0000      -0.644238       -17.5306
  20   2.0000      -0.627356       -17.0712
  21   2.0000      -0.601975       -16.3806
  22   2.0000      -0.597582       -16.2610
  23   2.0000      -0.575700       -15.6656
  24   2.0000      -0.544141       -14.8068
  25   2.0000      -0.535795       -14.5797
  26   2.0000      -0.512511       -13.9461
  27   2.0000      -0.501944       -13.6586
  28   2.0000      -0.452583       -12.3154
  29   2.0000      -0.413839       -11.2611
  30   2.0000      -0.396202       -10.7812
  31   2.0000      -0.341788        -9.3005
  32   0.0000       0.097310         2.6479
  33   0.0000       0.120958         3.2914
  34   0.0000       0.140290         3.8175
  35   0.0000       0.155094         4.2203
  36   0.0000       0.165669         4.5081

MULLIKEN ATOMIC CHARGES
-----------------------
   0 C :   -0.415331
   1 C :    0.006076
   2 C :    0.067255
   3 O :   -0.257814
   4 C :   -0.120411
   5 C :   -0.246125
   6 C :   -0.152336
   7 C :    0.056241
   8 C :   -0.124629
   9 H :    0.129682
  10 H :    0.153845
  11 H :    0.147553
  12 H :    0.124214
  13 H :    0.144701
  14 H :    0.144903
  15 H :    0.146525
  16 H :    0.195652
Sum of atomic charges:    0.0000000

LOEWDIN ATOMIC CHARGES
----------------------
   0 C :   -0.271917
   1 C :   -0.189460
   2 C :   -0.269200
   3 O :    0.163474
   4 C :   -0.210361
   5 C :   -0.092934
   6 C :   -0.141244
   7 C :   -0.068964
   8 C :   -0.071456
   9 H :    0.128394
  10 H :    0.132622
  11 H :    0.129430
  12 H :    0.173291
  13 H :    0.158165
  14 H :    0.156199
  15 H :    0.145023
  16 H :    0.128939

  Mayer bond orders larger than 0.1
B(  0-C ,  1-C ) :   0.8845 B(  0-C ,  9-H ) :   0.9310 B(  0-C , 10-H ) :   0.9292
B(  0-C , 11-H ) :   0.9347 B(  1-C ,  2-C ) :   0.8856 B(  1-C ,  4-C ) :  -0.1208
B(  1-C ,  6-C ) :   0.9035 B(  1-C , 12-H ) :   0.8843 B(  2-C ,  3-O ) :   2.0773
B(  2-C ,  4-C ) :   0.9332 B(  4-C ,  5-C ) :   0.9374 B(  4-C , 13-H ) :   0.8863
B(  4-C , 14-H ) :   0.8942 B(  5-C ,  6-C ) :   1.6151 B(  5-C , 15-H ) :   0.9201
B(  6-C ,  7-C ) :   1.1308 B(  6-C ,  8-C ) :  -0.1523 B(  7-C ,  8-C ) :   2.5802
B(  8-C , 16-H ) :   0.8808

MP2 TOTAL ENERGY:     -384.001480828 Eh
FINAL SINGLE POINT ENERGY      -384.001480827673

DIPOLE MOMENT
-------------
                                X             Y             Z
Electronic contribution:      0.29043      -2.51913      -0.18718
Nuclear contribution   :     -0.11503       2.29912       0.99877
                        -----------------------------------------
Total Dipole Moment    :      0.17540      -0.22001       0.81159
                        -----------------------------------------
Magnitude (a.u.)       :      0.85898
Magnitude (Debye)      :      2.18335

                             ****ORCA TERMINATED NORMALLY****
TOTAL RUN TIME: 0 days 0 hours 16 minutes 46 seconds 740 msec
