                         Program Version 3.0.3 - RELEASE   -
|  1> ! RI-MP2 RIJK def2-TZVP def2-TZVP/C def2-TZVP/JK TIGHTSCF
|  2> % maxcore 2000
|  3> % mp2 density relaxed end
|  4> *xyz 0 1
|  5>  O        0.0708527191     1.4626733741    -0.0517408062
|  6>  C        0.0356982532     0.0777435434    -0.0225009521
|  7>  C        0.9922807924    -0.5151436786    -1.0244220834
|  8>  O        1.6711614329     0.1993007250    -1.7281586085
|  9>  C       -0.0152827995    -0.6069467534     1.3658344594
| 10>  C       -1.5164523238    -0.2570840632     1.5971801382
| 11>  C       -1.7886846770    -1.7325417582     1.8731341182
| 12>  N       -0.7354464550    -1.8479034604     0.7722494214
| 13>  C       -1.3527932856    -0.5996336147     0.0854641789
| 14>  H        0.7261804828     1.6879179010    -0.7328658623
| 15>  H        1.0365776782    -1.6162001855    -1.0775841310
| 16>  H        0.7736588703    -0.7216051738     2.1110947161
| 17>  H       -1.9364353417     0.6478362903     2.0410634836
| 18>  H       -1.4623891036    -2.1508232920     2.8307417921
| 19>  H       -2.7619807481    -2.1437127890     1.5866445459
| 20>  H       -2.1324213644    -0.7057273249    -0.6707856902
| 21> *
| 22>
| 23>                          ****END OF INPUT****

CARTESIAN COORDINATES (ANGSTROEM)
---------------------------------
  O      0.070853    1.462673   -0.051741
  C      0.035698    0.077744   -0.022501
  C      0.992281   -0.515144   -1.024422
  O      1.671161    0.199301   -1.728159
  C     -0.015283   -0.606947    1.365834
  C     -1.516452   -0.257084    1.597180
  C     -1.788685   -1.732542    1.873134
  N     -0.735446   -1.847903    0.772249
  C     -1.352793   -0.599634    0.085464
  H      0.726180    1.687918   -0.732866
  H      1.036578   -1.616200   -1.077584
  H      0.773659   -0.721605    2.111095
  H     -1.936435    0.647836    2.041063
  H     -1.462389   -2.150823    2.830742
  H     -2.761981   -2.143713    1.586645
  H     -2.132421   -0.705727   -0.670786

 Total Charge           Charge          ....    0
 Multiplicity           Mult            ....    1
 Number of Electrons    NEL             ....   66
 Basis Dimension        Dim             ....  321

ORBITAL ENERGIES
----------------

  NO   OCC          E(Eh)            E(eV)
   0   2.0000     -20.575895      -559.8986
   1   2.0000     -20.569169      -559.7155
   2   2.0000     -15.585007      -424.0896
   3   2.0000     -11.343247      -308.6654
   4   2.0000     -11.312938      -307.8407
   5   2.0000     -11.292060      -307.2726
   6   2.0000     -11.292009      -307.2712
   7   2.0000     -11.270415      -306.6836
   8   2.0000     -11.264997      -306.5361
   9   2.0000      -1.425223       -38.7823
  10   2.0000      -1.380978       -37.5783
  11   2.0000      -1.328936       -36.1622
  12   2.0000      -1.048782       -28.5388
  13   2.0000      -0.954806       -25.9816
  14   2.0000      -0.906860       -24.6769
  15   2.0000      -0.903008       -24.5721
  16   2.0000      -0.800787       -21.7905
  17   2.0000      -0.737646       -20.0724
  18   2.0000      -0.729646       -19.8547
  19   2.0000      -0.698025       -18.9942
  20   2.0000      -0.672443       -18.2981
  21   2.0000      -0.646070       -17.5805
  22   2.0000      -0.639343       -17.3974
  23   2.0000      -0.584546       -15.9063
  24   2.0000      -0.562437       -15.3047
  25   2.0000      -0.535333       -14.5671
  26   2.0000      -0.534209       -14.5366
  27   2.0000      -0.488645       -13.2967
  28   2.0000      -0.481989       -13.1156
  29   2.0000      -0.461207       -12.5501
  30   2.0000      -0.431556       -11.7432
  31   2.0000      -0.429006       -11.6738
  32   2.0000      -0.391387       -10.6502
  33   0.0000       0.107424         2.9231
  34   0.0000       0.144908         3.9432
  35   0.0000       0.158167         4.3039
  36   0.0000       0.167559         4.5595
  37   0.0000       0.177744         4.8367

MULLIKEN ATOMIC CHARGES
-----------------------
   0 O :   -0.465771
   1 C :    0.176596
   2 C :    0.074120
   3 O :   -0.299829
   4 C :   -0.075109
   5 C :   -0.102895
   6 C :   -0.144738
   7 N :   -0.232736
   8 C :   -0.074991
   9 H :    0.337235
  10 H :    0.141305
  11 H :    0.146568
  12 H :    0.130040
  13 H :    0.121832
  14 H :    0.121831
  15 H :    0.146542
Sum of atomic charges:    0.0000000

LOEWDIN ATOMIC CHARGES
----------------------
   0 O :    0.040948
   1 C :   -0.352353
   2 C :   -0.243763
   3 O :    0.123546
   4 C :   -0.129769
   5 C :   -0.160204
   6 C :   -0.233852
   7 N :    0.123120
   8 C :   -0.129789
   9 H :    0.189724
  10 H :    0.133280
  11 H :    0.130838
  12 H :    0.128736
  13 H :    0.124345
  14 H :    0.124346
  15 H :    0.130846

  Mayer bond orders larger than 0.1
B(  0-O ,  1-C ) :   1.1832 B(  0-O ,  9-H ) :   0.7932 B(  1-C ,  2-C ) :   0.9313
B(  1-C ,  4-C ) :   0.8508 B(  1-C ,  8-C ) :   0.8511 B(  2-C ,  3-O ) :   1.8686
B(  2-C , 10-H ) :   0.9247 B(  4-C ,  5-C ) :   0.9191 B(  4-C ,  7-N ) :   0.9070
B(  4-C , 11-H ) :   0.8776 B(  5-C ,  6-C ) :   0.9562 B(  5-C ,  8-C ) :   0.9192
B(  5-C , 12-H ) :   0.9073 B(  6-C ,  7-N ) :   0.9180 B(  6-C , 13-H ) :   0.9267
B(  6-C , 14-H ) :   0.9267 B(  7-N ,  8-C ) :   0.9070 B(  8-C , 15-H ) :   0.8776

MP2 TOTAL ENERGY:     -437.069402631 Eh
FINAL SINGLE POINT ENERGY      -437.069402631341

DIPOLE MOMENT
-------------
                                X             Y             Z
Electronic contribution:      3.09875       1.86470      -3.22603
Nuclear contribution   :     -3.68983      -2.14703       3.84221
                        -----------------------------------------
Total Dipole Moment    :     -0.59108      -0.28232       0.61618
                        -----------------------------------------
Magnitude (a.u.)       :      0.89931
Magnitude (Debye)      :      2.28587

                             ****ORCA TERMINATED NORMALLY****
TOTAL RUN TIME: 0 days 0 hours 15 minutes 17 seconds 966 msec
