                         Program Version 3.0.3 - RELEASE   -
|  1> ! RI-MP2 RIJK def2-TZVP def2-TZVP/C def2-TZVP/JK TIGHTSCF
|  2> % maxcore 2000
|  3> % mp2 density relaxed end
|  4> *xyz 0 1
|  5>  O        0.3312613703     0.9782711677    -0.7114695857
|  6>  C        0.0540553049    -0.1410430928     0.0994748522
|  7>  C       -0.2166451312     0.0634754985     1.6136910313
|  8>  C       -1.4015225356    -0.9334728055     1.4820393080
|  9>  C       -1.3781042207    -0.7213207388    -0.0636599498
| 10>  C       -2.4092389752     0.2742642020    -0.6057196318
| 11>  C       -3.8014731367    -0.3144379865    -0.7177760355
| 12>  C       -4.8050728262    -0.1980454314     0.4047456277
| 13>  C       -5.0031378623     0.5821924791    -0.8717904173
| 14>  H        1.2204267124     1.2855928413    -0.5094186213
| 15>  H        0.8045808535    -0.9307422286    -0.0545377634
| 16>  H        0.5858447051    -0.1775084521     2.3158489799
| 17>  H       -0.5601403939     1.0841021414     1.8044335640
| 18>  H       -1.1208747372    -1.9511828584     1.7658690494
| 19>  H       -2.3275456274    -0.6758902205     1.9984335539
| 20>  H       -1.4265240035    -1.6384162106    -0.6603444022
| 21>  H       -2.4407528642     1.1719447902     0.0249980148
| 22>  H       -2.0739112693     0.6156105699    -1.5922596567
| 23>  H       -3.8421851201    -1.2444028443    -1.2814628384
| 24>  H       -5.4625383631    -1.0369731908     0.6057170308
| 25>  H       -4.5148879987     0.3570043598     1.2908485603
| 26>  H       -4.8404318064     1.6548807472    -0.8388620842
| 27>  H       -5.7954114947     0.2765064531    -1.5464216757
| 28> *
| 29>
| 30>                          ****END OF INPUT****

CARTESIAN COORDINATES (ANGSTROEM)
---------------------------------
  O      0.331261    0.978271   -0.711470
  C      0.054055   -0.141043    0.099475
  C     -0.216645    0.063475    1.613691
  C     -1.401523   -0.933473    1.482039
  C     -1.378104   -0.721321   -0.063660
  C     -2.409239    0.274264   -0.605720
  C     -3.801473   -0.314438   -0.717776
  C     -4.805073   -0.198045    0.404746
  C     -5.003138    0.582192   -0.871790
  H      1.220427    1.285593   -0.509419
  H      0.804581   -0.930742   -0.054538
  H      0.585845   -0.177508    2.315849
  H     -0.560140    1.084102    1.804434
  H     -1.120875   -1.951183    1.765869
  H     -2.327546   -0.675890    1.998434
  H     -1.426524   -1.638416   -0.660344
  H     -2.440753    1.171945    0.024998
  H     -2.073911    0.615611   -1.592260
  H     -3.842185   -1.244403   -1.281463
  H     -5.462538   -1.036973    0.605717
  H     -4.514888    0.357004    1.290849
  H     -4.840432    1.654881   -0.838862
  H     -5.795411    0.276506   -1.546422

 Total Charge           Charge          ....    0
 Multiplicity           Mult            ....    1
 Number of Electrons    NEL             ....   70
 Basis Dimension        Dim             ....  363

ORBITAL ENERGIES
----------------

  NO   OCC          E(Eh)            E(eV)
   0   2.0000     -20.553272      -559.2830
   1   2.0000     -11.274022      -306.7817
   2   2.0000     -11.222292      -305.3741
   3   2.0000     -11.220074      -305.3137
   4   2.0000     -11.217044      -305.2313
   5   2.0000     -11.216739      -305.2230
   6   2.0000     -11.216328      -305.2118
   7   2.0000     -11.215183      -305.1806
   8   2.0000     -11.212002      -305.0941
   9   2.0000      -1.360452       -37.0198
  10   2.0000      -1.140689       -31.0397
  11   2.0000      -1.115358       -30.3504
  12   2.0000      -0.980293       -26.6751
  13   2.0000      -0.881115       -23.9764
  14   2.0000      -0.863874       -23.5072
  15   2.0000      -0.813962       -22.1490
  16   2.0000      -0.775374       -21.0990
  17   2.0000      -0.733688       -19.9647
  18   2.0000      -0.696636       -18.9564
  19   2.0000      -0.664890       -18.0926
  20   2.0000      -0.643345       -17.5063
  21   2.0000      -0.619611       -16.8605
  22   2.0000      -0.604268       -16.4430
  23   2.0000      -0.571625       -15.5547
  24   2.0000      -0.552797       -15.0424
  25   2.0000      -0.520765       -14.1707
  26   2.0000      -0.511815       -13.9272
  27   2.0000      -0.504131       -13.7181
  28   2.0000      -0.490878       -13.3575
  29   2.0000      -0.466777       -12.7016
  30   2.0000      -0.451758       -12.2930
  31   2.0000      -0.438976       -11.9451
  32   2.0000      -0.410833       -11.1793
  33   2.0000      -0.399856       -10.8806
  34   2.0000      -0.390209       -10.6181
  35   0.0000       0.136045         3.7020
  36   0.0000       0.150677         4.1001
  37   0.0000       0.153246         4.1700
  38   0.0000       0.164841         4.4855
  39   0.0000       0.179048         4.8721

MULLIKEN ATOMIC CHARGES
-----------------------
   0 O :   -0.453019
   1 C :    0.029935
   2 C :   -0.232059
   3 C :   -0.264302
   4 C :    0.001746
   5 C :   -0.313331
   6 C :   -0.047970
   7 C :   -0.277448
   8 C :   -0.261067
   9 H :    0.313104
  10 H :    0.079988
  11 H :    0.117248
  12 H :    0.110515
  13 H :    0.117136
  14 H :    0.117878
  15 H :    0.097268
  16 H :    0.117104
  17 H :    0.136823
  18 H :    0.110755
  19 H :    0.125588
  20 H :    0.120937
  21 H :    0.126457
  22 H :    0.126714
Sum of atomic charges:   -0.0000000

LOEWDIN ATOMIC CHARGES
----------------------
   0 O :   -0.018495
   1 C :   -0.316550
   2 C :   -0.235986
   3 C :   -0.219530
   4 C :   -0.206594
   5 C :   -0.225375
   6 C :   -0.229730
   7 C :   -0.236799
   8 C :   -0.233359
   9 H :    0.175318
  10 H :    0.129853
  11 H :    0.120310
  12 H :    0.135528
  13 H :    0.132005
  14 H :    0.127574
  15 H :    0.141080
  16 H :    0.146160
  17 H :    0.149030
  18 H :    0.146810
  19 H :    0.128661
  20 H :    0.128806
  21 H :    0.131989
  22 H :    0.129294

  Mayer bond orders larger than 0.1
B(  0-O ,  1-C ) :   1.0948 B(  0-O ,  9-H ) :   0.8445 B(  1-C ,  2-C ) :   0.9214
B(  1-C ,  4-C ) :   0.8867 B(  1-C , 10-H ) :   0.9575 B(  2-C ,  3-C ) :   0.9365
B(  2-C , 11-H ) :   0.9261 B(  2-C , 12-H ) :   0.9151 B(  3-C ,  4-C ) :   0.8841
B(  3-C , 13-H ) :   0.9277 B(  3-C , 14-H ) :   0.9275 B(  4-C ,  5-C ) :   0.9375
B(  4-C , 15-H ) :   0.9201 B(  5-C ,  6-C ) :   0.9008 B(  5-C , 16-H ) :   0.9238
B(  5-C , 17-H ) :   0.9353 B(  6-C ,  7-C ) :   0.8847 B(  6-C ,  8-C ) :   0.8858
B(  6-C , 18-H ) :   0.9283 B(  7-C ,  8-C ) :   0.9072 B(  7-C , 19-H ) :   0.9296
B(  7-C , 20-H ) :   0.9295 B(  8-C , 21-H ) :   0.9295 B(  8-C , 22-H ) :   0.9314

MP2 TOTAL ENERGY:     -387.586393456 Eh
FINAL SINGLE POINT ENERGY      -387.586393455982

DIPOLE MOMENT
-------------
                                X             Y             Z
Electronic contribution:      3.75285       0.69036      -1.94823
Nuclear contribution   :     -3.30720      -0.88645       2.26568
                        -----------------------------------------
Total Dipole Moment    :      0.44565      -0.19609       0.31745
                        -----------------------------------------
Magnitude (a.u.)       :      0.58123
Magnitude (Debye)      :      1.47737

                             ****ORCA TERMINATED NORMALLY****
TOTAL RUN TIME: 0 days 0 hours 18 minutes 45 seconds 131 msec
