                         Program Version 3.0.3 - RELEASE   -
|  1> ! RI-MP2 RIJK def2-TZVP def2-TZVP/C def2-TZVP/JK TIGHTSCF
|  2> % maxcore 2000
|  3> % mp2 density relaxed end
|  4> *xyz 0 1
|  5>  C        0.0160770436     1.5965919514     0.0152820247
|  6>  C       -0.0884699590     0.0719013552    -0.0628733085
|  7>  C        0.7774076184    -0.5267580835    -1.1778423116
|  8>  O        2.1486838416    -0.1770536534    -1.0417538457
|  9>  C        0.6369551826    -2.0577098811    -1.2720302756
| 10>  C        1.4050459455    -2.6712039068    -2.4712692990
| 11>  O        2.2721702820    -3.6675860173    -1.8666792994
| 12>  C        2.1005336438    -3.5253240411    -0.5384687157
| 13>  N        1.2510442291    -2.6979494027    -0.0864551423
| 14>  H        1.0562974579     1.9042544476     0.1496967332
| 15>  H       -0.3519464271     2.0668422085    -0.9037377209
| 16>  H       -0.5716411389     1.9903411983     0.8498403697
| 17>  H        0.2104721254    -0.3828792081     0.8891369455
| 18>  H       -1.1312210695    -0.2267623154    -0.2318175472
| 19>  H        0.4691218094    -0.0961283311    -2.1404299066
| 20>  H        2.4617529667    -0.6275932631    -0.2463087922
| 21>  H       -0.4285663632    -2.3149339731    -1.2981493327
| 22>  H        0.7670707264    -3.1768229636    -3.1985175611
| 23>  H        2.0399582832    -1.9372294318    -2.9743750975
| 24>  H        2.7293470021    -4.1707564090     0.0659497828
| 25> *
| 26>
| 27>                          ****END OF INPUT****

CARTESIAN COORDINATES (ANGSTROEM)
---------------------------------
  C      0.016077    1.596592    0.015282
  C     -0.088470    0.071901   -0.062873
  C      0.777408   -0.526758   -1.177842
  O      2.148684   -0.177054   -1.041754
  C      0.636955   -2.057710   -1.272030
  C      1.405046   -2.671204   -2.471269
  O      2.272170   -3.667586   -1.866679
  C      2.100534   -3.525324   -0.538469
  N      1.251044   -2.697949   -0.086455
  H      1.056297    1.904254    0.149697
  H     -0.351946    2.066842   -0.903738
  H     -0.571641    1.990341    0.849840
  H      0.210472   -0.382879    0.889137
  H     -1.131221   -0.226762   -0.231818
  H      0.469122   -0.096128   -2.140430
  H      2.461753   -0.627593   -0.246309
  H     -0.428566   -2.314934   -1.298149
  H      0.767071   -3.176823   -3.198518
  H      2.039958   -1.937229   -2.974375
  H      2.729347   -4.170756    0.065950

 Total Charge           Charge          ....    0
 Multiplicity           Mult            ....    1
 Number of Electrons    NEL             ....   70
 Basis Dimension        Dim             ....  345

ORBITAL ENERGIES
----------------

  NO   OCC          E(Eh)            E(eV)
   0   2.0000     -20.600557      -560.5697
   1   2.0000     -20.553079      -559.2777
   2   2.0000     -15.553157      -423.2229
   3   2.0000     -11.339748      -308.5702
   4   2.0000     -11.292082      -307.2732
   5   2.0000     -11.281870      -306.9953
   6   2.0000     -11.268866      -306.6414
   7   2.0000     -11.219380      -305.2949
   8   2.0000     -11.209040      -305.0135
   9   2.0000      -1.443982       -39.2927
  10   2.0000      -1.362927       -37.0871
  11   2.0000      -1.217981       -33.1429
  12   2.0000      -1.064812       -28.9750
  13   2.0000      -1.024426       -27.8760
  14   2.0000      -0.928227       -25.2583
  15   2.0000      -0.838990       -22.8301
  16   2.0000      -0.825100       -22.4521
  17   2.0000      -0.788940       -21.4682
  18   2.0000      -0.717894       -19.5349
  19   2.0000      -0.699376       -19.0310
  20   2.0000      -0.649018       -17.6607
  21   2.0000      -0.645214       -17.5572
  22   2.0000      -0.614026       -16.7085
  23   2.0000      -0.604983       -16.4624
  24   2.0000      -0.577684       -15.7196
  25   2.0000      -0.550583       -14.9821
  26   2.0000      -0.546882       -14.8814
  27   2.0000      -0.530540       -14.4367
  28   2.0000      -0.524509       -14.2726
  29   2.0000      -0.502475       -13.6730
  30   2.0000      -0.483534       -13.1576
  31   2.0000      -0.475442       -12.9374
  32   2.0000      -0.450269       -12.2525
  33   2.0000      -0.428257       -11.6535
  34   2.0000      -0.387563       -10.5461
  35   0.0000       0.133335         3.6282
  36   0.0000       0.156321         4.2537
  37   0.0000       0.163248         4.4422
  38   0.0000       0.168100         4.5742
  39   0.0000       0.177182         4.8214

MULLIKEN ATOMIC CHARGES
-----------------------
   0 C :   -0.376975
   1 C :   -0.216250
   2 C :    0.047237
   3 O :   -0.481518
   4 C :    0.023408
   5 C :   -0.043090
   6 O :   -0.260584
   7 C :    0.111619
   8 N :   -0.346937
   9 H :    0.138329
  10 H :    0.115063
  11 H :    0.132476
  12 H :    0.130449
  13 H :    0.100682
  14 H :    0.097751
  15 H :    0.319969
  16 H :    0.107831
  17 H :    0.121389
  18 H :    0.128328
  19 H :    0.150822
Sum of atomic charges:   -0.0000000

LOEWDIN ATOMIC CHARGES
----------------------
   0 C :   -0.319241
   1 C :   -0.281144
   2 C :   -0.338380
   3 O :   -0.010351
   4 C :   -0.266972
   5 C :   -0.231672
   6 O :    0.219139
   7 C :   -0.356563
   8 N :    0.067486
   9 H :    0.124396
  10 H :    0.119847
  11 H :    0.120340
  12 H :    0.142263
  13 H :    0.139033
  14 H :    0.147471
  15 H :    0.179388
  16 H :    0.149832
  17 H :    0.125500
  18 H :    0.134353
  19 H :    0.135275

  Mayer bond orders larger than 0.1
B(  0-C ,  1-C ) :   0.9189 B(  0-C ,  9-H ) :   0.9367 B(  0-C , 10-H ) :   0.9359
B(  0-C , 11-H ) :   0.9422 B(  1-C ,  2-C ) :   0.9413 B(  1-C , 12-H ) :   0.9232
B(  1-C , 13-H ) :   0.9268 B(  2-C ,  3-O ) :   0.8791 B(  2-C ,  4-C ) :   0.9054
B(  2-C , 14-H ) :   0.9271 B(  3-O , 15-H ) :   0.8306 B(  4-C ,  5-C ) :   0.9262
B(  4-C ,  8-N ) :   0.8864 B(  4-C , 16-H ) :   0.9165 B(  5-C ,  6-O ) :   0.8672
B(  5-C , 17-H ) :   0.9208 B(  5-C , 18-H ) :   0.9160 B(  6-O ,  7-C ) :   1.0915
B(  7-C ,  8-N ) :   1.7715 B(  7-C , 19-H ) :   0.9213

MP2 TOTAL ENERGY:     -439.586301317 Eh
FINAL SINGLE POINT ENERGY      -439.586301317274

DIPOLE MOMENT
-------------
                                X             Y             Z
Electronic contribution:      5.05916      -9.00057      -1.55628
Nuclear contribution   :     -5.45472       8.76125       1.33793
                        -----------------------------------------
Total Dipole Moment    :     -0.39556      -0.23933      -0.21835
                        -----------------------------------------
Magnitude (a.u.)       :      0.51129
Magnitude (Debye)      :      1.29960

                             ****ORCA TERMINATED NORMALLY****
TOTAL RUN TIME: 0 days 0 hours 17 minutes 10 seconds 404 msec
