                         Program Version 3.0.3 - RELEASE   -
|  1> ! RI-MP2 RIJK def2-TZVP def2-TZVP/C def2-TZVP/JK TIGHTSCF
|  2> % maxcore 2000
|  3> % mp2 density relaxed end
|  4> *xyz 0 1
|  5>  O       -0.0002542230     1.3688459335     0.0192963475
|  6>  C        0.0382296283    -0.0122207970     0.0546792626
|  7>  C        0.6745007692    -0.9437182803     1.1599764764
|  8>  C       -0.0091690516    -1.8924691805     0.1563614641
|  9>  C       -0.4393186716    -3.2424104928    -0.3838531023
| 10>  C       -1.1158868398    -2.8966554920    -1.4901053278
| 11>  C       -1.0573936306    -1.3514741212    -1.5636617370
| 12>  C       -1.2118519705    -0.9077623560    -0.0750795830
| 13>  C        0.3897674057    -1.0166012835    -1.0841337353
| 14>  H        0.8993113669     1.6986565216    -0.0805852914
| 15>  H        1.7679716058    -0.9778430448     1.2106313008
| 16>  H        0.2381101583    -0.8776354871     2.1611042769
| 17>  H       -0.2454276149    -4.2212365193     0.0289333385
| 18>  H       -1.6107767565    -3.5447967420    -2.2005086379
| 19>  H       -1.5493578780    -0.8496263524    -2.3971436695
| 20>  H       -2.1130651662    -0.8786552397     0.5414161860
| 21>  H        1.3311480986    -1.1151883564    -1.6313865586
| 22> *
| 23>
| 24>                          ****END OF INPUT****

CARTESIAN COORDINATES (ANGSTROEM)
---------------------------------
  O     -0.000254    1.368846    0.019296
  C      0.038230   -0.012221    0.054679
  C      0.674501   -0.943718    1.159976
  C     -0.009169   -1.892469    0.156361
  C     -0.439319   -3.242410   -0.383853
  C     -1.115887   -2.896655   -1.490105
  C     -1.057394   -1.351474   -1.563662
  C     -1.211852   -0.907762   -0.075080
  C      0.389767   -1.016601   -1.084134
  H      0.899311    1.698657   -0.080585
  H      1.767972   -0.977843    1.210631
  H      0.238110   -0.877635    2.161104
  H     -0.245428   -4.221237    0.028933
  H     -1.610777   -3.544797   -2.200509
  H     -1.549358   -0.849626   -2.397144
  H     -2.113065   -0.878655    0.541416
  H      1.331148   -1.115188   -1.631387

 Total Charge           Charge          ....    0
 Multiplicity           Mult            ....    1
 Number of Electrons    NEL             ....   64
 Basis Dimension        Dim             ....  327

ORBITAL ENERGIES
----------------

  NO   OCC          E(Eh)            E(eV)
   0   2.0000     -20.565601      -559.6184
   1   2.0000     -11.298824      -307.4566
   2   2.0000     -11.250375      -306.1383
   3   2.0000     -11.240145      -305.8599
   4   2.0000     -11.238150      -305.8056
   5   2.0000     -11.237827      -305.7968
   6   2.0000     -11.236126      -305.7505
   7   2.0000     -11.233893      -305.6898
   8   2.0000     -11.225688      -305.4665
   9   2.0000      -1.378095       -37.4999
  10   2.0000      -1.257857       -34.2280
  11   2.0000      -1.073059       -29.1994
  12   2.0000      -0.978642       -26.6302
  13   2.0000      -0.873843       -23.7785
  14   2.0000      -0.862115       -23.4593
  15   2.0000      -0.830616       -22.6022
  16   2.0000      -0.742189       -20.1960
  17   2.0000      -0.704294       -19.1648
  18   2.0000      -0.682200       -18.5636
  19   2.0000      -0.658072       -17.9070
  20   2.0000      -0.634407       -17.2631
  21   2.0000      -0.602511       -16.3952
  22   2.0000      -0.577605       -15.7174
  23   2.0000      -0.561235       -15.2720
  24   2.0000      -0.509924       -13.8757
  25   2.0000      -0.496397       -13.5077
  26   2.0000      -0.481332       -13.0977
  27   2.0000      -0.446522       -12.1505
  28   2.0000      -0.425602       -11.5812
  29   2.0000      -0.410099       -11.1594
  30   2.0000      -0.396152       -10.7798
  31   2.0000      -0.319271        -8.6878
  32   0.0000       0.133464         3.6317
  33   0.0000       0.136700         3.7198
  34   0.0000       0.160965         4.3801
  35   0.0000       0.173745         4.7279
  36   0.0000       0.184431         5.0186

MULLIKEN ATOMIC CHARGES
-----------------------
   0 O :   -0.440669
   1 C :    0.052642
   2 C :   -0.148611
   3 C :    0.033729
   4 C :   -0.269029
   5 C :   -0.195579
   6 C :   -0.111022
   7 C :   -0.054431
   8 C :   -0.056490
   9 H :    0.323862
  10 H :    0.111062
  11 H :    0.114874
  12 H :    0.138994
  13 H :    0.132452
  14 H :    0.130422
  15 H :    0.117694
  16 H :    0.120101
Sum of atomic charges:   -0.0000000

LOEWDIN ATOMIC CHARGES
----------------------
   0 O :    0.024444
   1 C :   -0.304297
   2 C :   -0.164431
   3 C :   -0.136028
   4 C :   -0.120980
   5 C :   -0.128079
   6 C :   -0.144461
   7 C :   -0.060949
   8 C :   -0.073937
   9 H :    0.183937
  10 H :    0.127497
  11 H :    0.130946
  12 H :    0.137025
  13 H :    0.132839
  14 H :    0.132727
  15 H :    0.133930
  16 H :    0.129819

  Mayer bond orders larger than 0.1
B(  0-O ,  1-C ) :   1.1226 B(  0-O ,  9-H ) :   0.8355 B(  1-C ,  2-C ) :   0.9636
B(  1-C ,  7-C ) :   0.8708 B(  1-C ,  8-C ) :   0.8366 B(  2-C ,  3-C ) :   0.8548
B(  2-C , 10-H ) :   0.9129 B(  2-C , 11-H ) :   0.9073 B(  3-C ,  4-C ) :   0.9105
B(  3-C ,  7-C ) :   0.8601 B(  3-C ,  8-C ) :   0.8769 B(  4-C ,  5-C ) :   1.7765
B(  4-C , 12-H ) :   0.9322 B(  5-C ,  6-C ) :   0.9318 B(  5-C , 13-H ) :   0.9293
B(  6-C ,  7-C ) :   0.8641 B(  6-C ,  8-C ) :   0.8662 B(  6-C , 14-H ) :   0.9022
B(  7-C , 15-H ) :   0.8891 B(  8-C , 16-H ) :   0.8751

MP2 TOTAL ENERGY:     -383.904915300 Eh
FINAL SINGLE POINT ENERGY      -383.904915299771

DIPOLE MOMENT
-------------
                                X             Y             Z
Electronic contribution:     -0.39083       1.38337      -0.35825
Nuclear contribution   :      0.93147      -1.55283       0.33421
                        -----------------------------------------
Total Dipole Moment    :      0.54064      -0.16946      -0.02404
                        -----------------------------------------
Magnitude (a.u.)       :      0.56709
Magnitude (Debye)      :      1.44143

                             ****ORCA TERMINATED NORMALLY****
TOTAL RUN TIME: 0 days 0 hours 16 minutes 37 seconds 72 msec
