                         Program Version 3.0.3 - RELEASE   -
|  1> ! RI-MP2 RIJK def2-TZVP def2-TZVP/C def2-TZVP/JK TIGHTSCF
|  2> % maxcore 2000
|  3> % mp2 density relaxed end
|  4> *xyz 0 1
|  5>  C        0.0461856816     1.4729943736     0.0684806658
|  6>  C       -0.0426449444    -0.0182640370    -0.0682711579
|  7>  N       -0.0899744254    -0.5874006079    -1.2001065024
|  8>  C       -0.1079521578    -2.0437030912    -1.2743972095
|  9>  C        0.2570012977    -2.7174367727     0.0297492115
| 10>  C        0.6376716561    -4.1291598223     0.1116390814
| 11>  O        1.6312745029    -3.1055768977     0.1882335291
| 12>  C       -0.3431355955    -2.0056379467     1.2126515022
| 13>  O       -0.0515143676    -0.6044776106     1.1662858368
| 14>  H        0.9406826152     1.7438572704     0.6382873707
| 15>  H        0.0862337455     1.9285813988    -0.9197633631
| 16>  H       -0.8173364591     1.8571467713     0.6208782685
| 17>  H       -1.1066071719    -2.3672027444    -1.6006036385
| 18>  H        0.5953630169    -2.3622994002    -2.0511814519
| 19>  H        0.4662037564    -4.6886702411     1.0314302428
| 20>  H        0.6506992314    -4.7315278990    -0.7964141626
| 21>  H       -1.4336867934    -2.1401877697     1.2264288114
| 22>  H        0.0748472914    -2.3764003637     2.1506860056
| 23> *
| 24>
| 25>                          ****END OF INPUT****

CARTESIAN COORDINATES (ANGSTROEM)
---------------------------------
  C      0.046186    1.472994    0.068481
  C     -0.042645   -0.018264   -0.068271
  N     -0.089974   -0.587401   -1.200107
  C     -0.107952   -2.043703   -1.274397
  C      0.257001   -2.717437    0.029749
  C      0.637672   -4.129160    0.111639
  O      1.631275   -3.105577    0.188234
  C     -0.343136   -2.005638    1.212652
  O     -0.051514   -0.604478    1.166286
  H      0.940683    1.743857    0.638287
  H      0.086234    1.928581   -0.919763
  H     -0.817336    1.857147    0.620878
  H     -1.106607   -2.367203   -1.600604
  H      0.595363   -2.362299   -2.051181
  H      0.466204   -4.688670    1.031430
  H      0.650699   -4.731528   -0.796414
  H     -1.433687   -2.140188    1.226429
  H      0.074847   -2.376400    2.150686

 Total Charge           Charge          ....    0
 Multiplicity           Mult            ....    1
 Number of Electrons    NEL             ....   68
 Basis Dimension        Dim             ....  333

ORBITAL ENERGIES
----------------

  NO   OCC          E(Eh)            E(eV)
   0   2.0000     -20.594299      -560.3994
   1   2.0000     -20.574310      -559.8554
   2   2.0000     -15.539794      -422.8593
   3   2.0000     -11.336056      -308.4698
   4   2.0000     -11.300292      -307.4966
   5   2.0000     -11.299499      -307.4750
   6   2.0000     -11.294547      -307.3402
   7   2.0000     -11.261430      -306.4391
   8   2.0000     -11.225632      -305.4650
   9   2.0000      -1.433238       -39.0004
  10   2.0000      -1.413888       -38.4738
  11   2.0000      -1.216213       -33.0948
  12   2.0000      -1.067712       -29.0539
  13   2.0000      -0.976965       -26.5846
  14   2.0000      -0.944301       -25.6957
  15   2.0000      -0.914164       -24.8757
  16   2.0000      -0.832043       -22.6410
  17   2.0000      -0.732951       -19.9446
  18   2.0000      -0.714050       -19.4303
  19   2.0000      -0.693827       -18.8800
  20   2.0000      -0.667180       -18.1549
  21   2.0000      -0.640446       -17.4274
  22   2.0000      -0.604364       -16.4456
  23   2.0000      -0.597022       -16.2458
  24   2.0000      -0.584781       -15.9127
  25   2.0000      -0.564720       -15.3668
  26   2.0000      -0.545928       -14.8555
  27   2.0000      -0.544732       -14.8229
  28   2.0000      -0.521934       -14.2025
  29   2.0000      -0.495250       -13.4764
  30   2.0000      -0.466987       -12.7074
  31   2.0000      -0.447155       -12.1677
  32   2.0000      -0.399995       -10.8844
  33   2.0000      -0.383757       -10.4426
  34   0.0000       0.134323         3.6551
  35   0.0000       0.151244         4.1156
  36   0.0000       0.164700         4.4817
  37   0.0000       0.173840         4.7304
  38   0.0000       0.184086         5.0092

MULLIKEN ATOMIC CHARGES
-----------------------
   0 C :   -0.399781
   1 C :    0.218702
   2 N :   -0.275549
   3 C :   -0.114016
   4 C :    0.099342
   5 C :   -0.072477
   6 O :   -0.330968
   7 C :   -0.040631
   8 O :   -0.269633
   9 H :    0.145381
  10 H :    0.152407
  11 H :    0.138430
  12 H :    0.125640
  13 H :    0.133748
  14 H :    0.118051
  15 H :    0.121403
  16 H :    0.113627
  17 H :    0.136323
Sum of atomic charges:    0.0000000

LOEWDIN ATOMIC CHARGES
----------------------
   0 C :   -0.265045
   1 C :   -0.394368
   2 N :    0.094870
   3 C :   -0.252247
   4 C :   -0.337884
   5 C :   -0.241099
   6 O :    0.167322
   7 C :   -0.238160
   8 O :    0.242265
   9 H :    0.136428
  10 H :    0.136140
  11 H :    0.133570
  12 H :    0.143421
  13 H :    0.148261
  14 H :    0.122932
  15 H :    0.124856
  16 H :    0.136212
  17 H :    0.142527

  Mayer bond orders larger than 0.1
B(  0-C ,  1-C ) :   0.8990 B(  0-C ,  9-H ) :   0.9254 B(  0-C , 10-H ) :   0.9474
B(  0-C , 11-H ) :   0.9238 B(  1-C ,  2-N ) :   1.8693 B(  1-C ,  8-O ) :   1.0557
B(  2-N ,  3-C ) :   0.9364 B(  3-C ,  4-C ) :   0.9199 B(  3-C , 12-H ) :   0.9329
B(  3-C , 13-H ) :   0.9142 B(  4-C ,  5-C ) :   0.9638 B(  4-C ,  6-O ) :   0.8395
B(  4-C ,  7-C ) :   0.9343 B(  5-C ,  6-O ) :   0.9085 B(  5-C , 14-H ) :   0.9050
B(  5-C , 15-H ) :   0.9080 B(  7-C ,  8-O ) :   0.8973 B(  7-C , 16-H ) :   0.9419
B(  7-C , 17-H ) :   0.9135

MP2 TOTAL ENERGY:     -438.356625094 Eh
FINAL SINGLE POINT ENERGY      -438.356625093795

DIPOLE MOMENT
-------------
                                X             Y             Z
Electronic contribution:      1.64358      -1.25619       0.47243
Nuclear contribution   :     -2.41014       0.56946      -0.11363
                        -----------------------------------------
Total Dipole Moment    :     -0.76656      -0.68673       0.35879
                        -----------------------------------------
Magnitude (a.u.)       :      1.08993
Magnitude (Debye)      :      2.77038

                             ****ORCA TERMINATED NORMALLY****
TOTAL RUN TIME: 0 days 0 hours 16 minutes 31 seconds 531 msec
