                         Program Version 3.0.3 - RELEASE   -
|  1> ! RI-MP2 RIJK def2-TZVP def2-TZVP/C def2-TZVP/JK TIGHTSCF
|  2> % maxcore 2000
|  3> % mp2 density relaxed end
|  4> *xyz 0 1
|  5>  C       -0.0033141913     1.5488376892    -0.0120750015
|  6>  C       -0.0095360048     0.0167108115     0.0460505068
|  7>  C        0.7723627890    -0.5247106806     1.2486552413
|  8>  N       -1.3795308870    -0.5069153843     0.0278254111
|  9>  C       -1.9358268528    -1.3045684806    -0.9496184586
| 10>  C       -3.2239374254    -1.5449636966    -0.5498579093
| 11>  N       -3.4811439814    -0.9188307997     0.6459384146
| 12>  C       -2.3584370985    -0.3093575859     0.9597879452
| 13>  H        1.0236819095     1.9191816661    -0.0843703421
| 14>  H       -0.5640056852     1.9075327167    -0.8792081727
| 15>  H       -0.4534488038     1.9797808794     0.8876381515
| 16>  H        0.4556727530    -0.3654042761    -0.8682535126
| 17>  H        0.3463925375    -0.1652648641     2.1904777292
| 18>  H        0.7572290956    -1.6176503910     1.2627469679
| 19>  H        1.8135597037    -0.1918015744     1.2021504488
| 20>  H       -1.3678124796    -1.6133445715    -1.8120311915
| 21>  H       -3.9775307013    -2.1311306040    -1.0536480207
| 22>  H       -2.1964040472     0.2860290460     1.8456894825
| 23> *
| 24>
| 25>                          ****END OF INPUT****

CARTESIAN COORDINATES (ANGSTROEM)
---------------------------------
  C     -0.003314    1.548838   -0.012075
  C     -0.009536    0.016711    0.046051
  C      0.772363   -0.524711    1.248655
  N     -1.379531   -0.506915    0.027825
  C     -1.935827   -1.304568   -0.949618
  C     -3.223937   -1.544964   -0.549858
  N     -3.481144   -0.918831    0.645938
  C     -2.358437   -0.309358    0.959788
  H      1.023682    1.919182   -0.084370
  H     -0.564006    1.907533   -0.879208
  H     -0.453449    1.979781    0.887638
  H      0.455673   -0.365404   -0.868254
  H      0.346393   -0.165265    2.190478
  H      0.757229   -1.617650    1.262747
  H      1.813560   -0.191802    1.202150
  H     -1.367812   -1.613345   -1.812031
  H     -3.977531   -2.131131   -1.053648
  H     -2.196404    0.286029    1.845689

 Total Charge           Charge          ....    0
 Multiplicity           Mult            ....    1
 Number of Electrons    NEL             ....   60
 Basis Dimension        Dim             ....  308

ORBITAL ENERGIES
----------------

  NO   OCC          E(Eh)            E(eV)
   0   2.0000     -15.611552      -424.8119
   1   2.0000     -15.536033      -422.7570
   2   2.0000     -11.292547      -307.2858
   3   2.0000     -11.283585      -307.0420
   4   2.0000     -11.250659      -306.1460
   5   2.0000     -11.233818      -305.6877
   6   2.0000     -11.233792      -305.6870
   7   2.0000     -11.233602      -305.6818
   8   2.0000      -1.337155       -36.3858
   9   2.0000      -1.183863       -32.2145
  10   2.0000      -1.062578       -28.9142
  11   2.0000      -0.993989       -27.0478
  12   2.0000      -0.954453       -25.9720
  13   2.0000      -0.864347       -23.5201
  14   2.0000      -0.799827       -21.7644
  15   2.0000      -0.766608       -20.8605
  16   2.0000      -0.704910       -19.1816
  17   2.0000      -0.640353       -17.4249
  18   2.0000      -0.626581       -17.0501
  19   2.0000      -0.610041       -16.6001
  20   2.0000      -0.590889       -16.0789
  21   2.0000      -0.564302       -15.3554
  22   2.0000      -0.564092       -15.3497
  23   2.0000      -0.548866       -14.9354
  24   2.0000      -0.534932       -14.5562
  25   2.0000      -0.505885       -13.7658
  26   2.0000      -0.504034       -13.7155
  27   2.0000      -0.426356       -11.6017
  28   2.0000      -0.378425       -10.2975
  29   2.0000      -0.312061        -8.4916
  30   0.0000       0.123784         3.3683
  31   0.0000       0.151819         4.1312
  32   0.0000       0.156033         4.2459
  33   0.0000       0.175431         4.7737
  34   0.0000       0.177193         4.8217

MULLIKEN ATOMIC CHARGES
-----------------------
   0 C :   -0.375900
   1 C :   -0.060848
   2 C :   -0.375950
   3 N :    0.018218
   4 C :   -0.134530
   5 C :   -0.122301
   6 N :   -0.287391
   7 C :   -0.019637
   8 H :    0.135119
   9 H :    0.147555
  10 H :    0.131182
  11 H :    0.108066
  12 H :    0.131170
  13 H :    0.147559
  14 H :    0.135143
  15 H :    0.144856
  16 H :    0.130646
  17 H :    0.147041
Sum of atomic charges:    0.0000000

LOEWDIN ATOMIC CHARGES
----------------------
   0 C :   -0.284072
   1 C :   -0.290693
   2 C :   -0.284056
   3 N :    0.264413
   4 C :   -0.232957
   5 C :   -0.268943
   6 N :    0.081705
   7 C :   -0.305336
   8 H :    0.128152
   9 H :    0.129580
  10 H :    0.126357
  11 H :    0.154282
  12 H :    0.126329
  13 H :    0.129570
  14 H :    0.128180
  15 H :    0.135142
  16 H :    0.131245
  17 H :    0.131101

  Mayer bond orders larger than 0.1
B(  0-C ,  1-C ) :   0.9390 B(  0-C ,  8-H ) :   0.9330 B(  0-C ,  9-H ) :   0.9349
B(  0-C , 10-H ) :   0.9236 B(  1-C ,  2-C ) :   0.9390 B(  1-C ,  3-N ) :   0.8408
B(  1-C , 11-H ) :   0.9326 B(  2-C , 12-H ) :   0.9237 B(  2-C , 13-H ) :   0.9349
B(  2-C , 14-H ) :   0.9330 B(  3-N ,  4-C ) :   1.1108 B(  3-N ,  7-C ) :   1.1565
B(  4-C ,  5-C ) :   1.5096 B(  4-C , 15-H ) :   0.9114 B(  5-C ,  6-N ) :   1.2945
B(  5-C , 16-H ) :   0.9394 B(  6-N ,  7-C ) :   1.5670 B(  7-C , 17-H ) :   0.9224

MP2 TOTAL ENERGY:     -343.420381233 Eh
FINAL SINGLE POINT ENERGY      -343.420381233178

DIPOLE MOMENT
-------------
                                X             Y             Z
Electronic contribution:     -7.48605      -3.47595      -1.10932
Nuclear contribution   :      9.15250       3.87081       0.73168
                        -----------------------------------------
Total Dipole Moment    :      1.66645       0.39486      -0.37764
                        -----------------------------------------
Magnitude (a.u.)       :      1.75373
Magnitude (Debye)      :      4.45764

                             ****ORCA TERMINATED NORMALLY****
TOTAL RUN TIME: 0 days 0 hours 13 minutes 20 seconds 244 msec
