                         Program Version 3.0.3 - RELEASE   -
|  1> ! RI-MP2 RIJK def2-TZVP def2-TZVP/C def2-TZVP/JK TIGHTSCF
|  2> % maxcore 2000
|  3> % mp2 density relaxed end
|  4> *xyz 0 1
|  5>  C        0.0566505324     1.5117536475    -0.1460516475
|  6>  C       -0.0151049705     0.0190169818     0.1088257402
|  7>  C       -1.1774057562    -0.6666613030    -0.5848879667
|  8>  N        1.2874023440    -0.6813124973     0.1203236102
|  9>  C        0.4912380452    -0.6010906674     1.3675688028
| 10>  C        1.1767730965     0.1240326111     2.5037514988
| 11>  O        2.3211737326    -0.5936005990     2.9363467260
| 12>  H        0.9695264819     1.9478518099     0.2610674183
| 13>  H        0.0489458468     1.7081161388    -1.2242610401
| 14>  H       -0.8053138076     2.0265828547     0.2927219302
| 15>  H       -1.1018149438    -0.5513715410    -1.6726285111
| 16>  H       -1.2064700962    -1.7370171602    -0.3563697114
| 17>  H       -2.1337311611    -0.2314364898    -0.2741889296
| 18>  H        1.1940893428    -1.6047957089    -0.2956388958
| 19>  H       -0.0097441877    -1.5172299704     1.6785986922
| 20>  H        1.4417558329     1.1479288331     2.2068860385
| 21>  H        0.5080223817     0.1925068650     3.3685364515
| 22>  H        2.8512133960    -0.7333884349     2.1419917734
| 23> *
| 24>
| 25>                          ****END OF INPUT****

CARTESIAN COORDINATES (ANGSTROEM)
---------------------------------
  C      0.056651    1.511754   -0.146052
  C     -0.015105    0.019017    0.108826
  C     -1.177406   -0.666661   -0.584888
  N      1.287402   -0.681312    0.120324
  C      0.491238   -0.601091    1.367569
  C      1.176773    0.124033    2.503751
  O      2.321174   -0.593601    2.936347
  H      0.969526    1.947852    0.261067
  H      0.048946    1.708116   -1.224261
  H     -0.805314    2.026583    0.292722
  H     -1.101815   -0.551372   -1.672629
  H     -1.206470   -1.737017   -0.356370
  H     -2.133731   -0.231436   -0.274189
  H      1.194089   -1.604796   -0.295639
  H     -0.009744   -1.517230    1.678599
  H      1.441756    1.147929    2.206886
  H      0.508022    0.192507    3.368536
  H      2.851213   -0.733388    2.141992

 Total Charge           Charge          ....    0
 Multiplicity           Mult            ....    1
 Number of Electrons    NEL             ....   56
 Basis Dimension        Dim             ....  283

ORBITAL ENERGIES
----------------

  NO   OCC          E(Eh)            E(eV)
   0   2.0000     -20.546273      -559.0925
   1   2.0000     -15.557780      -423.3487
   2   2.0000     -11.274560      -306.7964
   3   2.0000     -11.271927      -306.7247
   4   2.0000     -11.257796      -306.3402
   5   2.0000     -11.230012      -305.5841
   6   2.0000     -11.221237      -305.3454
   7   2.0000      -1.353351       -36.8265
   8   2.0000      -1.265531       -34.4369
   9   2.0000      -1.022771       -27.8310
  10   2.0000      -0.969337       -26.3770
  11   2.0000      -0.946987       -25.7688
  12   2.0000      -0.833149       -22.6711
  13   2.0000      -0.761285       -20.7156
  14   2.0000      -0.703683       -19.1482
  15   2.0000      -0.653241       -17.7756
  16   2.0000      -0.635896       -17.3036
  17   2.0000      -0.602410       -16.3924
  18   2.0000      -0.595833       -16.2134
  19   2.0000      -0.567326       -15.4377
  20   2.0000      -0.551753       -15.0140
  21   2.0000      -0.546447       -14.8696
  22   2.0000      -0.512962       -13.9584
  23   2.0000      -0.499996       -13.6056
  24   2.0000      -0.458927       -12.4880
  25   2.0000      -0.452593       -12.3157
  26   2.0000      -0.442261       -12.0345
  27   2.0000      -0.388599       -10.5743
  28   0.0000       0.126976         3.4552
  29   0.0000       0.159185         4.3316
  30   0.0000       0.169223         4.6048
  31   0.0000       0.179878         4.8947
  32   0.0000       0.193621         5.2687

MULLIKEN ATOMIC CHARGES
-----------------------
   0 C :   -0.400598
   1 C :    0.154567
   2 C :   -0.385442
   3 N :   -0.426191
   4 C :   -0.138749
   5 C :    0.017488
   6 O :   -0.480280
   7 H :    0.139665
   8 H :    0.128836
   9 H :    0.129479
  10 H :    0.137681
  11 H :    0.125308
  12 H :    0.134212
  13 H :    0.219068
  14 H :    0.120390
  15 H :    0.095700
  16 H :    0.105107
  17 H :    0.323759
Sum of atomic charges:    0.0000000

LOEWDIN ATOMIC CHARGES
----------------------
   0 C :   -0.267886
   1 C :   -0.332556
   2 C :   -0.274387
   3 N :    0.009364
   4 C :   -0.256156
   5 C :   -0.330526
   6 O :   -0.049828
   7 H :    0.127605
   8 H :    0.129354
   9 H :    0.128025
  10 H :    0.128083
  11 H :    0.126132
  12 H :    0.131120
  13 H :    0.164945
  14 H :    0.140155
  15 H :    0.119370
  16 H :    0.130007
  17 H :    0.177178

  Mayer bond orders larger than 0.1
B(  0-C ,  1-C ) :   0.8916 B(  0-C ,  7-H ) :   0.9397 B(  0-C ,  8-H ) :   0.9338
B(  0-C ,  9-H ) :   0.9364 B(  1-C ,  2-C ) :   0.9318 B(  1-C ,  3-N ) :   0.8964
B(  1-C ,  4-C ) :   0.8879 B(  2-C , 10-H ) :   0.9373 B(  2-C , 11-H ) :   0.9262
B(  2-C , 12-H ) :   0.9287 B(  3-N ,  4-C ) :   0.8821 B(  3-N , 13-H ) :   0.8700
B(  4-C ,  5-C ) :   0.9492 B(  4-C , 14-H ) :   0.9192 B(  5-C ,  6-O ) :   0.9056
B(  5-C , 15-H ) :   0.9163 B(  5-C , 16-H ) :   0.9318 B(  6-O , 17-H ) :   0.8354

MP2 TOTAL ENERGY:     -326.412854308 Eh
FINAL SINGLE POINT ENERGY      -326.412854308229

DIPOLE MOMENT
-------------
                                X             Y             Z
Electronic contribution:      3.97423      -2.05899       3.13461
Nuclear contribution   :     -4.78491       1.99961      -3.80368
                        -----------------------------------------
Total Dipole Moment    :     -0.81069      -0.05937      -0.66906
                        -----------------------------------------
Magnitude (a.u.)       :      1.05280
Magnitude (Debye)      :      2.67600

                             ****ORCA TERMINATED NORMALLY****
TOTAL RUN TIME: 0 days 0 hours 8 minutes 26 seconds 783 msec
