                         Program Version 3.0.3 - RELEASE   -
|  1> ! RI-MP2 RIJK def2-TZVP def2-TZVP/C def2-TZVP/JK TIGHTSCF
|  2> % maxcore 2000
|  3> % mp2 density relaxed end
|  4> *xyz 0 1
|  5>  C        0.1242188446     1.5510951566     0.2226450587
|  6>  C       -0.1864259785     0.0768360460    -0.0935844680
|  7>  C        0.5308910849    -0.4263208016    -1.2598256048
|  8>  C        1.1232959583    -0.8223286540    -2.2302095869
|  9>  C        1.8695117054    -1.3230338134    -3.3805302656
| 10>  C        2.1378954533    -2.8387180003    -3.2903511552
| 11>  O        0.9392327574    -3.5718597642    -3.3671480858
| 12>  O        1.1022933966    -1.0650021350    -4.5662264208
| 13>  C        1.8837691818    -0.8766398055    -5.7295635239
| 14>  H        1.1899351260     1.6894631257     0.4243978255
| 15>  H       -0.1455148079     2.1938497864    -0.6196319280
| 16>  H       -0.4384167894     1.8792966199     1.1016898530
| 17>  H        0.0572108618    -0.5462491074     0.7765093177
| 18>  H       -1.2648665626    -0.0455752827    -0.2563338563
| 19>  H        2.8342547287    -0.7946236575    -3.4474967966
| 20>  H        2.8381968930    -3.1192406824    -4.0953533908
| 21>  H        2.6176837510    -3.0737102263    -2.3353446022
| 22>  H        0.4096380996    -3.1347144004    -4.0465220088
| 23>  H        2.5592797856    -0.0152257925    -5.6221659067
| 24>  H        2.4859255908    -1.7598998619    -5.9858204013
| 25>  H        1.1884365698    -0.6799681397    -6.5489846333
| 26> *
| 27>
| 28>                          ****END OF INPUT****

CARTESIAN COORDINATES (ANGSTROEM)
---------------------------------
  C      0.124219    1.551095    0.222645
  C     -0.186426    0.076836   -0.093584
  C      0.530891   -0.426321   -1.259826
  C      1.123296   -0.822329   -2.230210
  C      1.869512   -1.323034   -3.380530
  C      2.137895   -2.838718   -3.290351
  O      0.939233   -3.571860   -3.367148
  O      1.102293   -1.065002   -4.566226
  C      1.883769   -0.876640   -5.729564
  H      1.189935    1.689463    0.424398
  H     -0.145515    2.193850   -0.619632
  H     -0.438417    1.879297    1.101690
  H      0.057211   -0.546249    0.776509
  H     -1.264867   -0.045575   -0.256334
  H      2.834255   -0.794624   -3.447497
  H      2.838197   -3.119241   -4.095353
  H      2.617684   -3.073710   -2.335345
  H      0.409638   -3.134714   -4.046522
  H      2.559280   -0.015226   -5.622166
  H      2.485926   -1.759900   -5.985820
  H      1.188437   -0.679968   -6.548985

 Total Charge           Charge          ....    0
 Multiplicity           Mult            ....    1
 Number of Electrons    NEL             ....   70
 Basis Dimension        Dim             ....  351

ORBITAL ENERGIES
----------------

  NO   OCC          E(Eh)            E(eV)
   0   2.0000     -20.570355      -559.7478
   1   2.0000     -20.548400      -559.1504
   2   2.0000     -11.310663      -307.7788
   3   2.0000     -11.282229      -307.0051
   4   2.0000     -11.279186      -306.9223
   5   2.0000     -11.248887      -306.0978
   6   2.0000     -11.223512      -305.4073
   7   2.0000     -11.223113      -305.3964
   8   2.0000     -11.214255      -305.1554
   9   2.0000      -1.392205       -37.8838
  10   2.0000      -1.352531       -36.8042
  11   2.0000      -1.081726       -29.4353
  12   2.0000      -1.045014       -28.4363
  13   2.0000      -0.971623       -26.4392
  14   2.0000      -0.932738       -25.3811
  15   2.0000      -0.875583       -23.8258
  16   2.0000      -0.838714       -22.8226
  17   2.0000      -0.719548       -19.5799
  18   2.0000      -0.694819       -18.9070
  19   2.0000      -0.669925       -18.2296
  20   2.0000      -0.646223       -17.5846
  21   2.0000      -0.629089       -17.1184
  22   2.0000      -0.621324       -16.9071
  23   2.0000      -0.606116       -16.4933
  24   2.0000      -0.589847       -16.0505
  25   2.0000      -0.566039       -15.4027
  26   2.0000      -0.546447       -14.8696
  27   2.0000      -0.521298       -14.1852
  28   2.0000      -0.510670       -13.8960
  29   2.0000      -0.509079       -13.8527
  30   2.0000      -0.492691       -13.4068
  31   2.0000      -0.463406       -12.6099
  32   2.0000      -0.430804       -11.7228
  33   2.0000      -0.373437       -10.1617
  34   2.0000      -0.366480        -9.9724
  35   0.0000       0.130200         3.5429
  36   0.0000       0.143819         3.9135
  37   0.0000       0.167709         4.5636
  38   0.0000       0.173301         4.7157
  39   0.0000       0.177855         4.8397

MULLIKEN ATOMIC CHARGES
-----------------------
   0 C :   -0.362904
   1 C :   -0.305214
   2 C :    0.090592
   3 C :    0.041610
   4 C :   -0.174918
   5 C :    0.012087
   6 O :   -0.476374
   7 O :   -0.315585
   8 C :   -0.220830
   9 H :    0.127990
  10 H :    0.132145
  11 H :    0.132375
  12 H :    0.142966
  13 H :    0.144783
  14 H :    0.106150
  15 H :    0.099650
  16 H :    0.114282
  17 H :    0.326720
  18 H :    0.123251
  19 H :    0.115399
  20 H :    0.145824
Sum of atomic charges:   -0.0000000

LOEWDIN ATOMIC CHARGES
----------------------
   0 C :   -0.300075
   1 C :   -0.275715
   2 C :   -0.061331
   3 C :   -0.055645
   4 C :   -0.323542
   5 C :   -0.324757
   6 O :   -0.034521
   7 O :    0.147741
   8 C :   -0.357099
   9 H :    0.123467
  10 H :    0.124552
  11 H :    0.120931
  12 H :    0.154164
  13 H :    0.155289
  14 H :    0.154344
  15 H :    0.115583
  16 H :    0.134116
  17 H :    0.178400
  18 H :    0.105472
  19 H :    0.102283
  20 H :    0.116343

  Mayer bond orders larger than 0.1
B(  0-C ,  1-C ) :   0.9429 B(  0-C ,  9-H ) :   0.9355 B(  0-C , 10-H ) :   0.9351
B(  0-C , 11-H ) :   0.9397 B(  1-C ,  2-C ) :   0.9482 B(  1-C , 12-H ) :   0.9412
B(  1-C , 13-H ) :   0.9334 B(  2-C ,  3-C ) :   2.6855 B(  2-C ,  4-C ) :  -0.1090
B(  3-C ,  4-C ) :   1.0452 B(  4-C ,  5-C ) :   0.9657 B(  4-C ,  7-O ) :   0.9724
B(  4-C , 14-H ) :   0.9438 B(  5-C ,  6-O ) :   0.9390 B(  5-C , 15-H ) :   0.9138
B(  5-C , 16-H ) :   0.9307 B(  6-O , 17-H ) :   0.8245 B(  7-O ,  8-C ) :   0.8998
B(  8-C , 18-H ) :   0.9374 B(  8-C , 19-H ) :   0.9301 B(  8-C , 20-H ) :   0.9383

MP2 TOTAL ENERGY:     -423.469391570 Eh
FINAL SINGLE POINT ENERGY      -423.469391570047

DIPOLE MOMENT
-------------
                                X             Y             Z
Electronic contribution:     -0.88197      -4.44464      -1.91668
Nuclear contribution   :      1.41164       5.10183       1.69428
                        -----------------------------------------
Total Dipole Moment    :      0.52967       0.65719      -0.22241
                        -----------------------------------------
Magnitude (a.u.)       :      0.87288
Magnitude (Debye)      :      2.21868

                             ****ORCA TERMINATED NORMALLY****
TOTAL RUN TIME: 0 days 0 hours 14 minutes 59 seconds 617 msec
