                         Program Version 3.0.3 - RELEASE   -
|  1> ! RI-MP2 RIJK def2-TZVP def2-TZVP/C def2-TZVP/JK TIGHTSCF
|  2> % maxcore 2000
|  3> % mp2 density relaxed end
|  4> *xyz 0 1
|  5>  C        0.1121320226     1.4556559690     0.3375609651
|  6>  C       -0.1105213265    -0.0578633527     0.3023404483
|  7>  C       -1.3861597594    -0.4580909713    -0.4531974921
|  8>  C       -1.5724608545    -1.9563820002    -0.4880486722
|  9>  O       -2.0060419730    -2.6006000413     0.7187157916
| 10>  C       -2.8569238699    -2.6748879715    -0.4395925956
| 11>  C       -4.2146626485    -2.0368186084    -0.2829045766
| 12>  O       -5.0347319027    -2.8099186024     0.5787335045
| 13>  H        1.0261180717     1.7101592432     0.8827495823
| 14>  H        0.2017378115     1.8679122555    -0.6738321043
| 15>  H       -0.7222107280     1.9677919204     0.8296017003
| 16>  H        0.7546352680    -0.5472143074    -0.1641417007
| 17>  H       -0.1710656173    -0.4517635313     1.3236642336
| 18>  H       -2.2521091755     0.0217000527     0.0132290060
| 19>  H       -1.3354090567    -0.0895117187    -1.4871360756
| 20>  H       -0.7521794931    -2.4873283599    -0.9790644818
| 21>  H       -2.8928564201    -3.6711803473    -0.8850894773
| 22>  H       -4.1185130709    -1.0046013663     0.0788213784
| 23>  H       -4.7271984928    -2.0084617178    -1.2508712043
| 24>  H       -4.5539251651    -2.8972924841     1.4098171502
| 25> *
| 26>
| 27>                          ****END OF INPUT****

CARTESIAN COORDINATES (ANGSTROEM)
---------------------------------
  C      0.112132    1.455656    0.337561
  C     -0.110521   -0.057863    0.302340
  C     -1.386160   -0.458091   -0.453197
  C     -1.572461   -1.956382   -0.488049
  O     -2.006042   -2.600600    0.718716
  C     -2.856924   -2.674888   -0.439593
  C     -4.214663   -2.036819   -0.282905
  O     -5.034732   -2.809919    0.578734
  H      1.026118    1.710159    0.882750
  H      0.201738    1.867912   -0.673832
  H     -0.722211    1.967792    0.829602
  H      0.754635   -0.547214   -0.164142
  H     -0.171066   -0.451764    1.323664
  H     -2.252109    0.021700    0.013229
  H     -1.335409   -0.089512   -1.487136
  H     -0.752179   -2.487328   -0.979064
  H     -2.892856   -3.671180   -0.885089
  H     -4.118513   -1.004601    0.078821
  H     -4.727198   -2.008462   -1.250871
  H     -4.553925   -2.897292    1.409817

 Total Charge           Charge          ....    0
 Multiplicity           Mult            ....    1
 Number of Electrons    NEL             ....   64
 Basis Dimension        Dim             ....  320

ORBITAL ENERGIES
----------------

  NO   OCC          E(Eh)            E(eV)
   0   2.0000     -20.568713      -559.7031
   1   2.0000     -20.557143      -559.3883
   2   2.0000     -11.292800      -307.2927
   3   2.0000     -11.287156      -307.1391
   4   2.0000     -11.282780      -307.0201
   5   2.0000     -11.233765      -305.6863
   6   2.0000     -11.226932      -305.5004
   7   2.0000     -11.218680      -305.2758
   8   2.0000      -1.413186       -38.4547
   9   2.0000      -1.360146       -37.0114
  10   2.0000      -1.076603       -29.2959
  11   2.0000      -0.995747       -27.0957
  12   2.0000      -0.970632       -26.4122
  13   2.0000      -0.874839       -23.8056
  14   2.0000      -0.820908       -22.3380
  15   2.0000      -0.790448       -21.5092
  16   2.0000      -0.717748       -19.5309
  17   2.0000      -0.675708       -18.3870
  18   2.0000      -0.648371       -17.6431
  19   2.0000      -0.633643       -17.2423
  20   2.0000      -0.611347       -16.6356
  21   2.0000      -0.588082       -16.0025
  22   2.0000      -0.561516       -15.2796
  23   2.0000      -0.553664       -15.0660
  24   2.0000      -0.529281       -14.4025
  25   2.0000      -0.517863       -14.0918
  26   2.0000      -0.496667       -13.5150
  27   2.0000      -0.492146       -13.3920
  28   2.0000      -0.478823       -13.0294
  29   2.0000      -0.459970       -12.5164
  30   2.0000      -0.439079       -11.9479
  31   2.0000      -0.426760       -11.6127
  32   0.0000       0.134867         3.6699
  33   0.0000       0.154721         4.2102
  34   0.0000       0.160954         4.3798
  35   0.0000       0.163625         4.4525
  36   0.0000       0.183971         5.0061

MULLIKEN ATOMIC CHARGES
-----------------------
   0 C :   -0.387468
   1 C :   -0.201555
   2 C :   -0.234696
   3 C :    0.051793
   4 O :   -0.354441
   5 C :   -0.019846
   6 C :    0.004364
   7 O :   -0.474847
   8 H :    0.136574
   9 H :    0.120937
  10 H :    0.125135
  11 H :    0.106620
  12 H :    0.126198
  13 H :    0.111883
  14 H :    0.112742
  15 H :    0.119202
  16 H :    0.116073
  17 H :    0.105263
  18 H :    0.109497
  19 H :    0.326572
Sum of atomic charges:   -0.0000000

LOEWDIN ATOMIC CHARGES
----------------------
   0 C :   -0.320440
   1 C :   -0.289396
   2 C :   -0.255336
   3 C :   -0.265347
   4 O :    0.146432
   5 C :   -0.278531
   6 C :   -0.332206
   7 O :   -0.045079
   8 H :    0.122005
   9 H :    0.120060
  10 H :    0.121011
  11 H :    0.135395
  12 H :    0.140490
  13 H :    0.140542
  14 H :    0.145336
  15 H :    0.141076
  16 H :    0.139743
  17 H :    0.120009
  18 H :    0.134212
  19 H :    0.180024

  Mayer bond orders larger than 0.1
B(  0-C ,  1-C ) :   0.9207 B(  0-C ,  8-H ) :   0.9436 B(  0-C ,  9-H ) :   0.9382
B(  0-C , 10-H ) :   0.9396 B(  1-C ,  2-C ) :   0.9306 B(  1-C , 11-H ) :   0.9323
B(  1-C , 12-H ) :   0.9323 B(  2-C ,  3-C ) :   0.9068 B(  2-C , 13-H ) :   0.9384
B(  2-C , 14-H ) :   0.9189 B(  3-C ,  4-O ) :   0.8673 B(  3-C ,  5-C ) :   0.9708
B(  3-C , 15-H ) :   0.9082 B(  4-O ,  5-C ) :   0.8716 B(  5-C ,  6-C ) :   0.9369
B(  5-C , 16-H ) :   0.9173 B(  6-C ,  7-O ) :   0.9055 B(  6-C , 17-H ) :   0.9239
B(  6-C , 18-H ) :   0.9216 B(  7-O , 19-H ) :   0.8388

MP2 TOTAL ENERGY:     -385.487428862 Eh
FINAL SINGLE POINT ENERGY      -385.487428861570

DIPOLE MOMENT
-------------
                                X             Y             Z
Electronic contribution:     -5.56232      -8.11258       1.06901
Nuclear contribution   :      6.12644       8.64039      -1.56105
                        -----------------------------------------
Total Dipole Moment    :      0.56412       0.52781      -0.49203
                        -----------------------------------------
Magnitude (a.u.)       :      0.91592
Magnitude (Debye)      :      2.32808

                             ****ORCA TERMINATED NORMALLY****
TOTAL RUN TIME: 0 days 0 hours 10 minutes 52 seconds 94 msec
