                         Program Version 3.0.3 - RELEASE   -
|  1> ! RI-MP2 RIJK def2-TZVP def2-TZVP/C def2-TZVP/JK TIGHTSCF
|  2> % maxcore 2000
|  3> % mp2 density relaxed end
|  4> *xyz 0 1
|  5>  C        0.0595076297     1.5852273707    -0.0588989563
|  6>  C       -0.0196405263     0.0622276151     0.0765005030
|  7>  C       -1.4388072510    -0.4891050067    -0.1087697979
|  8>  C       -1.5177929226    -2.0073940571     0.0274833895
|  9>  C       -1.2987507221    -2.6733389731     1.4329165205
| 10>  C       -2.6450034930    -3.4034272725     1.2860700780
| 11>  C       -2.8905230788    -4.8263286979     1.6982344160
| 12>  C       -3.7377910050    -2.3810802480     1.1474678851
| 13>  C       -2.8859753730    -2.7001375680    -0.0554326946
| 14>  H        1.0838043871     1.9475966268     0.0747595735
| 15>  H       -0.2834103171     1.9131290218    -1.0467344816
| 16>  H       -0.5693698575     2.0821834910     0.6883553402
| 17>  H        0.6481781713    -0.4064109397    -0.6588940866
| 18>  H        0.3601712968    -0.2373807361     1.0621179292
| 19>  H       -2.1097329250    -0.0131157088     0.6186387836
| 20>  H       -1.8140709094    -0.1995617280    -1.1006590931
| 21>  H       -0.8301894594    -2.4632292327    -0.6941459354
| 22>  H       -0.4382518346    -3.3471122375     1.4519440978
| 23>  H       -1.2226242068    -1.9921153157     2.2885685130
| 24>  H       -2.9096312323    -4.9275606894     2.7907648649
| 25>  H       -3.8515290514    -5.1894505595     1.3185216958
| 26>  H       -2.1075165576    -5.4942498861     1.3199525067
| 27>  H       -4.7452990846    -2.7850388515     1.1086698218
| 28>  H       -3.6726651259    -1.4171719087     1.6476261398
| 29>  H       -3.3275526613    -3.0987183081    -0.9627708127
| 30> *
| 31>
| 32>                          ****END OF INPUT****

CARTESIAN COORDINATES (ANGSTROEM)
---------------------------------
  C      0.059508    1.585227   -0.058899
  C     -0.019641    0.062228    0.076501
  C     -1.438807   -0.489105   -0.108770
  C     -1.517793   -2.007394    0.027483
  C     -1.298751   -2.673339    1.432917
  C     -2.645003   -3.403427    1.286070
  C     -2.890523   -4.826329    1.698234
  C     -3.737791   -2.381080    1.147468
  C     -2.885975   -2.700138   -0.055433
  H      1.083804    1.947597    0.074760
  H     -0.283410    1.913129   -1.046734
  H     -0.569370    2.082183    0.688355
  H      0.648178   -0.406411   -0.658894
  H      0.360171   -0.237381    1.062118
  H     -2.109733   -0.013116    0.618639
  H     -1.814071   -0.199562   -1.100659
  H     -0.830189   -2.463229   -0.694146
  H     -0.438252   -3.347112    1.451944
  H     -1.222624   -1.992115    2.288569
  H     -2.909631   -4.927561    2.790765
  H     -3.851529   -5.189451    1.318522
  H     -2.107517   -5.494250    1.319953
  H     -4.745299   -2.785039    1.108670
  H     -3.672665   -1.417172    1.647626
  H     -3.327553   -3.098718   -0.962771

 Total Charge           Charge          ....    0
 Multiplicity           Mult            ....    1
 Number of Electrons    NEL             ....   70
 Basis Dimension        Dim             ....  375

ORBITAL ENERGIES
----------------

  NO   OCC          E(Eh)            E(eV)
   0   2.0000     -11.230283      -305.5915
   1   2.0000     -11.223369      -305.4034
   2   2.0000     -11.220488      -305.3250
   3   2.0000     -11.217315      -305.2387
   4   2.0000     -11.216134      -305.2065
   5   2.0000     -11.214577      -305.1641
   6   2.0000     -11.214424      -305.1600
   7   2.0000     -11.209918      -305.0374
   8   2.0000     -11.208905      -305.0098
   9   2.0000      -1.185387       -32.2560
  10   2.0000      -1.062081       -28.9007
  11   2.0000      -0.992522       -27.0079
  12   2.0000      -0.962582       -26.1932
  13   2.0000      -0.922729       -25.1087
  14   2.0000      -0.852044       -23.1853
  15   2.0000      -0.800319       -21.7778
  16   2.0000      -0.757518       -20.6131
  17   2.0000      -0.704616       -19.1736
  18   2.0000      -0.664172       -18.0730
  19   2.0000      -0.623856       -16.9760
  20   2.0000      -0.608177       -16.5493
  21   2.0000      -0.595749       -16.2112
  22   2.0000      -0.568362       -15.4659
  23   2.0000      -0.551195       -14.9988
  24   2.0000      -0.550017       -14.9667
  25   2.0000      -0.539707       -14.6862
  26   2.0000      -0.519529       -14.1371
  27   2.0000      -0.504300       -13.7227
  28   2.0000      -0.497745       -13.5443
  29   2.0000      -0.475143       -12.9293
  30   2.0000      -0.462625       -12.5887
  31   2.0000      -0.435693       -11.8558
  32   2.0000      -0.431174       -11.7328
  33   2.0000      -0.393511       -10.7080
  34   2.0000      -0.358234        -9.7480
  35   0.0000       0.136502         3.7144
  36   0.0000       0.147736         4.0201
  37   0.0000       0.160519         4.3679
  38   0.0000       0.173529         4.7220
  39   0.0000       0.177002         4.8165

MULLIKEN ATOMIC CHARGES
-----------------------
   0 C :   -0.383099
   1 C :   -0.189836
   2 C :   -0.268000
   3 C :   -0.048449
   4 C :   -0.261680
   5 C :    0.086809
   6 C :   -0.418542
   7 C :   -0.300095
   8 C :   -0.092991
   9 H :    0.131530
  10 H :    0.120882
  11 H :    0.121262
  12 H :    0.103894
  13 H :    0.110002
  14 H :    0.099237
  15 H :    0.111092
  16 H :    0.092997
  17 H :    0.118400
  18 H :    0.109698
  19 H :    0.132376
  20 H :    0.126532
  21 H :    0.126502
  22 H :    0.125074
  23 H :    0.123426
  24 H :    0.122979
Sum of atomic charges:    0.0000000

LOEWDIN ATOMIC CHARGES
----------------------
   0 C :   -0.322563
   1 C :   -0.294098
   2 C :   -0.253687
   3 C :   -0.208758
   4 C :   -0.172109
   5 C :   -0.228759
   6 C :   -0.278517
   7 C :   -0.192958
   8 C :   -0.150838
   9 H :    0.119464
  10 H :    0.119786
  11 H :    0.119698
  12 H :    0.133831
  13 H :    0.134806
  14 H :    0.137190
  15 H :    0.139859
  16 H :    0.151895
  17 H :    0.133618
  18 H :    0.129363
  19 H :    0.127913
  20 H :    0.128625
  21 H :    0.125655
  22 H :    0.139296
  23 H :    0.128183
  24 H :    0.133106

  Mayer bond orders larger than 0.1
B(  0-C ,  1-C ) :   0.9202 B(  0-C ,  9-H ) :   0.9435 B(  0-C , 10-H ) :   0.9397
B(  0-C , 11-H ) :   0.9401 B(  1-C ,  2-C ) :   0.9278 B(  1-C , 12-H ) :   0.9325
B(  1-C , 13-H ) :   0.9354 B(  2-C ,  3-C ) :   0.9156 B(  2-C , 14-H ) :   0.9277
B(  2-C , 15-H ) :   0.9316 B(  3-C ,  4-C ) :   0.9726 B(  3-C ,  8-C ) :   0.9386
B(  3-C , 16-H ) :   0.9208 B(  4-C ,  5-C ) :   0.9305 B(  4-C , 17-H ) :   0.9257
B(  4-C , 18-H ) :   0.9094 B(  5-C ,  6-C ) :   0.8993 B(  5-C ,  7-C ) :   0.8945
B(  5-C ,  8-C ) :   0.8074 B(  6-C , 19-H ) :   0.9403 B(  6-C , 20-H ) :   0.9380
B(  6-C , 21-H ) :   0.9419 B(  7-C ,  8-C ) :   0.8719 B(  7-C , 22-H ) :   0.9312
B(  7-C , 23-H ) :   0.9136 B(  8-C , 24-H ) :   0.9212

MP2 TOTAL ENERGY:     -351.687854427 Eh
FINAL SINGLE POINT ENERGY      -351.687854427137

DIPOLE MOMENT
-------------
                                X             Y             Z
Electronic contribution:     -2.67454      -3.63516      -0.20942
Nuclear contribution   :      2.71120       3.50859       0.18426
                        -----------------------------------------
Total Dipole Moment    :      0.03666      -0.12657      -0.02517
                        -----------------------------------------
Magnitude (a.u.)       :      0.13415
Magnitude (Debye)      :      0.34099

                             ****ORCA TERMINATED NORMALLY****
TOTAL RUN TIME: 0 days 0 hours 20 minutes 19 seconds 621 msec
