                         Program Version 3.0.3 - RELEASE   -
|  1> ! RI-MP2 RIJK def2-TZVP def2-TZVP/C def2-TZVP/JK TIGHTSCF
|  2> % maxcore 2000
|  3> % mp2 density relaxed end
|  4> *xyz 0 1
|  5>  C       -0.0903201040     1.5392766072     0.0805609337
|  6>  C        0.0397025920     0.0161029486    -0.0689617577
|  7>  C        0.6111792344    -0.3511126340    -1.4458264379
|  8>  C        0.8566879345    -0.5615010246     1.0918177403
|  9>  C        0.9061608821    -2.1019877443     1.2089223547
| 10>  N        2.2658100193    -2.2804148176     1.6782932638
| 11>  C        3.0572299520    -1.1966543746     1.3599174619
| 12>  O        4.2525278079    -1.1145235099     1.4049668526
| 13>  O        2.2389159412    -0.1687687128     0.9796595655
| 14>  H        0.8939528400     2.0152625113     0.0338908389
| 15>  H       -0.7079436475     1.9573177308    -0.7198965389
| 16>  H       -0.5501696658     1.8094062949     1.0370223617
| 17>  H       -0.9634943032    -0.4253682469     0.0251710026
| 18>  H        1.6210429837     0.0514777188    -1.5629550325
| 19>  H        0.6584406439    -1.4325713330    -1.6064271301
| 20>  H       -0.0165757538     0.0690843736    -2.2370780608
| 21>  H        0.4797783611    -0.1446373707     2.0351024949
| 22>  H        0.1681446838    -2.4705017534     1.9271668016
| 23>  H        0.7263932658    -2.5960533741     0.2449255046
| 24>  H        2.7132593828    -3.1819950293     1.7037710312
| 25> *
| 26>
| 27>                          ****END OF INPUT****

CARTESIAN COORDINATES (ANGSTROEM)
---------------------------------
  C     -0.090320    1.539277    0.080561
  C      0.039703    0.016103   -0.068962
  C      0.611179   -0.351113   -1.445826
  C      0.856688   -0.561501    1.091818
  C      0.906161   -2.101988    1.208922
  N      2.265810   -2.280415    1.678293
  C      3.057230   -1.196654    1.359917
  O      4.252528   -1.114524    1.404967
  O      2.238916   -0.168769    0.979660
  H      0.893953    2.015263    0.033891
  H     -0.707944    1.957318   -0.719897
  H     -0.550170    1.809406    1.037022
  H     -0.963494   -0.425368    0.025171
  H      1.621043    0.051478   -1.562955
  H      0.658441   -1.432571   -1.606427
  H     -0.016576    0.069084   -2.237078
  H      0.479778   -0.144637    2.035102
  H      0.168145   -2.470502    1.927167
  H      0.726393   -2.596053    0.244926
  H      2.713259   -3.181995    1.703771

 Total Charge           Charge          ....    0
 Multiplicity           Mult            ....    1
 Number of Electrons    NEL             ....   70
 Basis Dimension        Dim             ....  345

ORBITAL ENERGIES
----------------

  NO   OCC          E(Eh)            E(eV)
   0   2.0000     -20.597142      -560.4767
   1   2.0000     -20.522854      -558.4552
   2   2.0000     -15.592772      -424.3009
   3   2.0000     -11.397129      -310.1317
   4   2.0000     -11.307619      -307.6960
   5   2.0000     -11.287377      -307.1451
   6   2.0000     -11.247798      -306.0682
   7   2.0000     -11.222738      -305.3862
   8   2.0000     -11.221784      -305.3603
   9   2.0000      -1.464523       -39.8517
  10   2.0000      -1.361566       -37.0501
  11   2.0000      -1.240784       -33.7634
  12   2.0000      -1.103322       -30.0229
  13   2.0000      -1.003447       -27.3052
  14   2.0000      -0.941497       -25.6194
  15   2.0000      -0.887095       -24.1391
  16   2.0000      -0.831469       -22.6254
  17   2.0000      -0.796581       -21.6761
  18   2.0000      -0.720341       -19.6015
  19   2.0000      -0.697642       -18.9838
  20   2.0000      -0.657233       -17.8842
  21   2.0000      -0.638100       -17.3636
  22   2.0000      -0.612521       -16.6676
  23   2.0000      -0.607648       -16.5349
  24   2.0000      -0.596840       -16.2409
  25   2.0000      -0.590302       -16.0629
  26   2.0000      -0.555736       -15.1223
  27   2.0000      -0.544450       -14.8152
  28   2.0000      -0.533509       -14.5175
  29   2.0000      -0.501930       -13.6582
  30   2.0000      -0.487723       -13.2716
  31   2.0000      -0.477967       -13.0061
  32   2.0000      -0.452140       -12.3034
  33   2.0000      -0.446662       -12.1543
  34   2.0000      -0.411988       -11.2108
  35   0.0000       0.120953         3.2913
  36   0.0000       0.141325         3.8457
  37   0.0000       0.156422         4.2564
  38   0.0000       0.160489         4.3671
  39   0.0000       0.178189         4.8488

MULLIKEN ATOMIC CHARGES
-----------------------
   0 C :   -0.414868
   1 C :   -0.028503
   2 C :   -0.431979
   3 C :    0.084942
   4 C :   -0.133787
   5 N :   -0.351065
   6 C :    0.334162
   7 O :   -0.324332
   8 O :   -0.260517
   9 H :    0.152993
  10 H :    0.133983
  11 H :    0.127585
  12 H :    0.091965
  13 H :    0.156057
  14 H :    0.119953
  15 H :    0.137771
  16 H :    0.103262
  17 H :    0.131393
  18 H :    0.119778
  19 H :    0.251206
Sum of atomic charges:   -0.0000000

LOEWDIN ATOMIC CHARGES
----------------------
   0 C :   -0.288996
   1 C :   -0.291650
   2 C :   -0.291108
   3 C :   -0.255251
   4 C :   -0.253255
   5 N :    0.085110
   6 C :   -0.574660
   7 O :    0.098957
   8 O :    0.262071
   9 H :    0.131540
  10 H :    0.124286
  11 H :    0.122984
  12 H :    0.157165
  13 H :    0.131913
  14 H :    0.118677
  15 H :    0.126602
  16 H :    0.147569
  17 H :    0.132531
  18 H :    0.127345
  19 H :    0.188169

  Mayer bond orders larger than 0.1
B(  0-C ,  1-C ) :   0.9168 B(  0-C ,  9-H ) :   0.9327 B(  0-C , 10-H ) :   0.9398
B(  0-C , 11-H ) :   0.9348 B(  1-C ,  2-C ) :   0.9148 B(  1-C ,  3-C ) :   0.9063
B(  1-C , 12-H ) :   0.9205 B(  2-C , 13-H ) :   0.9302 B(  2-C , 14-H ) :   0.9358
B(  2-C , 15-H ) :   0.9354 B(  3-C ,  4-C ) :   0.9155 B(  3-C ,  8-O ) :   0.8991
B(  3-C , 16-H ) :   0.9264 B(  4-C ,  5-N ) :   0.9174 B(  4-C , 17-H ) :   0.9255
B(  4-C , 18-H ) :   0.9300 B(  5-N ,  6-C ) :   1.1175 B(  5-N , 19-H ) :   0.8693
B(  6-C ,  7-O ) :   2.0383 B(  6-C ,  8-O ) :   1.0652

MP2 TOTAL ENERGY:     -439.630214171 Eh
FINAL SINGLE POINT ENERGY      -439.630214171088

DIPOLE MOMENT
-------------
                                X             Y             Z
Electronic contribution:      9.80044      -3.76848       6.07435
Nuclear contribution   :    -11.63737       3.00456      -6.28778
                        -----------------------------------------
Total Dipole Moment    :     -1.83692      -0.76393      -0.21343
                        -----------------------------------------
Magnitude (a.u.)       :      2.00086
Magnitude (Debye)      :      5.08577

                             ****ORCA TERMINATED NORMALLY****
TOTAL RUN TIME: 0 days 0 hours 19 minutes 43 seconds 351 msec
