                         Program Version 3.0.3 - RELEASE   -
|  1> ! RI-MP2 RIJK def2-TZVP def2-TZVP/C def2-TZVP/JK TIGHTSCF
|  2> % maxcore 2000
|  3> % mp2 density relaxed end
|  4> *xyz 0 1
|  5>  C       -0.1415457712     1.5340766528    -0.0337968958
|  6>  C        0.0028809915     0.0243838408    -0.0228957567
|  7>  C        1.2914985211    -0.6035425144    -0.6827252046
|  8>  N        2.0143631847    -0.1691850157     0.5641318480
|  9>  C        0.7449299967    -0.6333593103     1.2224623003
| 10>  C        0.6559558027    -2.1295995122     0.8368896844
| 11>  C        1.0282377147    -2.1018073564    -0.4449807058
| 12>  C        0.4799736316    -0.2404451616     2.5914276442
| 13>  N        0.2444346903     0.0721113153     3.6789004129
| 14>  H        0.8004510585     2.0254787174     0.2137676118
| 15>  H       -0.4672170539     1.8725863375    -1.0234868286
| 16>  H       -0.9020281567     1.8505868824     0.6880459267
| 17>  H       -0.9299716241    -0.4774756915    -0.2830941256
| 18>  H        1.6859733381    -0.2659353214    -1.6400134927
| 19>  H        2.7934719231    -0.7893894963     0.7901536543
| 20>  H        0.3244227838    -2.9339455285     1.4761006116
| 21>  H        1.0887843192    -2.9000218381    -1.1703966644
| 22> *
| 23>
| 24>                          ****END OF INPUT****

CARTESIAN COORDINATES (ANGSTROEM)
---------------------------------
  C     -0.141546    1.534077   -0.033797
  C      0.002881    0.024384   -0.022896
  C      1.291499   -0.603543   -0.682725
  N      2.014363   -0.169185    0.564132
  C      0.744930   -0.633359    1.222462
  C      0.655956   -2.129600    0.836890
  C      1.028238   -2.101807   -0.444981
  C      0.479974   -0.240445    2.591428
  N      0.244435    0.072111    3.678900
  H      0.800451    2.025479    0.213768
  H     -0.467217    1.872586   -1.023487
  H     -0.902028    1.850587    0.688046
  H     -0.929972   -0.477476   -0.283094
  H      1.685973   -0.265935   -1.640013
  H      2.793472   -0.789389    0.790154
  H      0.324423   -2.933946    1.476101
  H      1.088784   -2.900022   -1.170397

 Total Charge           Charge          ....    0
 Multiplicity           Mult            ....    1
 Number of Electrons    NEL             ....   64
 Basis Dimension        Dim             ....  327

ORBITAL ENERGIES
----------------

  NO   OCC          E(Eh)            E(eV)
   0   2.0000     -15.575123      -423.8206
   1   2.0000     -15.574736      -423.8101
   2   2.0000     -11.322839      -308.1101
   3   2.0000     -11.291347      -307.2532
   4   2.0000     -11.274010      -306.7814
   5   2.0000     -11.267949      -306.6165
   6   2.0000     -11.258085      -306.3481
   7   2.0000     -11.254614      -306.2536
   8   2.0000     -11.223240      -305.3999
   9   2.0000      -1.300768       -35.3957
  10   2.0000      -1.218102       -33.1462
  11   2.0000      -1.070981       -29.1429
  12   2.0000      -1.037391       -28.2289
  13   2.0000      -0.988330       -26.8938
  14   2.0000      -0.907269       -24.6881
  15   2.0000      -0.811888       -22.0926
  16   2.0000      -0.761433       -20.7196
  17   2.0000      -0.737310       -20.0632
  18   2.0000      -0.702400       -19.1133
  19   2.0000      -0.606779       -16.5113
  20   2.0000      -0.594375       -16.1738
  21   2.0000      -0.573399       -15.6030
  22   2.0000      -0.569808       -15.5053
  23   2.0000      -0.550466       -14.9789
  24   2.0000      -0.548833       -14.9345
  25   2.0000      -0.532679       -14.4949
  26   2.0000      -0.505370       -13.7518
  27   2.0000      -0.486969       -13.2511
  28   2.0000      -0.459484       -12.5032
  29   2.0000      -0.444710       -12.1012
  30   2.0000      -0.430940       -11.7265
  31   2.0000      -0.362201        -9.8560
  32   0.0000       0.112468         3.0604
  33   0.0000       0.136098         3.7034
  34   0.0000       0.142672         3.8823
  35   0.0000       0.157920         4.2972
  36   0.0000       0.163224         4.4415

MULLIKEN ATOMIC CHARGES
-----------------------
   0 C :   -0.445592
   1 C :   -0.042463
   2 C :   -0.015644
   3 N :   -0.326227
   4 C :    0.316658
   5 C :   -0.230511
   6 C :   -0.218027
   7 C :   -0.230258
   8 N :   -0.029519
   9 H :    0.166816
  10 H :    0.136279
  11 H :    0.145613
  12 H :    0.124383
  13 H :    0.150168
  14 H :    0.202534
  15 H :    0.152264
  16 H :    0.143526
Sum of atomic charges:   -0.0000000

LOEWDIN ATOMIC CHARGES
----------------------
   0 C :   -0.289011
   1 C :   -0.158377
   2 C :   -0.199483
   3 N :    0.064279
   4 C :   -0.246838
   5 C :   -0.101947
   6 C :   -0.129820
   7 C :   -0.143115
   8 N :    0.078248
   9 H :    0.135831
  10 H :    0.129009
  11 H :    0.132497
  12 H :    0.150072
  13 H :    0.135317
  14 H :    0.163018
  15 H :    0.142268
  16 H :    0.138053

  Mayer bond orders larger than 0.1
B(  0-C ,  1-C ) :   0.9172 B(  0-C ,  9-H ) :   0.9352 B(  0-C , 10-H ) :   0.9312
B(  0-C , 11-H ) :   0.9286 B(  1-C ,  2-C ) :   0.9093 B(  1-C ,  4-C ) :   0.8208
B(  1-C , 12-H ) :   0.9045 B(  2-C ,  3-N ) :   0.9484 B(  2-C ,  6-C ) :   0.9487
B(  2-C , 13-H ) :   0.8989 B(  3-N ,  4-C ) :   0.8977 B(  3-N , 14-H ) :   0.8788
B(  4-C ,  5-C ) :   0.9188 B(  4-C ,  7-C ) :   0.8714 B(  5-C ,  6-C ) :   1.7427
B(  5-C , 15-H ) :   0.9286 B(  6-C , 16-H ) :   0.9309 B(  7-C ,  8-N ) :   2.8922

MP2 TOTAL ENERGY:     -380.160672764 Eh
FINAL SINGLE POINT ENERGY      -380.160672763980

DIPOLE MOMENT
-------------
                                X             Y             Z
Electronic contribution:      1.22044      -2.54896       5.51143
Nuclear contribution   :     -1.17357       1.78685      -7.12940
                        -----------------------------------------
Total Dipole Moment    :      0.04687      -0.76212      -1.61797
                        -----------------------------------------
Magnitude (a.u.)       :      1.78909
Magnitude (Debye)      :      4.54751

                             ****ORCA TERMINATED NORMALLY****
TOTAL RUN TIME: 0 days 0 hours 18 minutes 18 seconds 434 msec
