                         Program Version 3.0.3 - RELEASE   -
|  1> ! RI-MP2 RIJK def2-TZVP def2-TZVP/C def2-TZVP/JK TIGHTSCF
|  2> % maxcore 2000
|  3> % mp2 density relaxed end
|  4> *xyz 0 1
|  5>  O       -0.0590380215     1.4715690074    -0.0338371261
|  6>  C        1.3828439449     1.3928105542     0.0108149862
|  7>  C        1.3454980248     0.0424818326     0.7932954751
|  8>  C       -0.0093098978     0.0286259416     0.0178225674
|  9>  C        0.6654310693    -0.4281307236    -1.2950908744
| 10>  O        1.3841980823    -1.5925745103    -0.8939834673
| 11>  C        2.2808706350    -0.9162545771    -0.0208831466
| 12>  O        2.9707494518    -0.0379028311    -0.9019650133
| 13>  C        1.8190791812     0.7023351012    -1.3008952759
| 14>  H        1.8889854646     2.2997246045     0.3344284443
| 15>  H        1.3570700646     0.0362457018     1.8784764585
| 16>  H       -0.9246286911    -0.4573608390     0.3485885641
| 17>  H        0.0742499529    -0.6006718537    -2.1893099535
| 18>  H        2.9571014865    -1.6037814749     0.4794815420
| 19>  H        1.9989832626     1.2853827266    -2.1989954004
| 20> *
| 21>
| 22>                          ****END OF INPUT****

CARTESIAN COORDINATES (ANGSTROEM)
---------------------------------
  O     -0.059038    1.471569   -0.033837
  C      1.382844    1.392811    0.010815
  C      1.345498    0.042482    0.793295
  C     -0.009310    0.028626    0.017823
  C      0.665431   -0.428131   -1.295091
  O      1.384198   -1.592575   -0.893983
  C      2.280871   -0.916255   -0.020883
  O      2.970749   -0.037903   -0.901965
  C      1.819079    0.702335   -1.300895
  H      1.888985    2.299725    0.334428
  H      1.357070    0.036246    1.878476
  H     -0.924629   -0.457361    0.348589
  H      0.074250   -0.600672   -2.189310
  H      2.957101   -1.603781    0.479482
  H      1.998983    1.285383   -2.198995

 Total Charge           Charge          ....    0
 Multiplicity           Mult            ....    1
 Number of Electrons    NEL             ....   66
 Basis Dimension        Dim             ....  315

ORBITAL ENERGIES
----------------

  NO   OCC          E(Eh)            E(eV)
   0   2.0000     -20.574791      -559.8685
   1   2.0000     -20.574767      -559.8679
   2   2.0000     -20.567005      -559.6567
   3   2.0000     -11.347801      -308.7894
   4   2.0000     -11.301558      -307.5310
   5   2.0000     -11.301537      -307.5304
   6   2.0000     -11.299568      -307.4769
   7   2.0000     -11.299110      -307.4644
   8   2.0000     -11.254447      -306.2491
   9   2.0000      -1.471708       -40.0472
  10   2.0000      -1.401288       -38.1310
  11   2.0000      -1.348568       -36.6964
  12   2.0000      -1.082173       -29.4474
  13   2.0000      -1.012940       -27.5635
  14   2.0000      -0.962723       -26.1970
  15   2.0000      -0.846566       -23.0362
  16   2.0000      -0.806014       -21.9327
  17   2.0000      -0.769987       -20.9524
  18   2.0000      -0.756449       -20.5840
  19   2.0000      -0.706102       -19.2140
  20   2.0000      -0.682205       -18.5637
  21   2.0000      -0.663627       -18.0582
  22   2.0000      -0.600800       -16.3486
  23   2.0000      -0.600317       -16.3354
  24   2.0000      -0.565383       -15.3849
  25   2.0000      -0.554264       -15.0823
  26   2.0000      -0.517361       -14.0781
  27   2.0000      -0.513185       -13.9645
  28   2.0000      -0.494464       -13.4551
  29   2.0000      -0.467665       -12.7258
  30   2.0000      -0.465620       -12.6702
  31   2.0000      -0.454975       -12.3805
  32   2.0000      -0.400610       -10.9011
  33   0.0000       0.145614         3.9624
  34   0.0000       0.166571         4.5326
  35   0.0000       0.169803         4.6206
  36   0.0000       0.176117         4.7924
  37   0.0000       0.188265         5.1229

MULLIKEN ATOMIC CHARGES
-----------------------
   0 O :   -0.326394
   1 C :   -0.034366
   2 C :   -0.008470
   3 C :   -0.034365
   4 C :    0.058199
   5 O :   -0.290016
   6 C :    0.004625
   7 O :   -0.290016
   8 C :    0.058198
   9 H :    0.138412
  10 H :    0.153556
  11 H :    0.138412
  12 H :    0.148800
  13 H :    0.134625
  14 H :    0.148800
Sum of atomic charges:   -0.0000000

LOEWDIN ATOMIC CHARGES
----------------------
   0 O :    0.163605
   1 C :   -0.221704
   2 C :   -0.143696
   3 C :   -0.221702
   4 C :   -0.235687
   5 O :    0.201800
   6 C :   -0.336508
   7 O :    0.201799
   8 C :   -0.235689
   9 H :    0.134805
  10 H :    0.144600
  11 H :    0.134805
  12 H :    0.138534
  13 H :    0.136502
  14 H :    0.138534

  Mayer bond orders larger than 0.1
B(  0-O ,  1-C ) :   0.9326 B(  0-O ,  3-C ) :   0.9326 B(  1-C ,  2-C ) :   0.9215
B(  1-C ,  8-C ) :   0.8805 B(  1-C ,  9-H ) :   0.9238 B(  2-C ,  3-C ) :   0.9215
B(  2-C ,  6-C ) :   0.9452 B(  2-C , 10-H ) :   0.9190 B(  3-C ,  4-C ) :   0.8805
B(  3-C , 11-H ) :   0.9238 B(  4-C ,  5-O ) :   0.9193 B(  4-C ,  8-C ) :   0.8861
B(  4-C , 12-H ) :   0.9190 B(  5-O ,  6-C ) :   1.0072 B(  6-C ,  7-O ) :   1.0072
B(  6-C , 13-H ) :   0.9180 B(  7-O ,  8-C ) :   0.9193 B(  8-C , 14-H ) :   0.9190

MP2 TOTAL ENERGY:     -457.004452350 Eh
FINAL SINGLE POINT ENERGY      -457.004452349856

DIPOLE MOMENT
-------------
                                X             Y             Z
Electronic contribution:      0.44834      -0.46106      -0.68438
Nuclear contribution   :     -0.50878       0.52464       1.05689
                        -----------------------------------------
Total Dipole Moment    :     -0.06043       0.06358       0.37250
                        -----------------------------------------
Magnitude (a.u.)       :      0.38269
Magnitude (Debye)      :      0.97273

                             ****ORCA TERMINATED NORMALLY****
TOTAL RUN TIME: 0 days 0 hours 17 minutes 22 seconds 47 msec
