                         Program Version 3.0.3 - RELEASE   -
|  1> ! RI-MP2 RIJK def2-TZVP def2-TZVP/C def2-TZVP/JK TIGHTSCF
|  2> % maxcore 2000
|  3> % mp2 density relaxed end
|  4> *xyz 0 1
|  5>  N        0.2464203413     0.0875088132     1.0511909358
|  6>  C       -0.1410665970     0.0538050464    -0.2576970414
|  7>  O        0.2412818858     0.8685980295    -1.0742979438
|  8>  C       -1.1404071227    -1.0506469349    -0.6146271501
|  9>  C       -0.9783625278    -2.3600302229     0.1343006525
| 10>  C       -1.5229034116    -2.6670104615     1.5139166694
| 11>  C       -2.9071233236    -2.0386989352     1.7357920912
| 12>  C       -3.4386202226    -2.8015702795     0.4794997804
| 13>  C       -2.0446035123    -3.4118865457     0.2769096292
| 14>  H        0.9274078112     0.7765287346     1.3245392361
| 15>  H        0.0092718521    -0.6525496654     1.6884703305
| 16>  H       -2.1407652939    -0.6314096783    -0.4590434639
| 17>  H       -1.0409817758    -1.2098491382    -1.6919169451
| 18>  H        0.0017545239    -2.8112406202    -0.0133691980
| 19>  H       -0.8815699988    -3.0443245461     2.3034680237
| 20>  H       -3.3809837155    -2.3864138586     2.6558663139
| 21>  H       -2.9556930095    -0.9450136659     1.7180134947
| 22>  H       -4.1864522324    -3.5513186633     0.7450978894
| 23>  H       -3.8344083390    -2.2003812957    -0.3449838538
| 24>  H       -1.8561898518    -4.4368341924    -0.0203013208
| 25> *
| 26>
| 27>                          ****END OF INPUT****

CARTESIAN COORDINATES (ANGSTROEM)
---------------------------------
  N      0.246420    0.087509    1.051191
  C     -0.141067    0.053805   -0.257697
  O      0.241282    0.868598   -1.074298
  C     -1.140407   -1.050647   -0.614627
  C     -0.978363   -2.360030    0.134301
  C     -1.522903   -2.667010    1.513917
  C     -2.907123   -2.038699    1.735792
  C     -3.438620   -2.801570    0.479500
  C     -2.044604   -3.411887    0.276910
  H      0.927408    0.776529    1.324539
  H      0.009272   -0.652550    1.688470
  H     -2.140765   -0.631410   -0.459043
  H     -1.040982   -1.209849   -1.691917
  H      0.001755   -2.811241   -0.013369
  H     -0.881570   -3.044325    2.303468
  H     -3.380984   -2.386414    2.655866
  H     -2.955693   -0.945014    1.718013
  H     -4.186452   -3.551319    0.745098
  H     -3.834408   -2.200381   -0.344984
  H     -1.856190   -4.436834   -0.020301

 Total Charge           Charge          ....    0
 Multiplicity           Mult            ....    1
 Number of Electrons    NEL             ....   68
 Basis Dimension        Dim             ....  345

ORBITAL ENERGIES
----------------

  NO   OCC          E(Eh)            E(eV)
   0   2.0000     -20.509174      -558.0830
   1   2.0000     -15.575509      -423.8311
   2   2.0000     -11.344190      -308.6911
   3   2.0000     -11.249525      -306.1151
   4   2.0000     -11.244634      -305.9820
   5   2.0000     -11.243588      -305.9536
   6   2.0000     -11.238008      -305.8017
   7   2.0000     -11.236875      -305.7709
   8   2.0000     -11.235436      -305.7317
   9   2.0000      -1.374050       -37.3898
  10   2.0000      -1.209820       -32.9209
  11   2.0000      -1.196100       -32.5475
  12   2.0000      -1.033329       -28.1183
  13   2.0000      -0.970812       -26.4171
  14   2.0000      -0.903372       -24.5820
  15   2.0000      -0.807913       -21.9844
  16   2.0000      -0.766177       -20.8487
  17   2.0000      -0.747613       -20.3436
  18   2.0000      -0.721080       -19.6216
  19   2.0000      -0.704156       -19.1611
  20   2.0000      -0.649781       -17.6814
  21   2.0000      -0.641353       -17.4521
  22   2.0000      -0.599165       -16.3041
  23   2.0000      -0.581192       -15.8150
  24   2.0000      -0.574884       -15.6434
  25   2.0000      -0.550253       -14.9731
  26   2.0000      -0.529072       -14.3968
  27   2.0000      -0.514816       -14.0089
  28   2.0000      -0.475729       -12.9452
  29   2.0000      -0.473583       -12.8869
  30   2.0000      -0.434368       -11.8197
  31   2.0000      -0.409389       -11.1400
  32   2.0000      -0.403354       -10.9758
  33   2.0000      -0.384523       -10.4634
  34   0.0000       0.127905         3.4805
  35   0.0000       0.145135         3.9493
  36   0.0000       0.150218         4.0876
  37   0.0000       0.160707         4.3731
  38   0.0000       0.178204         4.8492

MULLIKEN ATOMIC CHARGES
-----------------------
   0 N :   -0.466909
   1 C :    0.231667
   2 O :   -0.346085
   3 C :   -0.203960
   4 C :   -0.142396
   5 C :   -0.209149
   6 C :   -0.227006
   7 C :   -0.263107
   8 C :   -0.084553
   9 H :    0.253657
  10 H :    0.266835
  11 H :    0.138628
  12 H :    0.142488
  13 H :    0.134270
  14 H :    0.138390
  15 H :    0.126981
  16 H :    0.123917
  17 H :    0.125228
  18 H :    0.124072
  19 H :    0.137030
Sum of atomic charges:   -0.0000000

LOEWDIN ATOMIC CHARGES
----------------------
   0 N :   -0.014709
   1 C :   -0.477498
   2 O :    0.077778
   3 C :   -0.207585
   4 C :   -0.203784
   5 C :   -0.186390
   6 C :   -0.221544
   7 C :   -0.217394
   8 C :   -0.163358
   9 H :    0.171646
  10 H :    0.171716
  11 H :    0.158419
  12 H :    0.157680
  13 H :    0.162696
  14 H :    0.132791
  15 H :    0.135528
  16 H :    0.126003
  17 H :    0.135709
  18 H :    0.126419
  19 H :    0.135878

  Mayer bond orders larger than 0.1
B(  0-N ,  1-C ) :   1.1549 B(  0-N ,  9-H ) :   0.8613 B(  0-N , 10-H ) :   0.8615
B(  1-C ,  2-O ) :   2.0098 B(  1-C ,  3-C ) :   0.9303 B(  3-C ,  4-C ) :   0.8649
B(  3-C , 11-H ) :   0.9101 B(  3-C , 12-H ) :   0.9236 B(  4-C ,  5-C ) :   0.9048
B(  4-C ,  8-C ) :   0.8530 B(  4-C , 13-H ) :   0.9334 B(  5-C ,  6-C ) :   0.9096
B(  5-C ,  8-C ) :   0.8073 B(  5-C , 14-H ) :   0.9223 B(  6-C ,  7-C ) :   0.9607
B(  6-C , 15-H ) :   0.9266 B(  6-C , 16-H ) :   0.9328 B(  7-C ,  8-C ) :   0.9221
B(  7-C , 17-H ) :   0.9267 B(  7-C , 18-H ) :   0.9307 B(  8-C , 19-H ) :   0.9208

MP2 TOTAL ENERGY:     -402.462454224 Eh
FINAL SINGLE POINT ENERGY      -402.462454223826

DIPOLE MOMENT
-------------
                                X             Y             Z
Electronic contribution:      4.70314       4.02977      -2.51690
Nuclear contribution   :     -5.05348      -5.10340       3.70952
                        -----------------------------------------
Total Dipole Moment    :     -0.35035      -1.07363       1.19262
                        -----------------------------------------
Magnitude (a.u.)       :      1.64249
Magnitude (Debye)      :      4.17488

                             ****ORCA TERMINATED NORMALLY****
TOTAL RUN TIME: 0 days 0 hours 20 minutes 27 seconds 472 msec
