                         Program Version 3.0.3 - RELEASE   -
|  1> ! RI-MP2 RIJK def2-TZVP def2-TZVP/C def2-TZVP/JK TIGHTSCF
|  2> % maxcore 2000
|  3> % mp2 density relaxed end
|  4> *xyz 0 1
|  5>  C       -0.0567971397     1.6177563509    -0.0876132651
|  6>  C        0.0447914264     0.0940832617    -0.1250216909
|  7>  N       -1.2841548679    -0.5055941861     0.0394625452
|  8>  C       -1.8020224869    -0.6868514540     1.4413777974
|  9>  C       -2.7443703645    -1.8118736805     0.9063926924
| 10>  C       -2.8581627675    -2.8626980362     1.9949243277
| 11>  O       -1.5109854081    -2.8779548862     2.5108683882
| 12>  C       -0.8660771923    -1.9143454294     1.7117947896
| 13>  C       -1.3509361846    -1.9942171449     0.2245806285
| 14>  H        0.9161598006     2.0776404886    -0.2861128984
| 15>  H       -0.7720585582     1.9705642005    -0.8357758007
| 16>  H       -0.3962245109     1.9668456053     0.8935950968
| 17>  H        0.4147714055    -0.2252989547    -1.1074190336
| 18>  H        0.7884338021    -0.2423568768     0.6155936309
| 19>  H       -2.0594412700     0.1483011538     2.0945309182
| 20>  H       -3.6051454218    -1.5425473513     0.2981389664
| 21>  H       -3.5598658105    -2.5910486264     2.7928617092
| 22>  H       -3.1239526863    -3.8571777720     1.6164129135
| 23>  H        0.1779203552    -1.8226398470     1.9979841893
| 24>  H       -1.0713246508    -2.6983968352    -0.5612623347
| 25> *
| 26>
| 27>                          ****END OF INPUT****

CARTESIAN COORDINATES (ANGSTROEM)
---------------------------------
  C     -0.056797    1.617756   -0.087613
  C      0.044791    0.094083   -0.125022
  N     -1.284155   -0.505594    0.039463
  C     -1.802022   -0.686851    1.441378
  C     -2.744370   -1.811874    0.906393
  C     -2.858163   -2.862698    1.994924
  O     -1.510985   -2.877955    2.510868
  C     -0.866077   -1.914345    1.711795
  C     -1.350936   -1.994217    0.224581
  H      0.916160    2.077640   -0.286113
  H     -0.772059    1.970564   -0.835776
  H     -0.396225    1.966846    0.893595
  H      0.414771   -0.225299   -1.107419
  H      0.788434   -0.242357    0.615594
  H     -2.059441    0.148301    2.094531
  H     -3.605145   -1.542547    0.298139
  H     -3.559866   -2.591049    2.792862
  H     -3.123953   -3.857178    1.616413
  H      0.177920   -1.822640    1.997984
  H     -1.071325   -2.698397   -0.561262

 Total Charge           Charge          ....    0
 Multiplicity           Mult            ....    1
 Number of Electrons    NEL             ....   68
 Basis Dimension        Dim             ....  345

ORBITAL ENERGIES
----------------

  NO   OCC          E(Eh)            E(eV)
   0   2.0000     -20.556942      -559.3828
   1   2.0000     -15.553539      -423.2333
   2   2.0000     -11.289165      -307.1938
   3   2.0000     -11.276841      -306.8584
   4   2.0000     -11.270499      -306.6859
   5   2.0000     -11.270267      -306.6796
   6   2.0000     -11.245661      -306.0100
   7   2.0000     -11.243375      -305.9478
   8   2.0000     -11.211414      -305.0781
   9   2.0000      -1.394765       -37.9535
  10   2.0000      -1.275440       -34.7065
  11   2.0000      -1.077814       -29.3288
  12   2.0000      -0.992907       -27.0184
  13   2.0000      -0.950964       -25.8770
  14   2.0000      -0.880969       -23.9724
  15   2.0000      -0.843084       -22.9415
  16   2.0000      -0.800269       -21.7764
  17   2.0000      -0.737804       -20.0767
  18   2.0000      -0.703512       -19.1435
  19   2.0000      -0.674505       -18.3542
  20   2.0000      -0.651828       -17.7371
  21   2.0000      -0.615378       -16.7453
  22   2.0000      -0.583654       -15.8820
  23   2.0000      -0.567770       -15.4498
  24   2.0000      -0.540457       -14.7066
  25   2.0000      -0.527245       -14.3471
  26   2.0000      -0.521500       -14.1907
  27   2.0000      -0.506749       -13.7893
  28   2.0000      -0.504430       -13.7262
  29   2.0000      -0.459722       -12.5097
  30   2.0000      -0.458289       -12.4707
  31   2.0000      -0.445870       -12.1328
  32   2.0000      -0.392318       -10.6755
  33   2.0000      -0.361817        -9.8456
  34   0.0000       0.141759         3.8575
  35   0.0000       0.153303         4.1716
  36   0.0000       0.162248         4.4150
  37   0.0000       0.175131         4.7656
  38   0.0000       0.190512         5.1841

MULLIKEN ATOMIC CHARGES
-----------------------
   0 C :   -0.376198
   1 C :   -0.136583
   2 N :   -0.201898
   3 C :   -0.110612
   4 C :   -0.079430
   5 C :   -0.050799
   6 O :   -0.320195
   7 C :    0.035933
   8 C :   -0.084616
   9 H :    0.126909
  10 H :    0.130509
  11 H :    0.118784
  12 H :    0.114297
  13 H :    0.083255
  14 H :    0.137319
  15 H :    0.130416
  16 H :    0.110247
  17 H :    0.110641
  18 H :    0.128788
  19 H :    0.133234
Sum of atomic charges:    0.0000000

LOEWDIN ATOMIC CHARGES
----------------------
   0 C :   -0.318979
   1 C :   -0.321964
   2 N :    0.120794
   3 C :   -0.168899
   4 C :   -0.178494
   5 C :   -0.261275
   6 O :    0.162462
   7 C :   -0.258087
   8 C :   -0.170588
   9 H :    0.121490
  10 H :    0.123668
  11 H :    0.118909
  12 H :    0.131861
  13 H :    0.118592
  14 H :    0.125347
  15 H :    0.144992
  16 H :    0.125621
  17 H :    0.125617
  18 H :    0.133488
  19 H :    0.125445

  Mayer bond orders larger than 0.1
B(  0-C ,  1-C ) :   0.9385 B(  0-C ,  9-H ) :   0.9380 B(  0-C , 10-H ) :   0.9364
B(  0-C , 11-H ) :   0.9365 B(  1-C ,  2-N ) :   0.8982 B(  1-C , 12-H ) :   0.9310
B(  1-C , 13-H ) :   0.9149 B(  2-N ,  3-C ) :   0.8944 B(  2-N ,  8-C ) :   0.8856
B(  3-C ,  4-C ) :   0.8989 B(  3-C ,  7-C ) :   0.8683 B(  3-C , 14-H ) :   0.8884
B(  4-C ,  5-C ) :   0.9693 B(  4-C ,  8-C ) :   0.8967 B(  4-C , 15-H ) :   0.9031
B(  5-C ,  6-O ) :   0.9115 B(  5-C , 16-H ) :   0.9209 B(  5-C , 17-H ) :   0.9213
B(  6-O ,  7-C ) :   0.9865 B(  7-C ,  8-C ) :   0.8611 B(  7-C , 18-H ) :   0.9447
B(  8-C , 19-H ) :   0.8940

MP2 TOTAL ENERGY:     -402.385186893 Eh
FINAL SINGLE POINT ENERGY      -402.385186892765

DIPOLE MOMENT
-------------
                                X             Y             Z
Electronic contribution:     -2.53560      -5.91372       2.78745
Nuclear contribution   :      2.50464       6.01552      -2.91838
                        -----------------------------------------
Total Dipole Moment    :     -0.03096       0.10180      -0.13093
                        -----------------------------------------
Magnitude (a.u.)       :      0.16871
Magnitude (Debye)      :      0.42884

                             ****ORCA TERMINATED NORMALLY****
TOTAL RUN TIME: 0 days 0 hours 18 minutes 21 seconds 663 msec
