                         Program Version 3.0.3 - RELEASE   -
|  1> ! RI-MP2 RIJK def2-TZVP def2-TZVP/C def2-TZVP/JK TIGHTSCF
|  2> % maxcore 2000
|  3> % mp2 density relaxed end
|  4> *xyz 0 1
|  5>  C        0.0500077105     1.2157652604     0.3748010251
|  6>  O        0.0258550076    -0.1020352705    -0.1257368608
|  7>  C       -1.2514196130    -0.6849148479    -0.0940890921
|  8>  C       -1.3742790833    -2.0858796650    -0.6548284734
|  9>  C       -1.0697630887    -3.0696754609     0.4790704438
| 10>  C       -2.4315593881    -2.4291000872     0.3773128360
| 11>  C       -1.8110945822    -1.2629870911     1.2436886429
| 12>  C       -0.7079393331    -2.2516193987     1.7233493386
| 13>  C       -1.0332089801    -2.9510876363     3.0369975932
| 14>  H        1.0721792730     1.5873157480     0.2700133613
| 15>  H       -0.6270588520     1.8765892064    -0.1896645798
| 16>  H       -0.2341287096     1.2617827234     1.4369775193
| 17>  H       -1.9910990978    -0.0140385315    -0.5587883164
| 18>  H       -1.3369819768    -2.3891744597    -1.6930344928
| 19>  H       -0.8025454968    -4.0955188716     0.2555320292
| 20>  H       -3.4294052063    -2.8227027903     0.2590404235
| 21>  H       -2.3435161910    -0.6332894767     1.9547786839
| 22>  H        0.3038511808    -1.8316111978     1.7464228539
| 23>  H       -2.0506637257    -3.3576083942     3.0276272318
| 24>  H       -0.3432650601    -3.7814537777     3.2239292248
| 25>  H       -0.9533170473    -2.2577540011     3.8816850280
| 26> *
| 27>
| 28>                          ****END OF INPUT****

CARTESIAN COORDINATES (ANGSTROEM)
---------------------------------
  C      0.050008    1.215765    0.374801
  O      0.025855   -0.102035   -0.125737
  C     -1.251420   -0.684915   -0.094089
  C     -1.374279   -2.085880   -0.654828
  C     -1.069763   -3.069675    0.479070
  C     -2.431559   -2.429100    0.377313
  C     -1.811095   -1.262987    1.243689
  C     -0.707939   -2.251619    1.723349
  C     -1.033209   -2.951088    3.036998
  H      1.072179    1.587316    0.270013
  H     -0.627059    1.876589   -0.189665
  H     -0.234129    1.261783    1.436978
  H     -1.991099   -0.014039   -0.558788
  H     -1.336982   -2.389174   -1.693034
  H     -0.802545   -4.095519    0.255532
  H     -3.429405   -2.822703    0.259040
  H     -2.343516   -0.633289    1.954779
  H      0.303851   -1.831611    1.746423
  H     -2.050664   -3.357608    3.027627
  H     -0.343265   -3.781454    3.223929
  H     -0.953317   -2.257754    3.881685

 Total Charge           Charge          ....    0
 Multiplicity           Mult            ....    1
 Number of Electrons    NEL             ....   68
 Basis Dimension        Dim             ....  351

ORBITAL ENERGIES
----------------

  NO   OCC          E(Eh)            E(eV)
   0   2.0000     -20.548901      -559.1640
   1   2.0000     -11.278008      -306.8902
   2   2.0000     -11.267933      -306.6161
   3   2.0000     -11.232203      -305.6438
   4   2.0000     -11.231487      -305.6243
   5   2.0000     -11.229721      -305.5762
   6   2.0000     -11.228150      -305.5335
   7   2.0000     -11.224002      -305.4206
   8   2.0000     -11.209602      -305.0288
   9   2.0000      -1.373432       -37.3730
  10   2.0000      -1.226350       -33.3707
  11   2.0000      -1.020663       -27.7737
  12   2.0000      -0.968514       -26.3546
  13   2.0000      -0.919234       -25.0136
  14   2.0000      -0.882016       -24.0009
  15   2.0000      -0.830266       -22.5927
  16   2.0000      -0.745919       -20.2975
  17   2.0000      -0.711371       -19.3574
  18   2.0000      -0.698615       -19.0103
  19   2.0000      -0.657853       -17.9011
  20   2.0000      -0.643536       -17.5115
  21   2.0000      -0.625397       -17.0179
  22   2.0000      -0.599018       -16.3001
  23   2.0000      -0.562215       -15.2986
  24   2.0000      -0.546115       -14.8605
  25   2.0000      -0.524994       -14.2858
  26   2.0000      -0.515210       -14.0196
  27   2.0000      -0.500083       -13.6079
  28   2.0000      -0.471107       -12.8195
  29   2.0000      -0.447261       -12.1706
  30   2.0000      -0.444045       -12.0831
  31   2.0000      -0.407947       -11.1008
  32   2.0000      -0.389572       -10.6008
  33   2.0000      -0.368305       -10.0221
  34   0.0000       0.137214         3.7338
  35   0.0000       0.156161         4.2494
  36   0.0000       0.165689         4.5086
  37   0.0000       0.177617         4.8332
  38   0.0000       0.193513         5.2658

MULLIKEN ATOMIC CHARGES
-----------------------
   0 C :   -0.229776
   1 O :   -0.312289
   2 C :    0.111569
   3 C :   -0.122091
   4 C :   -0.178942
   5 C :   -0.251132
   6 C :   -0.100845
   7 C :    0.029815
   8 C :   -0.434985
   9 H :    0.141871
  10 H :    0.111665
  11 H :    0.114264
  12 H :    0.079606
  13 H :    0.135689
  14 H :    0.127350
  15 H :    0.146740
  16 H :    0.133809
  17 H :    0.106736
  18 H :    0.132148
  19 H :    0.130726
  20 H :    0.128072
Sum of atomic charges:    0.0000000

LOEWDIN ATOMIC CHARGES
----------------------
   0 C :   -0.357995
   1 O :    0.161267
   2 C :   -0.284180
   3 C :   -0.139776
   4 C :   -0.143287
   5 C :   -0.121127
   6 C :   -0.131199
   7 C :   -0.213586
   8 C :   -0.289899
   9 H :    0.113522
  10 H :    0.102010
  11 H :    0.102118
  12 H :    0.141223
  13 H :    0.139435
  14 H :    0.139572
  15 H :    0.132190
  16 H :    0.131932
  17 H :    0.143845
  18 H :    0.127414
  19 H :    0.123721
  20 H :    0.122801

  Mayer bond orders larger than 0.1
B(  0-C ,  1-O ) :   0.9092 B(  0-C ,  9-H ) :   0.9425 B(  0-C , 10-H ) :   0.9337
B(  0-C , 11-H ) :   0.9342 B(  1-O ,  2-C ) :   0.9880 B(  2-C ,  3-C ) :   0.9375
B(  2-C ,  6-C ) :   0.9671 B(  2-C , 12-H ) :   0.9424 B(  3-C ,  4-C ) :   0.8315
B(  3-C ,  5-C ) :   0.8261 B(  3-C , 13-H ) :   0.9234 B(  4-C ,  5-C ) :   0.8819
B(  4-C ,  7-C ) :   0.9457 B(  4-C , 14-H ) :   0.9309 B(  5-C ,  6-C ) :   0.9287
B(  5-C , 15-H ) :   0.9124 B(  6-C ,  7-C ) :   0.8952 B(  6-C , 16-H ) :   0.9143
B(  7-C ,  8-C ) :   0.8754 B(  7-C , 17-H ) :   0.8946 B(  8-C , 18-H ) :   0.9402
B(  8-C , 19-H ) :   0.9426 B(  8-C , 20-H ) :   0.9397

MP2 TOTAL ENERGY:     -386.355431265 Eh
FINAL SINGLE POINT ENERGY      -386.355431265426

DIPOLE MOMENT
-------------
                                X             Y             Z
Electronic contribution:     -0.05610      -0.76951      -4.45511
Nuclear contribution   :     -0.32142       0.95312       4.63568
                        -----------------------------------------
Total Dipole Moment    :     -0.37752       0.18362       0.18057
                        -----------------------------------------
Magnitude (a.u.)       :      0.45699
Magnitude (Debye)      :      1.16157

                             ****ORCA TERMINATED NORMALLY****
TOTAL RUN TIME: 0 days 0 hours 18 minutes 36 seconds 859 msec
