                         Program Version 3.0.3 - RELEASE   -
|  1> ! RI-MP2 RIJK def2-TZVP def2-TZVP/C def2-TZVP/JK TIGHTSCF
|  2> % maxcore 2000
|  3> % mp2 density relaxed end
|  4> *xyz 0 1
|  5>  C       -2.1836879991     1.8330123320     0.8532177709
|  6>  C       -2.1491083616     0.3123400411     1.0435171568
|  7>  C       -1.4038218139    -0.4632866426    -0.0599196574
|  8>  C        0.0763608256    -0.0586648303    -0.1442213086
|  9>  C       -1.5054672550    -1.9899466109     0.1384579927
| 10>  C       -2.9076527353    -2.6313845329     0.0993416749
| 11>  C       -3.6085864529    -2.3953649598    -1.2465994387
| 12>  C       -2.7930071913    -4.1334806538     0.4299018818
| 13>  C       -4.1271669111    -4.8575421539     0.6377961302
| 14>  H       -2.7964643788     2.3086649633     1.6257038440
| 15>  H       -1.1863704022     2.2792679787     0.9079423967
| 16>  H       -2.6134020448     2.0998774966    -0.1193273077
| 17>  H       -1.6910150658     0.0741886586     2.0142043165
| 18>  H       -3.1819305837    -0.0496264176     1.1013482221
| 19>  H       -1.8692017319    -0.2045223396    -1.0214769005
| 20>  H        0.5925274089    -0.2633692733     0.8019216948
| 21>  H        0.5916762337    -0.6216984866    -0.9295262040
| 22>  H        0.1998518017     1.0047522911    -0.3672957180
| 23>  H       -0.8882407973    -2.4781179921    -0.6296454708
| 24>  H       -1.0350143717    -2.2404654103     1.1003939004
| 25>  H       -3.5234146745    -2.1758322102     0.8877151314
| 26>  H       -3.7481331447    -1.3300280226    -1.4517424833
| 27>  H       -3.0191257932    -2.8169686919    -2.0704491242
| 28>  H       -4.5981032127    -2.8602536030    -1.2740026834
| 29>  H       -2.2259107769    -4.6325245395    -0.3687045768
| 30>  H       -2.1887309820    -4.2423326462     1.3397339179
| 31>  H       -4.7184593782    -4.3788281397     1.4268880497
| 32>  H       -4.7365332414    -4.8700346819    -0.2709878957
| 33>  H       -3.9632391000    -5.8986458928     0.9338586384
| 34> *
| 35>
| 36>                          ****END OF INPUT****

CARTESIAN COORDINATES (ANGSTROEM)
---------------------------------
  C     -2.183688    1.833012    0.853218
  C     -2.149108    0.312340    1.043517
  C     -1.403822   -0.463287   -0.059920
  C      0.076361   -0.058665   -0.144221
  C     -1.505467   -1.989947    0.138458
  C     -2.907653   -2.631385    0.099342
  C     -3.608586   -2.395365   -1.246599
  C     -2.793007   -4.133481    0.429902
  C     -4.127167   -4.857542    0.637796
  H     -2.796464    2.308665    1.625704
  H     -1.186370    2.279268    0.907942
  H     -2.613402    2.099877   -0.119327
  H     -1.691015    0.074189    2.014204
  H     -3.181931   -0.049626    1.101348
  H     -1.869202   -0.204522   -1.021477
  H      0.592527   -0.263369    0.801922
  H      0.591676   -0.621698   -0.929526
  H      0.199852    1.004752   -0.367296
  H     -0.888241   -2.478118   -0.629645
  H     -1.035014   -2.240465    1.100394
  H     -3.523415   -2.175832    0.887715
  H     -3.748133   -1.330028   -1.451742
  H     -3.019126   -2.816969   -2.070449
  H     -4.598103   -2.860254   -1.274003
  H     -2.225911   -4.632525   -0.368705
  H     -2.188731   -4.242333    1.339734
  H     -4.718459   -4.378828    1.426888
  H     -4.736533   -4.870035   -0.270988
  H     -3.963239   -5.898646    0.933859

 Total Charge           Charge          ....    0
 Multiplicity           Mult            ....    1
 Number of Electrons    NEL             ....   74
 Basis Dimension        Dim             ....  399

ORBITAL ENERGIES
----------------

  NO   OCC          E(Eh)            E(eV)
   0   2.0000     -11.219836      -305.3073
   1   2.0000     -11.219734      -305.3045
   2   2.0000     -11.213739      -305.1414
   3   2.0000     -11.213530      -305.1357
   4   2.0000     -11.210342      -305.0489
   5   2.0000     -11.209086      -305.0147
   6   2.0000     -11.208936      -305.0107
   7   2.0000     -11.207020      -304.9585
   8   2.0000     -11.206612      -304.9474
   9   2.0000      -1.104286       -30.0492
  10   2.0000      -1.062805       -28.9204
  11   2.0000      -0.993018       -27.0214
  12   2.0000      -0.971795       -26.4439
  13   2.0000      -0.918628       -24.9971
  14   2.0000      -0.870383       -23.6843
  15   2.0000      -0.837236       -22.7823
  16   2.0000      -0.771937       -21.0055
  17   2.0000      -0.743958       -20.2441
  18   2.0000      -0.639520       -17.4022
  19   2.0000      -0.627559       -17.0768
  20   2.0000      -0.609530       -16.5861
  21   2.0000      -0.591231       -16.0882
  22   2.0000      -0.586561       -15.9611
  23   2.0000      -0.561455       -15.2780
  24   2.0000      -0.544597       -14.8192
  25   2.0000      -0.537820       -14.6348
  26   2.0000      -0.527846       -14.3634
  27   2.0000      -0.522527       -14.2187
  28   2.0000      -0.509674       -13.8689
  29   2.0000      -0.499707       -13.5977
  30   2.0000      -0.485850       -13.2206
  31   2.0000      -0.474930       -12.9235
  32   2.0000      -0.466090       -12.6829
  33   2.0000      -0.455587       -12.3972
  34   2.0000      -0.443077       -12.0567
  35   2.0000      -0.433315       -11.7911
  36   2.0000      -0.425413       -11.5761
  37   0.0000       0.134225         3.6524
  38   0.0000       0.148314         4.0358
  39   0.0000       0.158298         4.3075
  40   0.0000       0.160598         4.3701
  41   0.0000       0.177530         4.8308

MULLIKEN ATOMIC CHARGES
-----------------------
   0 C :   -0.409663
   1 C :   -0.206612
   2 C :   -0.032985
   3 C :   -0.411187
   4 C :   -0.242435
   5 C :   -0.035121
   6 C :   -0.435924
   7 C :   -0.183079
   8 C :   -0.405942
   9 H :    0.134294
  10 H :    0.129356
  11 H :    0.122104
  12 H :    0.104220
  13 H :    0.111719
  14 H :    0.086397
  15 H :    0.120918
  16 H :    0.129773
  17 H :    0.135504
  18 H :    0.111488
  19 H :    0.108300
  20 H :    0.083984
  21 H :    0.134574
  22 H :    0.121944
  23 H :    0.134426
  24 H :    0.103088
  25 H :    0.108523
  26 H :    0.121919
  27 H :    0.126140
  28 H :    0.134275
Sum of atomic charges:   -0.0000000

LOEWDIN ATOMIC CHARGES
----------------------
   0 C :   -0.320341
   1 C :   -0.274349
   2 C :   -0.285864
   3 C :   -0.294719
   4 C :   -0.228116
   5 C :   -0.286552
   6 C :   -0.294322
   7 C :   -0.274740
   8 C :   -0.321431
   9 H :    0.120643
  10 H :    0.118455
  11 H :    0.120714
  12 H :    0.136972
  13 H :    0.136288
  14 H :    0.149272
  15 H :    0.123279
  16 H :    0.122464
  17 H :    0.120602
  18 H :    0.142399
  19 H :    0.141689
  20 H :    0.148347
  21 H :    0.121020
  22 H :    0.124334
  23 H :    0.121498
  24 H :    0.136248
  25 H :    0.136986
  26 H :    0.120334
  27 H :    0.117955
  28 H :    0.120933

  Mayer bond orders larger than 0.1
B(  0-C ,  1-C ) :   0.9126 B(  0-C ,  9-H ) :   0.9432 B(  0-C , 10-H ) :   0.9443
B(  0-C , 11-H ) :   0.9374 B(  1-C ,  2-C ) :   0.9182 B(  1-C , 12-H ) :   0.9244
B(  1-C , 13-H ) :   0.9367 B(  2-C ,  3-C ) :   0.9043 B(  2-C ,  4-C ) :   0.9191
B(  2-C , 14-H ) :   0.9330 B(  3-C , 15-H ) :   0.9339 B(  3-C , 16-H ) :   0.9409
B(  3-C , 17-H ) :   0.9446 B(  4-C ,  5-C ) :   0.9208 B(  4-C , 18-H ) :   0.9286
B(  4-C , 19-H ) :   0.9260 B(  5-C ,  6-C ) :   0.8982 B(  5-C ,  7-C ) :   0.9258
B(  5-C , 20-H ) :   0.9324 B(  6-C , 21-H ) :   0.9406 B(  6-C , 22-H ) :   0.9302
B(  6-C , 23-H ) :   0.9415 B(  7-C ,  8-C ) :   0.9167 B(  7-C , 24-H ) :   0.9268
B(  7-C , 25-H ) :   0.9350 B(  8-C , 26-H ) :   0.9385 B(  8-C , 27-H ) :   0.9430
B(  8-C , 28-H ) :   0.9431

MP2 TOTAL ENERGY:     -354.129061953 Eh
FINAL SINGLE POINT ENERGY      -354.129061952923

DIPOLE MOMENT
-------------
                                X             Y             Z
Electronic contribution:      0.61443      -0.53236       0.22225
Nuclear contribution   :     -0.64578       0.52871      -0.20215
                        -----------------------------------------
Total Dipole Moment    :     -0.03135      -0.00365       0.02010
                        -----------------------------------------
Magnitude (a.u.)       :      0.03742
Magnitude (Debye)      :      0.09512

                             ****ORCA TERMINATED NORMALLY****
TOTAL RUN TIME: 0 days 0 hours 20 minutes 44 seconds 353 msec
