                         Program Version 3.0.3 - RELEASE   -
|  1> ! RI-MP2 RIJK def2-TZVP def2-TZVP/C def2-TZVP/JK TIGHTSCF
|  2> % maxcore 2000
|  3> % mp2 density relaxed end
|  4> *xyz 0 1
|  5>  O       -0.4122290994     0.9613528040    -0.8052762891
|  6>  C       -0.0232062973     1.4699990892     0.2244568841
|  7>  N        1.2565970268     1.4295908680     0.6849218454
|  8>  C        2.3383609017     0.7855325544    -0.0402276802
|  9>  C        3.3682192922     1.7956802313    -0.4848622215
| 10>  O        4.1791012491     2.3616131776     0.5473939119
| 11>  C        4.8224326480     1.5278831075    -0.4331569419
| 12>  C        5.3687862023     0.2733253994     0.0110621272
| 13>  C        5.8577976761    -0.7693849545     0.3553421766
| 14>  H       -0.6880151451     2.0264306556     0.9138340566
| 15>  H        1.4823701448     1.9182364443     1.5371731902
| 16>  H        2.8157680687     0.0230282614     0.5825820133
| 17>  H        1.8857875914     0.2974922681    -0.9070726981
| 18>  H        3.0216672265     2.5202597106    -1.2231043268
| 19>  H        5.4539953185     2.0789278809    -1.1293280300
| 20>  H        6.2858941956    -1.6912763578     0.6644298824
| 21> *
| 22>
| 23>                          ****END OF INPUT****

CARTESIAN COORDINATES (ANGSTROEM)
---------------------------------
  O     -0.412229    0.961353   -0.805276
  C     -0.023206    1.469999    0.224457
  N      1.256597    1.429591    0.684922
  C      2.338361    0.785533   -0.040228
  C      3.368219    1.795680   -0.484862
  O      4.179101    2.361613    0.547394
  C      4.822433    1.527883   -0.433157
  C      5.368786    0.273325    0.011062
  C      5.857798   -0.769385    0.355342
  H     -0.688015    2.026431    0.913834
  H      1.482370    1.918236    1.537173
  H      2.815768    0.023028    0.582582
  H      1.885788    0.297492   -0.907073
  H      3.021667    2.520260   -1.223104
  H      5.453995    2.078928   -1.129328
  H      6.285894   -1.691276    0.664430

 Total Charge           Charge          ....    0
 Multiplicity           Mult            ....    1
 Number of Electrons    NEL             ....   66
 Basis Dimension        Dim             ....  321

ORBITAL ENERGIES
----------------

  NO   OCC          E(Eh)            E(eV)
   0   2.0000     -20.592420      -560.3482
   1   2.0000     -20.527011      -558.5684
   2   2.0000     -15.596139      -424.3925
   3   2.0000     -11.354272      -308.9655
   4   2.0000     -11.328533      -308.2651
   5   2.0000     -11.311542      -307.8027
   6   2.0000     -11.279287      -306.9250
   7   2.0000     -11.253597      -306.2260
   8   2.0000     -11.247614      -306.0631
   9   2.0000      -1.436259       -39.0826
  10   2.0000      -1.388096       -37.7720
  11   2.0000      -1.243135       -33.8274
  12   2.0000      -1.065731       -29.0000
  13   2.0000      -1.020968       -27.7820
  14   2.0000      -0.948178       -25.8012
  15   2.0000      -0.867863       -23.6158
  16   2.0000      -0.810959       -22.0673
  17   2.0000      -0.766481       -20.8570
  18   2.0000      -0.736640       -20.0450
  19   2.0000      -0.713887       -19.4259
  20   2.0000      -0.691928       -18.8283
  21   2.0000      -0.653827       -17.7915
  22   2.0000      -0.612299       -16.6615
  23   2.0000      -0.599205       -16.3052
  24   2.0000      -0.590105       -16.0576
  25   2.0000      -0.553435       -15.0597
  26   2.0000      -0.540663       -14.7122
  27   2.0000      -0.501239       -13.6394
  28   2.0000      -0.480705       -13.0806
  29   2.0000      -0.436972       -11.8906
  30   2.0000      -0.418341       -11.3836
  31   2.0000      -0.405929       -11.0459
  32   2.0000      -0.389543       -10.6000
  33   0.0000       0.136139         3.7045
  34   0.0000       0.142861         3.8875
  35   0.0000       0.145625         3.9627
  36   0.0000       0.157305         4.2805
  37   0.0000       0.165701         4.5090

MULLIKEN ATOMIC CHARGES
-----------------------
   0 O :   -0.368058
   1 C :    0.199733
   2 N :   -0.326859
   3 C :   -0.136467
   4 C :    0.057003
   5 O :   -0.319212
   6 C :   -0.166403
   7 C :    0.003856
   8 C :   -0.089563
   9 H :    0.084204
  10 H :    0.251671
  11 H :    0.164328
  12 H :    0.164854
  13 H :    0.137327
  14 H :    0.143769
  15 H :    0.199815
Sum of atomic charges:   -0.0000000

LOEWDIN ATOMIC CHARGES
----------------------
   0 O :    0.053668
   1 C :   -0.436212
   2 N :    0.089041
   3 C :   -0.252365
   4 C :   -0.254737
   5 O :    0.173689
   6 C :   -0.248523
   7 C :   -0.093327
   8 C :   -0.068088
   9 H :    0.111110
  10 H :    0.189122
  11 H :    0.147502
  12 H :    0.157486
  13 H :    0.143834
  14 H :    0.156951
  15 H :    0.130847

  Mayer bond orders larger than 0.1
B(  0-O ,  1-C ) :   1.8818 B(  1-C ,  2-N ) :   1.1582 B(  1-C ,  9-H ) :   0.9306
B(  2-N ,  3-C ) :   0.8016 B(  2-N , 10-H ) :   0.8693 B(  3-C ,  4-C ) :   0.9278
B(  3-C , 11-H ) :   0.9278 B(  3-C , 12-H ) :   0.9144 B(  4-C ,  5-O ) :   0.8746
B(  4-C ,  6-C ) :   0.9797 B(  4-C , 13-H ) :   0.9102 B(  5-O ,  6-C ) :   0.9280
B(  6-C ,  7-C ) :   1.1094 B(  6-C ,  8-C ) :  -0.1258 B(  6-C , 14-H ) :   0.9311
B(  7-C ,  8-C ) :   2.5947 B(  8-C , 15-H ) :   0.8925

MP2 TOTAL ENERGY:     -437.117401338 Eh
FINAL SINGLE POINT ENERGY      -437.117401338173

DIPOLE MOMENT
-------------
                                X             Y             Z
Electronic contribution:      0.72832       0.69327       0.14827
Nuclear contribution   :      0.10849      -0.67807       0.33236
                        -----------------------------------------
Total Dipole Moment    :      0.83681       0.01520       0.48063
                        -----------------------------------------
Magnitude (a.u.)       :      0.96514
Magnitude (Debye)      :      2.45318

                             ****ORCA TERMINATED NORMALLY****
TOTAL RUN TIME: 0 days 0 hours 12 minutes 50 seconds 135 msec
