                         Program Version 3.0.3 - RELEASE   -
|  1> ! RI-MP2 RIJK def2-TZVP def2-TZVP/C def2-TZVP/JK TIGHTSCF
|  2> % maxcore 2000
|  3> % mp2 density relaxed end
|  4> *xyz 0 1
|  5>  C       -0.0825105341     1.2130715404    -0.6097644533
|  6>  O       -0.1186930289     0.2375900153     0.4150591543
|  7>  C       -1.2813252831    -0.5273355700     0.3964680672
|  8>  C       -1.3759892199    -1.7098698200    -0.5326352854
|  9>  C       -1.1890417444    -1.9165249363     0.9598538902
| 10>  C        0.1310738460    -2.4216930403     1.4770315014
| 11>  O        0.2593249959    -3.8370869808     1.2494909918
| 12>  C        0.1625085857    -4.6590440223     2.3072804269
| 13>  O        0.2256936446    -5.8484365400     2.2148772061
| 14>  H        0.8594398762     1.7553168626    -0.5029541676
| 15>  H       -0.1266518950     0.7542839149    -1.6073738327
| 16>  H       -0.9166219555     1.9242675461    -0.5168412246
| 17>  H       -2.1917208320     0.0401640228     0.5964351979
| 18>  H       -2.3313527307    -1.9611865650    -0.9787458659
| 19>  H       -0.5128763456    -1.9098622011    -1.1587264654
| 20>  H       -2.0544838311    -2.2648687448     1.5166256053
| 21>  H        0.9593508320    -1.9415172411     0.9546083092
| 22>  H        0.2396206349    -2.2116756483     2.5487846004
| 23>  H        0.0261483952    -4.1144640819     3.2636019543
| 24> *
| 25>
| 26>                          ****END OF INPUT****

CARTESIAN COORDINATES (ANGSTROEM)
---------------------------------
  C     -0.082511    1.213072   -0.609764
  O     -0.118693    0.237590    0.415059
  C     -1.281325   -0.527336    0.396468
  C     -1.375989   -1.709870   -0.532635
  C     -1.189042   -1.916525    0.959854
  C      0.131074   -2.421693    1.477032
  O      0.259325   -3.837087    1.249491
  C      0.162509   -4.659044    2.307280
  O      0.225694   -5.848437    2.214877
  H      0.859440    1.755317   -0.502954
  H     -0.126652    0.754284   -1.607374
  H     -0.916622    1.924268   -0.516841
  H     -2.191721    0.040164    0.596435
  H     -2.331353   -1.961187   -0.978746
  H     -0.512876   -1.909862   -1.158726
  H     -2.054484   -2.264869    1.516626
  H      0.959351   -1.941517    0.954608
  H      0.239621   -2.211676    2.548785
  H      0.026148   -4.114464    3.263602

 Total Charge           Charge          ....    0
 Multiplicity           Mult            ....    1
 Number of Electrons    NEL             ....   70
 Basis Dimension        Dim             ....  339

ORBITAL ENERGIES
----------------

  NO   OCC          E(Eh)            E(eV)
   0   2.0000     -20.603295      -560.6441
   1   2.0000     -20.575623      -559.8912
   2   2.0000     -20.544607      -559.0472
   3   2.0000     -11.378469      -309.6239
   4   2.0000     -11.303739      -307.5904
   5   2.0000     -11.298907      -307.4589
   6   2.0000     -11.283297      -307.0341
   7   2.0000     -11.248842      -306.0966
   8   2.0000     -11.238757      -305.8221
   9   2.0000      -1.456839       -39.6426
  10   2.0000      -1.399262       -38.0759
  11   2.0000      -1.367217       -37.2039
  12   2.0000      -1.155574       -31.4448
  13   2.0000      -0.989998       -26.9392
  14   2.0000      -0.946553       -25.7570
  15   2.0000      -0.852965       -23.2104
  16   2.0000      -0.823373       -22.4051
  17   2.0000      -0.804201       -21.8834
  18   2.0000      -0.730328       -19.8732
  19   2.0000      -0.704605       -19.1733
  20   2.0000      -0.689049       -18.7500
  21   2.0000      -0.671790       -18.2803
  22   2.0000      -0.641866       -17.4661
  23   2.0000      -0.627073       -17.0635
  24   2.0000      -0.617345       -16.7988
  25   2.0000      -0.587662       -15.9911
  26   2.0000      -0.572791       -15.5864
  27   2.0000      -0.541151       -14.7255
  28   2.0000      -0.531591       -14.4653
  29   2.0000      -0.514468       -13.9994
  30   2.0000      -0.482686       -13.1345
  31   2.0000      -0.461135       -12.5481
  32   2.0000      -0.451797       -12.2940
  33   2.0000      -0.425302       -11.5731
  34   2.0000      -0.408216       -11.1081
  35   0.0000       0.135188         3.6786
  36   0.0000       0.141690         3.8556
  37   0.0000       0.150467         4.0944
  38   0.0000       0.165427         4.5015
  39   0.0000       0.171375         4.6634

MULLIKEN ATOMIC CHARGES
-----------------------
   0 C :   -0.211652
   1 O :   -0.316845
   2 C :    0.026357
   3 C :   -0.279816
   4 C :   -0.064674
   5 C :   -0.120758
   6 O :   -0.197239
   7 C :    0.197633
   8 O :   -0.276505
   9 H :    0.142692
  10 H :    0.120468
  11 H :    0.116000
  12 H :    0.110748
  13 H :    0.138266
  14 H :    0.145929
  15 H :    0.129888
  16 H :    0.149835
  17 H :    0.122044
  18 H :    0.067628
Sum of atomic charges:    0.0000000

LOEWDIN ATOMIC CHARGES
----------------------
   0 C :   -0.342580
   1 O :    0.165808
   2 C :   -0.299855
   3 C :   -0.203879
   4 C :   -0.212919
   5 C :   -0.268242
   6 O :    0.249060
   7 C :   -0.460336
   8 O :    0.114532
   9 H :    0.114425
  10 H :    0.104665
  11 H :    0.104586
  12 H :    0.135460
  13 H :    0.134562
  14 H :    0.144089
  15 H :    0.150812
  16 H :    0.140864
  17 H :    0.129389
  18 H :    0.099558

  Mayer bond orders larger than 0.1
B(  0-C ,  1-O ) :   0.8965 B(  0-C ,  9-H ) :   0.9382 B(  0-C , 10-H ) :   0.9352
B(  0-C , 11-H ) :   0.9374 B(  1-O ,  2-C ) :   0.9568 B(  2-C ,  3-C ) :   0.9120
B(  2-C ,  4-C ) :   0.8771 B(  2-C , 12-H ) :   0.9276 B(  3-C ,  4-C ) :   0.8696
B(  3-C , 13-H ) :   0.9213 B(  3-C , 14-H ) :   0.9192 B(  4-C ,  5-C ) :   0.9398
B(  4-C , 15-H ) :   0.9106 B(  5-C ,  6-O ) :   0.8541 B(  5-C , 16-H ) :   0.9255
B(  5-C , 17-H ) :   0.9383 B(  6-O ,  7-C ) :   1.0840 B(  7-C ,  8-O ) :   2.0187
B(  7-C , 18-H ) :   0.9159

MP2 TOTAL ENERGY:     -459.410018178 Eh
FINAL SINGLE POINT ENERGY      -459.410018177927

DIPOLE MOMENT
-------------
                                X             Y             Z
Electronic contribution:      1.97747      -9.09999       4.16951
Nuclear contribution   :     -2.49011      10.93581      -4.35580
                        -----------------------------------------
Total Dipole Moment    :     -0.51264       1.83581      -0.18629
                        -----------------------------------------
Magnitude (a.u.)       :      1.91513
Magnitude (Debye)      :      4.86787

                             ****ORCA TERMINATED NORMALLY****
TOTAL RUN TIME: 0 days 0 hours 23 minutes 10 seconds 661 msec
