                         Program Version 3.0.3 - RELEASE   -
|  1> ! RI-MP2 RIJK def2-TZVP def2-TZVP/C def2-TZVP/JK TIGHTSCF
|  2> % maxcore 2000
|  3> % mp2 density relaxed end
|  4> *xyz 0 1
|  5>  N       -0.0938014606     1.2571764588    -0.0044470124
|  6>  C        0.0006987487    -0.0071695536    -0.0124770617
|  7>  C       -1.2342051386    -0.9312053685     0.0133059396
|  8>  N       -0.6242328431    -2.2456076008    -0.0074465411
|  9>  C       -0.9393958766    -3.5978505532    -0.0057987955
| 10>  C        0.2732441330    -4.2330596220    -0.0380476308
| 11>  N        1.3351241322    -3.3281762165    -0.0597930359
| 12>  C        0.7289507092    -2.1762930224    -0.0399728470
| 13>  N        1.1133846536    -0.8414095173    -0.0433158555
| 14>  H        0.8190411012     1.7127196093    -0.0245938708
| 15>  H       -1.8246009217    -0.7528452662     0.9168360289
| 16>  H       -1.8675653762    -0.7447488223    -0.8589647708
| 17>  H       -1.9532809757    -3.9580393057     0.0173936900
| 18>  H        0.4581400673    -5.2959199889    -0.0473200259
| 19>  H        2.0685903073    -0.5301513706    -0.0650618111
| 20> *
| 21>
| 22>                          ****END OF INPUT****

CARTESIAN COORDINATES (ANGSTROEM)
---------------------------------
  N     -0.093801    1.257176   -0.004447
  C      0.000699   -0.007170   -0.012477
  C     -1.234205   -0.931205    0.013306
  N     -0.624233   -2.245608   -0.007447
  C     -0.939396   -3.597851   -0.005799
  C      0.273244   -4.233060   -0.038048
  N      1.335124   -3.328176   -0.059793
  C      0.728951   -2.176293   -0.039973
  N      1.113385   -0.841410   -0.043316
  H      0.819041    1.712720   -0.024594
  H     -1.824601   -0.752845    0.916836
  H     -1.867565   -0.744749   -0.858965
  H     -1.953281   -3.958039    0.017394
  H      0.458140   -5.295920   -0.047320
  H      2.068590   -0.530151   -0.065062

 Total Charge           Charge          ....    0
 Multiplicity           Mult            ....    1
 Number of Electrons    NEL             ....   64
 Basis Dimension        Dim             ....  315

ORBITAL ENERGIES
----------------

  NO   OCC          E(Eh)            E(eV)
   0   2.0000     -15.619762      -425.0353
   1   2.0000     -15.616513      -424.9469
   2   2.0000     -15.547570      -423.0709
   3   2.0000     -15.544390      -422.9844
   4   2.0000     -11.349165      -308.8265
   5   2.0000     -11.342307      -308.6399
   6   2.0000     -11.305246      -307.6314
   7   2.0000     -11.262789      -306.4761
   8   2.0000     -11.251109      -306.1583
   9   2.0000      -1.391037       -37.8520
  10   2.0000      -1.283672       -34.9305
  11   2.0000      -1.197076       -32.5741
  12   2.0000      -1.188122       -32.3304
  13   2.0000      -1.025595       -27.9078
  14   2.0000      -0.974480       -26.5169
  15   2.0000      -0.857621       -23.3371
  16   2.0000      -0.810210       -22.0469
  17   2.0000      -0.797056       -21.6890
  18   2.0000      -0.735679       -20.0188
  19   2.0000      -0.693309       -18.8659
  20   2.0000      -0.692116       -18.8334
  21   2.0000      -0.642386       -17.4802
  22   2.0000      -0.599132       -16.3032
  23   2.0000      -0.589706       -16.0467
  24   2.0000      -0.581803       -15.8317
  25   2.0000      -0.565880       -15.3984
  26   2.0000      -0.547087       -14.8870
  27   2.0000      -0.453370       -12.3368
  28   2.0000      -0.442047       -12.0287
  29   2.0000      -0.414054       -11.2670
  30   2.0000      -0.397330       -10.8119
  31   2.0000      -0.301515        -8.2046
  32   0.0000       0.120400         3.2762
  33   0.0000       0.133717         3.6386
  34   0.0000       0.145249         3.9524
  35   0.0000       0.172063         4.6821
  36   0.0000       0.180181         4.9030

MULLIKEN ATOMIC CHARGES
-----------------------
   0 N :   -0.367479
   1 C :    0.055989
   2 C :   -0.071767
   3 N :   -0.057010
   4 C :   -0.143738
   5 C :   -0.102234
   6 N :   -0.275590
   7 C :    0.218915
   8 N :   -0.315431
   9 H :    0.212290
  10 H :    0.152176
  11 H :    0.152169
  12 H :    0.153550
  13 H :    0.135544
  14 H :    0.252616
Sum of atomic charges:    0.0000000

LOEWDIN ATOMIC CHARGES
----------------------
   0 N :   -0.069236
   1 C :   -0.348310
   2 C :   -0.171128
   3 N :    0.260353
   4 C :   -0.225903
   5 C :   -0.252875
   6 N :    0.090682
   7 C :   -0.372922
   8 N :    0.160518
   9 H :    0.163051
  10 H :    0.150674
  11 H :    0.150680
  12 H :    0.136676
  13 H :    0.132937
  14 H :    0.194804

  Mayer bond orders larger than 0.1
B(  0-N ,  1-C ) :   2.0737 B(  0-N ,  9-H ) :   0.8552 B(  1-C ,  2-C ) :   0.9110
B(  1-C ,  8-N ) :   1.0762 B(  2-C ,  3-N ) :   0.8976 B(  2-C , 10-H ) :   0.9084
B(  2-C , 11-H ) :   0.9084 B(  3-N ,  4-C ) :   1.0655 B(  3-N ,  7-C ) :   1.1662
B(  4-C ,  5-C ) :   1.5520 B(  4-C , 12-H ) :   0.9141 B(  5-C ,  6-N ) :   1.2023
B(  5-C , 13-H ) :   0.9405 B(  6-N ,  7-C ) :   1.6828 B(  7-C ,  8-N ) :   1.0224
B(  8-N , 14-H ) :   0.8629

MP2 TOTAL ENERGY:     -412.323223883 Eh
FINAL SINGLE POINT ENERGY      -412.323223882761

DIPOLE MOMENT
-------------
                                X             Y             Z
Electronic contribution:      2.15360      -0.59963      -0.05510
Nuclear contribution   :     -2.51163       0.86657       0.06501
                        -----------------------------------------
Total Dipole Moment    :     -0.35803       0.26694       0.00990
                        -----------------------------------------
Magnitude (a.u.)       :      0.44670
Magnitude (Debye)      :      1.13542

                             ****ORCA TERMINATED NORMALLY****
TOTAL RUN TIME: 0 days 0 hours 15 minutes 13 seconds 518 msec
