                         Program Version 3.0.3 - RELEASE   -
|  1> ! RI-MP2 RIJK def2-TZVP def2-TZVP/C def2-TZVP/JK TIGHTSCF
|  2> % maxcore 2000
|  3> % mp2 density relaxed end
|  4> *xyz 0 1
|  5>  O        0.0187170273     1.4050630818     0.0044654223
|  6>  C       -0.0055875132    -0.0095955457     0.0467961083
|  7>  C       -1.4216500931    -0.4969553695    -0.0045511038
|  8>  C       -2.4731401568     0.3229599316    -0.0206079120
|  9>  N       -3.7793633135    -0.1518334507    -0.0817074486
| 10>  C       -4.1081589638    -1.4899820954     0.0658042027
| 11>  O       -5.2609865818    -1.8771786413     0.1177412513
| 12>  N       -3.0246364017    -2.3243183012     0.1772405751
| 13>  C       -1.6292952781    -1.9867746703    -0.0757412620
| 14>  H        0.9307616397     1.6927417779     0.0966552316
| 15>  H        0.5617862671    -0.4423994303    -0.7986379183
| 16>  H        0.4808546137    -0.3885336834     0.9645877563
| 17>  H       -2.3584088069     1.3980246750     0.0040235473
| 18>  H       -4.5613607607     0.4796811961    -0.0543935674
| 19>  H       -3.2828753642    -3.2972571363     0.2142587845
| 20>  H       -1.2983810383    -2.3718964361    -1.0581034425
| 21>  H       -1.0006880357    -2.4946326421     0.6721152150
| 22> *
| 23>
| 24>                          ****END OF INPUT****

CARTESIAN COORDINATES (ANGSTROEM)
---------------------------------
  O      0.018717    1.405063    0.004465
  C     -0.005588   -0.009596    0.046796
  C     -1.421650   -0.496955   -0.004551
  C     -2.473140    0.322960   -0.020608
  N     -3.779363   -0.151833   -0.081707
  C     -4.108159   -1.489982    0.065804
  O     -5.260987   -1.877179    0.117741
  N     -3.024636   -2.324318    0.177241
  C     -1.629295   -1.986775   -0.075741
  H      0.930762    1.692742    0.096655
  H      0.561786   -0.442399   -0.798638
  H      0.480855   -0.388534    0.964588
  H     -2.358409    1.398025    0.004024
  H     -4.561361    0.479681   -0.054394
  H     -3.282875   -3.297257    0.214259
  H     -1.298381   -2.371896   -1.058103
  H     -1.000688   -2.494633    0.672115

 Total Charge           Charge          ....    0
 Multiplicity           Mult            ....    1
 Number of Electrons    NEL             ....   68
 Basis Dimension        Dim             ....  327

ORBITAL ENERGIES
----------------

  NO   OCC          E(Eh)            E(eV)
   0   2.0000     -20.571507      -559.7792
   1   2.0000     -20.503152      -557.9191
   2   2.0000     -15.588864      -424.1946
   3   2.0000     -15.580375      -423.9635
   4   2.0000     -11.373378      -309.4853
   5   2.0000     -11.297181      -307.4119
   6   2.0000     -11.285552      -307.0955
   7   2.0000     -11.275588      -306.8243
   8   2.0000     -11.233112      -305.6685
   9   2.0000      -1.389724       -37.8163
  10   2.0000      -1.377748       -37.4904
  11   2.0000      -1.265695       -34.4413
  12   2.0000      -1.208269       -32.8787
  13   2.0000      -1.081558       -29.4307
  14   2.0000      -0.939955       -25.5775
  15   2.0000      -0.935550       -25.4576
  16   2.0000      -0.853674       -23.2296
  17   2.0000      -0.747409       -20.3380
  18   2.0000      -0.716951       -19.5092
  19   2.0000      -0.697542       -18.9811
  20   2.0000      -0.670348       -18.2411
  21   2.0000      -0.663046       -18.0424
  22   2.0000      -0.650352       -17.6970
  23   2.0000      -0.631805       -17.1923
  24   2.0000      -0.614489       -16.7211
  25   2.0000      -0.585144       -15.9226
  26   2.0000      -0.571099       -15.5404
  27   2.0000      -0.526138       -14.3169
  28   2.0000      -0.514559       -14.0019
  29   2.0000      -0.486891       -13.2490
  30   2.0000      -0.463757       -12.6195
  31   2.0000      -0.434724       -11.8294
  32   2.0000      -0.395132       -10.7521
  33   2.0000      -0.316954        -8.6248
  34   0.0000       0.121428         3.3042
  35   0.0000       0.135292         3.6815
  36   0.0000       0.149554         4.0696
  37   0.0000       0.150742         4.1019
  38   0.0000       0.169044         4.5999

MULLIKEN ATOMIC CHARGES
-----------------------
   0 O :   -0.468059
   1 C :   -0.076180
   2 C :   -0.031746
   3 C :   -0.055463
   4 N :   -0.295979
   5 C :    0.319524
   6 O :   -0.383388
   7 N :   -0.337642
   8 C :   -0.101796
   9 H :    0.319099
  10 H :    0.102560
  11 H :    0.109219
  12 H :    0.164046
  13 H :    0.253938
  14 H :    0.245257
  15 H :    0.116919
  16 H :    0.119692
Sum of atomic charges:   -0.0000000

LOEWDIN ATOMIC CHARGES
----------------------
   0 O :   -0.035673
   1 C :   -0.313385
   2 C :   -0.208601
   3 C :   -0.186925
   4 N :    0.133557
   5 C :   -0.538897
   6 O :    0.047654
   7 N :    0.106037
   8 C :   -0.239223
   9 H :    0.176115
  10 H :    0.123626
  11 H :    0.123765
  12 H :    0.152415
  13 H :    0.198289
  14 H :    0.192235
  15 H :    0.131854
  16 H :    0.137157

  Mayer bond orders larger than 0.1
B(  0-O ,  1-C ) :   1.0288 B(  0-O ,  2-C ) :  -0.1110 B(  0-O ,  9-H ) :   0.8457
B(  1-C ,  2-C ) :   0.9156 B(  1-C , 10-H ) :   0.9277 B(  1-C , 11-H ) :   0.9334
B(  2-C ,  3-C ) :   1.7646 B(  2-C ,  8-C ) :   0.9380 B(  3-C ,  4-N ) :   1.0128
B(  3-C , 12-H ) :   0.8907 B(  4-N ,  5-C ) :   1.0618 B(  4-N , 13-H ) :   0.8675
B(  5-C ,  6-O ) :   1.9805 B(  5-C ,  7-N ) :   1.1480 B(  7-N ,  8-C ) :   0.8919
B(  7-N , 14-H ) :   0.8677 B(  8-C , 15-H ) :   0.9217 B(  8-C , 16-H ) :   0.9222

MP2 TOTAL ENERGY:     -454.454659736 Eh
FINAL SINGLE POINT ENERGY      -454.454659735602

DIPOLE MOMENT
-------------
                                X             Y             Z
Electronic contribution:     -6.09062      -0.06756       0.14706
Nuclear contribution   :      8.00215       0.28911      -0.16430
                        -----------------------------------------
Total Dipole Moment    :      1.91152       0.22154      -0.01724
                        -----------------------------------------
Magnitude (a.u.)       :      1.92440
Magnitude (Debye)      :      4.89143

                             ****ORCA TERMINATED NORMALLY****
TOTAL RUN TIME: 0 days 0 hours 14 minutes 24 seconds 139 msec
