                         Program Version 3.0.3 - RELEASE   -
|  1> ! RI-MP2 RIJK def2-TZVP def2-TZVP/C def2-TZVP/JK TIGHTSCF
|  2> % maxcore 2000
|  3> % mp2 density relaxed end
|  4> *xyz 0 1
|  5>  O       -0.0155241072    -0.0573022540     0.0039911570
|  6>  C        0.0015193629     1.1476531554     0.0097561621
|  7>  N       -1.1171359447     1.9866044151     0.0297155253
|  8>  C       -0.7686020300     3.3306293593     0.0313034469
|  9>  O       -1.5150593504     4.2723347460     0.0464739845
| 10>  C        0.7556509872     3.3393069197     0.0094951811
| 11>  C        1.1806007367     2.0630840298    -0.0028146571
| 12>  C        1.4899278031     4.5386655213     0.0047570143
| 13>  C        2.1010566952     5.5761200249     0.0009774177
| 14>  H       -2.0686594429     1.6549943777     0.0416447061
| 15>  H        2.1950796974     1.6934235317    -0.0191925527
| 16>  H        2.6379283128     6.4930044031    -0.0023645651
| 17> *
| 18>
| 19>                          ****END OF INPUT****

CARTESIAN COORDINATES (ANGSTROEM)
---------------------------------
  O     -0.015524   -0.057302    0.003991
  C      0.001519    1.147653    0.009756
  N     -1.117136    1.986604    0.029716
  C     -0.768602    3.330629    0.031303
  O     -1.515059    4.272335    0.046474
  C      0.755651    3.339307    0.009495
  C      1.180601    2.063084   -0.002815
  C      1.489928    4.538666    0.004757
  C      2.101057    5.576120    0.000977
  H     -2.068659    1.654994    0.041645
  H      2.195080    1.693424   -0.019193
  H      2.637928    6.493004   -0.002365

 Total Charge           Charge          ....    0
 Multiplicity           Mult            ....    1
 Number of Electrons    NEL             ....   62
 Basis Dimension        Dim             ....  297

ORBITAL ENERGIES
----------------

  NO   OCC          E(Eh)            E(eV)
   0   2.0000     -20.571881      -559.7893
   1   2.0000     -20.571203      -559.7709
   2   2.0000     -15.625670      -425.1961
   3   2.0000     -11.397858      -310.1515
   4   2.0000     -11.395410      -310.0849
   5   2.0000     -11.318368      -307.9884
   6   2.0000     -11.297039      -307.4081
   7   2.0000     -11.269820      -306.6674
   8   2.0000     -11.266040      -306.5645
   9   2.0000      -1.440537       -39.1990
  10   2.0000      -1.421481       -38.6805
  11   2.0000      -1.292503       -35.1708
  12   2.0000      -1.144270       -31.1372
  13   2.0000      -1.053616       -28.6703
  14   2.0000      -0.948831       -25.8190
  15   2.0000      -0.870350       -23.6834
  16   2.0000      -0.841069       -22.8867
  17   2.0000      -0.756228       -20.5780
  18   2.0000      -0.725987       -19.7551
  19   2.0000      -0.693314       -18.8660
  20   2.0000      -0.670043       -18.2328
  21   2.0000      -0.661148       -17.9907
  22   2.0000      -0.657732       -17.8978
  23   2.0000      -0.634829       -17.2746
  24   2.0000      -0.565218       -15.3804
  25   2.0000      -0.499462       -13.5910
  26   2.0000      -0.496939       -13.5224
  27   2.0000      -0.456834       -12.4311
  28   2.0000      -0.446590       -12.1523
  29   2.0000      -0.425107       -11.5677
  30   2.0000      -0.382562       -10.4100
  31   0.0000       0.017105         0.4655
  32   0.0000       0.134590         3.6624
  33   0.0000       0.147591         4.0162
  34   0.0000       0.156881         4.2689
  35   0.0000       0.157154         4.2764

MULLIKEN ATOMIC CHARGES
-----------------------
   0 O :   -0.276307
   1 C :    0.283027
   2 N :   -0.292331
   3 C :    0.229627
   4 O :   -0.258839
   5 C :   -0.128084
   6 C :   -0.210648
   7 C :    0.117062
   8 C :   -0.097394
   9 H :    0.258304
  10 H :    0.168750
  11 H :    0.206832
Sum of atomic charges:   -0.0000000

LOEWDIN ATOMIC CHARGES
----------------------
   0 O :    0.147979
   1 C :   -0.393044
   2 N :    0.172627
   3 C :   -0.356098
   4 O :    0.161613
   5 C :   -0.103085
   6 C :   -0.034199
   7 C :   -0.056906
   8 C :   -0.028199
   9 H :    0.199050
  10 H :    0.156500
  11 H :    0.133763

  Mayer bond orders larger than 0.1
B(  0-O ,  1-C ) :   2.0041 B(  1-C ,  2-N ) :   1.0459 B(  1-C ,  6-C ) :   0.9830
B(  2-N ,  3-C ) :   1.0922 B(  2-N ,  9-H ) :   0.8525 B(  3-C ,  4-O ) :   2.0633
B(  3-C ,  5-C ) :   0.8953 B(  5-C ,  6-C ) :   1.6000 B(  5-C ,  7-C ) :   1.1233
B(  5-C ,  8-C ) :  -0.1573 B(  6-C , 10-H ) :   0.9237 B(  7-C ,  8-C ) :   2.5992
B(  8-C , 11-H ) :   0.8679

MP2 TOTAL ENERGY:     -434.789132331 Eh
FINAL SINGLE POINT ENERGY      -434.789132330714

DIPOLE MOMENT
-------------
                                X             Y             Z
Electronic contribution:     -1.52281      -0.83564       0.01808
Nuclear contribution   :      2.09813       1.17951      -0.02463
                        -----------------------------------------
Total Dipole Moment    :      0.57533       0.34387      -0.00655
                        -----------------------------------------
Magnitude (a.u.)       :      0.67029
Magnitude (Debye)      :      1.70375

                             ****ORCA TERMINATED NORMALLY****
TOTAL RUN TIME: 0 days 0 hours 11 minutes 44 seconds 207 msec
