                         Program Version 3.0.3 - RELEASE   -
|  1> ! RI-MP2 RIJK def2-TZVP def2-TZVP/C def2-TZVP/JK TIGHTSCF
|  2> % maxcore 2000
|  3> % mp2 density relaxed end
|  4> *xyz 0 1
|  5>  C       -0.0118433191     1.3461468167     0.0050299107
|  6>  O        0.0025479269    -0.0599580823     0.0037485369
|  7>  C        0.6475220784    -0.6034923763    -1.1295514566
|  8>  C        0.6064406756    -2.1012379883    -1.0299241442
|  9>  C       -0.6599572967    -3.0093761374    -0.9602961090
| 10>  C        0.5562310871    -3.9770845734    -0.9062316827
| 11>  C        1.1933907566    -3.1273090863    -2.0442744149
| 12>  C        1.2099182471    -2.9894086262     0.1015687839
| 13>  H        1.0067015967     1.7670264535     0.0069488247
| 14>  H       -0.5454918181     1.7519689426    -0.8696714487
| 15>  H       -0.5277737874     1.6684187741     0.9130006671
| 16>  H        0.1473233172    -0.2694146168    -2.0561371368
| 17>  H        1.6940675471    -0.2539023638    -1.1834140879
| 18>  H       -1.2671254335    -2.9257641107    -0.0559637296
| 19>  H       -1.2808575752    -3.0500973360    -1.8604557920
| 20>  H        0.5289032528    -5.0648522640    -0.8377445929
| 21>  H        0.7110064142    -3.1772491068    -3.0251652978
| 22>  H        2.2835761689    -3.1603582747    -2.1322265563
| 23>  H        2.3015709868    -3.0118371284     0.1740050976
| 24>  H        0.7429025946    -2.9041982254     1.0854784184
| 25> *
| 26>
| 27>                          ****END OF INPUT****

CARTESIAN COORDINATES (ANGSTROEM)
---------------------------------
  C     -0.011843    1.346147    0.005030
  O      0.002548   -0.059958    0.003749
  C      0.647522   -0.603492   -1.129551
  C      0.606441   -2.101238   -1.029924
  C     -0.659957   -3.009376   -0.960296
  C      0.556231   -3.977085   -0.906232
  C      1.193391   -3.127309   -2.044274
  C      1.209918   -2.989409    0.101569
  H      1.006702    1.767026    0.006949
  H     -0.545492    1.751969   -0.869671
  H     -0.527774    1.668419    0.913001
  H      0.147323   -0.269415   -2.056137
  H      1.694068   -0.253902   -1.183414
  H     -1.267125   -2.925764   -0.055964
  H     -1.280858   -3.050097   -1.860456
  H      0.528903   -5.064852   -0.837745
  H      0.711006   -3.177249   -3.025165
  H      2.283576   -3.160358   -2.132227
  H      2.301571   -3.011837    0.174005
  H      0.742903   -2.904198    1.085478

 Total Charge           Charge          ....    0
 Multiplicity           Mult            ....    1
 Number of Electrons    NEL             ....   62
 Basis Dimension        Dim             ....  320

ORBITAL ENERGIES
----------------

  NO   OCC          E(Eh)            E(eV)
   0   2.0000     -20.553015      -559.2760
   1   2.0000     -11.271712      -306.7189
   2   2.0000     -11.269063      -306.6468
   3   2.0000     -11.241760      -305.9038
   4   2.0000     -11.237188      -305.7794
   5   2.0000     -11.224275      -305.4281
   6   2.0000     -11.219663      -305.3026
   7   2.0000     -11.219637      -305.3018
   8   2.0000      -1.373946       -37.3870
   9   2.0000      -1.204780       -32.7837
  10   2.0000      -0.989309       -26.9205
  11   2.0000      -0.903836       -24.5946
  12   2.0000      -0.898969       -24.4622
  13   2.0000      -0.888211       -24.1694
  14   2.0000      -0.803151       -21.8548
  15   2.0000      -0.723115       -19.6770
  16   2.0000      -0.668690       -18.1960
  17   2.0000      -0.661895       -18.0111
  18   2.0000      -0.648170       -17.6376
  19   2.0000      -0.610552       -16.6140
  20   2.0000      -0.606152       -16.4942
  21   2.0000      -0.572547       -15.5798
  22   2.0000      -0.556303       -15.1378
  23   2.0000      -0.494553       -13.4575
  24   2.0000      -0.488590       -13.2952
  25   2.0000      -0.448004       -12.1908
  26   2.0000      -0.446090       -12.1387
  27   2.0000      -0.442202       -12.0329
  28   2.0000      -0.441497       -12.0138
  29   2.0000      -0.423281       -11.5181
  30   2.0000      -0.415644       -11.3102
  31   0.0000       0.142375         3.8742
  32   0.0000       0.158480         4.3125
  33   0.0000       0.171164         4.6576
  34   0.0000       0.183171         4.9843
  35   0.0000       0.183589         4.9957

MULLIKEN ATOMIC CHARGES
-----------------------
   0 C :   -0.225939
   1 O :   -0.299103
   2 C :   -0.086719
   3 C :   -0.000721
   4 C :   -0.198512
   5 C :   -0.141811
   6 C :   -0.193036
   7 C :   -0.198348
   8 H :    0.110068
   9 H :    0.110053
  10 H :    0.138889
  11 H :    0.094141
  12 H :    0.094164
  13 H :    0.116575
  14 H :    0.105829
  15 H :    0.132299
  16 H :    0.109890
  17 H :    0.109882
  18 H :    0.105827
  19 H :    0.116570
Sum of atomic charges:    0.0000000

LOEWDIN ATOMIC CHARGES
----------------------
   0 C :   -0.363695
   1 O :    0.141316
   2 C :   -0.297598
   3 C :   -0.224552
   4 C :   -0.174435
   5 C :   -0.186978
   6 C :   -0.177730
   7 C :   -0.174404
   8 H :    0.100723
   9 H :    0.100723
  10 H :    0.113175
  11 H :    0.125262
  12 H :    0.125262
  13 H :    0.131055
  14 H :    0.127039
  15 H :    0.121420
  16 H :    0.127652
  17 H :    0.127653
  18 H :    0.127045
  19 H :    0.131065

  Mayer bond orders larger than 0.1
B(  0-C ,  1-O ) :   0.9262 B(  0-C ,  8-H ) :   0.9377 B(  0-C ,  9-H ) :   0.9377
B(  0-C , 10-H ) :   0.9398 B(  1-O ,  2-C ) :   0.9999 B(  1-O ,  3-C ) :  -0.1052
B(  2-C ,  3-C ) :   0.8960 B(  2-C , 11-H ) :   0.9216 B(  2-C , 12-H ) :   0.9217
B(  3-C ,  4-C ) :   0.8881 B(  3-C ,  6-C ) :   0.8783 B(  3-C ,  7-C ) :   0.8881
B(  4-C ,  5-C ) :   0.9098 B(  4-C , 13-H ) :   0.9291 B(  4-C , 14-H ) :   0.9289
B(  5-C ,  6-C ) :   0.9105 B(  5-C ,  7-C ) :   0.9097 B(  5-C , 15-H ) :   0.8996
B(  6-C , 16-H ) :   0.9306 B(  6-C , 17-H ) :   0.9306 B(  7-C , 18-H ) :   0.9288
B(  7-C , 19-H ) :   0.9291

MP2 TOTAL ENERGY:     -348.338579708 Eh
FINAL SINGLE POINT ENERGY      -348.338579708090

DIPOLE MOMENT
-------------
                                X             Y             Z
Electronic contribution:     -0.41020      -1.65560       0.75440
Nuclear contribution   :      0.57041       1.96059      -1.04341
                        -----------------------------------------
Total Dipole Moment    :      0.16021       0.30499      -0.28900
                        -----------------------------------------
Magnitude (a.u.)       :      0.44967
Magnitude (Debye)      :      1.14298

                             ****ORCA TERMINATED NORMALLY****
TOTAL RUN TIME: 0 days 0 hours 13 minutes 1 seconds 983 msec
