                         Program Version 3.0.3 - RELEASE   -
|  1> ! RI-MP2 RIJK def2-TZVP def2-TZVP/C def2-TZVP/JK TIGHTSCF
|  2> % maxcore 2000
|  3> % mp2 density relaxed end
|  4> *xyz 0 1
|  5>  C        0.6248231109     1.4487921771    -0.1857555053
|  6>  C       -0.0855131109     0.1113866402     0.0491007832
|  7>  C        0.1130327559    -0.9070246392    -1.1082924965
|  8>  C        1.2732078304    -1.7704515739    -0.6418119054
|  9>  C        1.7633156443    -2.9932853899    -1.3108230998
| 10>  N        2.5999969982    -1.7818342354    -1.3005591937
| 11>  C        1.3223657866    -1.6410977852     0.8693245584
| 12>  O        1.9779263312    -2.3028870449     1.6418320361
| 13>  N        0.4616043795    -0.6222652371     1.1860633650
| 14>  H        1.6864273443     1.2904727574    -0.4016125766
| 15>  H        0.1722215610     1.9830447823    -1.0277716175
| 16>  H        0.5513831566     2.0912432534     0.6977922207
| 17>  H       -1.1533773481     0.2969041378     0.2106161318
| 18>  H       -0.7901426047    -1.5151560292    -1.2226162739
| 19>  H        0.3019072120    -0.4069006563    -2.0624368152
| 20>  H        2.1401167178    -3.8016517647    -0.6911632750
| 21>  H        1.2815315186    -3.2934441431    -2.2382287639
| 22>  H        2.5187283255    -1.3086440051    -2.1988385468
| 23>  H        0.4284271607    -0.2676684741     2.1294316346
| 24> *
| 25>
| 26>                          ****END OF INPUT****

CARTESIAN COORDINATES (ANGSTROEM)
---------------------------------
  C      0.624823    1.448792   -0.185756
  C     -0.085513    0.111387    0.049101
  C      0.113033   -0.907025   -1.108292
  C      1.273208   -1.770452   -0.641812
  C      1.763316   -2.993285   -1.310823
  N      2.599997   -1.781834   -1.300559
  C      1.322366   -1.641098    0.869325
  O      1.977926   -2.302887    1.641832
  N      0.461604   -0.622265    1.186063
  H      1.686427    1.290473   -0.401613
  H      0.172222    1.983045   -1.027772
  H      0.551383    2.091243    0.697792
  H     -1.153377    0.296904    0.210616
  H     -0.790143   -1.515156   -1.222616
  H      0.301907   -0.406901   -2.062437
  H      2.140117   -3.801652   -0.691163
  H      1.281532   -3.293444   -2.238229
  H      2.518728   -1.308644   -2.198839
  H      0.428427   -0.267668    2.129432

 Total Charge           Charge          ....    0
 Multiplicity           Mult            ....    1
 Number of Electrons    NEL             ....   68
 Basis Dimension        Dim             ....  339

ORBITAL ENERGIES
----------------

  NO   OCC          E(Eh)            E(eV)
   0   2.0000     -20.512385      -558.1704
   1   2.0000     -15.580975      -423.9799
   2   2.0000     -15.570376      -423.6915
   3   2.0000     -11.342039      -308.6326
   4   2.0000     -11.287704      -307.1540
   5   2.0000     -11.276777      -306.8567
   6   2.0000     -11.263326      -306.4907
   7   2.0000     -11.250203      -306.1336
   8   2.0000     -11.231581      -305.6269
   9   2.0000      -1.378499       -37.5109
  10   2.0000      -1.275343       -34.7038
  11   2.0000      -1.245686       -33.8968
  12   2.0000      -1.052514       -28.6404
  13   2.0000      -0.998797       -27.1787
  14   2.0000      -0.907946       -24.7065
  15   2.0000      -0.882230       -24.0067
  16   2.0000      -0.823682       -22.4135
  17   2.0000      -0.760327       -20.6896
  18   2.0000      -0.700815       -19.0702
  19   2.0000      -0.664146       -18.0723
  20   2.0000      -0.654284       -17.8040
  21   2.0000      -0.645266       -17.5586
  22   2.0000      -0.609338       -16.5809
  23   2.0000      -0.585472       -15.9315
  24   2.0000      -0.562039       -15.2939
  25   2.0000      -0.554544       -15.0899
  26   2.0000      -0.542533       -14.7631
  27   2.0000      -0.530416       -14.4334
  28   2.0000      -0.516016       -14.0415
  29   2.0000      -0.472731       -12.8637
  30   2.0000      -0.472031       -12.8446
  31   2.0000      -0.418803       -11.3962
  32   2.0000      -0.400191       -10.8897
  33   2.0000      -0.383121       -10.4252
  34   0.0000       0.120400         3.2762
  35   0.0000       0.139059         3.7840
  36   0.0000       0.156010         4.2452
  37   0.0000       0.167353         4.5539
  38   0.0000       0.168473         4.5844

MULLIKEN ATOMIC CHARGES
-----------------------
   0 C :   -0.448355
   1 C :    0.103758
   2 C :   -0.217605
   3 C :    0.126404
   4 C :   -0.223830
   5 N :   -0.393328
   6 C :    0.174315
   7 O :   -0.333096
   8 N :   -0.301161
   9 H :    0.153472
  10 H :    0.127748
  11 H :    0.130296
  12 H :    0.114306
  13 H :    0.133256
  14 H :    0.127418
  15 H :    0.147441
  16 H :    0.128715
  17 H :    0.213254
  18 H :    0.236991
Sum of atomic charges:   -0.0000000

LOEWDIN ATOMIC CHARGES
----------------------
   0 C :   -0.294875
   1 C :   -0.286972
   2 C :   -0.187818
   3 C :   -0.268573
   4 C :   -0.231214
   5 N :    0.016257
   6 C :   -0.414537
   7 O :    0.099213
   8 N :    0.145532
   9 H :    0.130388
  10 H :    0.125283
  11 H :    0.123600
  12 H :    0.143615
  13 H :    0.147834
  14 H :    0.142108
  15 H :    0.137132
  16 H :    0.123714
  17 H :    0.164926
  18 H :    0.184390

  Mayer bond orders larger than 0.1
B(  0-C ,  1-C ) :   0.8995 B(  0-C ,  9-H ) :   0.9369 B(  0-C , 10-H ) :   0.9325
B(  0-C , 11-H ) :   0.9360 B(  1-C ,  2-C ) :   0.9069 B(  1-C ,  8-N ) :   0.8607
B(  1-C , 12-H ) :   0.9356 B(  2-C ,  3-C ) :   0.9328 B(  2-C , 13-H ) :   0.9126
B(  2-C , 14-H ) :   0.9277 B(  3-C ,  4-C ) :   0.8904 B(  3-C ,  5-N ) :   0.7735
B(  3-C ,  6-C ) :   0.8611 B(  3-C ,  7-O ) :  -0.1159 B(  4-C ,  5-N ) :   1.0009
B(  4-C , 15-H ) :   0.9100 B(  4-C , 16-H ) :   0.9219 B(  5-N , 17-H ) :   0.8647
B(  6-C ,  7-O ) :   2.0595 B(  6-C ,  8-N ) :   1.1884 B(  8-N , 18-H ) :   0.8627

MP2 TOTAL ENERGY:     -418.525325231 Eh
FINAL SINGLE POINT ENERGY      -418.525325231145

DIPOLE MOMENT
-------------
                                X             Y             Z
Electronic contribution:      2.44237      -5.05787       4.53124
Nuclear contribution   :     -3.84024       6.10647      -5.60285
                        -----------------------------------------
Total Dipole Moment    :     -1.39787       1.04861      -1.07161
                        -----------------------------------------
Magnitude (a.u.)       :      2.04987
Magnitude (Debye)      :      5.21035

                             ****ORCA TERMINATED NORMALLY****
TOTAL RUN TIME: 0 days 0 hours 18 minutes 21 seconds 33 msec
