                         Program Version 3.0.3 - RELEASE   -
|  1> ! RI-MP2 RIJK def2-TZVP def2-TZVP/C def2-TZVP/JK TIGHTSCF
|  2> % maxcore 2000
|  3> % mp2 density relaxed end
|  4> *xyz 0 1
|  5>  C        1.4286342275     1.2472270938    -2.4365711456
|  6>  O        1.2332878636    -0.1280164919    -2.2010362395
|  7>  C        1.3675134014    -0.4782506703    -0.8451976910
|  8>  C        1.0537212591    -1.9628888840    -0.7282706697
|  9>  N        1.5144257651    -2.6748440413     0.5218358752
| 10>  C        0.7113733867    -2.1455299643     1.6215315037
| 11>  C        0.0933782699    -3.1893266528     0.7519656705
| 12>  C       -0.3707448145    -2.5363592206    -0.5206661745
| 13>  O       -1.3597940776    -2.6069194317    -1.1883084533
| 14>  H        0.6950397784     1.8619827066    -1.8920677464
| 15>  H        2.4384173351     1.5722088204    -2.1402975422
| 16>  H        1.3028795655     1.4133101507    -3.5086697154
| 17>  H        2.3982359617    -0.3079298695    -0.4863285479
| 18>  H        0.6982015807     0.1376483534    -0.2238048082
| 19>  H        1.4980786733    -2.4671066124    -1.5934945171
| 20>  H        1.0486324124    -2.4748402613     2.5996005747
| 21>  H        0.3389960335    -1.1255725558     1.5933331212
| 22>  H       -0.1292333219    -4.1898612292     1.1033632557
| 23> *
| 24>
| 25>                          ****END OF INPUT****

CARTESIAN COORDINATES (ANGSTROEM)
---------------------------------
  C      1.428634    1.247227   -2.436571
  O      1.233288   -0.128016   -2.201036
  C      1.367513   -0.478251   -0.845198
  C      1.053721   -1.962889   -0.728271
  N      1.514426   -2.674844    0.521836
  C      0.711373   -2.145530    1.621532
  C      0.093378   -3.189327    0.751966
  C     -0.370745   -2.536359   -0.520666
  O     -1.359794   -2.606919   -1.188308
  H      0.695040    1.861983   -1.892068
  H      2.438417    1.572209   -2.140298
  H      1.302880    1.413310   -3.508670
  H      2.398236   -0.307930   -0.486329
  H      0.698202    0.137648   -0.223805
  H      1.498079   -2.467107   -1.593495
  H      1.048632   -2.474840    2.599601
  H      0.338996   -1.125573    1.593333
  H     -0.129233   -4.189861    1.103363

 Total Charge           Charge          ....    0
 Multiplicity           Mult            ....    1
 Number of Electrons    NEL             ....   68
 Basis Dimension        Dim             ....  333

ORBITAL ENERGIES
----------------

  NO   OCC          E(Eh)            E(eV)
   0   2.0000     -20.568715      -559.7032
   1   2.0000     -20.559057      -559.4404
   2   2.0000     -15.592700      -424.2989
   3   2.0000     -11.343400      -308.6696
   4   2.0000     -11.296035      -307.3807
   5   2.0000     -11.287499      -307.1485
   6   2.0000     -11.284175      -307.0580
   7   2.0000     -11.281424      -306.9832
   8   2.0000     -11.279506      -306.9310
   9   2.0000      -1.405145       -38.2359
  10   2.0000      -1.390876       -37.8477
  11   2.0000      -1.316251       -35.8170
  12   2.0000      -1.049511       -28.5587
  13   2.0000      -0.962711       -26.1967
  14   2.0000      -0.930270       -25.3139
  15   2.0000      -0.890466       -24.2308
  16   2.0000      -0.829624       -22.5752
  17   2.0000      -0.753001       -20.4902
  18   2.0000      -0.691944       -18.8287
  19   2.0000      -0.686838       -18.6898
  20   2.0000      -0.668734       -18.1972
  21   2.0000      -0.660053       -17.9610
  22   2.0000      -0.647724       -17.6255
  23   2.0000      -0.597173       -16.2499
  24   2.0000      -0.591245       -16.0886
  25   2.0000      -0.570560       -15.5257
  26   2.0000      -0.553510       -15.0618
  27   2.0000      -0.533596       -14.5199
  28   2.0000      -0.499872       -13.6022
  29   2.0000      -0.495406       -13.4807
  30   2.0000      -0.455437       -12.3931
  31   2.0000      -0.443101       -12.0574
  32   2.0000      -0.423622       -11.5273
  33   2.0000      -0.390556       -10.6276
  34   0.0000       0.119431         3.2499
  35   0.0000       0.142795         3.8857
  36   0.0000       0.162700         4.4273
  37   0.0000       0.171478         4.6661
  38   0.0000       0.175008         4.7622

MULLIKEN ATOMIC CHARGES
-----------------------
   0 C :   -0.221657
   1 O :   -0.298476
   2 C :   -0.069639
   3 C :    0.036327
   4 N :   -0.220222
   5 C :   -0.161585
   6 C :   -0.099060
   7 C :    0.127290
   8 O :   -0.243412
   9 H :    0.114914
  10 H :    0.113907
  11 H :    0.145316
  12 H :    0.116769
  13 H :    0.088200
  14 H :    0.133306
  15 H :    0.145165
  16 H :    0.137947
  17 H :    0.154909
Sum of atomic charges:   -0.0000000

LOEWDIN ATOMIC CHARGES
----------------------
   0 C :   -0.355063
   1 O :    0.144041
   2 C :   -0.313045
   3 C :   -0.215140
   4 N :    0.134865
   5 C :   -0.238696
   6 C :   -0.169618
   7 C :   -0.306749
   8 O :    0.171539
   9 H :    0.102734
  10 H :    0.102481
  11 H :    0.115993
  12 H :    0.129087
  13 H :    0.120687
  14 H :    0.168850
  15 H :    0.138162
  16 H :    0.128447
  17 H :    0.141423

  Mayer bond orders larger than 0.1
B(  0-C ,  1-O ) :   0.9142 B(  0-C ,  9-H ) :   0.9367 B(  0-C , 10-H ) :   0.9366
B(  0-C , 11-H ) :   0.9386 B(  1-O ,  2-C ) :   0.9608 B(  2-C ,  3-C ) :   0.9318
B(  2-C , 12-H ) :   0.9247 B(  2-C , 13-H ) :   0.9114 B(  3-C ,  4-N ) :   0.9167
B(  3-C ,  6-C ) :  -0.1030 B(  3-C ,  7-C ) :   0.8901 B(  3-C , 14-H ) :   0.8876
B(  4-N ,  5-C ) :   0.8814 B(  4-N ,  6-C ) :   0.9030 B(  5-C ,  6-C ) :   0.8952
B(  5-C , 15-H ) :   0.9279 B(  5-C , 16-H ) :   0.9093 B(  6-C ,  7-C ) :   0.9466
B(  6-C , 17-H ) :   0.8951 B(  7-C ,  8-O ) :   2.0494

MP2 TOTAL ENERGY:     -438.306180206 Eh
FINAL SINGLE POINT ENERGY      -438.306180206196

DIPOLE MOMENT
-------------
                                X             Y             Z
Electronic contribution:     -3.74593      -7.02232      -0.00281
Nuclear contribution   :      4.25710       7.76204       0.84787
                        -----------------------------------------
Total Dipole Moment    :      0.51117       0.73972       0.84505
                        -----------------------------------------
Magnitude (a.u.)       :      1.23394
Magnitude (Debye)      :      3.13642

                             ****ORCA TERMINATED NORMALLY****
TOTAL RUN TIME: 0 days 0 hours 16 minutes 11 seconds 903 msec
