                         Program Version 3.0.3 - RELEASE   -
|  1> ! RI-MP2 RIJK def2-TZVP def2-TZVP/C def2-TZVP/JK TIGHTSCF
|  2> % maxcore 2000
|  3> % mp2 density relaxed end
|  4> *xyz 0 1
|  5>  C       -0.2289831432     1.4619579998     0.1030576685
|  6>  C        0.0334441579    -0.0413388139    -0.0982740006
|  7>  C        0.8333478749    -0.2525083571    -1.3710544869
|  8>  O        0.4675992073    -0.8797418025    -2.3311965887
|  9>  C        0.8091533936    -0.6259767073     1.0750095603
| 10>  C        0.0921042310    -1.1234661528     2.3097133208
| 11>  C        0.8137951222    -2.1016739383     1.4141377222
| 12>  C        0.0543257484    -3.1378569711     0.6124589655
| 13>  H        0.7118068665     2.0225736401     0.1497064870
| 14>  H       -0.8286571427     1.8754076013    -0.7134158058
| 15>  H       -0.7621515792     1.6288005151     1.0432664501
| 16>  H       -0.9170774252    -0.5663367285    -0.2284452108
| 17>  H        1.8390136230     0.2351993345    -1.3546575769
| 18>  H        1.7490356953    -0.1086331802     1.2591823296
| 19>  H        0.5052083238    -0.8878224276     3.2845229611
| 20>  H       -0.9937784381    -1.1361556246     2.2809638497
| 21>  H        1.7633707019    -2.4648958110     1.7996838379
| 22>  H       -0.9290994049    -2.7765795293     0.2995882273
| 23>  H        0.6004837395    -3.4268755785    -0.2914729639
| 24>  H       -0.1060565719    -4.0408326780     1.2115370435
| 25> *
| 26>
| 27>                          ****END OF INPUT****

CARTESIAN COORDINATES (ANGSTROEM)
---------------------------------
  C     -0.228983    1.461958    0.103058
  C      0.033444   -0.041339   -0.098274
  C      0.833348   -0.252508   -1.371054
  O      0.467599   -0.879742   -2.331197
  C      0.809153   -0.625977    1.075010
  C      0.092104   -1.123466    2.309713
  C      0.813795   -2.101674    1.414138
  C      0.054326   -3.137857    0.612459
  H      0.711807    2.022574    0.149706
  H     -0.828657    1.875408   -0.713416
  H     -0.762152    1.628801    1.043266
  H     -0.917077   -0.566337   -0.228445
  H      1.839014    0.235199   -1.354658
  H      1.749036   -0.108633    1.259182
  H      0.505208   -0.887822    3.284523
  H     -0.993778   -1.136156    2.280964
  H      1.763371   -2.464896    1.799684
  H     -0.929099   -2.776580    0.299588
  H      0.600484   -3.426876   -0.291473
  H     -0.106057   -4.040833    1.211537

 Total Charge           Charge          ....    0
 Multiplicity           Mult            ....    1
 Number of Electrons    NEL             ....   62
 Basis Dimension        Dim             ....  320

ORBITAL ENERGIES
----------------

  NO   OCC          E(Eh)            E(eV)
   0   2.0000     -20.553278      -559.2831
   1   2.0000     -11.326370      -308.2062
   2   2.0000     -11.245967      -306.0183
   3   2.0000     -11.241578      -305.8989
   4   2.0000     -11.237783      -305.7956
   5   2.0000     -11.231524      -305.6253
   6   2.0000     -11.230102      -305.5866
   7   2.0000     -11.217698      -305.2491
   8   2.0000      -1.392200       -37.8837
   9   2.0000      -1.162529       -31.6340
  10   2.0000      -1.062167       -28.9030
  11   2.0000      -0.964408       -26.2429
  12   2.0000      -0.906926       -24.6787
  13   2.0000      -0.817831       -22.2543
  14   2.0000      -0.801270       -21.8037
  15   2.0000      -0.761007       -20.7080
  16   2.0000      -0.678490       -18.4626
  17   2.0000      -0.657498       -17.8914
  18   2.0000      -0.633334       -17.2339
  19   2.0000      -0.613922       -16.7057
  20   2.0000      -0.580635       -15.7999
  21   2.0000      -0.560732       -15.2583
  22   2.0000      -0.556546       -15.1444
  23   2.0000      -0.545688       -14.8489
  24   2.0000      -0.534113       -14.5340
  25   2.0000      -0.509136       -13.8543
  26   2.0000      -0.503095       -13.6899
  27   2.0000      -0.478906       -13.0317
  28   2.0000      -0.437420       -11.9028
  29   2.0000      -0.406247       -11.0545
  30   2.0000      -0.393357       -10.7038
  31   0.0000       0.129407         3.5214
  32   0.0000       0.141014         3.8372
  33   0.0000       0.151165         4.1134
  34   0.0000       0.156070         4.2469
  35   0.0000       0.173775         4.7286

MULLIKEN ATOMIC CHARGES
-----------------------
   0 C :   -0.408193
   1 C :    0.020802
   2 C :    0.098114
   3 O :   -0.265257
   4 C :   -0.172127
   5 C :   -0.290137
   6 C :   -0.055754
   7 C :   -0.394449
   8 H :    0.126348
   9 H :    0.147419
  10 H :    0.144555
  11 H :    0.082119
  12 H :    0.067229
  13 H :    0.120719
  14 H :    0.134263
  15 H :    0.126643
  16 H :    0.117407
  17 H :    0.123472
  18 H :    0.140092
  19 H :    0.136734
Sum of atomic charges:   -0.0000000

LOEWDIN ATOMIC CHARGES
----------------------
   0 C :   -0.279391
   1 C :   -0.265218
   2 C :   -0.268706
   3 O :    0.133112
   4 C :   -0.192784
   5 C :   -0.206341
   6 C :   -0.229529
   7 C :   -0.292569
   8 H :    0.125777
   9 H :    0.127044
  10 H :    0.130008
  11 H :    0.159181
  12 H :    0.111973
  13 H :    0.151776
  14 H :    0.130831
  15 H :    0.136452
  16 H :    0.148102
  17 H :    0.125102
  18 H :    0.128739
  19 H :    0.126441

  Mayer bond orders larger than 0.1
B(  0-C ,  1-C ) :   0.9051 B(  0-C ,  8-H ) :   0.9262 B(  0-C ,  9-H ) :   0.9393
B(  0-C , 10-H ) :   0.9351 B(  1-C ,  2-C ) :   0.8584 B(  1-C ,  4-C ) :   0.9089
B(  1-C , 11-H ) :   0.9022 B(  2-C ,  3-O ) :   1.9980 B(  2-C , 12-H ) :   0.9256
B(  4-C ,  5-C ) :   0.8853 B(  4-C ,  6-C ) :   0.8737 B(  4-C , 13-H ) :   0.9145
B(  5-C ,  6-C ) :   0.9015 B(  5-C , 14-H ) :   0.9275 B(  5-C , 15-H ) :   0.9239
B(  6-C ,  7-C ) :   0.9191 B(  6-C , 16-H ) :   0.9290 B(  7-C , 17-H ) :   0.9358
B(  7-C , 18-H ) :   0.9361 B(  7-C , 19-H ) :   0.9352

MP2 TOTAL ENERGY:     -348.395554373 Eh
FINAL SINGLE POINT ENERGY      -348.395554373107

DIPOLE MOMENT
-------------
                                X             Y             Z
Electronic contribution:      1.56897       0.03050      -5.19073
Nuclear contribution   :     -1.44780       0.35501       6.14577
                        -----------------------------------------
Total Dipole Moment    :      0.12116       0.38551       0.95504
                        -----------------------------------------
Magnitude (a.u.)       :      1.03701
Magnitude (Debye)      :      2.63587

                             ****ORCA TERMINATED NORMALLY****
TOTAL RUN TIME: 0 days 0 hours 13 minutes 48 seconds 579 msec
