                         Program Version 3.0.3 - RELEASE   -
|  1> ! RI-MP2 RIJK def2-TZVP def2-TZVP/C def2-TZVP/JK TIGHTSCF
|  2> % maxcore 2000
|  3> % mp2 density relaxed end
|  4> *xyz 0 1
|  5>  N       -0.0619866013    -1.1278506841     0.0216191732
|  6>  C       -0.0306078502     0.0275225668     0.0400473479
|  7>  C       -0.0043674206     1.4768222300     0.0327172848
|  8>  N       -0.8228143205     2.1086243909     1.0637664752
|  9>  C       -0.6395934139     3.5484199712     0.7374940303
| 10>  C        0.3763953596     3.4417541770    -0.3940575685
| 11>  C        1.3477794333     2.2571412494    -0.0582064130
| 12>  C        1.4430034135     1.9276308853    -1.5649674524
| 13>  C       -0.0465042145     2.2668991231    -1.3372839824
| 14>  H       -1.7931536300     1.8243249160     0.9803548658
| 15>  H       -1.5725708945     4.0272556958     0.4182273553
| 16>  H       -0.2527305266     4.0991647526     1.6019595330
| 17>  H        0.7852897072     4.3521571009    -0.8314966201
| 18>  H        2.1307507532     2.2414278312     0.6997738272
| 19>  H        2.0097018142     2.6361775184    -2.1725676129
| 20>  H        1.6825667778     0.8962231290    -1.8331966369
| 21>  H       -0.8661863567     2.2591414665    -2.0569807864
| 22> *
| 23>
| 24>                          ****END OF INPUT****

CARTESIAN COORDINATES (ANGSTROEM)
---------------------------------
  N     -0.061987   -1.127851    0.021619
  C     -0.030608    0.027523    0.040047
  C     -0.004367    1.476822    0.032717
  N     -0.822814    2.108624    1.063766
  C     -0.639593    3.548420    0.737494
  C      0.376395    3.441754   -0.394058
  C      1.347779    2.257141   -0.058206
  C      1.443003    1.927631   -1.564967
  C     -0.046504    2.266899   -1.337284
  H     -1.793154    1.824325    0.980355
  H     -1.572571    4.027256    0.418227
  H     -0.252731    4.099165    1.601960
  H      0.785290    4.352157   -0.831497
  H      2.130751    2.241428    0.699774
  H      2.009702    2.636178   -2.172568
  H      1.682567    0.896223   -1.833197
  H     -0.866186    2.259141   -2.056981

 Total Charge           Charge          ....    0
 Multiplicity           Mult            ....    1
 Number of Electrons    NEL             ....   64
 Basis Dimension        Dim             ....  327

ORBITAL ENERGIES
----------------

  NO   OCC          E(Eh)            E(eV)
   0   2.0000     -15.571463      -423.7211
   1   2.0000     -15.567831      -423.6222
   2   2.0000     -11.316309      -307.9324
   3   2.0000     -11.271637      -306.7168
   4   2.0000     -11.268054      -306.6193
   5   2.0000     -11.267960      -306.6168
   6   2.0000     -11.267614      -306.6074
   7   2.0000     -11.260668      -306.4184
   8   2.0000     -11.247339      -306.0556
   9   2.0000      -1.297078       -35.2953
  10   2.0000      -1.214423       -33.0461
  11   2.0000      -1.167311       -31.7642
  12   2.0000      -1.012606       -27.5544
  13   2.0000      -0.923918       -25.1411
  14   2.0000      -0.888118       -24.1669
  15   2.0000      -0.851649       -23.1745
  16   2.0000      -0.785277       -21.3685
  17   2.0000      -0.718953       -19.5637
  18   2.0000      -0.694317       -18.8933
  19   2.0000      -0.640589       -17.4313
  20   2.0000      -0.611324       -16.6350
  21   2.0000      -0.587138       -15.9768
  22   2.0000      -0.564104       -15.3500
  23   2.0000      -0.551282       -15.0011
  24   2.0000      -0.529833       -14.4175
  25   2.0000      -0.503992       -13.7143
  26   2.0000      -0.479890       -13.0585
  27   2.0000      -0.473771       -12.8920
  28   2.0000      -0.459252       -12.4969
  29   2.0000      -0.456251       -12.4152
  30   2.0000      -0.448560       -12.2059
  31   2.0000      -0.380802       -10.3622
  32   0.0000       0.128478         3.4961
  33   0.0000       0.143579         3.9070
  34   0.0000       0.150763         4.1025
  35   0.0000       0.154609         4.2071
  36   0.0000       0.177207         4.8220

MULLIKEN ATOMIC CHARGES
-----------------------
   0 N :   -0.030063
   1 C :   -0.310748
   2 C :    0.263526
   3 N :   -0.330443
   4 C :   -0.169980
   5 C :   -0.105184
   6 C :   -0.116747
   7 C :   -0.232897
   8 C :   -0.127611
   9 H :    0.220980
  10 H :    0.128105
  11 H :    0.122710
  12 H :    0.137074
  13 H :    0.144141
  14 H :    0.123515
  15 H :    0.141783
  16 H :    0.141839
Sum of atomic charges:    0.0000000

LOEWDIN ATOMIC CHARGES
----------------------
   0 N :    0.075201
   1 C :   -0.142626
   2 C :   -0.258660
   3 N :    0.036685
   4 C :   -0.251744
   5 C :   -0.166787
   6 C :   -0.102281
   7 C :   -0.188426
   8 C :   -0.113787
   9 H :    0.173206
  10 H :    0.128653
  11 H :    0.131661
  12 H :    0.144891
  13 H :    0.134583
  14 H :    0.132830
  15 H :    0.136026
  16 H :    0.130576

  Mayer bond orders larger than 0.1
B(  0-N ,  1-C ) :   2.8925 B(  1-C ,  2-C ) :   0.8898 B(  2-C ,  3-N ) :   0.9825
B(  2-C ,  6-C ) :   0.8388 B(  2-C ,  8-C ) :   0.8450 B(  3-N ,  4-C ) :   0.9657
B(  3-N ,  9-H ) :   0.8715 B(  4-C ,  5-C ) :   0.9480 B(  4-C , 10-H ) :   0.9327
B(  4-C , 11-H ) :   0.9189 B(  5-C ,  6-C ) :   0.8878 B(  5-C ,  8-C ) :   0.8721
B(  5-C , 12-H ) :   0.9184 B(  6-C ,  7-C ) :   0.9234 B(  6-C , 13-H ) :   0.8844
B(  7-C ,  8-C ) :   0.9226 B(  7-C , 14-H ) :   0.9316 B(  7-C , 15-H ) :   0.9161
B(  8-C , 16-H ) :   0.8910

MP2 TOTAL ENERGY:     -380.165321939 Eh
FINAL SINGLE POINT ENERGY      -380.165321938655

DIPOLE MOMENT
-------------
                                X             Y             Z
Electronic contribution:     -0.88971      -5.70634       1.33836
Nuclear contribution   :      0.79097       7.46261      -1.82848
                        -----------------------------------------
Total Dipole Moment    :     -0.09874       1.75626      -0.49011
                        -----------------------------------------
Magnitude (a.u.)       :      1.82604
Magnitude (Debye)      :      4.64143

                             ****ORCA TERMINATED NORMALLY****
TOTAL RUN TIME: 0 days 0 hours 19 minutes 1 seconds 95 msec
