                         Program Version 3.0.3 - RELEASE   -
|  1> ! RI-MP2 RIJK def2-TZVP def2-TZVP/C def2-TZVP/JK TIGHTSCF
|  2> % maxcore 2000
|  3> % mp2 density relaxed end
|  4> *xyz 0 1
|  5>  C        0.0555488672     1.5211280436    -0.1634262969
|  6>  N        0.0436236491     0.0677746552    -0.0308959666
|  7>  C       -1.0903297291    -0.5030981513     0.7534838255
|  8>  C       -0.2489268125    -1.7427428462     1.1738713348
|  9>  C       -0.6353301484    -1.5990653256     2.6577205239
| 10>  C       -0.5248337044    -0.1397641025     2.1745580946
| 11>  C        0.6852050018    -0.4864521282     1.2105509272
| 12>  C        2.1591265016    -0.4173992013     1.4794795255
| 13>  H        1.0419293838     1.8468749647    -0.5102858718
| 14>  H       -0.6749639725     1.8180802796    -0.9235852387
| 15>  H       -0.1784029186     2.0689112340     0.7655621146
| 16>  H       -2.1268837042    -0.4786721954     0.4120186912
| 17>  H       -0.0857131248    -2.6341886643     0.5680448739
| 18>  H       -1.6342397344    -1.9463229702     2.9384767522
| 19>  H        0.1012857381    -1.9324404373     3.3952350338
| 20>  H       -0.6843969899     0.7735702705     2.7480424016
| 21>  H        2.4073143301    -0.9431578147     2.4073577511
| 22>  H        2.7201698303    -0.8796453549     0.6608381969
| 23>  H        2.4965004770     0.6197943442     1.5812706673
| 24> *
| 25>
| 26>                          ****END OF INPUT****

CARTESIAN COORDINATES (ANGSTROEM)
---------------------------------
  C      0.055549    1.521128   -0.163426
  N      0.043624    0.067775   -0.030896
  C     -1.090330   -0.503098    0.753484
  C     -0.248927   -1.742743    1.173871
  C     -0.635330   -1.599065    2.657721
  C     -0.524834   -0.139764    2.174558
  C      0.685205   -0.486452    1.210551
  C      2.159127   -0.417399    1.479480
  H      1.041929    1.846875   -0.510286
  H     -0.674964    1.818080   -0.923585
  H     -0.178403    2.068911    0.765562
  H     -2.126884   -0.478672    0.412019
  H     -0.085713   -2.634189    0.568045
  H     -1.634240   -1.946323    2.938477
  H      0.101286   -1.932440    3.395235
  H     -0.684397    0.773570    2.748042
  H      2.407314   -0.943158    2.407358
  H      2.720170   -0.879645    0.660838
  H      2.496500    0.619794    1.581271

 Total Charge           Charge          ....    0
 Multiplicity           Mult            ....    1
 Number of Electrons    NEL             ....   60
 Basis Dimension        Dim             ....  314

ORBITAL ENERGIES
----------------

  NO   OCC          E(Eh)            E(eV)
   0   2.0000     -15.540852      -422.8881
   1   2.0000     -11.271921      -306.7246
   2   2.0000     -11.264576      -306.5247
   3   2.0000     -11.237396      -305.7851
   4   2.0000     -11.235805      -305.7418
   5   2.0000     -11.233700      -305.6845
   6   2.0000     -11.224963      -305.4468
   7   2.0000     -11.219975      -305.3110
   8   2.0000      -1.295039       -35.2398
   9   2.0000      -1.114015       -30.3139
  10   2.0000      -0.996391       -27.1132
  11   2.0000      -0.943302       -25.6686
  12   2.0000      -0.865008       -23.5381
  13   2.0000      -0.827927       -22.5290
  14   2.0000      -0.818623       -22.2759
  15   2.0000      -0.681383       -18.5414
  16   2.0000      -0.654669       -17.8145
  17   2.0000      -0.633002       -17.2249
  18   2.0000      -0.625981       -17.0338
  19   2.0000      -0.597516       -16.2592
  20   2.0000      -0.566455       -15.4140
  21   2.0000      -0.558134       -15.1876
  22   2.0000      -0.549306       -14.9474
  23   2.0000      -0.513680       -13.9779
  24   2.0000      -0.454073       -12.3560
  25   2.0000      -0.450087       -12.2475
  26   2.0000      -0.436114       -11.8673
  27   2.0000      -0.425368       -11.5748
  28   2.0000      -0.408581       -11.1180
  29   2.0000      -0.351063        -9.5529
  30   0.0000       0.139494         3.7958
  31   0.0000       0.159722         4.3463
  32   0.0000       0.163718         4.4550
  33   0.0000       0.179796         4.8925
  34   0.0000       0.192339         5.2338

MULLIKEN ATOMIC CHARGES
-----------------------
   0 C :   -0.330694
   1 N :   -0.182561
   2 C :   -0.092662
   3 C :   -0.061531
   4 C :   -0.242481
   5 C :   -0.135653
   6 C :    0.077512
   7 C :   -0.435051
   8 H :    0.135680
   9 H :    0.137476
  10 H :    0.102546
  11 H :    0.122263
  12 H :    0.124485
  13 H :    0.113245
  14 H :    0.112201
  15 H :    0.130740
  16 H :    0.138639
  17 H :    0.146430
  18 H :    0.139416
Sum of atomic charges:    0.0000000

LOEWDIN ATOMIC CHARGES
----------------------
   0 C :   -0.338037
   1 N :    0.106732
   2 C :   -0.167069
   3 C :   -0.124461
   4 C :   -0.210847
   5 C :   -0.138800
   6 C :   -0.223723
   7 C :   -0.272902
   8 H :    0.116362
   9 H :    0.117745
  10 H :    0.104560
  11 H :    0.125506
  12 H :    0.128737
  13 H :    0.127566
  14 H :    0.126001
  15 H :    0.123948
  16 H :    0.134076
  17 H :    0.134186
  18 H :    0.130422

  Mayer bond orders larger than 0.1
B(  0-C ,  1-N ) :   0.8933 B(  0-C ,  8-H ) :   0.9411 B(  0-C ,  9-H ) :   0.9393
B(  0-C , 10-H ) :   0.9194 B(  1-N ,  2-C ) :   0.9240 B(  1-N ,  6-C ) :   0.9060
B(  2-C ,  3-C ) :   0.8950 B(  2-C ,  5-C ) :   0.8889 B(  2-C , 11-H ) :   0.8986
B(  3-C ,  4-C ) :   0.9116 B(  3-C ,  6-C ) :   0.8589 B(  3-C , 12-H ) :   0.8869
B(  4-C ,  5-C ) :   0.9217 B(  4-C , 13-H ) :   0.9233 B(  4-C , 14-H ) :   0.9287
B(  5-C ,  6-C ) :   0.8452 B(  5-C , 15-H ) :   0.9010 B(  6-C ,  7-C ) :   0.8253
B(  7-C , 16-H ) :   0.9339 B(  7-C , 17-H ) :   0.9468 B(  7-C , 18-H ) :   0.9375

MP2 TOTAL ENERGY:     -327.242855898 Eh
FINAL SINGLE POINT ENERGY      -327.242855897874

DIPOLE MOMENT
-------------
                                X             Y             Z
Electronic contribution:     -2.32478      -2.15554      -0.86975
Nuclear contribution   :      2.33852       2.31390       1.32762
                        -----------------------------------------
Total Dipole Moment    :      0.01374       0.15836       0.45787
                        -----------------------------------------
Magnitude (a.u.)       :      0.48467
Magnitude (Debye)      :      1.23195

                             ****ORCA TERMINATED NORMALLY****
TOTAL RUN TIME: 0 days 0 hours 14 minutes 10 seconds 996 msec
