                         Program Version 3.0.3 - RELEASE   -
|  1> ! RI-MP2 RIJK def2-TZVP def2-TZVP/C def2-TZVP/JK TIGHTSCF
|  2> % maxcore 2000
|  3> % mp2 density relaxed end
|  4> *xyz 0 1
|  5>  N        0.1070840069    -1.1690377631     0.0751325829
|  6>  C        0.0557233730    -0.0145706885     0.0521557100
|  7>  C       -0.0027402916     1.4489643210     0.0196199714
|  8>  C       -0.8396799078     1.9984899824     1.2075209784
|  9>  C       -0.7428313211     3.4982639541     1.3081869344
| 10>  C        0.3595584549     4.1647866143     0.9637250741
| 11>  C        1.5557411892     3.4563504929     0.4449332074
| 12>  N        2.0501515558     2.3033346621     1.2503676808
| 13>  C        1.3978836078     2.0537042911    -0.0310011891
| 14>  H       -0.5050438064     1.7327623922    -0.9148420398
| 15>  H       -1.8792890999     1.6808898405     1.0855996035
| 16>  H       -0.4738096570     1.5388351766     2.1315160798
| 17>  H       -1.6053413027     4.0288317950     1.7000465304
| 18>  H        0.4099141665     5.2454282957     1.0530098512
| 19>  H        2.3056311070     4.0652926397    -0.0517601830
| 20>  H        3.0584375229     2.2133045970     1.1568965567
| 21>  H        2.0042980423     1.7263803169    -0.8719823191
| 22> *
| 23>
| 24>                          ****END OF INPUT****

CARTESIAN COORDINATES (ANGSTROEM)
---------------------------------
  N      0.107084   -1.169038    0.075133
  C      0.055723   -0.014571    0.052156
  C     -0.002740    1.448964    0.019620
  C     -0.839680    1.998490    1.207521
  C     -0.742831    3.498264    1.308187
  C      0.359558    4.164787    0.963725
  C      1.555741    3.456350    0.444933
  N      2.050152    2.303335    1.250368
  C      1.397884    2.053704   -0.031001
  H     -0.505044    1.732762   -0.914842
  H     -1.879289    1.680890    1.085600
  H     -0.473810    1.538835    2.131516
  H     -1.605341    4.028832    1.700047
  H      0.409914    5.245428    1.053010
  H      2.305631    4.065293   -0.051760
  H      3.058438    2.213305    1.156897
  H      2.004298    1.726380   -0.871982

 Total Charge           Charge          ....    0
 Multiplicity           Mult            ....    1
 Number of Electrons    NEL             ....   64
 Basis Dimension        Dim             ....  327

ORBITAL ENERGIES
----------------

  NO   OCC          E(Eh)            E(eV)
   0   2.0000     -15.577375      -423.8819
   1   2.0000     -15.565869      -423.5688
   2   2.0000     -11.289559      -307.2045
   3   2.0000     -11.287247      -307.1416
   4   2.0000     -11.281441      -306.9836
   5   2.0000     -11.268900      -306.6424
   6   2.0000     -11.251851      -306.1784
   7   2.0000     -11.245186      -305.9971
   8   2.0000     -11.241758      -305.9038
   9   2.0000      -1.289598       -35.0917
  10   2.0000      -1.215355       -33.0715
  11   2.0000      -1.114967       -30.3398
  12   2.0000      -1.054822       -28.7032
  13   2.0000      -0.957517       -26.0554
  14   2.0000      -0.871564       -23.7165
  15   2.0000      -0.852466       -23.1968
  16   2.0000      -0.747566       -20.3423
  17   2.0000      -0.721135       -19.6231
  18   2.0000      -0.702823       -19.1248
  19   2.0000      -0.651628       -17.7317
  20   2.0000      -0.627494       -17.0750
  21   2.0000      -0.604192       -16.4409
  22   2.0000      -0.567312       -15.4374
  23   2.0000      -0.552530       -15.0351
  24   2.0000      -0.531320       -14.4580
  25   2.0000      -0.512894       -13.9566
  26   2.0000      -0.505765       -13.7626
  27   2.0000      -0.490596       -13.3498
  28   2.0000      -0.454067       -12.3558
  29   2.0000      -0.451060       -12.2740
  30   2.0000      -0.417789       -11.3686
  31   2.0000      -0.356592        -9.7034
  32   0.0000       0.115785         3.1507
  33   0.0000       0.128924         3.5082
  34   0.0000       0.144330         3.9274
  35   0.0000       0.157854         4.2954
  36   0.0000       0.168112         4.5745

MULLIKEN ATOMIC CHARGES
-----------------------
   0 N :   -0.051591
   1 C :   -0.225997
   2 C :    0.070081
   3 C :   -0.164474
   4 C :   -0.164201
   5 C :   -0.233165
   6 C :    0.065108
   7 N :   -0.401333
   8 C :   -0.073692
   9 H :    0.129159
  10 H :    0.144106
  11 H :    0.143470
  12 H :    0.130443
  13 H :    0.128501
  14 H :    0.135951
  15 H :    0.223304
  16 H :    0.144330
Sum of atomic charges:   -0.0000000

LOEWDIN ATOMIC CHARGES
----------------------
   0 N :    0.061064
   1 C :   -0.165236
   2 C :   -0.210017
   3 C :   -0.201675
   4 C :   -0.150688
   5 C :   -0.153857
   6 C :   -0.228479
   7 N :    0.026237
   8 C :   -0.223165
   9 H :    0.183425
  10 H :    0.148833
  11 H :    0.161783
  12 H :    0.145071
  13 H :    0.146404
  14 H :    0.142641
  15 H :    0.171282
  16 H :    0.146376

  Mayer bond orders larger than 0.1
B(  0-N ,  1-C ) :   2.8911 B(  1-C ,  2-C ) :   0.9293 B(  2-C ,  3-C ) :   0.9474
B(  2-C ,  8-C ) :   0.8903 B(  2-C ,  9-H ) :   0.9026 B(  3-C ,  4-C ) :   0.9403
B(  3-C , 10-H ) :   0.9295 B(  3-C , 11-H ) :   0.8872 B(  4-C ,  5-C ) :   1.7835
B(  4-C , 12-H ) :   0.9272 B(  5-C ,  6-C ) :   0.9591 B(  5-C , 13-H ) :   0.9313
B(  6-C ,  7-N ) :   0.8877 B(  6-C ,  8-C ) :   0.8966 B(  6-C , 14-H ) :   0.9204
B(  7-N ,  8-C ) :   0.9618 B(  7-N , 15-H ) :   0.8647 B(  8-C , 16-H ) :   0.9225

MP2 TOTAL ENERGY:     -380.193653867 Eh
FINAL SINGLE POINT ENERGY      -380.193653867110

DIPOLE MOMENT
-------------
                                X             Y             Z
Electronic contribution:      0.57549      -4.29463      -0.91363
Nuclear contribution   :     -0.31766       5.99068       0.49467
                        -----------------------------------------
Total Dipole Moment    :      0.25783       1.69605      -0.41896
                        -----------------------------------------
Magnitude (a.u.)       :      1.76595
Magnitude (Debye)      :      4.48869

                             ****ORCA TERMINATED NORMALLY****
TOTAL RUN TIME: 0 days 0 hours 17 minutes 26 seconds 130 msec
