                         Program Version 3.0.3 - RELEASE   -
|  1> ! RI-MP2 RIJK def2-TZVP def2-TZVP/C def2-TZVP/JK TIGHTSCF
|  2> % maxcore 2000
|  3> % mp2 density relaxed end
|  4> *xyz 0 1
|  5>  C       -1.5015868744     2.1575528461    -1.7615111818
|  6>  C       -0.8998892651     1.2161653401    -0.7107511955
|  7>  C       -1.8557258432     0.1061598661    -0.3138330696
|  8>  C       -1.9627053173    -1.2020373216    -1.0764314826
|  9>  C       -1.1868957166    -1.5035592683    -2.3439376751
| 10>  C       -1.3774997047    -1.1866515951     0.3228885819
| 11>  C        0.0536057513    -1.4296139388     0.6919326840
| 12>  C        0.8215432420    -2.6041253247     0.2488140907
| 13>  O        1.0870985111    -1.3059898490    -0.2891577882
| 14>  H       -0.8105826735     2.9701058511    -2.0074532278
| 15>  H       -1.7325041257     1.6206609409    -2.6872170285
| 16>  H       -2.4328268082     2.6097714919    -1.4017117512
| 17>  H        0.0408308092     0.7987433111    -1.0786300678
| 18>  H       -0.6402429010     1.7955380880     0.1854802158
| 19>  H       -2.7988484282     0.4846739998     0.0773299346
| 20>  H       -2.9712473565    -1.6098181137    -1.1060355640
| 21>  H       -0.1706109316    -1.1128121699    -2.3165563600
| 22>  H       -1.1186594504    -2.5855302202    -2.5066993842
| 23>  H       -1.7031754380    -1.0803998653    -3.2130338916
| 24>  H       -2.0314775875    -1.5849910432     1.0974627210
| 25>  H        0.3349275863    -1.0019629186     1.6573740289
| 26>  H        1.6083023567    -3.0130291698     0.8810930154
| 27>  H        0.3624727151    -3.3074814971    -0.4432742142
| 28> *
| 29>
| 30>                          ****END OF INPUT****

CARTESIAN COORDINATES (ANGSTROEM)
---------------------------------
  C     -1.501587    2.157553   -1.761511
  C     -0.899889    1.216165   -0.710751
  C     -1.855726    0.106160   -0.313833
  C     -1.962705   -1.202037   -1.076431
  C     -1.186896   -1.503559   -2.343938
  C     -1.377500   -1.186652    0.322889
  C      0.053606   -1.429614    0.691933
  C      0.821543   -2.604125    0.248814
  O      1.087099   -1.305990   -0.289158
  H     -0.810583    2.970106   -2.007453
  H     -1.732504    1.620661   -2.687217
  H     -2.432827    2.609771   -1.401712
  H      0.040831    0.798743   -1.078630
  H     -0.640243    1.795538    0.185480
  H     -2.798848    0.484674    0.077330
  H     -2.971247   -1.609818   -1.106036
  H     -0.170611   -1.112812   -2.316556
  H     -1.118659   -2.585530   -2.506699
  H     -1.703175   -1.080400   -3.213034
  H     -2.031478   -1.584991    1.097463
  H      0.334928   -1.001963    1.657374
  H      1.608302   -3.013029    0.881093
  H      0.362473   -3.307481   -0.443274

 Total Charge           Charge          ....    0
 Multiplicity           Mult            ....    1
 Number of Electrons    NEL             ....   70
 Basis Dimension        Dim             ....  363

ORBITAL ENERGIES
----------------

  NO   OCC          E(Eh)            E(eV)
   0   2.0000     -20.565574      -559.6177
   1   2.0000     -11.288143      -307.1660
   2   2.0000     -11.279169      -306.9218
   3   2.0000     -11.231018      -305.6115
   4   2.0000     -11.229108      -305.5596
   5   2.0000     -11.224557      -305.4357
   6   2.0000     -11.213625      -305.1382
   7   2.0000     -11.208112      -304.9882
   8   2.0000     -11.206858      -304.9541
   9   2.0000      -1.409011       -38.3411
  10   2.0000      -1.149947       -31.2917
  11   2.0000      -1.020926       -27.7808
  12   2.0000      -0.972302       -26.4577
  13   2.0000      -0.933023       -25.3888
  14   2.0000      -0.879101       -23.9216
  15   2.0000      -0.853825       -23.2338
  16   2.0000      -0.761384       -20.7183
  17   2.0000      -0.741337       -20.1728
  18   2.0000      -0.695356       -18.9216
  19   2.0000      -0.668444       -18.1893
  20   2.0000      -0.639058       -17.3897
  21   2.0000      -0.596513       -16.2319
  22   2.0000      -0.584030       -15.8923
  23   2.0000      -0.554588       -15.0911
  24   2.0000      -0.551103       -14.9963
  25   2.0000      -0.541836       -14.7441
  26   2.0000      -0.533481       -14.5167
  27   2.0000      -0.511097       -13.9077
  28   2.0000      -0.497012       -13.5244
  29   2.0000      -0.486146       -13.2287
  30   2.0000      -0.462905       -12.5963
  31   2.0000      -0.461232       -12.5508
  32   2.0000      -0.442308       -12.0358
  33   2.0000      -0.390374       -10.6226
  34   2.0000      -0.379239       -10.3196
  35   0.0000       0.136146         3.7047
  36   0.0000       0.155843         4.2407
  37   0.0000       0.160423         4.3653
  38   0.0000       0.170133         4.6295
  39   0.0000       0.189178         5.1478

MULLIKEN ATOMIC CHARGES
-----------------------
   0 C :   -0.391530
   1 C :   -0.230053
   2 C :   -0.093322
   3 C :   -0.094281
   4 C :   -0.429840
   5 C :   -0.133807
   6 C :    0.039496
   7 C :   -0.075672
   8 O :   -0.346016
   9 H :    0.132202
  10 H :    0.127136
  11 H :    0.118552
  12 H :    0.139615
  13 H :    0.109852
  14 H :    0.112362
  15 H :    0.113433
  16 H :    0.162837
  17 H :    0.125075
  18 H :    0.130973
  19 H :    0.119467
  20 H :    0.125198
  21 H :    0.119267
  22 H :    0.119054
Sum of atomic charges:   -0.0000000

LOEWDIN ATOMIC CHARGES
----------------------
   0 C :   -0.314168
   1 C :   -0.272050
   2 C :   -0.187403
   3 C :   -0.204987
   4 C :   -0.298264
   5 C :   -0.185562
   6 C :   -0.274935
   7 C :   -0.260569
   8 O :    0.142741
   9 H :    0.120040
  10 H :    0.120648
  11 H :    0.119337
  12 H :    0.144494
  13 H :    0.138814
  14 H :    0.147599
  15 H :    0.148580
  16 H :    0.129934
  17 H :    0.123165
  18 H :    0.123907
  19 H :    0.157198
  20 H :    0.141698
  21 H :    0.118615
  22 H :    0.121168

  Mayer bond orders larger than 0.1
B(  0-C ,  1-C ) :   0.9114 B(  0-C ,  9-H ) :   0.9415 B(  0-C , 10-H ) :   0.9413
B(  0-C , 11-H ) :   0.9382 B(  1-C ,  2-C ) :   0.9180 B(  1-C , 12-H ) :   0.9349
B(  1-C , 13-H ) :   0.9333 B(  2-C ,  3-C ) :   0.8741 B(  2-C ,  5-C ) :   0.8603
B(  2-C , 14-H ) :   0.9282 B(  3-C ,  4-C ) :   0.9049 B(  3-C ,  5-C ) :   0.8997
B(  3-C , 15-H ) :   0.9290 B(  4-C , 16-H ) :   0.9332 B(  4-C , 17-H ) :   0.9388
B(  4-C , 18-H ) :   0.9338 B(  5-C ,  6-C ) :   0.9409 B(  5-C , 19-H ) :   0.9241
B(  6-C ,  7-C ) :   0.9679 B(  6-C ,  8-O ) :   0.8676 B(  6-C , 20-H ) :   0.9233
B(  7-C ,  8-O ) :   0.9010 B(  7-C , 21-H ) :   0.9248 B(  7-C , 22-H ) :   0.9094

MP2 TOTAL ENERGY:     -387.575641088 Eh
FINAL SINGLE POINT ENERGY      -387.575641088426

DIPOLE MOMENT
-------------
                                X             Y             Z
Electronic contribution:      3.24958      -3.90082       4.42371
Nuclear contribution   :     -3.61506       3.54249      -4.05223
                        -----------------------------------------
Total Dipole Moment    :     -0.36548      -0.35832       0.37148
                        -----------------------------------------
Magnitude (a.u.)       :      0.63243
Magnitude (Debye)      :      1.60750

                             ****ORCA TERMINATED NORMALLY****
TOTAL RUN TIME: 0 days 0 hours 19 minutes 47 seconds 349 msec
