                         Program Version 3.0.3 - RELEASE   -
|  1> ! RI-MP2 RIJK def2-TZVP def2-TZVP/C def2-TZVP/JK TIGHTSCF
|  2> % maxcore 2000
|  3> % mp2 density relaxed end
|  4> *xyz 0 1
|  5>  C       -0.1246547615     1.5793080199    -0.0065053893
|  6>  C        0.0143389686     0.0490408996    -0.0179591290
|  7>  C        0.8207906470    -0.5067470402    -1.2135791760
|  8>  C        1.9417280508    -1.3537920349    -0.5978789563
|  9>  O        2.7733533577    -1.9979944889    -1.1986747561
| 10>  C        1.8204803683    -1.2387113070     0.8750020110
| 11>  C        2.7813999914    -1.9220945040     1.7888724530
| 12>  O        2.4211137190    -1.6564871270     3.1328216407
| 13>  C        0.7652028152    -0.4756142356     1.1855147672
| 14>  H        0.8595874187     2.0597313679    -0.0166977144
| 15>  H       -0.6814457784     1.9261058863    -0.8826434638
| 16>  H       -0.6561816624     1.9210686322     0.8877060657
| 17>  H       -0.9985383191    -0.3772453629    -0.0138978224
| 18>  H        0.2258311997    -1.1202793768    -1.8961985848
| 19>  H        1.2684842256     0.2904398256    -1.8167216600
| 20>  H        2.7755267900    -3.0016204200     1.5658205230
| 21>  H        3.8011862120    -1.5716831118     1.5595604873
| 22>  H        3.0507837515    -2.1045984560     3.7043501457
| 23>  H        0.4613121861    -0.2397398564     2.1994075685
| 24> *
| 25>
| 26>                          ****END OF INPUT****

CARTESIAN COORDINATES (ANGSTROEM)
---------------------------------
  C     -0.124655    1.579308   -0.006505
  C      0.014339    0.049041   -0.017959
  C      0.820791   -0.506747   -1.213579
  C      1.941728   -1.353792   -0.597879
  O      2.773353   -1.997994   -1.198675
  C      1.820480   -1.238711    0.875002
  C      2.781400   -1.922095    1.788872
  O      2.421114   -1.656487    3.132822
  C      0.765203   -0.475614    1.185515
  H      0.859587    2.059731   -0.016698
  H     -0.681446    1.926106   -0.882643
  H     -0.656182    1.921069    0.887706
  H     -0.998538   -0.377245   -0.013898
  H      0.225831   -1.120279   -1.896199
  H      1.268484    0.290440   -1.816722
  H      2.775527   -3.001620    1.565821
  H      3.801186   -1.571683    1.559560
  H      3.050784   -2.104598    3.704350
  H      0.461312   -0.239740    2.199408

 Total Charge           Charge          ....    0
 Multiplicity           Mult            ....    1
 Number of Electrons    NEL             ....   68
 Basis Dimension        Dim             ....  339

ORBITAL ENERGIES
----------------

  NO   OCC          E(Eh)            E(eV)
   0   2.0000     -20.565745      -559.6224
   1   2.0000     -20.535307      -558.7941
   2   2.0000     -11.324500      -308.1553
   3   2.0000     -11.287820      -307.1572
   4   2.0000     -11.253193      -306.2149
   5   2.0000     -11.249690      -306.1196
   6   2.0000     -11.236830      -305.7697
   7   2.0000     -11.234754      -305.7132
   8   2.0000     -11.228502      -305.5431
   9   2.0000      -1.379074       -37.5265
  10   2.0000      -1.370563       -37.2949
  11   2.0000      -1.153066       -31.3765
  12   2.0000      -1.040270       -28.3072
  13   2.0000      -0.973828       -26.4992
  14   2.0000      -0.932953       -25.3869
  15   2.0000      -0.857894       -23.3445
  16   2.0000      -0.784283       -21.3414
  17   2.0000      -0.710982       -19.3468
  18   2.0000      -0.695632       -18.9291
  19   2.0000      -0.670022       -18.2322
  20   2.0000      -0.647441       -17.6178
  21   2.0000      -0.632311       -17.2060
  22   2.0000      -0.603667       -16.4266
  23   2.0000      -0.587554       -15.9882
  24   2.0000      -0.576431       -15.6855
  25   2.0000      -0.565655       -15.3922
  26   2.0000      -0.532715       -14.4959
  27   2.0000      -0.519802       -14.1445
  28   2.0000      -0.498930       -13.5766
  29   2.0000      -0.496160       -13.5012
  30   2.0000      -0.486997       -13.2518
  31   2.0000      -0.460476       -12.5302
  32   2.0000      -0.401467       -10.9245
  33   2.0000      -0.364739        -9.9251
  34   0.0000       0.100674         2.7395
  35   0.0000       0.129886         3.5344
  36   0.0000       0.137947         3.7537
  37   0.0000       0.167131         4.5479
  38   0.0000       0.170142         4.6298

MULLIKEN ATOMIC CHARGES
-----------------------
   0 C :   -0.423986
   1 C :    0.052921
   2 C :   -0.241388
   3 C :    0.137524
   4 O :   -0.298359
   5 C :   -0.023279
   6 C :   -0.066597
   7 O :   -0.466984
   8 C :   -0.172785
   9 H :    0.131411
  10 H :    0.137372
  11 H :    0.133665
  12 H :    0.105834
  13 H :    0.139639
  14 H :    0.139094
  15 H :    0.120901
  16 H :    0.118876
  17 H :    0.318970
  18 H :    0.157169
Sum of atomic charges:    0.0000000

LOEWDIN ATOMIC CHARGES
----------------------
   0 C :   -0.289195
   1 C :   -0.251146
   2 C :   -0.185582
   3 C :   -0.290862
   4 O :    0.133697
   5 C :   -0.147066
   6 C :   -0.302265
   7 O :   -0.039026
   8 C :   -0.056641
   9 H :    0.125542
  10 H :    0.124691
  11 H :    0.124481
  12 H :    0.158016
  13 H :    0.149942
  14 H :    0.154358
  15 H :    0.133245
  16 H :    0.132835
  17 H :    0.175596
  18 H :    0.149381

  Mayer bond orders larger than 0.1
B(  0-C ,  1-C ) :   0.8786 B(  0-C ,  9-H ) :   0.9319 B(  0-C , 10-H ) :   0.9368
B(  0-C , 11-H ) :   0.9392 B(  1-C ,  2-C ) :   0.9249 B(  1-C ,  8-C ) :   0.9072
B(  1-C , 12-H ) :   0.9125 B(  2-C ,  3-C ) :   0.9506 B(  2-C ,  5-C ) :  -0.1010
B(  2-C , 13-H ) :   0.9077 B(  2-C , 14-H ) :   0.9076 B(  3-C ,  4-O ) :   2.0212
B(  3-C ,  5-C ) :   0.9060 B(  5-C ,  6-C ) :   0.9218 B(  5-C ,  7-O ) :  -0.1095
B(  5-C ,  8-C ) :   1.6510 B(  6-C ,  7-O ) :   1.0406 B(  6-C , 15-H ) :   0.9252
B(  6-C , 16-H ) :   0.9296 B(  7-O , 17-H ) :   0.8467 B(  8-C , 18-H ) :   0.9090

MP2 TOTAL ENERGY:     -422.353131749 Eh
FINAL SINGLE POINT ENERGY      -422.353131748715

DIPOLE MOMENT
-------------
                                X             Y             Z
Electronic contribution:      4.18221      -5.52300       0.13966
Nuclear contribution   :     -4.58688       5.86024       0.48171
                        -----------------------------------------
Total Dipole Moment    :     -0.40467       0.33724       0.62137
                        -----------------------------------------
Magnitude (a.u.)       :      0.81461
Magnitude (Debye)      :      2.07057

                             ****ORCA TERMINATED NORMALLY****
TOTAL RUN TIME: 0 days 0 hours 16 minutes 29 seconds 490 msec
