                         Program Version 3.0.3 - RELEASE   -
|  1> ! RI-MP2 RIJK def2-TZVP def2-TZVP/C def2-TZVP/JK TIGHTSCF
|  2> % maxcore 2000
|  3> % mp2 density relaxed end
|  4> *xyz 0 1
|  5>  C       -0.0007794638     1.0912720047     0.3411085039
|  6>  C        1.1404873092     1.9627627822    -0.2312655990
|  7>  C        2.2013541463     0.9322041726    -0.6654081198
|  8>  C        1.2732055385    -0.2319735048    -1.0560675278
|  9>  O        0.2665127140    -0.2566663350    -0.0585052253
| 10>  C        3.1483096324     1.3635258214    -1.8150838971
| 11>  C        4.4583628303     0.6977607330    -1.4696770403
| 12>  C        4.4605762917     0.2182024196    -0.2273512421
| 13>  C        3.1540957006     0.4772865989     0.4814818864
| 14>  H       -0.0391935320     1.1131721836     1.4360723143
| 15>  H       -0.9820422892     1.4101233504    -0.0358258457
| 16>  H        0.7906919000     2.5262935751    -1.1028294187
| 17>  H        1.5237900639     2.6853277348     0.4939127262
| 18>  H        0.8396988016    -0.0558531791    -2.0559129786
| 19>  H        1.7692175311    -1.2070729311    -1.0626613647
| 20>  H        2.7587676248     1.0661775425    -2.7972803238
| 21>  H        3.2664960834     2.4561390221    -1.8552517839
| 22>  H        5.2943734902     0.6622483359    -2.1595000869
| 23>  H        5.2992159376    -0.2733125161     0.2536646765
| 24>  H        3.2771995381     1.2625362809     1.2415833772
| 25>  H        2.7599329313    -0.3982222214     1.0101573192
| 26> *
| 27>
| 28>                          ****END OF INPUT****

CARTESIAN COORDINATES (ANGSTROEM)
---------------------------------
  C     -0.000779    1.091272    0.341109
  C      1.140487    1.962763   -0.231266
  C      2.201354    0.932204   -0.665408
  C      1.273206   -0.231974   -1.056068
  O      0.266513   -0.256666   -0.058505
  C      3.148310    1.363526   -1.815084
  C      4.458363    0.697761   -1.469677
  C      4.460576    0.218202   -0.227351
  C      3.154096    0.477287    0.481482
  H     -0.039194    1.113172    1.436072
  H     -0.982042    1.410123   -0.035826
  H      0.790692    2.526294   -1.102829
  H      1.523790    2.685328    0.493913
  H      0.839699   -0.055853   -2.055913
  H      1.769218   -1.207073   -1.062661
  H      2.758768    1.066178   -2.797280
  H      3.266496    2.456139   -1.855252
  H      5.294373    0.662248   -2.159500
  H      5.299216   -0.273313    0.253665
  H      3.277200    1.262536    1.241583
  H      2.759933   -0.398222    1.010157

 Total Charge           Charge          ....    0
 Multiplicity           Mult            ....    1
 Number of Electrons    NEL             ....   68
 Basis Dimension        Dim             ....  351

ORBITAL ENERGIES
----------------

  NO   OCC          E(Eh)            E(eV)
   0   2.0000     -20.544819      -559.0529
   1   2.0000     -11.269385      -306.6555
   2   2.0000     -11.265588      -306.5522
   3   2.0000     -11.235923      -305.7450
   4   2.0000     -11.227051      -305.5036
   5   2.0000     -11.224433      -305.4323
   6   2.0000     -11.223822      -305.4157
   7   2.0000     -11.222790      -305.3877
   8   2.0000     -11.222170      -305.3708
   9   2.0000      -1.369596       -37.2686
  10   2.0000      -1.142000       -31.0754
  11   2.0000      -1.036784       -28.2123
  12   2.0000      -0.986687       -26.8491
  13   2.0000      -0.961486       -26.1634
  14   2.0000      -0.883125       -24.0311
  15   2.0000      -0.812999       -22.1228
  16   2.0000      -0.750612       -20.4252
  17   2.0000      -0.735807       -20.0223
  18   2.0000      -0.683534       -18.5999
  19   2.0000      -0.662905       -18.0386
  20   2.0000      -0.632215       -17.2034
  21   2.0000      -0.613742       -16.7008
  22   2.0000      -0.595643       -16.2083
  23   2.0000      -0.563624       -15.3370
  24   2.0000      -0.543221       -14.7818
  25   2.0000      -0.535600       -14.5744
  26   2.0000      -0.529203       -14.4003
  27   2.0000      -0.494021       -13.4430
  28   2.0000      -0.489299       -13.3145
  29   2.0000      -0.467610       -12.7243
  30   2.0000      -0.449770       -12.2389
  31   2.0000      -0.446657       -12.1542
  32   2.0000      -0.408020       -11.1028
  33   2.0000      -0.345903        -9.4125
  34   0.0000       0.131699         3.5837
  35   0.0000       0.155751         4.2382
  36   0.0000       0.164455         4.4751
  37   0.0000       0.168496         4.5850
  38   0.0000       0.180508         4.9119

MULLIKEN ATOMIC CHARGES
-----------------------
   0 C :   -0.008725
   1 C :   -0.329700
   2 C :    0.169962
   3 C :   -0.089662
   4 O :   -0.331017
   5 C :   -0.181617
   6 C :   -0.193616
   7 C :   -0.178576
   8 C :   -0.261283
   9 H :    0.102245
  10 H :    0.093940
  11 H :    0.123626
  12 H :    0.127873
  13 H :    0.086126
  14 H :    0.125942
  15 H :    0.118538
  16 H :    0.120335
  17 H :    0.125172
  18 H :    0.124995
  19 H :    0.111421
  20 H :    0.144022
Sum of atomic charges:    0.0000000

LOEWDIN ATOMIC CHARGES
----------------------
   0 C :   -0.292851
   1 C :   -0.226030
   2 C :   -0.243993
   3 C :   -0.274150
   4 O :    0.141648
   5 C :   -0.200784
   6 C :   -0.162642
   7 C :   -0.161175
   8 C :   -0.196247
   9 H :    0.122049
  10 H :    0.118578
  11 H :    0.139779
  12 H :    0.137680
  13 H :    0.120789
  14 H :    0.133419
  15 H :    0.140322
  16 H :    0.144364
  17 H :    0.135451
  18 H :    0.135686
  19 H :    0.142224
  20 H :    0.145882

  Mayer bond orders larger than 0.1
B(  0-C ,  1-C ) :   0.9685 B(  0-C ,  4-O ) :   0.9340 B(  0-C ,  9-H ) :   0.9252
B(  0-C , 10-H ) :   0.9241 B(  1-C ,  2-C ) :   0.8760 B(  1-C , 11-H ) :   0.9315
B(  1-C , 12-H ) :   0.9243 B(  2-C ,  3-C ) :   0.9385 B(  2-C ,  5-C ) :   0.8857
B(  2-C ,  8-C ) :   0.9065 B(  3-C ,  4-O ) :   0.9389 B(  3-C , 13-H ) :   0.9241
B(  3-C , 14-H ) :   0.9173 B(  5-C ,  6-C ) :   0.9467 B(  5-C , 15-H ) :   0.9165
B(  5-C , 16-H ) :   0.9093 B(  6-C ,  7-C ) :   1.8026 B(  6-C , 17-H ) :   0.9316
B(  7-C ,  8-C ) :   0.9405 B(  7-C , 18-H ) :   0.9316 B(  8-C , 19-H ) :   0.9065
B(  8-C , 20-H ) :   0.9230

MP2 TOTAL ENERGY:     -386.427498897 Eh
FINAL SINGLE POINT ENERGY      -386.427498897110

DIPOLE MOMENT
-------------
                                X             Y             Z
Electronic contribution:     -0.16226      -2.22905       0.30964
Nuclear contribution   :      0.47585       2.79288      -0.47108
                        -----------------------------------------
Total Dipole Moment    :      0.31359       0.56382      -0.16145
                        -----------------------------------------
Magnitude (a.u.)       :      0.66506
Magnitude (Debye)      :      1.69044

                             ****ORCA TERMINATED NORMALLY****
TOTAL RUN TIME: 0 days 0 hours 20 minutes 53 seconds 187 msec
