                         Program Version 3.0.3 - RELEASE   -
|  1> ! RI-MP2 RIJK def2-TZVP def2-TZVP/C def2-TZVP/JK TIGHTSCF
|  2> % maxcore 2000
|  3> % mp2 density relaxed end
|  4> *xyz 0 1
|  5>  C       -0.0205192853     1.4862322303     0.0060772931
|  6>  N        0.0110400638     0.0339604439    -0.0185978099
|  7>  C       -0.0060876175    -0.7828969272    -1.1307965252
|  8>  C        0.0485103027    -2.0664211960    -0.6494914039
|  9>  N        0.1007907247    -2.0680510169     0.7394952811
| 10>  C        0.0768991791    -0.8040612376     1.0564411673
| 11>  O        0.1093700087    -0.2873818516     2.2925815230
| 12>  C        0.0524533814    -3.2595548148    -1.4163319911
| 13>  N        0.0547490305    -4.2215860629    -2.0609942455
| 14>  H        0.8846436719     1.9012818074    -0.4466216376
| 15>  H       -0.8947483136     1.8565965562    -0.5358306879
| 16>  H       -0.0805349577     1.8129929208     1.0436850590
| 17>  H       -0.0555557551    -0.3892108168    -2.1316152046
| 18>  H        0.1469067064    -1.0346777048     2.9033180823
| 19> *
| 20>
| 21>                          ****END OF INPUT****

CARTESIAN COORDINATES (ANGSTROEM)
---------------------------------
  C     -0.020519    1.486232    0.006077
  N      0.011040    0.033960   -0.018598
  C     -0.006088   -0.782897   -1.130797
  C      0.048510   -2.066421   -0.649491
  N      0.100791   -2.068051    0.739495
  C      0.076899   -0.804061    1.056441
  O      0.109370   -0.287382    2.292582
  C      0.052453   -3.259555   -1.416332
  N      0.054749   -4.221586   -2.060994
  H      0.884644    1.901282   -0.446622
  H     -0.894748    1.856597   -0.535831
  H     -0.080535    1.812993    1.043685
  H     -0.055556   -0.389211   -2.131615
  H      0.146907   -1.034678    2.903318

 Total Charge           Charge          ....    0
 Multiplicity           Mult            ....    1
 Number of Electrons    NEL             ....   64
 Basis Dimension        Dim             ....  309

ORBITAL ENERGIES
----------------

  NO   OCC          E(Eh)            E(eV)
   0   2.0000     -20.632986      -561.4521
   1   2.0000     -15.648612      -425.8204
   2   2.0000     -15.568310      -423.6353
   3   2.0000     -15.565772      -423.5662
   4   2.0000     -11.386294      -309.8368
   5   2.0000     -11.300868      -307.5122
   6   2.0000     -11.298978      -307.4608
   7   2.0000     -11.297355      -307.4166
   8   2.0000     -11.270639      -306.6897
   9   2.0000      -1.471472       -40.0408
  10   2.0000      -1.361530       -37.0491
  11   2.0000      -1.227467       -33.4011
  12   2.0000      -1.204804       -32.7844
  13   2.0000      -1.050196       -28.5773
  14   2.0000      -0.999528       -27.1985
  15   2.0000      -0.901419       -24.5289
  16   2.0000      -0.825277       -22.4569
  17   2.0000      -0.772992       -21.0342
  18   2.0000      -0.731602       -19.9079
  19   2.0000      -0.695241       -18.9185
  20   2.0000      -0.673549       -18.3282
  21   2.0000      -0.647480       -17.6188
  22   2.0000      -0.622276       -16.9330
  23   2.0000      -0.607120       -16.5206
  24   2.0000      -0.589911       -16.0523
  25   2.0000      -0.563237       -15.3265
  26   2.0000      -0.551842       -15.0164
  27   2.0000      -0.487668       -13.2701
  28   2.0000      -0.479942       -13.0599
  29   2.0000      -0.458684       -12.4814
  30   2.0000      -0.414988       -11.2924
  31   2.0000      -0.331931        -9.0323
  32   0.0000       0.107833         2.9343
  33   0.0000       0.117039         3.1848
  34   0.0000       0.136470         3.7135
  35   0.0000       0.161946         4.4068
  36   0.0000       0.177153         4.8206

MULLIKEN ATOMIC CHARGES
-----------------------
   0 C :   -0.346171
   1 N :   -0.045865
   2 C :   -0.115521
   3 C :    0.189863
   4 N :   -0.309109
   5 C :    0.311661
   6 O :   -0.437284
   7 C :   -0.230828
   8 N :   -0.052843
   9 H :    0.161375
  10 H :    0.160911
  11 H :    0.181451
  12 H :    0.170331
  13 H :    0.362030
Sum of atomic charges:   -0.0000000

LOEWDIN ATOMIC CHARGES
----------------------
   0 C :   -0.258732
   1 N :    0.241788
   2 C :   -0.159977
   3 C :   -0.260370
   4 N :    0.124316
   5 C :   -0.445908
   6 O :    0.088495
   7 C :   -0.153204
   8 N :    0.070569
   9 H :    0.127435
  10 H :    0.128080
  11 H :    0.136910
  12 H :    0.146716
  13 H :    0.213881

  Mayer bond orders larger than 0.1
B(  0-C ,  1-N ) :   0.8522 B(  0-C ,  9-H ) :   0.9289 B(  0-C , 10-H ) :   0.9297
B(  0-C , 11-H ) :   0.9259 B(  1-N ,  2-C ) :   1.1023 B(  1-N ,  5-C ) :   1.1845
B(  2-C ,  3-C ) :   1.4944 B(  2-C , 12-H ) :   0.9011 B(  3-C ,  4-N ) :   1.2182
B(  3-C ,  7-C ) :   0.9106 B(  4-N ,  5-C ) :   1.5670 B(  5-C ,  6-O ) :   1.1046
B(  6-O , 13-H ) :   0.8074 B(  7-C ,  8-N ) :   2.8688

MP2 TOTAL ENERGY:     -432.202757821 Eh
FINAL SINGLE POINT ENERGY      -432.202757821312

DIPOLE MOMENT
-------------
                                X             Y             Z
Electronic contribution:      0.17555      -7.14357      -0.31842
Nuclear contribution   :     -0.22312       9.72884       1.07204
                        -----------------------------------------
Total Dipole Moment    :     -0.04757       2.58528       0.75362
                        -----------------------------------------
Magnitude (a.u.)       :      2.69330
Magnitude (Debye)      :      6.84582

                             ****ORCA TERMINATED NORMALLY****
TOTAL RUN TIME: 0 days 0 hours 14 minutes 57 seconds 772 msec
