                         Program Version 3.0.3 - RELEASE   -
|  1> ! RI-MP2 RIJK def2-TZVP def2-TZVP/C def2-TZVP/JK TIGHTSCF
|  2> % maxcore 2000
|  3> % mp2 density relaxed end
|  4> *xyz 0 1
|  5>  N        0.1655238235     0.8382190251    -1.1326437111
|  6>  C       -0.1914520512    -0.4130335075    -1.5580553899
|  7>  O        0.3566065523    -0.9489481450    -2.5074100771
|  8>  C       -1.3100461223    -1.0391145747    -0.7868886155
|  9>  C       -2.1182821135    -2.1213209636    -1.4747440935
| 10>  C       -1.2070220798    -2.5062137069    -0.3525246849
| 11>  C        0.0250435260    -3.3238225195    -0.5720835725
| 12>  C        0.9083331137    -3.6816753912     0.5986215605
| 13>  C        0.0698405393    -4.7454506758    -0.0664212473
| 14>  H        0.9837721777     1.2518955564    -1.5495710531
| 15>  H       -0.1613916765     1.2113537710    -0.2586505729
| 16>  H       -1.8381793723    -0.3798733157    -0.1048636046
| 17>  H       -3.1909776748    -2.1305301542    -1.3179110029
| 18>  H       -1.7889709164    -2.3603222966    -2.4800913618
| 19>  H       -1.6940413212    -2.6995017886     0.6013570480
| 20>  H        0.5272441191    -3.1238719922    -1.5108161823
| 21>  H        1.9819550753    -3.6966639283     0.4467707212
| 22>  H        0.6055598149    -3.3463240408     1.5858198685
| 23>  H       -0.7929280837    -5.1201791330     0.4752209820
| 24>  H        0.5662035398    -5.4914517090    -0.6771449210
| 25> *
| 26>
| 27>                          ****END OF INPUT****

CARTESIAN COORDINATES (ANGSTROEM)
---------------------------------
  N      0.165524    0.838219   -1.132644
  C     -0.191452   -0.413034   -1.558055
  O      0.356607   -0.948948   -2.507410
  C     -1.310046   -1.039115   -0.786889
  C     -2.118282   -2.121321   -1.474744
  C     -1.207022   -2.506214   -0.352525
  C      0.025044   -3.323823   -0.572084
  C      0.908333   -3.681675    0.598622
  C      0.069841   -4.745451   -0.066421
  H      0.983772    1.251896   -1.549571
  H     -0.161392    1.211354   -0.258651
  H     -1.838179   -0.379873   -0.104864
  H     -3.190978   -2.130530   -1.317911
  H     -1.788971   -2.360322   -2.480091
  H     -1.694041   -2.699502    0.601357
  H      0.527244   -3.123872   -1.510816
  H      1.981955   -3.696664    0.446771
  H      0.605560   -3.346324    1.585820
  H     -0.792928   -5.120179    0.475221
  H      0.566204   -5.491452   -0.677145

 Total Charge           Charge          ....    0
 Multiplicity           Mult            ....    1
 Number of Electrons    NEL             ....   68
 Basis Dimension        Dim             ....  345

ORBITAL ENERGIES
----------------

  NO   OCC          E(Eh)            E(eV)
   0   2.0000     -20.510068      -558.1073
   1   2.0000     -15.579744      -423.9464
   2   2.0000     -11.349023      -308.8226
   3   2.0000     -11.247101      -306.0492
   4   2.0000     -11.242634      -305.9276
   5   2.0000     -11.231233      -305.6174
   6   2.0000     -11.224809      -305.4426
   7   2.0000     -11.219717      -305.3040
   8   2.0000     -11.219072      -305.2865
   9   2.0000      -1.376200       -37.4483
  10   2.0000      -1.206875       -32.8407
  11   2.0000      -1.165669       -31.7195
  12   2.0000      -1.117013       -30.3955
  13   2.0000      -0.907901       -24.7052
  14   2.0000      -0.862893       -23.4805
  15   2.0000      -0.817001       -22.2317
  16   2.0000      -0.783187       -21.3116
  17   2.0000      -0.765268       -20.8240
  18   2.0000      -0.709953       -19.3188
  19   2.0000      -0.691615       -18.8198
  20   2.0000      -0.662225       -18.0200
  21   2.0000      -0.626384       -17.0448
  22   2.0000      -0.615958       -16.7611
  23   2.0000      -0.583019       -15.8648
  24   2.0000      -0.573100       -15.5949
  25   2.0000      -0.539780       -14.6882
  26   2.0000      -0.511434       -13.9168
  27   2.0000      -0.495044       -13.4708
  28   2.0000      -0.478550       -13.0220
  29   2.0000      -0.443699       -12.0737
  30   2.0000      -0.420688       -11.4475
  31   2.0000      -0.412765       -11.2319
  32   2.0000      -0.403617       -10.9830
  33   2.0000      -0.373210       -10.1556
  34   0.0000       0.128105         3.4859
  35   0.0000       0.147800         4.0218
  36   0.0000       0.167665         4.5624
  37   0.0000       0.171955         4.6791
  38   0.0000       0.182314         4.9610

MULLIKEN ATOMIC CHARGES
-----------------------
   0 N :   -0.477169
   1 C :    0.277571
   2 O :   -0.377033
   3 C :   -0.128631
   4 C :   -0.259958
   5 C :   -0.111223
   6 C :   -0.102867
   7 C :   -0.259376
   8 C :   -0.261685
   9 H :    0.258260
  10 H :    0.256219
  11 H :    0.117671
  12 H :    0.137439
  13 H :    0.151039
  14 H :    0.118672
  15 H :    0.164227
  16 H :    0.128363
  17 H :    0.118741
  18 H :    0.120771
  19 H :    0.128968
Sum of atomic charges:   -0.0000000

LOEWDIN ATOMIC CHARGES
----------------------
   0 N :   -0.020358
   1 C :   -0.461759
   2 O :    0.075095
   3 C :   -0.178049
   4 C :   -0.182326
   5 C :   -0.177160
   6 C :   -0.210061
   7 C :   -0.228345
   8 C :   -0.226014
   9 H :    0.172555
  10 H :    0.168588
  11 H :    0.147302
  12 H :    0.132836
  13 H :    0.148399
  14 H :    0.155518
  15 H :    0.161189
  16 H :    0.130706
  17 H :    0.130096
  18 H :    0.131067
  19 H :    0.130722

  Mayer bond orders larger than 0.1
B(  0-N ,  1-C ) :   1.1458 B(  0-N ,  9-H ) :   0.8581 B(  0-N , 10-H ) :   0.8722
B(  1-C ,  2-O ) :   1.9324 B(  1-C ,  3-C ) :   0.9380 B(  3-C ,  4-C ) :   0.8909
B(  3-C ,  5-C ) :   0.8359 B(  3-C , 11-H ) :   0.9073 B(  4-C ,  5-C ) :   0.8953
B(  4-C , 12-H ) :   0.9257 B(  4-C , 13-H ) :   0.9176 B(  5-C ,  6-C ) :   0.9299
B(  5-C , 14-H ) :   0.9165 B(  6-C ,  7-C ) :   0.8751 B(  6-C ,  8-C ) :   0.8726
B(  6-C , 15-H ) :   0.9085 B(  7-C ,  8-C ) :   0.9160 B(  7-C , 16-H ) :   0.9279
B(  7-C , 17-H ) :   0.9275 B(  8-C , 18-H ) :   0.9255 B(  8-C , 19-H ) :   0.9273

MP2 TOTAL ENERGY:     -402.465662272 Eh
FINAL SINGLE POINT ENERGY      -402.465662272319

DIPOLE MOMENT
-------------
                                X             Y             Z
Electronic contribution:      0.62890       4.81281      -3.58054
Nuclear contribution   :     -0.96789      -4.16297       4.66561
                        -----------------------------------------
Total Dipole Moment    :     -0.33899       0.64984       1.08507
                        -----------------------------------------
Magnitude (a.u.)       :      1.30942
Magnitude (Debye)      :      3.32829

                             ****ORCA TERMINATED NORMALLY****
TOTAL RUN TIME: 0 days 0 hours 18 minutes 48 seconds 585 msec
