                         Program Version 3.0.3 - RELEASE   -
|  1> ! RI-MP2 RIJK def2-TZVP def2-TZVP/C def2-TZVP/JK TIGHTSCF
|  2> % maxcore 2000
|  3> % mp2 density relaxed end
|  4> *xyz 0 1
|  5>  O        0.0896344944     1.4067854777    -0.0158677630
|  6>  C        0.0693632767     0.0535009663    -0.0167786760
|  7>  C        0.0357833290    -0.7655381961    -1.1267240498
|  8>  N        0.0137179509    -0.4655428055    -2.4799100462
|  9>  C       -0.0172546787    -1.3836874401    -3.4924887037
| 10>  N       -0.0306400869    -2.6438720844    -3.2722984235
| 11>  N        0.0276027974    -2.0125177347    -0.5959162740
| 12>  N        0.0538572966    -1.9771097093     0.7448036963
| 13>  N        0.0794891116    -0.7088298221     1.0922408388
| 14>  H        0.1080620532     1.6847633912     0.9083878021
| 15>  H        0.0243200074     0.5135487107    -2.7127165955
| 16>  H       -0.0288587094    -0.9091219072    -4.4781240198
| 17>  H       -0.0538348081    -3.1643517057    -4.1436800246
| 18>  H        0.0052530960    -2.8652003907    -1.1428659710
| 19> *
| 20>
| 21>                          ****END OF INPUT****

CARTESIAN COORDINATES (ANGSTROEM)
---------------------------------
  O      0.089634    1.406785   -0.015868
  C      0.069363    0.053501   -0.016779
  C      0.035783   -0.765538   -1.126724
  N      0.013718   -0.465543   -2.479910
  C     -0.017255   -1.383687   -3.492489
  N     -0.030640   -2.643872   -3.272298
  N      0.027603   -2.012518   -0.595916
  N      0.053857   -1.977110    0.744804
  N      0.079489   -0.708830    1.092241
  H      0.108062    1.684763    0.908388
  H      0.024320    0.513549   -2.712717
  H     -0.028859   -0.909122   -4.478124
  H     -0.053835   -3.164352   -4.143680
  H      0.005253   -2.865200   -1.142866

 Total Charge           Charge          ....    0
 Multiplicity           Mult            ....    1
 Number of Electrons    NEL             ....   66
 Basis Dimension        Dim             ....  309

ORBITAL ENERGIES
----------------

  NO   OCC          E(Eh)            E(eV)
   0   2.0000     -20.597609      -560.4894
   1   2.0000     -15.646674      -425.7677
   2   2.0000     -15.628013      -425.2599
   3   2.0000     -15.627596      -425.2485
   4   2.0000     -15.590201      -424.2309
   5   2.0000     -15.556926      -423.3255
   6   2.0000     -11.350245      -308.8559
   7   2.0000     -11.320259      -308.0399
   8   2.0000     -11.309293      -307.7415
   9   2.0000      -1.444017       -39.2937
  10   2.0000      -1.403582       -38.1934
  11   2.0000      -1.317846       -35.8604
  12   2.0000      -1.200668       -32.6718
  13   2.0000      -1.181313       -32.1452
  14   2.0000      -1.061854       -28.8945
  15   2.0000      -0.907993       -24.7078
  16   2.0000      -0.864866       -23.5342
  17   2.0000      -0.831304       -22.6209
  18   2.0000      -0.783200       -21.3119
  19   2.0000      -0.737790       -20.0763
  20   2.0000      -0.693250       -18.8643
  21   2.0000      -0.669243       -18.2110
  22   2.0000      -0.665633       -18.1128
  23   2.0000      -0.640858       -17.4386
  24   2.0000      -0.603491       -16.4218
  25   2.0000      -0.584727       -15.9112
  26   2.0000      -0.566744       -15.4219
  27   2.0000      -0.511823       -13.9274
  28   2.0000      -0.461602       -12.5608
  29   2.0000      -0.439927       -11.9710
  30   2.0000      -0.435030       -11.8378
  31   2.0000      -0.399643       -10.8748
  32   2.0000      -0.303687        -8.2637
  33   0.0000       0.116968         3.1829
  34   0.0000       0.127368         3.4659
  35   0.0000       0.143869         3.9149
  36   0.0000       0.156474         4.2579
  37   0.0000       0.171513         4.6671

MULLIKEN ATOMIC CHARGES
-----------------------
   0 O :   -0.461494
   1 C :    0.125296
   2 C :    0.185177
   3 N :   -0.322762
   4 C :    0.118397
   5 N :   -0.497083
   6 N :   -0.054728
   7 N :   -0.188966
   8 N :   -0.162787
   9 H :    0.351498
  10 H :    0.266980
  11 H :    0.120484
  12 H :    0.224695
  13 H :    0.295295
Sum of atomic charges:    0.0000000

LOEWDIN ATOMIC CHARGES
----------------------
   0 O :    0.057104
   1 C :   -0.418768
   2 C :   -0.287965
   3 N :    0.142410
   4 C :   -0.343581
   5 N :   -0.125049
   6 N :    0.144805
   7 N :   -0.061624
   8 N :   -0.005231
   9 H :    0.204630
  10 H :    0.207485
  11 H :    0.124745
  12 H :    0.165524
  13 H :    0.195515

  Mayer bond orders larger than 0.1
B(  0-O ,  1-C ) :   1.1074 B(  0-O ,  9-H ) :   0.8145 B(  1-C ,  2-C ) :   1.3857
B(  1-C ,  8-N ) :   1.4367 B(  2-C ,  3-N ) :   0.9812 B(  2-C ,  6-N ) :   1.2002
B(  2-C ,  7-N ) :   0.1271 B(  3-N ,  4-C ) :   1.1025 B(  3-N , 10-H ) :   0.8669
B(  4-C ,  5-N ) :   1.7824 B(  4-C , 11-H ) :   0.9223 B(  5-N , 12-H ) :   0.8661
B(  6-N ,  7-N ) :   1.0389 B(  6-N , 13-H ) :   0.8183 B(  7-N ,  8-N ) :   1.2311

MP2 TOTAL ENERGY:     -465.439423611 Eh
FINAL SINGLE POINT ENERGY      -465.439423611420

DIPOLE MOMENT
-------------
                                X             Y             Z
Electronic contribution:      0.08705       0.88922       3.96136
Nuclear contribution   :     -0.11623      -0.11980      -6.00867
                        -----------------------------------------
Total Dipole Moment    :     -0.02919       0.76942      -2.04731
                        -----------------------------------------
Magnitude (a.u.)       :      2.18731
Magnitude (Debye)      :      5.55970

                             ****ORCA TERMINATED NORMALLY****
TOTAL RUN TIME: 0 days 0 hours 14 minutes 5 seconds 360 msec
