                         Program Version 3.0.3 - RELEASE   -
|  1> ! RI-MP2 RIJK def2-TZVP def2-TZVP/C def2-TZVP/JK TIGHTSCF
|  2> % maxcore 2000
|  3> % mp2 density relaxed end
|  4> *xyz 0 1
|  5>  C        0.0144771883    -0.8788630215    -0.8626297074
|  6>  C       -0.0153416538     0.1938548498    -0.3216471691
|  7>  C       -0.0197579178     1.4923936014     0.3442698374
|  8>  C        1.3730947776     2.1001928201     0.4319899170
|  9>  N        1.8741348159     2.8284363419    -0.7418324634
| 10>  C        1.6259682320     3.5661332826     0.5064563289
| 11>  C        0.5363645250     4.5996037142     0.4540308550
| 12>  C        0.6544932816     5.7419646677    -0.4863058441
| 13>  N       -0.3400094273     4.6813738937    -0.7214386626
| 14>  H        0.0258561696    -1.8229525059    -1.3480679481
| 15>  H       -0.6939000108     2.1810725872    -0.1737695510
| 16>  H       -0.4169487401     1.3790817945     1.3619707900
| 17>  H        2.0884977178     1.4658061866     0.9523990063
| 18>  H        2.8638974317     2.6588514335    -0.8890303426
| 19>  H        2.4919401113     3.8621118751     1.0983872182
| 20>  H        0.0258457924     4.7644870398     1.4014610923
| 21>  H        0.2458374542     6.7129059126    -0.2211863288
| 22>  H        1.5295177151     5.7717554311    -1.1309803056
| 23>  H        0.0445894172     4.0476837156    -1.4230467224
| 24> *
| 25>
| 26>                          ****END OF INPUT****

CARTESIAN COORDINATES (ANGSTROEM)
---------------------------------
  C      0.014477   -0.878863   -0.862630
  C     -0.015342    0.193855   -0.321647
  C     -0.019758    1.492394    0.344270
  C      1.373095    2.100193    0.431990
  N      1.874135    2.828436   -0.741832
  C      1.625968    3.566133    0.506456
  C      0.536365    4.599604    0.454031
  C      0.654493    5.741965   -0.486306
  N     -0.340009    4.681374   -0.721439
  H      0.025856   -1.822953   -1.348068
  H     -0.693900    2.181073   -0.173770
  H     -0.416949    1.379082    1.361971
  H      2.088498    1.465806    0.952399
  H      2.863897    2.658851   -0.889030
  H      2.491940    3.862112    1.098387
  H      0.025846    4.764487    1.401461
  H      0.245837    6.712906   -0.221186
  H      1.529518    5.771755   -1.130980
  H      0.044589    4.047684   -1.423047

 Total Charge           Charge          ....    0
 Multiplicity           Mult            ....    1
 Number of Electrons    NEL             ....   66
 Basis Dimension        Dim             ....  339

ORBITAL ENERGIES
----------------

  NO   OCC          E(Eh)            E(eV)
   0   2.0000     -15.570161      -423.6856
   1   2.0000     -15.551502      -423.1779
   2   2.0000     -11.276490      -306.8489
   3   2.0000     -11.274524      -306.7954
   4   2.0000     -11.261841      -306.4503
   5   2.0000     -11.255230      -306.2704
   6   2.0000     -11.252018      -306.1830
   7   2.0000     -11.232514      -305.6522
   8   2.0000     -11.218542      -305.2721
   9   2.0000      -1.289261       -35.0826
  10   2.0000      -1.246312       -33.9139
  11   2.0000      -1.069103       -29.0918
  12   2.0000      -0.979581       -26.6558
  13   2.0000      -0.946147       -25.7460
  14   2.0000      -0.876838       -23.8600
  15   2.0000      -0.841386       -22.8953
  16   2.0000      -0.780283       -21.2326
  17   2.0000      -0.730572       -19.8799
  18   2.0000      -0.713788       -19.4232
  19   2.0000      -0.679019       -18.4770
  20   2.0000      -0.647011       -17.6061
  21   2.0000      -0.629546       -17.1308
  22   2.0000      -0.593895       -16.1607
  23   2.0000      -0.576313       -15.6823
  24   2.0000      -0.524250       -14.2656
  25   2.0000      -0.504298       -13.7226
  26   2.0000      -0.488863       -13.3026
  27   2.0000      -0.466569       -12.6960
  28   2.0000      -0.458395       -12.4736
  29   2.0000      -0.423980       -11.5371
  30   2.0000      -0.390377       -10.6227
  31   2.0000      -0.384243       -10.4558
  32   2.0000      -0.372059       -10.1242
  33   0.0000       0.126516         3.4427
  34   0.0000       0.149838         4.0773
  35   0.0000       0.163777         4.4566
  36   0.0000       0.171003         4.6532
  37   0.0000       0.171989         4.6801

MULLIKEN ATOMIC CHARGES
-----------------------
   0 C :   -0.138470
   1 C :   -0.027656
   2 C :   -0.369238
   3 C :   -0.000773
   4 N :   -0.429569
   5 C :   -0.036756
   6 C :   -0.044264
   7 C :   -0.177899
   8 N :   -0.385776
   9 H :    0.189106
  10 H :    0.179952
  11 H :    0.141326
  12 H :    0.129242
  13 H :    0.222496
  14 H :    0.130258
  15 H :    0.123840
  16 H :    0.122539
  17 H :    0.125686
  18 H :    0.245954
Sum of atomic charges:   -0.0000000

LOEWDIN ATOMIC CHARGES
----------------------
   0 C :   -0.106219
   1 C :   -0.105616
   2 C :   -0.227318
   3 C :   -0.237893
   4 N :    0.009346
   5 C :   -0.250495
   6 C :   -0.276166
   7 C :   -0.262446
   8 N :   -0.017417
   9 H :    0.125934
  10 H :    0.168289
  11 H :    0.162754
  12 H :    0.143638
  13 H :    0.168560
  14 H :    0.144240
  15 H :    0.144928
  16 H :    0.123628
  17 H :    0.123761
  18 H :    0.168494

  Mayer bond orders larger than 0.1
B(  0-C ,  1-C ) :   2.6054 B(  0-C ,  2-C ) :  -0.1019 B(  0-C ,  9-H ) :   0.9025
B(  1-C ,  2-C ) :   1.0997 B(  2-C ,  3-C ) :   0.8852 B(  2-C , 10-H ) :   0.9357
B(  2-C , 11-H ) :   0.9199 B(  3-C ,  4-N ) :   0.8894 B(  3-C ,  5-C ) :   0.9020
B(  3-C , 12-H ) :   0.9247 B(  4-N ,  5-C ) :   0.8776 B(  4-N , 13-H ) :   0.8674
B(  5-C ,  6-C ) :   0.9280 B(  5-C , 14-H ) :   0.9208 B(  6-C ,  7-C ) :   0.9424
B(  6-C ,  8-N ) :   0.9450 B(  6-C , 15-H ) :   0.9185 B(  7-C ,  8-N ) :   0.9176
B(  7-C , 16-H ) :   0.9281 B(  7-C , 17-H ) :   0.9142 B(  8-N , 18-H ) :   0.8597

MP2 TOTAL ENERGY:     -381.297289817 Eh
FINAL SINGLE POINT ENERGY      -381.297289816621

DIPOLE MOMENT
-------------
                                X             Y             Z
Electronic contribution:     -0.50329      -3.12881      -0.63321
Nuclear contribution   :      1.56829       3.12531       1.18657
                        -----------------------------------------
Total Dipole Moment    :      1.06500      -0.00350       0.55336
                        -----------------------------------------
Magnitude (a.u.)       :      1.20018
Magnitude (Debye)      :      3.05062

                             ****ORCA TERMINATED NORMALLY****
TOTAL RUN TIME: 0 days 0 hours 18 minutes 34 seconds 615 msec
