                         Program Version 3.0.3 - RELEASE   -
|  1> ! RI-MP2 RIJK def2-TZVP def2-TZVP/C def2-TZVP/JK TIGHTSCF
|  2> % maxcore 2000
|  3> % mp2 density relaxed end
|  4> *xyz 0 1
|  5>  C       -0.0115210129     1.5337838818     0.1291239548
|  6>  C       -0.0040149998     0.0505017012    -0.0076011349
|  7>  N       -0.0664883924    -0.5355672199    -1.1746796696
|  8>  O       -0.0328189351    -1.9178970919    -0.8486729273
|  9>  C        0.0456127595    -1.9663518591     0.4757128838
| 10>  N        0.0973334891    -3.1590442315     1.1421302043
| 11>  C        0.0818408954    -4.4555719628     0.6446904671
| 12>  N        0.0123542602    -4.7319399558    -0.5885924856
| 13>  N        0.0681541366    -0.8027382191     1.0688723264
| 14>  H        0.8985223152     1.8721892898     0.6334378867
| 15>  H       -0.0745137129     2.0034642763    -0.8533687881
| 16>  H       -0.8627101311     1.8536734800     0.7375400061
| 17>  H        0.1548376546    -3.0433323646     2.1415861477
| 18>  H        0.1378834299    -5.1753801351     1.4692876765
| 19>  H        0.0150456439    -5.7404241493    -0.7246255179
| 20> *
| 21>
| 22>                          ****END OF INPUT****

CARTESIAN COORDINATES (ANGSTROEM)
---------------------------------
  C     -0.011521    1.533784    0.129124
  C     -0.004015    0.050502   -0.007601
  N     -0.066488   -0.535567   -1.174680
  O     -0.032819   -1.917897   -0.848673
  C      0.045613   -1.966352    0.475713
  N      0.097333   -3.159044    1.142130
  C      0.081841   -4.455572    0.644690
  N      0.012354   -4.731940   -0.588592
  N      0.068154   -0.802738    1.068872
  H      0.898522    1.872189    0.633438
  H     -0.074514    2.003464   -0.853369
  H     -0.862710    1.853673    0.737540
  H      0.154838   -3.043332    2.141586
  H      0.137883   -5.175380    1.469288
  H      0.015046   -5.740424   -0.724626

 Total Charge           Charge          ....    0
 Multiplicity           Mult            ....    1
 Number of Electrons    NEL             ....   66
 Basis Dimension        Dim             ....  315

ORBITAL ENERGIES
----------------

  NO   OCC          E(Eh)            E(eV)
   0   2.0000     -20.644515      -561.7658
   1   2.0000     -15.631148      -425.3452
   2   2.0000     -15.608389      -424.7259
   3   2.0000     -15.559401      -423.3928
   4   2.0000     -15.555312      -423.2816
   5   2.0000     -11.398227      -310.1615
   6   2.0000     -11.344098      -308.6886
   7   2.0000     -11.312489      -307.8285
   8   2.0000     -11.238686      -305.8202
   9   2.0000      -1.512073       -41.1456
  10   2.0000      -1.318550       -35.8796
  11   2.0000      -1.253012       -34.0962
  12   2.0000      -1.203005       -32.7354
  13   2.0000      -1.135501       -30.8985
  14   2.0000      -0.996368       -27.1125
  15   2.0000      -0.919915       -25.0322
  16   2.0000      -0.838345       -22.8125
  17   2.0000      -0.782632       -21.2965
  18   2.0000      -0.760610       -20.6973
  19   2.0000      -0.696613       -18.9558
  20   2.0000      -0.690176       -18.7806
  21   2.0000      -0.658361       -17.9149
  22   2.0000      -0.637629       -17.3508
  23   2.0000      -0.591856       -16.1052
  24   2.0000      -0.566604       -15.4181
  25   2.0000      -0.564057       -15.3488
  26   2.0000      -0.553659       -15.0658
  27   2.0000      -0.518603       -14.1119
  28   2.0000      -0.463197       -12.6042
  29   2.0000      -0.459971       -12.5164
  30   2.0000      -0.447652       -12.1812
  31   2.0000      -0.429482       -11.6868
  32   2.0000      -0.359615        -9.7856
  33   0.0000       0.118175         3.2157
  34   0.0000       0.122090         3.3222
  35   0.0000       0.148065         4.0290
  36   0.0000       0.156584         4.2609
  37   0.0000       0.179066         4.8726

MULLIKEN ATOMIC CHARGES
-----------------------
   0 C :   -0.422020
   1 C :    0.185831
   2 N :   -0.152822
   3 O :   -0.075482
   4 C :    0.389246
   5 N :   -0.310531
   6 C :    0.040103
   7 N :   -0.359021
   8 N :   -0.353955
   9 H :    0.148770
  10 H :    0.158189
  11 H :    0.148777
  12 H :    0.267681
  13 H :    0.109172
  14 H :    0.226062
Sum of atomic charges:    0.0000000

LOEWDIN ATOMIC CHARGES
----------------------
   0 C :   -0.264449
   1 C :   -0.388337
   2 N :    0.049805
   3 O :    0.299048
   4 C :   -0.439761
   5 N :    0.143060
   6 C :   -0.341237
   7 N :   -0.072347
   8 N :    0.098958
   9 H :    0.138027
  10 H :    0.138780
  11 H :    0.138027
  12 H :    0.210754
  13 H :    0.120608
  14 H :    0.169064

  Mayer bond orders larger than 0.1
B(  0-C ,  1-C ) :   0.8657 B(  0-C ,  9-H ) :   0.9297 B(  0-C , 10-H ) :   0.9505
B(  0-C , 11-H ) :   0.9298 B(  1-C ,  2-N ) :   1.6554 B(  1-C ,  8-N ) :   1.2168
B(  2-N ,  3-O ) :   0.8341 B(  3-O ,  4-C ) :   1.2154 B(  4-C ,  5-N ) :   1.0586
B(  4-C ,  8-N ) :   1.5692 B(  5-N ,  6-C ) :   1.0100 B(  5-N , 12-H ) :   0.8609
B(  6-C ,  7-N ) :   1.9570 B(  6-C , 13-H ) :   0.9196 B(  7-N , 14-H ) :   0.8563

MP2 TOTAL ENERGY:     -449.392264089 Eh
FINAL SINGLE POINT ENERGY      -449.392264088741

DIPOLE MOMENT
-------------
                                X             Y             Z
Electronic contribution:     -0.04238      -3.05054      -1.26044
Nuclear contribution   :      0.13350       2.36897       2.68730
                        -----------------------------------------
Total Dipole Moment    :      0.09112      -0.68157       1.42687
                        -----------------------------------------
Magnitude (a.u.)       :      1.58392
Magnitude (Debye)      :      4.02600

                             ****ORCA TERMINATED NORMALLY****
TOTAL RUN TIME: 0 days 0 hours 13 minutes 46 seconds 820 msec
