                         Program Version 3.0.3 - RELEASE   -
|  1> ! RI-MP2 RIJK def2-TZVP def2-TZVP/C def2-TZVP/JK TIGHTSCF
|  2> % maxcore 2000
|  3> % mp2 density relaxed end
|  4> *xyz 0 1
|  5>  C        1.0693865692     0.6220476852    -1.8910308348
|  6>  C        1.4715315008    -0.6729749474    -1.2145146571
|  7>  O        2.9092589902    -0.9175486382    -1.1375241384
|  8>  C        2.7704737499    -1.3442416329     0.2227504005
|  9>  C        2.3782683303    -0.1946586319     1.1032730053
| 10>  C        2.9210594044     1.2087900723     0.9369187085
| 11>  O        4.0674603184     1.4121493720     1.7557509540
| 12>  C        1.3132004516    -0.9270341416     0.2898344554
| 13>  C        0.1078366766    -1.5716328887     0.9118765423
| 14>  H        1.4655052558     0.6498352415    -2.9115163861
| 15>  H       -0.0229849783     0.6767783805    -1.9556454164
| 16>  H        1.4257669503     1.5050993575    -1.3584386219
| 17>  H        1.0183653854    -1.5162757310    -1.7571717475
| 18>  H        3.2908525216    -2.2470211807     0.5247372549
| 19>  H        2.3103955599    -0.4823893361     2.1521915785
| 20>  H        3.1519461131     1.4038822076    -0.1163326313
| 21>  H        2.1877159461     1.9512028957     1.2692962960
| 22>  H        4.7521238950     0.8142770545     1.4378962485
| 23>  H       -0.7133464594    -0.8545182922     1.0314639101
| 24>  H       -0.2608053735    -2.4008238950     0.2969379943
| 25>  H        0.3385104423    -1.9696500011     1.9049811852
| 26> *
| 27>
| 28>                          ****END OF INPUT****

CARTESIAN COORDINATES (ANGSTROEM)
---------------------------------
  C      1.069387    0.622048   -1.891031
  C      1.471532   -0.672975   -1.214515
  O      2.909259   -0.917549   -1.137524
  C      2.770474   -1.344242    0.222750
  C      2.378268   -0.194659    1.103273
  C      2.921059    1.208790    0.936919
  O      4.067460    1.412149    1.755751
  C      1.313200   -0.927034    0.289834
  C      0.107837   -1.571633    0.911877
  H      1.465505    0.649835   -2.911516
  H     -0.022985    0.676778   -1.955645
  H      1.425767    1.505099   -1.358439
  H      1.018365   -1.516276   -1.757172
  H      3.290853   -2.247021    0.524737
  H      2.310396   -0.482389    2.152192
  H      3.151946    1.403882   -0.116333
  H      2.187716    1.951203    1.269296
  H      4.752124    0.814277    1.437896
  H     -0.713346   -0.854518    1.031464
  H     -0.260805   -2.400824    0.296938
  H      0.338510   -1.969650    1.904981

 Total Charge           Charge          ....    0
 Multiplicity           Mult            ....    1
 Number of Electrons    NEL             ....   70
 Basis Dimension        Dim             ....  351

ORBITAL ENERGIES
----------------

  NO   OCC          E(Eh)            E(eV)
   0   2.0000     -20.554826      -559.3253
   1   2.0000     -20.550704      -559.2131
   2   2.0000     -11.291842      -307.2666
   3   2.0000     -11.286459      -307.1202
   4   2.0000     -11.272597      -306.7430
   5   2.0000     -11.248260      -306.0807
   6   2.0000     -11.238130      -305.8051
   7   2.0000     -11.231109      -305.6140
   8   2.0000     -11.221752      -305.3594
   9   2.0000      -1.393141       -37.9093
  10   2.0000      -1.353911       -36.8418
  11   2.0000      -1.131578       -30.7918
  12   2.0000      -1.028679       -27.9918
  13   2.0000      -0.984985       -26.8028
  14   2.0000      -0.931330       -25.3428
  15   2.0000      -0.867639       -23.6097
  16   2.0000      -0.790397       -21.5078
  17   2.0000      -0.740150       -20.1405
  18   2.0000      -0.699099       -19.0235
  19   2.0000      -0.658537       -17.9197
  20   2.0000      -0.649494       -17.6736
  21   2.0000      -0.619035       -16.8448
  22   2.0000      -0.606346       -16.4995
  23   2.0000      -0.596723       -16.2377
  24   2.0000      -0.572122       -15.5682
  25   2.0000      -0.565019       -15.3749
  26   2.0000      -0.559376       -15.2214
  27   2.0000      -0.532818       -14.4987
  28   2.0000      -0.524381       -14.2691
  29   2.0000      -0.502487       -13.6734
  30   2.0000      -0.484422       -13.1818
  31   2.0000      -0.462120       -12.5749
  32   2.0000      -0.449310       -12.2264
  33   2.0000      -0.394295       -10.7293
  34   2.0000      -0.371616       -10.1122
  35   0.0000       0.129197         3.5156
  36   0.0000       0.147016         4.0005
  37   0.0000       0.156356         4.2547
  38   0.0000       0.173635         4.7248
  39   0.0000       0.184001         5.0069

MULLIKEN ATOMIC CHARGES
-----------------------
   0 C :   -0.390234
   1 C :    0.079571
   2 O :   -0.345828
   3 C :    0.069079
   4 C :   -0.229737
   5 C :   -0.029270
   6 O :   -0.471254
   7 C :    0.005475
   8 C :   -0.403652
   9 H :    0.143200
  10 H :    0.131966
  11 H :    0.128999
  12 H :    0.087551
  13 H :    0.134664
  14 H :    0.117892
  15 H :    0.129611
  16 H :    0.118165
  17 H :    0.317214
  18 H :    0.139060
  19 H :    0.132095
  20 H :    0.135433
Sum of atomic charges:    0.0000000

LOEWDIN ATOMIC CHARGES
----------------------
   0 C :   -0.291670
   1 C :   -0.255384
   2 O :    0.159845
   3 C :   -0.216674
   4 C :   -0.190349
   5 C :   -0.329142
   6 O :   -0.049924
   7 C :   -0.200762
   8 C :   -0.273243
   9 H :    0.131752
  10 H :    0.131064
  11 H :    0.124101
  12 H :    0.145690
  13 H :    0.130618
  14 H :    0.164815
  15 H :    0.123649
  16 H :    0.130508
  17 H :    0.175210
  18 H :    0.130094
  19 H :    0.128282
  20 H :    0.131521

  Mayer bond orders larger than 0.1
B(  0-C ,  1-C ) :   0.9298 B(  0-C ,  9-H ) :   0.9319 B(  0-C , 10-H ) :   0.9279
B(  0-C , 11-H ) :   0.9349 B(  1-C ,  2-O ) :   0.9053 B(  1-C ,  7-C ) :   0.9345
B(  1-C , 12-H ) :   0.9068 B(  2-O ,  3-C ) :   0.9561 B(  3-C ,  4-C ) :   0.8543
B(  3-C ,  7-C ) :   0.8777 B(  3-C , 13-H ) :   0.9130 B(  4-C ,  5-C ) :   0.9241
B(  4-C ,  7-C ) :   0.8278 B(  4-C , 14-H ) :   0.9328 B(  5-C ,  6-O ) :   0.9012
B(  5-C , 15-H ) :   0.9243 B(  5-C , 16-H ) :   0.9291 B(  6-O , 17-H ) :   0.8465
B(  7-C ,  8-C ) :   0.8906 B(  8-C , 18-H ) :   0.9385 B(  8-C , 19-H ) :   0.9365
B(  8-C , 20-H ) :   0.9334

MP2 TOTAL ENERGY:     -423.477720525 Eh
FINAL SINGLE POINT ENERGY      -423.477720524529

DIPOLE MOMENT
-------------
                                X             Y             Z
Electronic contribution:      5.64882      -0.79987       0.69363
Nuclear contribution   :     -6.36273       0.25882      -0.80146
                        -----------------------------------------
Total Dipole Moment    :     -0.71391      -0.54104      -0.10782
                        -----------------------------------------
Magnitude (a.u.)       :      0.90223
Magnitude (Debye)      :      2.29329

                             ****ORCA TERMINATED NORMALLY****
TOTAL RUN TIME: 0 days 0 hours 29 minutes 11 seconds 180 msec
