                         Program Version 3.0.3 - RELEASE   -
|  1> ! RI-MP2 RIJK def2-TZVP def2-TZVP/C def2-TZVP/JK TIGHTSCF
|  2> % maxcore 2000
|  3> % mp2 density relaxed end
|  4> *xyz 0 1
|  5>  C       -0.2034706363     2.0259656552     0.0727445554
|  6>  C       -0.0717049750     0.5002056987     0.1161327053
|  7>  C       -1.4063627292    -0.2609137324    -0.0282224627
|  8>  C       -1.9917382194    -0.1442924274    -1.4500825619
|  9>  C       -3.4404073024    -0.6218241964    -1.5922455535
| 10>  C       -1.2290766402    -1.7488954369     0.3640001421
| 11>  O       -0.2760395024    -2.3881297022    -0.4442078719
| 12>  C       -0.8643591651    -1.8991170812     1.8240475384
| 13>  O        0.1137810429    -2.5107448789     2.1830273540
| 14>  H        0.7697278088     2.5014739839     0.2291734492
| 15>  H       -0.5882044277     2.3827894725    -0.8872240464
| 16>  H       -0.8787873868     2.3890835836     0.8560410146
| 17>  H        0.6131109651     0.1565522516    -0.6663853445
| 18>  H        0.4018131740     0.2219345255     1.0666170089
| 19>  H       -2.1328858906     0.1694173532     0.6794364285
| 20>  H       -1.9397023786     0.9034207129    -1.7644999916
| 21>  H       -1.3443143634    -0.7057743799    -2.1333997581
| 22>  H       -3.5482846780    -1.6904409825    -1.3806462857
| 23>  H       -4.1082292824    -0.0780607133    -0.9141445320
| 24>  H       -3.8018715114    -0.4593036347    -2.6123271096
| 25>  H       -2.2106031061    -2.2489709256     0.2628111728
| 26>  H        0.3624198223    -2.7853973484     0.1688659709
| 27>  H       -1.5553081081    -1.4252437571     2.5520808677
| 28> *
| 29>
| 30>                          ****END OF INPUT****

CARTESIAN COORDINATES (ANGSTROEM)
---------------------------------
  C     -0.203471    2.025966    0.072745
  C     -0.071705    0.500206    0.116133
  C     -1.406363   -0.260914   -0.028222
  C     -1.991738   -0.144292   -1.450083
  C     -3.440407   -0.621824   -1.592246
  C     -1.229077   -1.748895    0.364000
  O     -0.276040   -2.388130   -0.444208
  C     -0.864359   -1.899117    1.824048
  O      0.113781   -2.510745    2.183027
  H      0.769728    2.501474    0.229173
  H     -0.588204    2.382789   -0.887224
  H     -0.878787    2.389084    0.856041
  H      0.613111    0.156552   -0.666385
  H      0.401813    0.221935    1.066617
  H     -2.132886    0.169417    0.679436
  H     -1.939702    0.903421   -1.764500
  H     -1.344314   -0.705774   -2.133400
  H     -3.548285   -1.690441   -1.380646
  H     -4.108229   -0.078061   -0.914145
  H     -3.801872   -0.459304   -2.612327
  H     -2.210603   -2.248971    0.262811
  H      0.362420   -2.785397    0.168866
  H     -1.555308   -1.425244    2.552081

 Total Charge           Charge          ....    0
 Multiplicity           Mult            ....    1
 Number of Electrons    NEL             ....   72
 Basis Dimension        Dim             ....  363

ORBITAL ENERGIES
----------------

  NO   OCC          E(Eh)            E(eV)
   0   2.0000     -20.575070      -559.8761
   1   2.0000     -20.558051      -559.4130
   2   2.0000     -11.344864      -308.7094
   3   2.0000     -11.295793      -307.3742
   4   2.0000     -11.241939      -305.9087
   5   2.0000     -11.224789      -305.4420
   6   2.0000     -11.223412      -305.4046
   7   2.0000     -11.218776      -305.2784
   8   2.0000     -11.218275      -305.2648
   9   2.0000      -1.421226       -38.6735
  10   2.0000      -1.364850       -37.1395
  11   2.0000      -1.106371       -30.1059
  12   2.0000      -1.019900       -27.7529
  13   2.0000      -1.000101       -27.2141
  14   2.0000      -0.911792       -24.8111
  15   2.0000      -0.842510       -22.9259
  16   2.0000      -0.811792       -22.0900
  17   2.0000      -0.769764       -20.9463
  18   2.0000      -0.730308       -19.8727
  19   2.0000      -0.679096       -18.4791
  20   2.0000      -0.654000       -17.7962
  21   2.0000      -0.631254       -17.1773
  22   2.0000      -0.620353       -16.8807
  23   2.0000      -0.595686       -16.2094
  24   2.0000      -0.573684       -15.6107
  25   2.0000      -0.549693       -14.9579
  26   2.0000      -0.545937       -14.8557
  27   2.0000      -0.543655       -14.7936
  28   2.0000      -0.525269       -14.2933
  29   2.0000      -0.510455       -13.8902
  30   2.0000      -0.499422       -13.5900
  31   2.0000      -0.490853       -13.3568
  32   2.0000      -0.470566       -12.8047
  33   2.0000      -0.464927       -12.6513
  34   2.0000      -0.432022       -11.7559
  35   2.0000      -0.430517       -11.7150
  36   0.0000       0.120709         3.2847
  37   0.0000       0.132538         3.6065
  38   0.0000       0.148119         4.0305
  39   0.0000       0.155495         4.2312
  40   0.0000       0.167506         4.5581

MULLIKEN ATOMIC CHARGES
-----------------------
   0 C :   -0.402235
   1 C :   -0.232373
   2 C :   -0.035548
   3 C :   -0.225058
   4 C :   -0.420566
   5 C :    0.084846
   6 O :   -0.489663
   7 C :    0.102722
   8 O :   -0.295346
   9 H :    0.139280
  10 H :    0.127480
  11 H :    0.120529
  12 H :    0.131932
  13 H :    0.115292
  14 H :    0.088070
  15 H :    0.113268
  16 H :    0.139360
  17 H :    0.131789
  18 H :    0.122152
  19 H :    0.139233
  20 H :    0.113424
  21 H :    0.332091
  22 H :    0.099319
Sum of atomic charges:    0.0000000

LOEWDIN ATOMIC CHARGES
----------------------
   0 C :   -0.318493
   1 C :   -0.266911
   2 C :   -0.240538
   3 C :   -0.266126
   4 C :   -0.319398
   5 C :   -0.347644
   6 O :    0.002747
   7 C :   -0.276071
   8 O :    0.125254
   9 H :    0.123186
  10 H :    0.118299
  11 H :    0.120037
  12 H :    0.144392
  13 H :    0.140363
  14 H :    0.155743
  15 H :    0.138288
  16 H :    0.146246
  17 H :    0.118826
  18 H :    0.119893
  19 H :    0.123656
  20 H :    0.155005
  21 H :    0.182747
  22 H :    0.120500

  Mayer bond orders larger than 0.1
B(  0-C ,  1-C ) :   0.9109 B(  0-C ,  9-H ) :   0.9442 B(  0-C , 10-H ) :   0.9401
B(  0-C , 11-H ) :   0.9364 B(  1-C ,  2-C ) :   0.8843 B(  1-C , 12-H ) :   0.9314
B(  1-C , 13-H ) :   0.9335 B(  2-C ,  3-C ) :   0.9086 B(  2-C ,  5-C ) :   0.8333
B(  2-C , 14-H ) :   0.9236 B(  3-C ,  4-C ) :   0.9101 B(  3-C , 15-H ) :   0.9375
B(  3-C , 16-H ) :   0.9286 B(  4-C , 17-H ) :   0.9420 B(  4-C , 18-H ) :   0.9362
B(  4-C , 19-H ) :   0.9414 B(  5-C ,  6-O ) :   1.0795 B(  5-C ,  7-C ) :   0.8666
B(  5-C , 20-H ) :   0.9334 B(  6-O , 21-H ) :   0.8068 B(  7-C ,  8-O ) :   1.9201
B(  7-C , 22-H ) :   0.9373

MP2 TOTAL ENERGY:     -424.739834203 Eh
FINAL SINGLE POINT ENERGY      -424.739834202546

DIPOLE MOMENT
-------------
                                X             Y             Z
Electronic contribution:      4.58760      -9.31670       5.85645
Nuclear contribution   :     -5.25027       9.90354      -5.74446
                        -----------------------------------------
Total Dipole Moment    :     -0.66267       0.58684       0.11199
                        -----------------------------------------
Magnitude (a.u.)       :      0.89222
Magnitude (Debye)      :      2.26784

                             ****ORCA TERMINATED NORMALLY****
TOTAL RUN TIME: 0 days 0 hours 19 minutes 55 seconds 232 msec
