                         Program Version 3.0.3 - RELEASE   -
|  1> ! RI-MP2 RIJK def2-TZVP def2-TZVP/C def2-TZVP/JK TIGHTSCF
|  2> % maxcore 2000
|  3> % mp2 density relaxed end
|  4> *xyz 0 1
|  5>  C        0.0241202997     1.6284786266     0.2676130473
|  6>  C       -0.0057451944     0.0898811268     0.1088757985
|  7>  C       -1.4640330015    -0.3444990120     0.1985788034
|  8>  O       -2.1154553144    -0.8018278831    -0.7019503690
|  9>  C        0.6741514521    -0.3911837592    -1.1608447513
| 10>  C        1.6798536521    -1.2336439202    -0.9173481044
| 11>  C        1.8525436227    -1.4227555758     0.5537857842
| 12>  O        2.1845355545    -0.1942926810     1.2556966420
| 13>  C        0.8216502132    -0.6047810358     1.2080226600
| 14>  H        1.0609643927     1.9547231200     0.3707347412
| 15>  H       -0.4216055009     2.1186769286    -0.6026429662
| 16>  H       -0.5299737382     1.9451977540     1.1580054877
| 17>  H       -1.9146639229    -0.1701089320     1.2056969885
| 18>  H        0.3621417864    -0.0385024963    -2.1363135274
| 19>  H        2.3137676043    -1.7019222138    -1.6596305287
| 20>  H        2.2790024891    -2.3227010929     0.9850359989
| 21>  H        0.3664802055    -0.8474322438     2.1659644953
| 22> *
| 23>
| 24>                          ****END OF INPUT****

CARTESIAN COORDINATES (ANGSTROEM)
---------------------------------
  C      0.024120    1.628479    0.267613
  C     -0.005745    0.089881    0.108876
  C     -1.464033   -0.344499    0.198579
  O     -2.115455   -0.801828   -0.701950
  C      0.674151   -0.391184   -1.160845
  C      1.679854   -1.233644   -0.917348
  C      1.852544   -1.422756    0.553786
  O      2.184536   -0.194293    1.255697
  C      0.821650   -0.604781    1.208023
  H      1.060964    1.954723    0.370735
  H     -0.421606    2.118677   -0.602643
  H     -0.529974    1.945198    1.158005
  H     -1.914664   -0.170109    1.205697
  H      0.362142   -0.038502   -2.136314
  H      2.313768   -1.701922   -1.659631
  H      2.279002   -2.322701    0.985036
  H      0.366480   -0.847432    2.165964

 Total Charge           Charge          ....    0
 Multiplicity           Mult            ....    1
 Number of Electrons    NEL             ....   66
 Basis Dimension        Dim             ....  327

ORBITAL ENERGIES
----------------

  NO   OCC          E(Eh)            E(eV)
   0   2.0000     -20.577888      -559.9528
   1   2.0000     -20.567549      -559.6714
   2   2.0000     -11.341133      -308.6079
   3   2.0000     -11.300697      -307.5076
   4   2.0000     -11.299235      -307.4678
   5   2.0000     -11.268653      -306.6356
   6   2.0000     -11.247093      -306.0490
   7   2.0000     -11.241670      -305.9014
   8   2.0000     -11.238566      -305.8169
   9   2.0000      -1.422354       -38.7042
  10   2.0000      -1.406950       -38.2850
  11   2.0000      -1.139828       -31.0163
  12   2.0000      -1.045020       -28.4365
  13   2.0000      -0.938517       -25.5383
  14   2.0000      -0.910815       -24.7845
  15   2.0000      -0.857140       -23.3240
  16   2.0000      -0.794791       -21.6274
  17   2.0000      -0.757253       -20.6059
  18   2.0000      -0.721457       -19.6318
  19   2.0000      -0.669465       -18.2171
  20   2.0000      -0.647543       -17.6205
  21   2.0000      -0.632600       -17.2139
  22   2.0000      -0.594504       -16.1773
  23   2.0000      -0.582499       -15.8506
  24   2.0000      -0.570192       -15.5157
  25   2.0000      -0.558716       -15.2034
  26   2.0000      -0.542424       -14.7601
  27   2.0000      -0.519021       -14.1233
  28   2.0000      -0.511488       -13.9183
  29   2.0000      -0.468089       -12.7374
  30   2.0000      -0.434435       -11.8216
  31   2.0000      -0.425357       -11.5746
  32   2.0000      -0.366750        -9.9798
  33   0.0000       0.117883         3.2078
  34   0.0000       0.122833         3.3424
  35   0.0000       0.141748         3.8572
  36   0.0000       0.162095         4.4108
  37   0.0000       0.167646         4.5619

MULLIKEN ATOMIC CHARGES
-----------------------
   0 C :   -0.439027
   1 C :    0.267585
   2 C :    0.032379
   3 O :   -0.245207
   4 C :   -0.217683
   5 C :   -0.171075
   6 C :    0.049681
   7 O :   -0.325496
   8 C :   -0.037490
   9 H :    0.167143
  10 H :    0.146432
  11 H :    0.136002
  12 H :    0.084549
  13 H :    0.137770
  14 H :    0.141996
  15 H :    0.130208
  16 H :    0.142233
Sum of atomic charges:   -0.0000000

LOEWDIN ATOMIC CHARGES
----------------------
   0 C :   -0.246929
   1 C :   -0.262695
   2 C :   -0.247725
   3 O :    0.152127
   4 C :   -0.080446
   5 C :   -0.130210
   6 C :   -0.224194
   7 O :    0.172345
   8 C :   -0.214155
   9 H :    0.138320
  10 H :    0.130754
  11 H :    0.129358
  12 H :    0.117285
  13 H :    0.146564
  14 H :    0.141917
  15 H :    0.138038
  16 H :    0.139647

  Mayer bond orders larger than 0.1
B(  0-C ,  1-C ) :   0.8751 B(  0-C ,  9-H ) :   0.9247 B(  0-C , 10-H ) :   0.9315
B(  0-C , 11-H ) :   0.9231 B(  1-C ,  2-C ) :   0.8089 B(  1-C ,  3-O ) :  -0.1007
B(  1-C ,  4-C ) :   0.8621 B(  1-C ,  8-C ) :   0.8788 B(  2-C ,  3-O ) :   2.0371
B(  2-C , 12-H ) :   0.9450 B(  4-C ,  5-C ) :   1.7716 B(  4-C , 13-H ) :   0.9160
B(  5-C ,  6-C ) :   0.9197 B(  5-C , 14-H ) :   0.9252 B(  6-C ,  7-O ) :   0.8961
B(  6-C ,  8-C ) :   0.9791 B(  6-C , 15-H ) :   0.9315 B(  7-O ,  8-C ) :   0.9228
B(  8-C , 16-H ) :   0.9081

MP2 TOTAL ENERGY:     -421.104737572 Eh
FINAL SINGLE POINT ENERGY      -421.104737572500

DIPOLE MOMENT
-------------
                                X             Y             Z
Electronic contribution:     -0.21814      -3.40704      -0.28087
Nuclear contribution   :      0.40571       3.43630       0.58581
                        -----------------------------------------
Total Dipole Moment    :      0.18758       0.02926       0.30494
                        -----------------------------------------
Magnitude (a.u.)       :      0.35921
Magnitude (Debye)      :      0.91303

                             ****ORCA TERMINATED NORMALLY****
TOTAL RUN TIME: 0 days 0 hours 18 minutes 39 seconds 119 msec
