                         Program Version 3.0.3 - RELEASE   -
|  1> ! RI-MP2 RIJK def2-TZVP def2-TZVP/C def2-TZVP/JK TIGHTSCF
|  2> % maxcore 2000
|  3> % mp2 density relaxed end
|  4> *xyz 0 1
|  5>  C        0.1009603098     1.4249674989    -0.1835997422
|  6>  C        0.0317385676    -0.0284279367    -0.1140022136
|  7>  C        0.0066485995    -1.2330245877    -0.0707623608
|  8>  C       -0.1005264881    -2.6868872760     0.0116830175
|  9>  C       -1.5686993484    -3.1423761707     0.1592394516
| 10>  O       -2.1482189612    -2.5697535361     1.3072928889
| 11>  C       -2.3776006696    -3.0503608514    -1.1726004597
| 12>  C       -2.1284424671    -4.5685594568    -1.3862878101
| 13>  C       -1.7292926898    -4.6807547343     0.1110829755
| 14>  H        0.9023314021     1.7496192163    -0.8564169918
| 15>  H       -0.8362806518     1.8519726919    -0.5569864838
| 16>  H        0.2969254960     1.8641476245     0.8007093996
| 17>  H        0.3467324166    -3.1519795836    -0.8754853596
| 18>  H        0.4604366300    -3.0541702913     0.8806200049
| 19>  H       -1.9390601140    -1.6264461228     1.2938071808
| 20>  H       -3.4259948144    -2.8355899858    -0.9519309235
| 21>  H       -2.0199807334    -2.3530152647    -1.9345205133
| 22>  H       -2.9781877545    -5.1686822278    -1.7165329256
| 23>  H       -1.2893045815    -4.7651882551    -2.0589277802
| 24>  H       -0.8564349849    -5.2858673837     0.3718947835
| 25>  H       -2.5705389930    -4.9809785373     0.7400743821
| 26> *
| 27>
| 28>                          ****END OF INPUT****

CARTESIAN COORDINATES (ANGSTROEM)
---------------------------------
  C      0.100960    1.424967   -0.183600
  C      0.031739   -0.028428   -0.114002
  C      0.006649   -1.233025   -0.070762
  C     -0.100526   -2.686887    0.011683
  C     -1.568699   -3.142376    0.159239
  O     -2.148219   -2.569754    1.307293
  C     -2.377601   -3.050361   -1.172600
  C     -2.128442   -4.568559   -1.386288
  C     -1.729293   -4.680755    0.111083
  H      0.902331    1.749619   -0.856417
  H     -0.836281    1.851973   -0.556986
  H      0.296925    1.864148    0.800709
  H      0.346732   -3.151980   -0.875485
  H      0.460437   -3.054170    0.880620
  H     -1.939060   -1.626446    1.293807
  H     -3.425995   -2.835590   -0.951931
  H     -2.019981   -2.353015   -1.934521
  H     -2.978188   -5.168682   -1.716533
  H     -1.289305   -4.765188   -2.058928
  H     -0.856435   -5.285867    0.371895
  H     -2.570539   -4.980979    0.740074

 Total Charge           Charge          ....    0
 Multiplicity           Mult            ....    1
 Number of Electrons    NEL             ....   68
 Basis Dimension        Dim             ....  351

ORBITAL ENERGIES
----------------

  NO   OCC          E(Eh)            E(eV)
   0   2.0000     -20.547952      -559.1382
   1   2.0000     -11.285756      -307.1010
   2   2.0000     -11.250663      -306.1461
   3   2.0000     -11.248772      -306.0947
   4   2.0000     -11.229394      -305.5673
   5   2.0000     -11.223605      -305.4098
   6   2.0000     -11.221035      -305.3399
   7   2.0000     -11.217013      -305.2305
   8   2.0000     -11.215026      -305.1764
   9   2.0000      -1.361301       -37.0429
  10   2.0000      -1.125452       -30.6251
  11   2.0000      -1.070902       -29.1407
  12   2.0000      -1.014072       -27.5943
  13   2.0000      -0.935106       -25.4455
  14   2.0000      -0.901798       -24.5392
  15   2.0000      -0.856792       -23.3145
  16   2.0000      -0.739911       -20.1340
  17   2.0000      -0.693038       -18.8585
  18   2.0000      -0.664649       -18.0860
  19   2.0000      -0.649667       -17.6783
  20   2.0000      -0.628240       -17.0953
  21   2.0000      -0.613285       -16.6883
  22   2.0000      -0.591426       -16.0935
  23   2.0000      -0.589461       -16.0401
  24   2.0000      -0.580821       -15.8049
  25   2.0000      -0.559056       -15.2127
  26   2.0000      -0.529024       -14.3955
  27   2.0000      -0.502852       -13.6833
  28   2.0000      -0.474436       -12.9100
  29   2.0000      -0.463996       -12.6260
  30   2.0000      -0.441505       -12.0140
  31   2.0000      -0.414140       -11.2693
  32   2.0000      -0.374022       -10.1776
  33   2.0000      -0.370074       -10.0702
  34   0.0000       0.126635         3.4459
  35   0.0000       0.141836         3.8596
  36   0.0000       0.165436         4.5017
  37   0.0000       0.174279         4.7424
  38   0.0000       0.181942         4.9509

MULLIKEN ATOMIC CHARGES
-----------------------
   0 C :   -0.481467
   1 C :    0.046501
   2 C :   -0.072978
   3 C :   -0.383806
   4 C :    0.291024
   5 O :   -0.464911
   6 C :   -0.258644
   7 C :   -0.257523
   8 C :   -0.236199
   9 H :    0.164041
  10 H :    0.162832
  11 H :    0.163620
  12 H :    0.149477
  13 H :    0.146066
  14 H :    0.321017
  15 H :    0.115459
  16 H :    0.120791
  17 H :    0.118189
  18 H :    0.118677
  19 H :    0.112224
  20 H :    0.125610
Sum of atomic charges:    0.0000000

LOEWDIN ATOMIC CHARGES
----------------------
   0 C :   -0.295147
   1 C :   -0.111151
   2 C :   -0.096001
   3 C :   -0.218447
   4 C :   -0.360197
   5 O :    0.015122
   6 C :   -0.207010
   7 C :   -0.244169
   8 C :   -0.200349
   9 H :    0.142327
  10 H :    0.140793
  11 H :    0.140922
  12 H :    0.161843
  13 H :    0.160689
  14 H :    0.181150
  15 H :    0.138523
  16 H :    0.127837
  17 H :    0.124057
  18 H :    0.129561
  19 H :    0.126472
  20 H :    0.143175

  Mayer bond orders larger than 0.1
B(  0-C ,  1-C ) :   0.8594 B(  0-C ,  9-H ) :   0.9469 B(  0-C , 10-H ) :   0.9452
B(  0-C , 11-H ) :   0.9479 B(  1-C ,  2-C ) :   2.6876 B(  2-C ,  3-C ) :   1.0366
B(  3-C ,  4-C ) :   0.9148 B(  3-C , 12-H ) :   0.9320 B(  3-C , 13-H ) :   0.9167
B(  4-C ,  5-O ) :   1.0157 B(  4-C ,  6-C ) :   0.8899 B(  4-C ,  8-C ) :   0.8658
B(  5-O , 14-H ) :   0.8286 B(  6-C ,  7-C ) :   0.9431 B(  6-C , 15-H ) :   0.9185
B(  6-C , 16-H ) :   0.9231 B(  7-C ,  8-C ) :   0.9419 B(  7-C , 17-H ) :   0.9274
B(  7-C , 18-H ) :   0.9289 B(  8-C , 19-H ) :   0.9264 B(  8-C , 20-H ) :   0.9184

MP2 TOTAL ENERGY:     -386.379006353 Eh
FINAL SINGLE POINT ENERGY      -386.379006353495

DIPOLE MOMENT
-------------
                                X             Y             Z
Electronic contribution:      0.54528       0.66874       2.68840
Nuclear contribution   :     -0.22198      -0.21828      -3.11310
                        -----------------------------------------
Total Dipole Moment    :      0.32331       0.45047      -0.42470
                        -----------------------------------------
Magnitude (a.u.)       :      0.69844
Magnitude (Debye)      :      1.77529

                             ****ORCA TERMINATED NORMALLY****
TOTAL RUN TIME: 0 days 0 hours 21 minutes 51 seconds 258 msec
