                         Program Version 3.0.3 - RELEASE   -
|  1> ! RI-MP2 RIJK def2-TZVP def2-TZVP/C def2-TZVP/JK TIGHTSCF
|  2> % maxcore 2000
|  3> % mp2 density relaxed end
|  4> *xyz 0 1
|  5>  N       -0.0507388990    -1.0919088637    -0.0044791741
|  6>  C       -0.0069494158     0.0613672362     0.0023590787
|  7>  C       -0.0044363760     1.5239673830     0.0116633601
|  8>  O        1.3487105210     1.9663050187    -0.0010653399
|  9>  C        1.5017033856     3.3024343768     0.0057031577
| 10>  N        0.4924831469     4.1663013850     0.0228554648
| 11>  N        1.1260562699     5.3428592409     0.0230836365
| 12>  N        2.4464821482     5.3028906837     0.0076020595
| 13>  C        2.7240938149     4.0002639045    -0.0039183460
| 14>  H       -0.5453630210     1.9033720184    -0.8637089894
| 15>  H       -0.5250489861     1.8920930670     0.9040039032
| 16>  H        0.6193898195     6.2123219236     0.0344760169
| 17>  H        3.7344354320     3.6287096759    -0.0179299479
| 18> *
| 19>
| 20>                          ****END OF INPUT****

CARTESIAN COORDINATES (ANGSTROEM)
---------------------------------
  N     -0.050739   -1.091909   -0.004479
  C     -0.006949    0.061367    0.002359
  C     -0.004436    1.523967    0.011663
  O      1.348711    1.966305   -0.001065
  C      1.501703    3.302434    0.005703
  N      0.492483    4.166301    0.022855
  N      1.126056    5.342859    0.023084
  N      2.446482    5.302891    0.007602
  C      2.724094    4.000264   -0.003918
  H     -0.545363    1.903372   -0.863709
  H     -0.525049    1.892093    0.904004
  H      0.619390    6.212322    0.034476
  H      3.734435    3.628710   -0.017930

 Total Charge           Charge          ....    0
 Multiplicity           Mult            ....    1
 Number of Electrons    NEL             ....   64
 Basis Dimension        Dim             ....  303

ORBITAL ENERGIES
----------------

  NO   OCC          E(Eh)            E(eV)
   0   2.0000     -20.632622      -561.4422
   1   2.0000     -15.692920      -427.0261
   2   2.0000     -15.642168      -425.6450
   3   2.0000     -15.627246      -425.2390
   4   2.0000     -15.588108      -424.1740
   5   2.0000     -11.357303      -309.0479
   6   2.0000     -11.350384      -308.8596
   7   2.0000     -11.287244      -307.1415
   8   2.0000     -11.279885      -306.9413
   9   2.0000      -1.483306       -40.3628
  10   2.0000      -1.446928       -39.3729
  11   2.0000      -1.233563       -33.5670
  12   2.0000      -1.212422       -32.9917
  13   2.0000      -1.123400       -30.5693
  14   2.0000      -1.039130       -28.2762
  15   2.0000      -0.884295       -24.0629
  16   2.0000      -0.848501       -23.0889
  17   2.0000      -0.790746       -21.5173
  18   2.0000      -0.721820       -19.6417
  19   2.0000      -0.721581       -19.6352
  20   2.0000      -0.719620       -19.5818
  21   2.0000      -0.664575       -18.0840
  22   2.0000      -0.643007       -17.4971
  23   2.0000      -0.600238       -16.3333
  24   2.0000      -0.567256       -15.4358
  25   2.0000      -0.561786       -15.2870
  26   2.0000      -0.525543       -14.3007
  27   2.0000      -0.496661       -13.5148
  28   2.0000      -0.483417       -13.1544
  29   2.0000      -0.473318       -12.8796
  30   2.0000      -0.421059       -11.4576
  31   2.0000      -0.373606       -10.1663
  32   0.0000       0.117610         3.2003
  33   0.0000       0.125167         3.4060
  34   0.0000       0.129789         3.5317
  35   0.0000       0.149847         4.0775
  36   0.0000       0.169690         4.6175

MULLIKEN ATOMIC CHARGES
-----------------------
   0 N :   -0.046899
   1 C :   -0.139194
   2 C :    0.020149
   3 O :   -0.256043
   4 C :    0.218650
   5 N :   -0.224393
   6 N :   -0.025146
   7 N :   -0.175082
   8 C :   -0.124305
   9 H :    0.161414
  10 H :    0.161416
  11 H :    0.273938
  12 H :    0.155495
Sum of atomic charges:   -0.0000000

LOEWDIN ATOMIC CHARGES
----------------------
   0 N :    0.080915
   1 C :   -0.177590
   2 C :   -0.272196
   3 O :    0.264667
   4 C :   -0.407503
   5 N :    0.027244
   6 N :    0.060787
   7 N :    0.028398
   8 C :   -0.246936
   9 H :    0.154605
  10 H :    0.154606
  11 H :    0.190158
  12 H :    0.142845

  Mayer bond orders larger than 0.1
B(  0-N ,  1-C ) :   2.8520 B(  1-C ,  2-C ) :   0.9157 B(  2-C ,  3-O ) :   0.8855
B(  2-C ,  9-H ) :   0.9063 B(  2-C , 10-H ) :   0.9063 B(  3-O ,  4-C ) :   1.0689
B(  4-C ,  5-N ) :   1.4285 B(  4-C ,  8-C ) :   1.3110 B(  5-N ,  6-N ) :   1.0841
B(  6-N ,  7-N ) :   1.1537 B(  6-N , 11-H ) :   0.8757 B(  7-N ,  8-C ) :   1.4791
B(  8-C , 12-H ) :   0.9322

MP2 TOTAL ENERGY:     -448.186895366 Eh
FINAL SINGLE POINT ENERGY      -448.186895366284

DIPOLE MOMENT
-------------
                                X             Y             Z
Electronic contribution:      0.48091      -0.88523      -0.01116
Nuclear contribution   :     -0.90010       2.38976       0.02557
                        -----------------------------------------
Total Dipole Moment    :     -0.41919       1.50453       0.01441
                        -----------------------------------------
Magnitude (a.u.)       :      1.56190
Magnitude (Debye)      :      3.97003

                             ****ORCA TERMINATED NORMALLY****
TOTAL RUN TIME: 0 days 0 hours 12 minutes 57 seconds 931 msec
