                         Program Version 3.0.3 - RELEASE   -
|  1> ! RI-MP2 RIJK def2-TZVP def2-TZVP/C def2-TZVP/JK TIGHTSCF
|  2> % maxcore 2000
|  3> % mp2 density relaxed end
|  4> *xyz 0 1
|  5>  C       -0.1512141453     1.5220164342    -0.0711719703
|  6>  C       -0.0085416649    -0.0020317482     0.0084604662
|  7>  C        0.7210667114    -0.5630920184    -1.2188340088
|  8>  C        0.7213574600    -0.4469728356     1.2900910755
|  9>  N        0.0382785998    -0.0845185357     2.5346629950
| 10>  C       -1.0763398363    -0.8553049973     2.8900896341
| 11>  N       -1.8722462244    -0.5844788329     3.8378282759
| 12>  C        0.5438217495     0.9686567815     3.2973977340
| 13>  O        0.1046665586     1.3906793112     4.3317465613
| 14>  H        0.8319260295     2.0059443706    -0.1184548326
| 15>  H       -0.7051315446     1.8118877775    -0.9692201357
| 16>  H       -0.6856749589     1.9255599534     0.7934490170
| 17>  H       -1.0165299676    -0.4392944886     0.0366907298
| 18>  H        1.7387345148    -0.1606759813    -1.2888802046
| 19>  H        0.7960051251    -1.6552005813    -1.1807407671
| 20>  H        0.1967886968    -0.2953353035    -2.1408474665
| 21>  H        0.8656262853    -1.5338013855     1.2748568719
| 22>  H        1.7209806311    -0.0008156737     1.3151522633
| 23>  H       -1.1597664264    -1.7306703832     2.2330377038
| 24>  H       -2.5814844504    -1.3140815510     3.9014356841
| 25>  H        1.4532890969     1.3821577679     2.8161420536
| 26> *
| 27>
| 28>                          ****END OF INPUT****

CARTESIAN COORDINATES (ANGSTROEM)
---------------------------------
  C     -0.151214    1.522016   -0.071172
  C     -0.008542   -0.002032    0.008460
  C      0.721067   -0.563092   -1.218834
  C      0.721357   -0.446973    1.290091
  N      0.038279   -0.084519    2.534663
  C     -1.076340   -0.855305    2.890090
  N     -1.872246   -0.584479    3.837828
  C      0.543822    0.968657    3.297398
  O      0.104667    1.390679    4.331747
  H      0.831926    2.005944   -0.118455
  H     -0.705132    1.811888   -0.969220
  H     -0.685675    1.925560    0.793449
  H     -1.016530   -0.439294    0.036691
  H      1.738735   -0.160676   -1.288880
  H      0.796005   -1.655201   -1.180741
  H      0.196789   -0.295335   -2.140847
  H      0.865626   -1.533801    1.274857
  H      1.720981   -0.000816    1.315152
  H     -1.159766   -1.730670    2.233038
  H     -2.581484   -1.314082    3.901436
  H      1.453289    1.382158    2.816142

 Total Charge           Charge          ....    0
 Multiplicity           Mult            ....    1
 Number of Electrons    NEL             ....   70
 Basis Dimension        Dim             ....  351

ORBITAL ENERGIES
----------------

  NO   OCC          E(Eh)            E(eV)
   0   2.0000     -20.532964      -558.7303
   1   2.0000     -15.607851      -424.7112
   2   2.0000     -15.543164      -422.9510
   3   2.0000     -11.354320      -308.9668
   4   2.0000     -11.323139      -308.1183
   5   2.0000     -11.286741      -307.1278
   6   2.0000     -11.250135      -306.1317
   7   2.0000     -11.232663      -305.6563
   8   2.0000     -11.227675      -305.5206
   9   2.0000      -1.394128       -37.9361
  10   2.0000      -1.287507       -35.0349
  11   2.0000      -1.188933       -32.3525
  12   2.0000      -1.095370       -29.8065
  13   2.0000      -0.953445       -25.9446
  14   2.0000      -0.946054       -25.7434
  15   2.0000      -0.919868       -25.0309
  16   2.0000      -0.802041       -21.8246
  17   2.0000      -0.756952       -20.5977
  18   2.0000      -0.722040       -19.6477
  19   2.0000      -0.666907       -18.1475
  20   2.0000      -0.656142       -17.8545
  21   2.0000      -0.647934       -17.6312
  22   2.0000      -0.633737       -17.2449
  23   2.0000      -0.609858       -16.5951
  24   2.0000      -0.572697       -15.5839
  25   2.0000      -0.570394       -15.5212
  26   2.0000      -0.555870       -15.1260
  27   2.0000      -0.546298       -14.8655
  28   2.0000      -0.507975       -13.8227
  29   2.0000      -0.494486       -13.4556
  30   2.0000      -0.488255       -13.2861
  31   2.0000      -0.474875       -12.9220
  32   2.0000      -0.462073       -12.5737
  33   2.0000      -0.407805       -11.0969
  34   2.0000      -0.371606       -10.1119
  35   0.0000       0.116690         3.1753
  36   0.0000       0.126651         3.4464
  37   0.0000       0.138745         3.7755
  38   0.0000       0.151238         4.1154
  39   0.0000       0.158300         4.3076

MULLIKEN ATOMIC CHARGES
-----------------------
   0 C :   -0.433163
   1 C :    0.004851
   2 C :   -0.398419
   3 C :   -0.284697
   4 N :   -0.020930
   5 C :   -0.034950
   6 N :   -0.314726
   7 C :    0.122083
   8 O :   -0.260951
   9 H :    0.121961
  10 H :    0.140301
  11 H :    0.159819
  12 H :    0.094096
  13 H :    0.127291
  14 H :    0.131932
  15 H :    0.140673
  16 H :    0.150451
  17 H :    0.147440
  18 H :    0.103726
  19 H :    0.221221
  20 H :    0.081992
Sum of atomic charges:    0.0000000

LOEWDIN ATOMIC CHARGES
----------------------
   0 C :   -0.292926
   1 C :   -0.313251
   2 C :   -0.292168
   3 C :   -0.244089
   4 N :    0.179640
   5 C :   -0.317650
   6 N :   -0.054039
   7 C :   -0.387966
   8 O :    0.128507
   9 H :    0.124424
  10 H :    0.126988
  11 H :    0.129256
  12 H :    0.151282
  13 H :    0.125215
  14 H :    0.123480
  15 H :    0.127166
  16 H :    0.139615
  17 H :    0.143390
  18 H :    0.122480
  19 H :    0.166793
  20 H :    0.113853

  Mayer bond orders larger than 0.1
B(  0-C ,  1-C ) :   0.9121 B(  0-C ,  9-H ) :   0.9323 B(  0-C , 10-H ) :   0.9356
B(  0-C , 11-H ) :   0.9331 B(  1-C ,  2-C ) :   0.9186 B(  1-C ,  3-C ) :   0.8933
B(  1-C , 12-H ) :   0.9205 B(  2-C , 13-H ) :   0.9299 B(  2-C , 14-H ) :   0.9366
B(  2-C , 15-H ) :   0.9389 B(  3-C ,  4-N ) :   0.8738 B(  3-C , 16-H ) :   0.9397
B(  3-C , 17-H ) :   0.9343 B(  4-N ,  5-C ) :   0.9674 B(  4-N ,  7-C ) :   0.9966
B(  5-C ,  6-N ) :   1.9664 B(  5-C , 18-H ) :   0.9230 B(  6-N , 19-H ) :   0.8489
B(  7-C ,  8-O ) :   2.0027 B(  7-C , 20-H ) :   0.9274

MP2 TOTAL ENERGY:     -419.720189719 Eh
FINAL SINGLE POINT ENERGY      -419.720189718506

DIPOLE MOMENT
-------------
                                X             Y             Z
Electronic contribution:     -2.12182       0.70533      12.88618
Nuclear contribution   :      2.54804      -1.77962     -14.74365
                        -----------------------------------------
Total Dipole Moment    :      0.42622      -1.07429      -1.85747
                        -----------------------------------------
Magnitude (a.u.)       :      2.18768
Magnitude (Debye)      :      5.56065

                             ****ORCA TERMINATED NORMALLY****
TOTAL RUN TIME: 0 days 0 hours 20 minutes 18 seconds 458 msec
