                         Program Version 3.0.3 - RELEASE   -
|  1> ! RI-MP2 RIJK def2-TZVP def2-TZVP/C def2-TZVP/JK TIGHTSCF
|  2> % maxcore 2000
|  3> % mp2 density relaxed end
|  4> *xyz 0 1
|  5>  C        0.0686665528     1.4634837117    -0.0468361244
|  6>  C       -0.0839693833    -0.0548658153     0.0919407447
|  7>  C       -1.5393281534    -0.5714447625     0.0221001812
|  8>  C       -1.5431783374    -2.1004533234    -0.0354419787
|  9>  O       -2.8003869261    -2.5610081766    -0.4973385668
| 10>  C       -2.8472334163    -3.9616064619    -0.6337659236
| 11>  C       -2.3608165275    -0.0077391131     1.1712542571
| 12>  C       -3.4197818603    -0.7272297210     1.8865590770
| 13>  O       -2.1223815295    -0.5589924629     2.4729430293
| 14>  H        1.1265714797     1.7416642165    -0.0772623278
| 15>  H       -0.3963404072     1.8266864306    -0.9704177177
| 16>  H       -0.3836643683     2.0033015711     0.7900897027
| 17>  H        0.4911770231    -0.5403420209    -0.7056631903
| 18>  H        0.3603211036    -0.3845997517     1.0393301870
| 19>  H       -1.9936350851    -0.2114625435    -0.9117653028
| 20>  H       -0.7504510385    -2.4422917271    -0.7205166171
| 21>  H       -1.3203474528    -2.5146924192     0.9607642547
| 22>  H       -2.0992663096    -4.3246631624    -1.3565975580
| 23>  H       -2.6710542156    -4.4744749100     0.3250184865
| 24>  H       -3.8443428018    -4.2230698005    -0.9965830575
| 25>  H       -2.4307157545     1.0808579693     1.1734109906
| 26>  H       -4.2183688813    -0.1615061695     2.3656440330
| 27>  H       -3.6735836208    -1.7385795677     1.5853982809
| 28> *
| 29>
| 30>                          ****END OF INPUT****

CARTESIAN COORDINATES (ANGSTROEM)
---------------------------------
  C      0.068667    1.463484   -0.046836
  C     -0.083969   -0.054866    0.091941
  C     -1.539328   -0.571445    0.022100
  C     -1.543178   -2.100453   -0.035442
  O     -2.800387   -2.561008   -0.497339
  C     -2.847233   -3.961606   -0.633766
  C     -2.360817   -0.007739    1.171254
  C     -3.419782   -0.727230    1.886559
  O     -2.122382   -0.558992    2.472943
  H      1.126571    1.741664   -0.077262
  H     -0.396340    1.826686   -0.970418
  H     -0.383664    2.003302    0.790090
  H      0.491177   -0.540342   -0.705663
  H      0.360321   -0.384600    1.039330
  H     -1.993635   -0.211463   -0.911765
  H     -0.750451   -2.442292   -0.720517
  H     -1.320347   -2.514692    0.960764
  H     -2.099266   -4.324663   -1.356598
  H     -2.671054   -4.474475    0.325018
  H     -3.844343   -4.223070   -0.996583
  H     -2.430716    1.080858    1.173411
  H     -4.218369   -0.161506    2.365644
  H     -3.673584   -1.738580    1.585398

 Total Charge           Charge          ....    0
 Multiplicity           Mult            ....    1
 Number of Electrons    NEL             ....   72
 Basis Dimension        Dim             ....  363

ORBITAL ENERGIES
----------------

  NO   OCC          E(Eh)            E(eV)
   0   2.0000     -20.558137      -559.4154
   1   2.0000     -20.556432      -559.3690
   2   2.0000     -11.278505      -306.9037
   3   2.0000     -11.272891      -306.7509
   4   2.0000     -11.272621      -306.7436
   5   2.0000     -11.270790      -306.6938
   6   2.0000     -11.233042      -305.6666
   7   2.0000     -11.223774      -305.4144
   8   2.0000     -11.215677      -305.1941
   9   2.0000      -1.400318       -38.1046
  10   2.0000      -1.376584       -37.4588
  11   2.0000      -1.088202       -29.6115
  12   2.0000      -0.995021       -27.0759
  13   2.0000      -0.937268       -25.5044
  14   2.0000      -0.909838       -24.7580
  15   2.0000      -0.864382       -23.5210
  16   2.0000      -0.836046       -22.7500
  17   2.0000      -0.767584       -20.8870
  18   2.0000      -0.707130       -19.2420
  19   2.0000      -0.667944       -18.1757
  20   2.0000      -0.651298       -17.7227
  21   2.0000      -0.639156       -17.3923
  22   2.0000      -0.628038       -17.0898
  23   2.0000      -0.594868       -16.1872
  24   2.0000      -0.574447       -15.6315
  25   2.0000      -0.562955       -15.3188
  26   2.0000      -0.552354       -15.0303
  27   2.0000      -0.525248       -14.2927
  28   2.0000      -0.509991       -13.8776
  29   2.0000      -0.491341       -13.3701
  30   2.0000      -0.488591       -13.2952
  31   2.0000      -0.476852       -12.9758
  32   2.0000      -0.464664       -12.6441
  33   2.0000      -0.436298       -11.8723
  34   2.0000      -0.426240       -11.5986
  35   2.0000      -0.417779       -11.3683
  36   0.0000       0.140115         3.8127
  37   0.0000       0.145186         3.9507
  38   0.0000       0.165254         4.4968
  39   0.0000       0.178082         4.8459
  40   0.0000       0.186360         5.0711

MULLIKEN ATOMIC CHARGES
-----------------------
   0 C :   -0.421618
   1 C :   -0.225537
   2 C :    0.037122
   3 C :   -0.114475
   4 O :   -0.319452
   5 C :   -0.217879
   6 C :   -0.033666
   7 C :   -0.060189
   8 O :   -0.349572
   9 H :    0.138116
  10 H :    0.126070
  11 H :    0.136747
  12 H :    0.113211
  13 H :    0.129961
  14 H :    0.091109
  15 H :    0.103598
  16 H :    0.129568
  17 H :    0.113776
  18 H :    0.114863
  19 H :    0.139273
  20 H :    0.125297
  21 H :    0.110736
  22 H :    0.132942
Sum of atomic charges:    0.0000000

LOEWDIN ATOMIC CHARGES
----------------------
   0 C :   -0.318199
   1 C :   -0.263739
   2 C :   -0.247127
   3 C :   -0.302008
   4 O :    0.131814
   5 C :   -0.365557
   6 C :   -0.270161
   7 C :   -0.260567
   8 O :    0.135354
   9 H :    0.122922
  10 H :    0.121201
  11 H :    0.120745
  12 H :    0.137458
  13 H :    0.143934
  14 H :    0.163282
  15 H :    0.123835
  16 H :    0.129434
  17 H :    0.102508
  18 H :    0.102001
  19 H :    0.113143
  20 H :    0.138740
  21 H :    0.117216
  22 H :    0.123770

  Mayer bond orders larger than 0.1
B(  0-C ,  1-C ) :   0.9140 B(  0-C ,  9-H ) :   0.9412 B(  0-C , 10-H ) :   0.9382
B(  0-C , 11-H ) :   0.9414 B(  1-C ,  2-C ) :   0.8878 B(  1-C , 12-H ) :   0.9374
B(  1-C , 13-H ) :   0.9242 B(  2-C ,  3-C ) :   0.9337 B(  2-C ,  6-C ) :   0.9271
B(  2-C , 14-H ) :   0.9088 B(  3-C ,  4-O ) :   0.9168 B(  3-C , 15-H ) :   0.9205
B(  3-C , 16-H ) :   0.9265 B(  4-O ,  5-C ) :   0.9127 B(  5-C , 17-H ) :   0.9363
B(  5-C , 18-H ) :   0.9370 B(  5-C , 19-H ) :   0.9395 B(  6-C ,  7-C ) :   0.9898
B(  6-C ,  8-O ) :   0.8694 B(  6-C , 20-H ) :   0.9266 B(  7-C ,  8-O ) :   0.8985
B(  7-C , 21-H ) :   0.9263 B(  7-C , 22-H ) :   0.8982

MP2 TOTAL ENERGY:     -424.685506520 Eh
FINAL SINGLE POINT ENERGY      -424.685506520204

DIPOLE MOMENT
-------------
                                X             Y             Z
Electronic contribution:     -3.88849      -0.43758       3.51431
Nuclear contribution   :      3.89860       0.22836      -4.05811
                        -----------------------------------------
Total Dipole Moment    :      0.01011      -0.20922      -0.54380
                        -----------------------------------------
Magnitude (a.u.)       :      0.58274
Magnitude (Debye)      :      1.48122

                             ****ORCA TERMINATED NORMALLY****
TOTAL RUN TIME: 0 days 0 hours 18 minutes 13 seconds 861 msec
