                         Program Version 3.0.3 - RELEASE   -
|  1> ! RI-MP2 RIJK def2-TZVP def2-TZVP/C def2-TZVP/JK TIGHTSCF
|  2> % maxcore 2000
|  3> % mp2 density relaxed end
|  4> *xyz 0 1
|  5>  C       -0.0387409323     1.4332737107    -0.0330546253
|  6>  N        0.0244354183    -0.0025407310     0.1690126159
|  7>  C       -1.1670953898    -0.7133336492     0.0478399475
|  8>  C       -2.4399190657    -0.2288188669     0.0099024769
|  9>  O       -3.3359873006    -1.2902716487    -0.0436560006
| 10>  C       -2.6060112758    -2.4208368491    -0.0541436205
| 11>  N       -3.3318662205    -3.5971659503    -0.1882163596
| 12>  C       -1.2712807848    -2.1515812552     0.0026630335
| 13>  H        0.9668546313     1.8549034356     0.0358110795
| 14>  H       -0.4802025993     1.7221061433    -1.0012955233
| 15>  H       -0.6468415884     1.8856610998     0.7584957806
| 16>  H        0.7858525262    -0.4387933891    -0.3315730753
| 17>  H       -2.8798711406     0.7506384084     0.0304707434
| 18>  H       -4.2619579877    -3.5179972280     0.2031886989
| 19>  H       -2.8513402772    -4.3999382242     0.1937294061
| 20>  H       -0.4626778831    -2.8648681661     0.0216172224
| 21> *
| 22>
| 23>                          ****END OF INPUT****

CARTESIAN COORDINATES (ANGSTROEM)
---------------------------------
  C     -0.038741    1.433274   -0.033055
  N      0.024435   -0.002541    0.169013
  C     -1.167095   -0.713334    0.047840
  C     -2.439919   -0.228819    0.009902
  O     -3.335987   -1.290272   -0.043656
  C     -2.606011   -2.420837   -0.054144
  N     -3.331866   -3.597166   -0.188216
  C     -1.271281   -2.151581    0.002663
  H      0.966855    1.854903    0.035811
  H     -0.480203    1.722106   -1.001296
  H     -0.646842    1.885661    0.758496
  H      0.785853   -0.438793   -0.331573
  H     -2.879871    0.750638    0.030471
  H     -4.261958   -3.517997    0.203189
  H     -2.851340   -4.399938    0.193729
  H     -0.462678   -2.864868    0.021617

 Total Charge           Charge          ....    0
 Multiplicity           Mult            ....    1
 Number of Electrons    NEL             ....   60
 Basis Dimension        Dim             ....  296

ORBITAL ENERGIES
----------------

  NO   OCC          E(Eh)            E(eV)
   0   2.0000     -20.602746      -560.6292
   1   2.0000     -15.575535      -423.8319
   2   2.0000     -15.560211      -423.4149
   3   2.0000     -11.327156      -308.2276
   4   2.0000     -11.260404      -306.4112
   5   2.0000     -11.250454      -306.1404
   6   2.0000     -11.246260      -306.0263
   7   2.0000     -11.203067      -304.8509
   8   2.0000      -1.446322       -39.3564
   9   2.0000      -1.228425       -33.4271
  10   2.0000      -1.213458       -33.0199
  11   2.0000      -1.055817       -28.7303
  12   2.0000      -0.962414       -26.1886
  13   2.0000      -0.918052       -24.9815
  14   2.0000      -0.800203       -21.7746
  15   2.0000      -0.760491       -20.6940
  16   2.0000      -0.722594       -19.6628
  17   2.0000      -0.684583       -18.6285
  18   2.0000      -0.653128       -17.7725
  19   2.0000      -0.630975       -17.1697
  20   2.0000      -0.612465       -16.6660
  21   2.0000      -0.598832       -16.2951
  22   2.0000      -0.589609       -16.0441
  23   2.0000      -0.554266       -15.0823
  24   2.0000      -0.531801       -14.4710
  25   2.0000      -0.515578       -14.0296
  26   2.0000      -0.481089       -13.0911
  27   2.0000      -0.453455       -12.3391
  28   2.0000      -0.337838        -9.1930
  29   2.0000      -0.272870        -7.4252
  30   0.0000       0.134124         3.6497
  31   0.0000       0.142024         3.8647
  32   0.0000       0.162352         4.4178
  33   0.0000       0.180363         4.9079
  34   0.0000       0.186229         5.0676

MULLIKEN ATOMIC CHARGES
-----------------------
   0 C :   -0.299743
   1 N :   -0.338921
   2 C :    0.236691
   3 C :   -0.185150
   4 O :   -0.242984
   5 C :    0.337064
   6 N :   -0.513815
   7 C :   -0.408791
   8 H :    0.138066
   9 H :    0.124885
  10 H :    0.136219
  11 H :    0.225964
  12 H :    0.143306
  13 H :    0.258099
  14 H :    0.253773
  15 H :    0.135338
Sum of atomic charges:   -0.0000000

LOEWDIN ATOMIC CHARGES
----------------------
   0 C :   -0.332363
   1 N :    0.029099
   2 C :   -0.275136
   3 C :   -0.259459
   4 O :    0.326996
   5 C :   -0.368184
   6 N :   -0.079058
   7 C :   -0.180275
   8 H :    0.116951
   9 H :    0.105444
  10 H :    0.119055
  11 H :    0.180666
  12 H :    0.128962
  13 H :    0.173987
  14 H :    0.173593
  15 H :    0.139723

  Mayer bond orders larger than 0.1
B(  0-C ,  1-N ) :   0.9276 B(  0-C ,  8-H ) :   0.9368 B(  0-C ,  9-H ) :   0.9307
B(  0-C , 10-H ) :   0.9339 B(  1-N ,  2-C ) :   1.0392 B(  1-N , 11-H ) :   0.8747
B(  2-C ,  3-C ) :   1.5371 B(  2-C ,  7-C ) :   1.1643 B(  3-C ,  4-O ) :   0.9600
B(  3-C , 12-H ) :   0.9372 B(  4-O ,  5-C ) :   1.0841 B(  5-C ,  6-N ) :   1.0388
B(  5-C ,  7-C ) :   1.5588 B(  6-N , 13-H ) :   0.8690 B(  6-N , 14-H ) :   0.8787
B(  7-C , 15-H ) :   0.8935

MP2 TOTAL ENERGY:     -379.293102944 Eh
FINAL SINGLE POINT ENERGY      -379.293102943783

DIPOLE MOMENT
-------------
                                X             Y             Z
Electronic contribution:     -3.81243      -3.90983       0.13603
Nuclear contribution   :      4.14060       3.66685       0.00788
                        -----------------------------------------
Total Dipole Moment    :      0.32818      -0.24299       0.14392
                        -----------------------------------------
Magnitude (a.u.)       :      0.43296
Magnitude (Debye)      :      1.10050

                             ****ORCA TERMINATED NORMALLY****
TOTAL RUN TIME: 0 days 0 hours 11 minutes 25 seconds 215 msec
