                         Program Version 3.0.3 - RELEASE   -
|  1> ! RI-MP2 RIJK def2-TZVP def2-TZVP/C def2-TZVP/JK TIGHTSCF
|  2> % maxcore 2000
|  3> % mp2 density relaxed end
|  4> *xyz 0 1
|  5>  N       -0.0277568665    -1.1350084499    -0.0038791394
|  6>  C       -0.0320458908     0.0202160224     0.0025624334
|  7>  C       -0.0051349642     1.4793603049     0.0102651273
|  8>  C        1.4415102810     2.0203658865    -0.0012765025
|  9>  N        1.4515891734     3.4681412892     0.0064971408
| 10>  N        1.3927620646     4.1792704484    -1.1157672849
| 11>  C        1.3344331169     5.4392784584    -0.6826532080
| 12>  C        1.3512340826     5.4316694444     0.7196080101
| 13>  N        1.4197716382     4.1670459964     1.1375063939
| 14>  H       -0.5420591452     1.8565224499    -0.8661148529
| 15>  H       -0.5243813213     1.8468704946     0.9012719971
| 16>  H        1.9839329615     1.6810372887     0.8816973504
| 17>  H        1.9661090133     1.6904321798    -0.8984794485
| 18>  H        1.2922199018     6.2638257930    -1.3759533946
| 19>  H        1.3257464746     6.2486344233     1.4226318378
| 20> *
| 21>
| 22>                          ****END OF INPUT****

CARTESIAN COORDINATES (ANGSTROEM)
---------------------------------
  N     -0.027757   -1.135008   -0.003879
  C     -0.032046    0.020216    0.002562
  C     -0.005135    1.479360    0.010265
  C      1.441510    2.020366   -0.001277
  N      1.451589    3.468141    0.006497
  N      1.392762    4.179270   -1.115767
  C      1.334433    5.439278   -0.682653
  C      1.351234    5.431669    0.719608
  N      1.419772    4.167046    1.137506
  H     -0.542059    1.856522   -0.866115
  H     -0.524381    1.846870    0.901272
  H      1.983933    1.681037    0.881697
  H      1.966109    1.690432   -0.898479
  H      1.292220    6.263826   -1.375953
  H      1.325746    6.248634    1.422632

 Total Charge           Charge          ....    0
 Multiplicity           Mult            ....    1
 Number of Electrons    NEL             ....   64
 Basis Dimension        Dim             ....  315

ORBITAL ENERGIES
----------------

  NO   OCC          E(Eh)            E(eV)
   0   2.0000     -15.696360      -427.1197
   1   2.0000     -15.628081      -425.2617
   2   2.0000     -15.628021      -425.2601
   3   2.0000     -15.579693      -423.9450
   4   2.0000     -11.313017      -307.8428
   5   2.0000     -11.297624      -307.4240
   6   2.0000     -11.283204      -307.0316
   7   2.0000     -11.277298      -306.8709
   8   2.0000     -11.276134      -306.8392
   9   2.0000      -1.464921       -39.8625
  10   2.0000      -1.229608       -33.4593
  11   2.0000      -1.205859       -32.8131
  12   2.0000      -1.169703       -31.8292
  13   2.0000      -1.066317       -29.0160
  14   2.0000      -0.944040       -25.6886
  15   2.0000      -0.859982       -23.4013
  16   2.0000      -0.814119       -22.1533
  17   2.0000      -0.744707       -20.2645
  18   2.0000      -0.719785       -19.5863
  19   2.0000      -0.684165       -18.6171
  20   2.0000      -0.665769       -18.1165
  21   2.0000      -0.630381       -17.1535
  22   2.0000      -0.618367       -16.8266
  23   2.0000      -0.581386       -15.8203
  24   2.0000      -0.563922       -15.3451
  25   2.0000      -0.562565       -15.3082
  26   2.0000      -0.518456       -14.1079
  27   2.0000      -0.487485       -13.2651
  28   2.0000      -0.471685       -12.8352
  29   2.0000      -0.468421       -12.7464
  30   2.0000      -0.414123       -11.2689
  31   2.0000      -0.380503       -10.3540
  32   0.0000       0.112251         3.0545
  33   0.0000       0.125481         3.4145
  34   0.0000       0.159982         4.3533
  35   0.0000       0.168782         4.5928
  36   0.0000       0.169173         4.6034

MULLIKEN ATOMIC CHARGES
-----------------------
   0 N :   -0.053750
   1 C :   -0.188338
   2 C :   -0.136199
   3 C :   -0.176769
   4 N :    0.254987
   5 N :   -0.261437
   6 C :   -0.086310
   7 C :   -0.086385
   8 N :   -0.261366
   9 H :    0.177141
  10 H :    0.177074
  11 H :    0.170126
  12 H :    0.170048
  13 H :    0.150589
  14 H :    0.150590
Sum of atomic charges:   -0.0000000

LOEWDIN ATOMIC CHARGES
----------------------
   0 N :    0.067081
   1 C :   -0.191719
   2 C :   -0.237083
   3 C :   -0.226818
   4 N :    0.125111
   5 N :    0.046915
   6 C :   -0.275576
   7 C :   -0.275584
   8 N :    0.046916
   9 H :    0.169048
  10 H :    0.169033
  11 H :    0.153116
  12 H :    0.153092
  13 H :    0.138233
  14 H :    0.138234

  Mayer bond orders larger than 0.1
B(  0-N ,  1-C ) :   2.8579 B(  1-C ,  2-C ) :   0.9164 B(  2-C ,  3-C ) :   0.9145
B(  2-C ,  9-H ) :   0.9067 B(  2-C , 10-H ) :   0.9067 B(  3-C ,  4-N ) :   0.8637
B(  3-C , 11-H ) :   0.9182 B(  3-C , 12-H ) :   0.9182 B(  4-N ,  5-N ) :   1.0880
B(  4-N ,  8-N ) :   1.0881 B(  5-N ,  6-C ) :   1.4068 B(  6-C ,  7-C ) :   1.3742
B(  6-C , 13-H ) :   0.9273 B(  7-C ,  8-N ) :   1.4068 B(  7-C , 14-H ) :   0.9273

MP2 TOTAL ENERGY:     -412.303908238 Eh
FINAL SINGLE POINT ENERGY      -412.303908237986

DIPOLE MOMENT
-------------
                                X             Y             Z
Electronic contribution:      0.11659      -1.17814      -0.00777
Nuclear contribution   :     -0.09052       2.60227       0.01539
                        -----------------------------------------
Total Dipole Moment    :      0.02607       1.42413       0.00761
                        -----------------------------------------
Magnitude (a.u.)       :      1.42439
Magnitude (Debye)      :      3.62050

                             ****ORCA TERMINATED NORMALLY****
TOTAL RUN TIME: 0 days 0 hours 14 minutes 13 seconds 369 msec
