                         Program Version 3.0.3 - RELEASE   -
|  1> ! RI-MP2 RIJK def2-TZVP def2-TZVP/C def2-TZVP/JK TIGHTSCF
|  2> % maxcore 2000
|  3> % mp2 density relaxed end
|  4> *xyz 0 1
|  5>  O       -0.0772238263     1.4473652801     0.0196617584
|  6>  C        0.0107785666     0.0300429135     0.0156021512
|  7>  C        0.7545119400    -0.5205962531     1.2382455938
|  8>  C        0.6507730649    -2.0496588257     1.2781922522
|  9>  O       -0.6968968484    -2.4825419021     1.2687453187
| 10>  C       -1.3885423584    -2.0498520054     0.1093142125
| 11>  C       -1.4122536211    -0.5229643609    -0.0062641744
| 12>  H        0.8171478582     1.8009882639     0.0651936785
| 13>  H        0.5326345794    -0.3148788469    -0.8951549583
| 14>  H        1.8106812288    -0.2206364639     1.2188955633
| 15>  H        0.3030220216    -0.0977550168     2.1431029664
| 16>  H        1.1942992093    -2.4847469383     0.4205481205
| 17>  H        1.0971432752    -2.4506148239     2.1925379648
| 18>  H       -0.9233265704    -2.4883962160    -0.7912677830
| 19>  H       -2.4020608615    -2.4523816715     0.1893411744
| 20>  H       -1.9653056579    -0.0984620812     0.8392991978
| 21>  H       -1.9236170299    -0.2175172619    -0.9253183467
| 22> *
| 23>
| 24>                          ****END OF INPUT****

CARTESIAN COORDINATES (ANGSTROEM)
---------------------------------
  O     -0.077224    1.447365    0.019662
  C      0.010779    0.030043    0.015602
  C      0.754512   -0.520596    1.238246
  C      0.650773   -2.049659    1.278192
  O     -0.696897   -2.482542    1.268745
  C     -1.388542   -2.049852    0.109314
  C     -1.412254   -0.522964   -0.006264
  H      0.817148    1.800988    0.065194
  H      0.532635   -0.314879   -0.895155
  H      1.810681   -0.220636    1.218896
  H      0.303022   -0.097755    2.143103
  H      1.194299   -2.484747    0.420548
  H      1.097143   -2.450615    2.192538
  H     -0.923327   -2.488396   -0.791268
  H     -2.402061   -2.452382    0.189341
  H     -1.965306   -0.098462    0.839299
  H     -1.923617   -0.217517   -0.925318

 Total Charge           Charge          ....    0
 Multiplicity           Mult            ....    1
 Number of Electrons    NEL             ....   56
 Basis Dimension        Dim             ....  277

ORBITAL ENERGIES
----------------

  NO   OCC          E(Eh)            E(eV)
   0   2.0000     -20.556744      -559.3774
   1   2.0000     -20.552766      -559.2692
   2   2.0000     -11.282263      -307.0060
   3   2.0000     -11.277166      -306.8673
   4   2.0000     -11.274064      -306.7829
   5   2.0000     -11.225153      -305.4520
   6   2.0000     -11.218971      -305.2837
   7   2.0000      -1.376512       -37.4568
   8   2.0000      -1.362371       -37.0720
   9   2.0000      -1.065885       -29.0042
  10   2.0000      -1.029171       -28.0052
  11   2.0000      -0.873112       -23.7586
  12   2.0000      -0.866313       -23.5736
  13   2.0000      -0.777535       -21.1578
  14   2.0000      -0.700952       -19.0739
  15   2.0000      -0.669880       -18.2284
  16   2.0000      -0.642080       -17.4719
  17   2.0000      -0.633764       -17.2456
  18   2.0000      -0.619696       -16.8628
  19   2.0000      -0.576929       -15.6990
  20   2.0000      -0.555670       -15.1205
  21   2.0000      -0.539288       -14.6748
  22   2.0000      -0.520519       -14.1640
  23   2.0000      -0.500317       -13.6143
  24   2.0000      -0.471062       -12.8182
  25   2.0000      -0.454276       -12.3615
  26   2.0000      -0.437051       -11.8928
  27   2.0000      -0.413781       -11.2596
  28   0.0000       0.132715         3.6114
  29   0.0000       0.151225         4.1150
  30   0.0000       0.165905         4.5145
  31   0.0000       0.168055         4.5730
  32   0.0000       0.203832         5.5465

MULLIKEN ATOMIC CHARGES
-----------------------
   0 O :   -0.460105
   1 C :    0.090511
   2 C :   -0.253173
   3 C :   -0.078787
   4 O :   -0.309331
   5 C :   -0.093841
   6 C :   -0.189653
   7 H :    0.310967
   8 H :    0.074488
   9 H :    0.108275
  10 H :    0.118459
  11 H :    0.093983
  12 H :    0.128613
  13 H :    0.095802
  14 H :    0.129118
  15 H :    0.111845
  16 H :    0.122830
Sum of atomic charges:    0.0000000

LOEWDIN ATOMIC CHARGES
----------------------
   0 O :   -0.019431
   1 C :   -0.360658
   2 C :   -0.262957
   3 C :   -0.319172
   4 O :    0.152104
   5 C :   -0.316515
   6 C :   -0.248299
   7 H :    0.172615
   8 H :    0.133072
   9 H :    0.135903
  10 H :    0.143837
  11 H :    0.120065
  12 H :    0.130323
  13 H :    0.120173
  14 H :    0.130663
  15 H :    0.145193
  16 H :    0.143083

  Mayer bond orders larger than 0.1
B(  0-O ,  1-C ) :   0.9938 B(  0-O ,  7-H ) :   0.8466 B(  1-C ,  2-C ) :   0.9202
B(  1-C ,  6-C ) :   0.9135 B(  1-C ,  8-H ) :   0.9413 B(  2-C ,  3-C ) :   0.9240
B(  2-C ,  9-H ) :   0.9197 B(  2-C , 10-H ) :   0.9152 B(  3-C ,  4-O ) :   0.9380
B(  3-C , 11-H ) :   0.9381 B(  3-C , 12-H ) :   0.9267 B(  4-O ,  5-C ) :   0.9296
B(  5-C ,  6-C ) :   0.9227 B(  5-C , 13-H ) :   0.9389 B(  5-C , 14-H ) :   0.9303
B(  6-C , 15-H ) :   0.9155 B(  6-C , 16-H ) :   0.9240

MP2 TOTAL ENERGY:     -346.305568294 Eh
FINAL SINGLE POINT ENERGY      -346.305568294138

DIPOLE MOMENT
-------------
                                X             Y             Z
Electronic contribution:     -0.71726       0.47771       0.73012
Nuclear contribution   :      1.42882      -0.45838      -1.02929
                        -----------------------------------------
Total Dipole Moment    :      0.71156       0.01933      -0.29917
                        -----------------------------------------
Magnitude (a.u.)       :      0.77214
Magnitude (Debye)      :      1.96262

                             ****ORCA TERMINATED NORMALLY****
TOTAL RUN TIME: 0 days 0 hours 8 minutes 42 seconds 703 msec
