                         Program Version 3.0.3 - RELEASE   -
|  1> ! RI-MP2 RIJK def2-TZVP def2-TZVP/C def2-TZVP/JK TIGHTSCF
|  2> % maxcore 2000
|  3> % mp2 density relaxed end
|  4> *xyz 0 1
|  5>  O       -0.0073089803     0.7560591237    -1.4076765936
|  6>  C       -0.0390704607     1.3597780649    -0.3532838294
|  7>  C       -1.3210420943     1.7857900571     0.2669656587
|  8>  C       -1.5886180549     1.6341789981     1.7652796238
|  9>  C       -1.3296999320     2.9937135252     1.2023807690
| 10>  C       -0.0415101092     3.7628033668     1.4575141432
| 11>  C        1.2450022147     3.0075586213     1.1828852500
| 12>  N        1.3868796928     1.6726486101     1.7623527867
| 13>  C        1.2430733957     1.8076628113     0.2878610407
| 14>  H       -2.1650620149     1.6408600775    -0.3978104350
| 15>  H       -2.6096734686     1.3827635883     2.0309190143
| 16>  H       -0.8191714334     1.1692549123     2.3644333605
| 17>  H       -2.1989570809     3.6370428468     1.1010287418
| 18>  H       -0.0377669637     4.6534164219     0.8160801054
| 19>  H       -0.0282184530     4.1273016923     2.4931864329
| 20>  H        2.1355076345     3.6322433055     1.1471630986
| 21>  H        2.3606676715     1.4785066691     1.9793551354
| 22>  H        2.1129656667     1.6079366878    -0.3305296131
| 23> *
| 24>
| 25>                          ****END OF INPUT****

CARTESIAN COORDINATES (ANGSTROEM)
---------------------------------
  O     -0.007309    0.756059   -1.407677
  C     -0.039070    1.359778   -0.353284
  C     -1.321042    1.785790    0.266966
  C     -1.588618    1.634179    1.765280
  C     -1.329700    2.993714    1.202381
  C     -0.041510    3.762803    1.457514
  C      1.245002    3.007559    1.182885
  N      1.386880    1.672649    1.762353
  C      1.243073    1.807663    0.287861
  H     -2.165062    1.640860   -0.397810
  H     -2.609673    1.382764    2.030919
  H     -0.819171    1.169255    2.364433
  H     -2.198957    3.637043    1.101029
  H     -0.037767    4.653416    0.816080
  H     -0.028218    4.127302    2.493186
  H      2.135508    3.632243    1.147163
  H      2.360668    1.478507    1.979355
  H      2.112966    1.607937   -0.330530

 Total Charge           Charge          ....    0
 Multiplicity           Mult            ....    1
 Number of Electrons    NEL             ....   66
 Basis Dimension        Dim             ....  333

ORBITAL ENERGIES
----------------

  NO   OCC          E(Eh)            E(eV)
   0   2.0000     -20.534671      -558.7768
   1   2.0000     -15.578389      -423.9095
   2   2.0000     -11.326275      -308.2036
   3   2.0000     -11.282980      -307.0255
   4   2.0000     -11.272984      -306.7535
   5   2.0000     -11.250029      -306.1289
   6   2.0000     -11.244250      -305.9716
   7   2.0000     -11.239149      -305.8328
   8   2.0000     -11.233769      -305.6864
   9   2.0000      -1.378673       -37.5156
  10   2.0000      -1.284127       -34.9429
  11   2.0000      -1.159943       -31.5637
  12   2.0000      -1.015779       -27.6408
  13   2.0000      -0.958229       -26.0747
  14   2.0000      -0.866606       -23.5816
  15   2.0000      -0.852101       -23.1869
  16   2.0000      -0.794395       -21.6166
  17   2.0000      -0.738242       -20.0886
  18   2.0000      -0.693075       -18.8595
  19   2.0000      -0.673942       -18.3389
  20   2.0000      -0.644893       -17.5484
  21   2.0000      -0.618769       -16.8376
  22   2.0000      -0.593194       -16.1416
  23   2.0000      -0.580950       -15.8084
  24   2.0000      -0.555319       -15.1110
  25   2.0000      -0.538265       -14.6469
  26   2.0000      -0.519835       -14.1454
  27   2.0000      -0.493236       -13.4216
  28   2.0000      -0.468663       -12.7530
  29   2.0000      -0.440385       -11.9835
  30   2.0000      -0.418796       -11.3960
  31   2.0000      -0.403314       -10.9747
  32   2.0000      -0.390463       -10.6250
  33   0.0000       0.121937         3.3181
  34   0.0000       0.136336         3.7099
  35   0.0000       0.147395         4.0108
  36   0.0000       0.167936         4.5698
  37   0.0000       0.184018         5.0074

MULLIKEN ATOMIC CHARGES
-----------------------
   0 O :   -0.290044
   1 C :    0.079938
   2 C :   -0.060550
   3 C :   -0.280130
   4 C :   -0.129144
   5 C :   -0.151602
   6 C :   -0.071291
   7 N :   -0.403946
   8 C :    0.004767
   9 H :    0.134190
  10 H :    0.133995
  11 H :    0.177188
  12 H :    0.128387
  13 H :    0.120539
  14 H :    0.115855
  15 H :    0.130614
  16 H :    0.223393
  17 H :    0.137840
Sum of atomic charges:    0.0000000

LOEWDIN ATOMIC CHARGES
----------------------
   0 O :    0.142910
   1 C :   -0.307296
   2 C :   -0.155231
   3 C :   -0.186230
   4 C :   -0.190701
   5 C :   -0.220648
   6 C :   -0.246795
   7 N :    0.015579
   8 C :   -0.200907
   9 H :    0.156928
  10 H :    0.135206
  11 H :    0.143805
  12 H :    0.152058
  13 H :    0.151543
  14 H :    0.149897
  15 H :    0.141458
  16 H :    0.171138
  17 H :    0.147286

  Mayer bond orders larger than 0.1
B(  0-O ,  1-C ) :   1.9588 B(  1-C ,  2-C ) :   0.9804 B(  1-C ,  8-C ) :   0.9412
B(  2-C ,  3-C ) :   0.8241 B(  2-C ,  4-C ) :   0.8022 B(  2-C ,  8-C ) :  -0.1134
B(  2-C ,  9-H ) :   0.9258 B(  3-C ,  4-C ) :   0.9077 B(  3-C , 10-H ) :   0.9290
B(  3-C , 11-H ) :   0.9078 B(  4-C ,  5-C ) :   0.9510 B(  4-C , 12-H ) :   0.9260
B(  5-C ,  6-C ) :   0.9577 B(  5-C , 13-H ) :   0.9197 B(  5-C , 14-H ) :   0.9034
B(  6-C ,  7-N ) :   0.9267 B(  6-C ,  8-C ) :   0.8307 B(  6-C , 15-H ) :   0.9246
B(  7-N ,  8-C ) :   0.8497 B(  7-N , 16-H ) :   0.8683 B(  8-C , 17-H ) :   0.9295

MP2 TOTAL ENERGY:     -401.249638823 Eh
FINAL SINGLE POINT ENERGY      -401.249638822968

DIPOLE MOMENT
-------------
                                X             Y             Z
Electronic contribution:      1.27042      -3.33081      -3.89231
Nuclear contribution   :     -0.89324       4.35228       4.77959
                        -----------------------------------------
Total Dipole Moment    :      0.37718       1.02147       0.88727
                        -----------------------------------------
Magnitude (a.u.)       :      1.40461
Magnitude (Debye)      :      3.57023

                             ****ORCA TERMINATED NORMALLY****
TOTAL RUN TIME: 0 days 0 hours 18 minutes 30 seconds 542 msec
