                         Program Version 3.0.3 - RELEASE   -
|  1> ! RI-MP2 RIJK def2-TZVP def2-TZVP/C def2-TZVP/JK TIGHTSCF
|  2> % maxcore 2000
|  3> % mp2 density relaxed end
|  4> *xyz 0 1
|  5>  C        0.0425952575     1.2539074279    -0.2255632011
|  6>  O       -0.0540221568    -0.0841912106     0.1954907999
|  7>  C       -1.2925513295    -0.6743772600    -0.1314333395
|  8>  C       -1.2852096342    -2.1143793886     0.3627756143
|  9>  C       -2.5844759155    -2.8430960024     0.0495298829
| 10>  O       -2.4845811770    -4.1626944361     0.5563885463
| 11>  C       -3.6256150087    -4.9270270711     0.3319803051
| 12>  C       -3.7910316316    -5.6374324509    -0.9889850811
| 13>  C       -3.4322160760    -6.4058931372     0.2693747758
| 14>  H        1.0289656255     1.6205322380     0.0692797137
| 15>  H       -0.0589702583     1.3482888423    -1.3188650847
| 16>  H       -0.7266693666     1.8885350962     0.2435446145
| 17>  H       -2.1205024864    -0.1088868130     0.3325250916
| 18>  H       -1.4564830446    -0.6393445575    -1.2234439008
| 19>  H       -0.4489248917    -2.6500078909    -0.0985878655
| 20>  H       -1.1156442329    -2.1250008258     1.4444587578
| 21>  H       -3.4414493819    -2.3241112522     0.5120826461
| 22>  H       -2.7701344843    -2.8659187701    -1.0365062992
| 23>  H       -4.5249801464    -4.5425181560     0.8163607350
| 24>  H       -4.7863876828    -5.7473150332    -1.4053465311
| 25>  H       -3.0019601793    -5.5004357622    -1.7199718750
| 26>  H       -2.4114095782    -6.7598279189     0.3557166936
| 27>  H       -4.1785788802    -7.0462715976     0.7253645613
| 28> *
| 29>
| 30>                          ****END OF INPUT****

CARTESIAN COORDINATES (ANGSTROEM)
---------------------------------
  C      0.042595    1.253907   -0.225563
  O     -0.054022   -0.084191    0.195491
  C     -1.292551   -0.674377   -0.131433
  C     -1.285210   -2.114379    0.362776
  C     -2.584476   -2.843096    0.049530
  O     -2.484581   -4.162694    0.556389
  C     -3.625615   -4.927027    0.331980
  C     -3.791032   -5.637432   -0.988985
  C     -3.432216   -6.405893    0.269375
  H      1.028966    1.620532    0.069280
  H     -0.058970    1.348289   -1.318865
  H     -0.726669    1.888535    0.243545
  H     -2.120502   -0.108887    0.332525
  H     -1.456483   -0.639345   -1.223444
  H     -0.448925   -2.650008   -0.098588
  H     -1.115644   -2.125001    1.444459
  H     -3.441449   -2.324111    0.512083
  H     -2.770134   -2.865919   -1.036506
  H     -4.524980   -4.542518    0.816361
  H     -4.786388   -5.747315   -1.405347
  H     -3.001960   -5.500436   -1.719972
  H     -2.411410   -6.759828    0.355717
  H     -4.178579   -7.046272    0.725365

 Total Charge           Charge          ....    0
 Multiplicity           Mult            ....    1
 Number of Electrons    NEL             ....   72
 Basis Dimension        Dim             ....  363

ORBITAL ENERGIES
----------------

  NO   OCC          E(Eh)            E(eV)
   0   2.0000     -20.557524      -559.3987
   1   2.0000     -20.554340      -559.3120
   2   2.0000     -11.279391      -306.9278
   3   2.0000     -11.275356      -306.8180
   4   2.0000     -11.275008      -306.8086
   5   2.0000     -11.269924      -306.6702
   6   2.0000     -11.223869      -305.4170
   7   2.0000     -11.222737      -305.3862
   8   2.0000     -11.216578      -305.2186
   9   2.0000      -1.382604       -37.6226
  10   2.0000      -1.375737       -37.4357
  11   2.0000      -1.128651       -30.7121
  12   2.0000      -1.050182       -28.5769
  13   2.0000      -0.946662       -25.7600
  14   2.0000      -0.877091       -23.8669
  15   2.0000      -0.828428       -22.5427
  16   2.0000      -0.808889       -22.0110
  17   2.0000      -0.801925       -21.8215
  18   2.0000      -0.698845       -19.0166
  19   2.0000      -0.677713       -18.4415
  20   2.0000      -0.661353       -17.9963
  21   2.0000      -0.653104       -17.7719
  22   2.0000      -0.630080       -17.1453
  23   2.0000      -0.620185       -16.8761
  24   2.0000      -0.590369       -16.0648
  25   2.0000      -0.572326       -15.5738
  26   2.0000      -0.552775       -15.0418
  27   2.0000      -0.515709       -14.0331
  28   2.0000      -0.508137       -13.8271
  29   2.0000      -0.500511       -13.6196
  30   2.0000      -0.481996       -13.1158
  31   2.0000      -0.475455       -12.9378
  32   2.0000      -0.457294       -12.4436
  33   2.0000      -0.422985       -11.5100
  34   2.0000      -0.417222       -11.3532
  35   2.0000      -0.391604       -10.6561
  36   0.0000       0.136905         3.7254
  37   0.0000       0.155115         4.2209
  38   0.0000       0.164948         4.4885
  39   0.0000       0.169920         4.6238
  40   0.0000       0.176077         4.7913

MULLIKEN ATOMIC CHARGES
-----------------------
   0 C :   -0.212210
   1 O :   -0.298940
   2 C :   -0.074128
   3 C :   -0.134536
   4 C :   -0.089128
   5 O :   -0.281634
   6 C :    0.024386
   7 C :   -0.267381
   8 C :   -0.249968
   9 H :    0.139362
  10 H :    0.109448
  11 H :    0.109572
  12 H :    0.087877
  13 H :    0.088338
  14 H :    0.118239
  15 H :    0.120788
  16 H :    0.089222
  17 H :    0.095685
  18 H :    0.098534
  19 H :    0.126499
  20 H :    0.133436
  21 H :    0.137728
  22 H :    0.128809
Sum of atomic charges:    0.0000000

LOEWDIN ATOMIC CHARGES
----------------------
   0 C :   -0.363445
   1 O :    0.134825
   2 C :   -0.331065
   3 C :   -0.264799
   4 C :   -0.315761
   5 O :    0.193593
   6 C :   -0.327282
   7 C :   -0.239026
   8 C :   -0.226907
   9 H :    0.113480
  10 H :    0.100495
  11 H :    0.100533
  12 H :    0.117548
  13 H :    0.117530
  14 H :    0.143110
  15 H :    0.143649
  16 H :    0.119062
  17 H :    0.120017
  18 H :    0.130627
  19 H :    0.128528
  20 H :    0.135338
  21 H :    0.138863
  22 H :    0.131086

  Mayer bond orders larger than 0.1
B(  0-C ,  1-O ) :   0.9212 B(  0-C ,  9-H ) :   0.9395 B(  0-C , 10-H ) :   0.9368
B(  0-C , 11-H ) :   0.9368 B(  1-O ,  2-C ) :   0.9568 B(  2-C ,  3-C ) :   0.9379
B(  2-C , 12-H ) :   0.9209 B(  2-C , 13-H ) :   0.9223 B(  3-C ,  4-C ) :   0.9399
B(  3-C , 14-H ) :   0.9234 B(  3-C , 15-H ) :   0.9208 B(  4-C ,  5-O ) :   0.9205
B(  4-C , 16-H ) :   0.9211 B(  4-C , 17-H ) :   0.9217 B(  5-O ,  6-C ) :   0.9860
B(  6-C ,  7-C ) :   0.8890 B(  6-C ,  8-C ) :   0.8992 B(  6-C , 18-H ) :   0.9316
B(  7-C ,  8-C ) :   0.9087 B(  7-C , 19-H ) :   0.9206 B(  7-C , 20-H ) :   0.9232
B(  8-C , 21-H ) :   0.9235 B(  8-C , 22-H ) :   0.9258

MP2 TOTAL ENERGY:     -424.673943889 Eh
FINAL SINGLE POINT ENERGY      -424.673943889134

DIPOLE MOMENT
-------------
                                X             Y             Z
Electronic contribution:      0.99723      -2.68031       2.29208
Nuclear contribution   :     -1.63529       3.08835      -2.72785
                        -----------------------------------------
Total Dipole Moment    :     -0.63806       0.40804      -0.43576
                        -----------------------------------------
Magnitude (a.u.)       :      0.87379
Magnitude (Debye)      :      2.22100

                             ****ORCA TERMINATED NORMALLY****
TOTAL RUN TIME: 0 days 0 hours 14 minutes 17 seconds 901 msec
