                         Program Version 3.0.3 - RELEASE   -
|  1> ! RI-MP2 RIJK def2-TZVP def2-TZVP/C def2-TZVP/JK TIGHTSCF
|  2> % maxcore 2000
|  3> % mp2 density relaxed end
|  4> *xyz 0 1
|  5>  C       -0.0350253190     1.5012159654     0.0505895650
|  6>  C       -0.0007009649     0.0119811048    -0.0427657220
|  7>  C       -0.0329326895    -0.8264969431    -1.1285083415
|  8>  C        0.0268362242    -2.1726433533    -0.6417513574
|  9>  C        0.0939354328    -2.1058258717     0.7379691270
| 10>  N        0.0764881620    -0.7871356892     1.0810166968
| 11>  C        0.0193874159    -3.3586197330    -1.4149262764
| 12>  N        0.0127154916    -4.3238682492    -2.0561852153
| 13>  H        0.8648471471     1.9040122338     0.5309941535
| 14>  H       -0.0977045501     1.9334791112    -0.9500814522
| 15>  H       -0.9009258951     1.8576021098     0.6215510908
| 16>  H       -0.0924761858    -0.5285268102    -2.1630520651
| 17>  H        0.1512789174    -2.8896655986     1.4746185570
| 18>  H        0.1146004434    -0.4427755967     2.0254820099
| 19> *
| 20>
| 21>                          ****END OF INPUT****

CARTESIAN COORDINATES (ANGSTROEM)
---------------------------------
  C     -0.035025    1.501216    0.050590
  C     -0.000701    0.011981   -0.042766
  C     -0.032933   -0.826497   -1.128508
  C      0.026836   -2.172643   -0.641751
  C      0.093935   -2.105826    0.737969
  N      0.076488   -0.787136    1.081017
  C      0.019387   -3.358620   -1.414926
  N      0.012715   -4.323868   -2.056185
  H      0.864847    1.904012    0.530994
  H     -0.097705    1.933479   -0.950081
  H     -0.900926    1.857602    0.621551
  H     -0.092476   -0.528527   -2.163052
  H      0.151279   -2.889666    1.474619
  H      0.114600   -0.442776    2.025482

 Total Charge           Charge          ....    0
 Multiplicity           Mult            ....    1
 Number of Electrons    NEL             ....   56
 Basis Dimension        Dim             ....  284

ORBITAL ENERGIES
----------------

  NO   OCC          E(Eh)            E(eV)
   0   2.0000     -15.633077      -425.3977
   1   2.0000     -15.555634      -423.2903
   2   2.0000     -11.292665      -307.2890
   3   2.0000     -11.284853      -307.0765
   4   2.0000     -11.264385      -306.5195
   5   2.0000     -11.259995      -306.4000
   6   2.0000     -11.251255      -306.1622
   7   2.0000     -11.235877      -305.7437
   8   2.0000      -1.324431       -36.0396
   9   2.0000      -1.203823       -32.7577
  10   2.0000      -1.083854       -29.4932
  11   2.0000      -1.059250       -28.8236
  12   2.0000      -0.949756       -25.8442
  13   2.0000      -0.869410       -23.6578
  14   2.0000      -0.805015       -21.9056
  15   2.0000      -0.736624       -20.0445
  16   2.0000      -0.671509       -18.2727
  17   2.0000      -0.625893       -17.0314
  18   2.0000      -0.625485       -17.0203
  19   2.0000      -0.585083       -15.9209
  20   2.0000      -0.571500       -15.5513
  21   2.0000      -0.567317       -15.4375
  22   2.0000      -0.556244       -15.1362
  23   2.0000      -0.540366       -14.7041
  24   2.0000      -0.488900       -13.3036
  25   2.0000      -0.449488       -12.2312
  26   2.0000      -0.367625       -10.0036
  27   2.0000      -0.317779        -8.6472
  28   0.0000       0.109221         2.9721
  29   0.0000       0.122833         3.3425
  30   0.0000       0.146431         3.9846
  31   0.0000       0.165816         4.5121
  32   0.0000       0.165983         4.5166

MULLIKEN ATOMIC CHARGES
-----------------------
   0 C :   -0.446525
   1 C :    0.186750
   2 C :   -0.321583
   3 C :    0.231466
   4 C :   -0.134258
   5 N :   -0.262046
   6 C :   -0.209345
   7 N :   -0.059307
   8 H :    0.149654
   9 H :    0.155677
  10 H :    0.149597
  11 H :    0.144894
  12 H :    0.165718
  13 H :    0.249309
Sum of atomic charges:    0.0000000

LOEWDIN ATOMIC CHARGES
----------------------
   0 C :   -0.275667
   1 C :   -0.240673
   2 C :   -0.119890
   3 C :   -0.192929
   4 C :   -0.175974
   5 N :    0.212250
   6 C :   -0.159742
   7 N :    0.057858
   8 H :    0.132222
   9 H :    0.141095
  10 H :    0.132212
  11 H :    0.149196
  12 H :    0.142371
  13 H :    0.197672

  Mayer bond orders larger than 0.1
B(  0-C ,  1-C ) :   0.8554 B(  0-C ,  8-H ) :   0.9348 B(  0-C ,  9-H ) :   0.9515
B(  0-C , 10-H ) :   0.9348 B(  1-C ,  2-C ) :   1.5082 B(  1-C ,  5-N ) :   1.1017
B(  2-C ,  3-C ) :   1.2195 B(  2-C , 11-H ) :   0.9279 B(  3-C ,  4-C ) :   1.4211
B(  3-C ,  6-C ) :   0.8791 B(  4-C ,  5-N ) :   1.1978 B(  4-C , 12-H ) :   0.8994
B(  5-N , 13-H ) :   0.8739 B(  6-C ,  7-N ) :   2.8783

MP2 TOTAL ENERGY:     -341.036701579 Eh
FINAL SINGLE POINT ENERGY      -341.036701578507

DIPOLE MOMENT
-------------
                                X             Y             Z
Electronic contribution:      0.10892      -7.81811      -1.92917
Nuclear contribution   :     -0.07650       9.83543       3.63949
                        -----------------------------------------
Total Dipole Moment    :      0.03242       2.01732       1.71032
                        -----------------------------------------
Magnitude (a.u.)       :      2.64497
Magnitude (Debye)      :      6.72297

                             ****ORCA TERMINATED NORMALLY****
TOTAL RUN TIME: 0 days 0 hours 10 minutes 52 seconds 291 msec
