                         Program Version 3.0.3 - RELEASE   -
|  1> ! RI-MP2 RIJK def2-TZVP def2-TZVP/C def2-TZVP/JK TIGHTSCF
|  2> % maxcore 2000
|  3> % mp2 density relaxed end
|  4> *xyz 0 1
|  5>  O       -0.1260624028     1.3116117778     0.0114174796
|  6>  C        0.0667811699    -0.0174133007     0.0026273799
|  7>  C        1.1865080573    -0.7979282709    -0.0084999033
|  8>  N        0.6953300196    -2.1082369256    -0.0129613835
|  9>  N        1.1220472863    -3.3968516597    -0.0227204872
| 10>  N        0.0288125386    -4.1079410314    -0.0206555871
| 11>  N       -1.1071832460    -3.3560165035    -0.0091492359
| 12>  C       -0.6520398054    -2.1178968293    -0.0049067709
| 13>  N       -1.0691147501    -0.8135697437     0.0049730350
| 14>  H        0.7252516699     1.7620339638     0.0080698727
| 15>  H        2.2318232911    -0.5515497346    -0.0133497138
| 16>  H       -2.0166115884    -0.4789677722     0.0128443946
| 17> *
| 18>
| 19>                          ****END OF INPUT****

CARTESIAN COORDINATES (ANGSTROEM)
---------------------------------
  O     -0.126062    1.311612    0.011417
  C      0.066781   -0.017413    0.002627
  C      1.186508   -0.797928   -0.008500
  N      0.695330   -2.108237   -0.012961
  N      1.122047   -3.396852   -0.022720
  N      0.028813   -4.107941   -0.020656
  N     -1.107183   -3.356017   -0.009149
  C     -0.652040   -2.117897   -0.004907
  N     -1.069115   -0.813570    0.004973
  H      0.725252    1.762034    0.008070
  H      2.231823   -0.551550   -0.013350
  H     -2.016612   -0.478968    0.012844

 Total Charge           Charge          ....    0
 Multiplicity           Mult            ....    1
 Number of Electrons    NEL             ....   64
 Basis Dimension        Dim             ....  297

ORBITAL ENERGIES
----------------

  NO   OCC          E(Eh)            E(eV)
   0   2.0000     -20.648085      -561.8630
   1   2.0000     -15.670392      -426.4130
   2   2.0000     -15.652385      -425.9231
   3   2.0000     -15.642961      -425.6666
   4   2.0000     -15.638522      -425.5458
   5   2.0000     -15.586225      -424.1227
   6   2.0000     -11.387424      -309.8676
   7   2.0000     -11.356667      -309.0306
   8   2.0000     -11.295316      -307.3612
   9   2.0000      -1.489469       -40.5305
  10   2.0000      -1.469353       -39.9831
  11   2.0000      -1.346100       -36.6292
  12   2.0000      -1.249618       -34.0038
  13   2.0000      -1.156882       -31.4804
  14   2.0000      -1.058713       -28.8090
  15   2.0000      -0.911622       -24.8065
  16   2.0000      -0.887449       -24.1487
  17   2.0000      -0.856374       -23.3031
  18   2.0000      -0.765142       -20.8206
  19   2.0000      -0.748615       -20.3709
  20   2.0000      -0.711599       -19.3636
  21   2.0000      -0.709458       -19.3053
  22   2.0000      -0.677456       -18.4345
  23   2.0000      -0.643780       -17.5181
  24   2.0000      -0.616801       -16.7840
  25   2.0000      -0.547898       -14.9091
  26   2.0000      -0.545446       -14.8423
  27   2.0000      -0.488526       -13.2935
  28   2.0000      -0.469034       -12.7631
  29   2.0000      -0.457135       -12.4393
  30   2.0000      -0.375063       -10.2060
  31   2.0000      -0.335455        -9.1282
  32   0.0000       0.099971         2.7203
  33   0.0000       0.127555         3.4710
  34   0.0000       0.145856         3.9690
  35   0.0000       0.165698         4.5089
  36   0.0000       0.172828         4.7029

MULLIKEN ATOMIC CHARGES
-----------------------
   0 O :   -0.415617
   1 C :    0.276132
   2 C :   -0.200811
   3 N :    0.101995
   4 N :   -0.179254
   5 N :   -0.091574
   6 N :   -0.167466
   7 C :    0.182741
   8 N :   -0.321892
   9 H :    0.355181
  10 H :    0.182099
  11 H :    0.278467
Sum of atomic charges:   -0.0000000

LOEWDIN ATOMIC CHARGES
----------------------
   0 O :    0.095980
   1 C :   -0.355492
   2 C :   -0.207011
   3 N :    0.214735
   4 N :   -0.050641
   5 N :   -0.065946
   6 N :   -0.001151
   7 C :   -0.398071
   8 N :    0.203621
   9 H :    0.210627
  10 H :    0.145863
  11 H :    0.207487

  Mayer bond orders larger than 0.1
B(  0-O ,  1-C ) :   1.1337 B(  0-O ,  9-H ) :   0.8192 B(  1-C ,  2-C ) :   1.5449
B(  1-C ,  8-N ) :   1.0944 B(  2-C ,  3-N ) :   0.9824 B(  2-C , 10-H ) :   0.9189
B(  3-N ,  4-N ) :   0.9570 B(  3-N ,  7-C ) :   1.1568 B(  4-N ,  5-N ) :   1.2859
B(  5-N ,  6-N ) :   1.0832 B(  6-N ,  7-C ) :   1.5552 B(  7-C ,  8-N ) :   1.0924
B(  8-N , 11-H ) :   0.8575

MP2 TOTAL ENERGY:     -464.214683510 Eh
FINAL SINGLE POINT ENERGY      -464.214683510399

DIPOLE MOMENT
-------------
                                X             Y             Z
Electronic contribution:     -0.57211      -2.30580      -0.00950
Nuclear contribution   :      0.84372       5.34730       0.02490
                        -----------------------------------------
Total Dipole Moment    :      0.27161       3.04150       0.01540
                        -----------------------------------------
Magnitude (a.u.)       :      3.05364
Magnitude (Debye)      :      7.76175

                             ****ORCA TERMINATED NORMALLY****
TOTAL RUN TIME: 0 days 0 hours 14 minutes 4 seconds 945 msec
