                         Program Version 3.0.3 - RELEASE   -
|  1> ! RI-MP2 RIJK def2-TZVP def2-TZVP/C def2-TZVP/JK TIGHTSCF
|  2> % maxcore 2000
|  3> % mp2 density relaxed end
|  4> *xyz 0 1
|  5>  C        0.0500162742     1.5698042321    -0.0373370492
|  6>  C        0.0523948081     0.0411152005     0.0049711107
|  7>  C        0.6828023889    -0.6040515859    -1.2411488771
|  8>  C        0.7554249592    -2.1281308794    -1.1215988572
|  9>  O       -0.5834286896    -2.6199552852    -1.1147674383
| 10>  N       -0.0458967508    -0.2462097259    -2.4540135243
| 11>  C        0.6206756460     0.2139053521    -3.5690567528
| 12>  N       -0.1746259071     0.2654547495    -4.7111063033
| 13>  O        1.7955663395     0.5351427862    -3.5782996464
| 14>  H        1.0685345746     1.9667166478    -0.1087218854
| 15>  H       -0.5079426418     1.9352244474    -0.9041066998
| 16>  H       -0.4108401710     1.9869180539     0.8633332208
| 17>  H        0.6116086974    -0.3048966198     0.8835965185
| 18>  H       -0.9688547385    -0.3387074598     0.1235625438
| 19>  H        1.6989610432    -0.2235959390    -1.3793207454
| 20>  H        1.3180664394    -2.5313690474    -1.9755464335
| 21>  H        1.2852036032    -2.4066765321    -0.1980777252
| 22>  H       -0.5573836393    -3.5784720058    -1.1775849296
| 23>  H       -0.8859958640    -0.7867485589    -2.6027672855
| 24>  H       -1.1591554527     0.4450368464    -4.5791713009
| 25>  H        0.2450439410     0.8220712133    -5.4405514499
| 26> *
| 27>
| 28>                          ****END OF INPUT****

CARTESIAN COORDINATES (ANGSTROEM)
---------------------------------
  C      0.050016    1.569804   -0.037337
  C      0.052395    0.041115    0.004971
  C      0.682802   -0.604052   -1.241149
  C      0.755425   -2.128131   -1.121599
  O     -0.583429   -2.619955   -1.114767
  N     -0.045897   -0.246210   -2.454014
  C      0.620676    0.213905   -3.569057
  N     -0.174626    0.265455   -4.711106
  O      1.795566    0.535143   -3.578300
  H      1.068535    1.966717   -0.108722
  H     -0.507943    1.935224   -0.904107
  H     -0.410840    1.986918    0.863333
  H      0.611609   -0.304897    0.883597
  H     -0.968855   -0.338707    0.123563
  H      1.698961   -0.223596   -1.379321
  H      1.318066   -2.531369   -1.975546
  H      1.285204   -2.406677   -0.198078
  H     -0.557384   -3.578472   -1.177585
  H     -0.885996   -0.786749   -2.602767
  H     -1.159155    0.445037   -4.579171
  H      0.245044    0.822071   -5.440551

 Total Charge           Charge          ....    0
 Multiplicity           Mult            ....    1
 Number of Electrons    NEL             ....   72
 Basis Dimension        Dim             ....  351

ORBITAL ENERGIES
----------------

  NO   OCC          E(Eh)            E(eV)
   0   2.0000     -20.567436      -559.6684
   1   2.0000     -20.504703      -557.9613
   2   2.0000     -15.573471      -423.7757
   3   2.0000     -15.568855      -423.6501
   4   2.0000     -11.368817      -309.3612
   5   2.0000     -11.281100      -306.9743
   6   2.0000     -11.260148      -306.4042
   7   2.0000     -11.217207      -305.2357
   8   2.0000     -11.206452      -304.9431
   9   2.0000      -1.386085       -37.7173
  10   2.0000      -1.371038       -37.3079
  11   2.0000      -1.234736       -33.5989
  12   2.0000      -1.186435       -32.2845
  13   2.0000      -1.050366       -28.5819
  14   2.0000      -0.975822       -26.5535
  15   2.0000      -0.866230       -23.5713
  16   2.0000      -0.819934       -22.3115
  17   2.0000      -0.785121       -21.3642
  18   2.0000      -0.735833       -20.0230
  19   2.0000      -0.702018       -19.1029
  20   2.0000      -0.686697       -18.6860
  21   2.0000      -0.645804       -17.5732
  22   2.0000      -0.633632       -17.2420
  23   2.0000      -0.609549       -16.5867
  24   2.0000      -0.598660       -16.2904
  25   2.0000      -0.582719       -15.8566
  26   2.0000      -0.567254       -15.4358
  27   2.0000      -0.536528       -14.5997
  28   2.0000      -0.532095       -14.4790
  29   2.0000      -0.487032       -13.2528
  30   2.0000      -0.483366       -13.1530
  31   2.0000      -0.478790       -13.0285
  32   2.0000      -0.452825       -12.3220
  33   2.0000      -0.439188       -11.9509
  34   2.0000      -0.420407       -11.4398
  35   2.0000      -0.389454       -10.5976
  36   0.0000       0.122708         3.3391
  37   0.0000       0.135766         3.6944
  38   0.0000       0.156186         4.2500
  39   0.0000       0.171668         4.6713
  40   0.0000       0.188812         5.1378

MULLIKEN ATOMIC CHARGES
-----------------------
   0 C :   -0.387422
   1 C :   -0.200409
   2 C :    0.054073
   3 C :   -0.096640
   4 O :   -0.490260
   5 N :   -0.389609
   6 C :    0.391246
   7 N :   -0.530671
   8 O :   -0.404633
   9 H :    0.126088
  10 H :    0.127243
  11 H :    0.133006
  12 H :    0.101841
  13 H :    0.118064
  14 H :    0.143939
  15 H :    0.125114
  16 H :    0.104035
  17 H :    0.320535
  18 H :    0.243164
  19 H :    0.248334
  20 H :    0.262962
Sum of atomic charges:    0.0000000

LOEWDIN ATOMIC CHARGES
----------------------
   0 C :   -0.318595
   1 C :   -0.273597
   2 C :   -0.287985
   3 C :   -0.324818
   4 O :   -0.055880
   5 N :    0.110032
   6 C :   -0.574200
   7 N :   -0.074549
   8 O :    0.047242
   9 H :    0.123093
  10 H :    0.121451
  11 H :    0.120089
  12 H :    0.138685
  13 H :    0.139472
  14 H :    0.165906
  15 H :    0.122787
  16 H :    0.120385
  17 H :    0.174553
  18 H :    0.187097
  19 H :    0.164794
  20 H :    0.174038

  Mayer bond orders larger than 0.1
B(  0-C ,  1-C ) :   0.9284 B(  0-C ,  9-H ) :   0.9359 B(  0-C , 10-H ) :   0.9380
B(  0-C , 11-H ) :   0.9410 B(  1-C ,  2-C ) :   0.9119 B(  1-C , 12-H ) :   0.9337
B(  1-C , 13-H ) :   0.9279 B(  2-C ,  3-C ) :   0.9252 B(  2-C ,  5-N ) :   0.8667
B(  2-C , 14-H ) :   0.9183 B(  3-C ,  4-O ) :   0.9790 B(  3-C , 15-H ) :   0.9260
B(  3-C , 16-H ) :   0.9302 B(  4-O , 17-H ) :   0.8461 B(  5-N ,  6-C ) :   1.1154
B(  5-N , 18-H ) :   0.8595 B(  6-C ,  7-N ) :   1.0746 B(  6-C ,  8-O ) :   1.9179
B(  7-N , 19-H ) :   0.8722 B(  7-N , 20-H ) :   0.8710

MP2 TOTAL ENERGY:     -456.863186545 Eh
FINAL SINGLE POINT ENERGY      -456.863186545027

DIPOLE MOMENT
-------------
                                X             Y             Z
Electronic contribution:      1.19807      -1.86977      -6.80726
Nuclear contribution   :     -2.11630       1.16111       6.96027
                        -----------------------------------------
Total Dipole Moment    :     -0.91823      -0.70867       0.15301
                        -----------------------------------------
Magnitude (a.u.)       :      1.16994
Magnitude (Debye)      :      2.97376

                             ****ORCA TERMINATED NORMALLY****
TOTAL RUN TIME: 0 days 0 hours 17 minutes 39 seconds 948 msec
