                         Program Version 3.0.3 - RELEASE   -
|  1> ! RI-MP2 RIJK def2-TZVP def2-TZVP/C def2-TZVP/JK TIGHTSCF
|  2> % maxcore 2000
|  3> % mp2 density relaxed end
|  4> *xyz 0 1
|  5>  C       -0.7054799002    -0.5190084100    -1.1991111373
|  6>  C       -0.2339219875     0.1792483864    -0.3425006590
|  7>  C        0.3257085188     1.0218038412     0.7060989700
|  8>  C        1.6076923944     1.7568005570     0.3495961202
|  9>  N        2.1142414392     2.5279789872     1.3175147303
| 10>  C        3.2376309429     3.1847581082     1.0345570100
| 11>  C        3.8612383526     3.0791616848    -0.2066569954
| 12>  N        3.3634439823     2.3130841058    -1.1769210634
| 13>  C        2.2374932068     1.6550384419    -0.8929071579
| 14>  H       -1.1250478639    -1.1371154480    -1.9539270653
| 15>  H       -0.4144816887     1.7696545636     1.0183341380
| 16>  H        0.5217569021     0.4201893954     1.6029201349
| 17>  H        3.6534315516     3.8130896942     1.8183809407
| 18>  H        4.7779532132     3.6221575328    -0.4210410387
| 19>  H        1.8188621364     1.0266431695    -1.6722828572
| 20> *
| 21>
| 22>                          ****END OF INPUT****

CARTESIAN COORDINATES (ANGSTROEM)
---------------------------------
  C     -0.705480   -0.519008   -1.199111
  C     -0.233922    0.179248   -0.342501
  C      0.325709    1.021804    0.706099
  C      1.607692    1.756801    0.349596
  N      2.114241    2.527979    1.317515
  C      3.237631    3.184758    1.034557
  C      3.861238    3.079162   -0.206657
  N      3.363444    2.313084   -1.176921
  C      2.237493    1.655038   -0.892907
  H     -1.125048   -1.137115   -1.953927
  H     -0.414482    1.769655    1.018334
  H      0.521757    0.420189    1.602920
  H      3.653432    3.813090    1.818381
  H      4.777953    3.622158   -0.421041
  H      1.818862    1.026643   -1.672283

 Total Charge           Charge          ....    0
 Multiplicity           Mult            ....    1
 Number of Electrons    NEL             ....   62
 Basis Dimension        Dim             ....  315

ORBITAL ENERGIES
----------------

  NO   OCC          E(Eh)            E(eV)
   0   2.0000     -15.591960      -424.2788
   1   2.0000     -15.590942      -424.2511
   2   2.0000     -11.296271      -307.3872
   3   2.0000     -11.285036      -307.0814
   4   2.0000     -11.280427      -306.9560
   5   2.0000     -11.278391      -306.9006
   6   2.0000     -11.270917      -306.6972
   7   2.0000     -11.245218      -305.9979
   8   2.0000     -11.232598      -305.6545
   9   2.0000      -1.310592       -35.6630
  10   2.0000      -1.222001       -33.2523
  11   2.0000      -1.102422       -29.9984
  12   2.0000      -1.039336       -28.2818
  13   2.0000      -0.975334       -26.5402
  14   2.0000      -0.901182       -24.5224
  15   2.0000      -0.867958       -23.6183
  16   2.0000      -0.740595       -20.1526
  17   2.0000      -0.715707       -19.4754
  18   2.0000      -0.710779       -19.3413
  19   2.0000      -0.665160       -18.0999
  20   2.0000      -0.628386       -17.0993
  21   2.0000      -0.620985       -16.8979
  22   2.0000      -0.603595       -16.4247
  23   2.0000      -0.562167       -15.2973
  24   2.0000      -0.550451       -14.9785
  25   2.0000      -0.498438       -13.5632
  26   2.0000      -0.437352       -11.9009
  27   2.0000      -0.420518       -11.4429
  28   2.0000      -0.397220       -10.8089
  29   2.0000      -0.394106       -10.7242
  30   2.0000      -0.352578        -9.5941
  31   0.0000       0.076672         2.0864
  32   0.0000       0.114339         3.1113
  33   0.0000       0.142330         3.8730
  34   0.0000       0.161638         4.3984
  35   0.0000       0.168742         4.5917

MULLIKEN ATOMIC CHARGES
-----------------------
   0 C :   -0.152523
   1 C :   -0.045641
   2 C :   -0.272699
   3 C :    0.107274
   4 N :   -0.257331
   5 C :   -0.036150
   6 C :   -0.006808
   7 N :   -0.232051
   8 C :   -0.056623
   9 H :    0.193800
  10 H :    0.160093
  11 H :    0.160084
  12 H :    0.138193
  13 H :    0.139964
  14 H :    0.160417
Sum of atomic charges:   -0.0000000

LOEWDIN ATOMIC CHARGES
----------------------
   0 C :   -0.096900
   1 C :   -0.109040
   2 C :   -0.204813
   3 C :   -0.211669
   4 N :    0.170264
   5 C :   -0.211565
   6 C :   -0.213796
   7 N :    0.144007
   8 C :   -0.174801
   9 H :    0.128317
  10 H :    0.172175
  11 H :    0.172176
  12 H :    0.142105
  13 H :    0.141940
  14 H :    0.151599

  Mayer bond orders larger than 0.1
B(  0-C ,  1-C ) :   2.6481 B(  0-C ,  9-H ) :   0.8988 B(  1-C ,  2-C ) :   1.0552
B(  2-C ,  3-C ) :   0.8939 B(  2-C , 10-H ) :   0.9112 B(  2-C , 11-H ) :   0.9112
B(  3-C ,  4-N ) :   1.3532 B(  3-C ,  8-C ) :   1.3414 B(  4-N ,  5-C ) :   1.4025
B(  5-C ,  6-C ) :   1.3017 B(  5-C , 12-H ) :   0.9308 B(  6-C ,  7-N ) :   1.3744
B(  6-C , 13-H ) :   0.9309 B(  7-N ,  8-C ) :   1.4058 B(  8-C , 14-H ) :   0.9286

MP2 TOTAL ENERGY:     -378.987515136 Eh
FINAL SINGLE POINT ENERGY      -378.987515135867

DIPOLE MOMENT
-------------
                                X             Y             Z
Electronic contribution:      1.28782       0.72123      -0.39794
Nuclear contribution   :     -1.33902      -0.68142       0.57191
                        -----------------------------------------
Total Dipole Moment    :     -0.05119       0.03981       0.17397
                        -----------------------------------------
Magnitude (a.u.)       :      0.18566
Magnitude (Debye)      :      0.47192

                             ****ORCA TERMINATED NORMALLY****
TOTAL RUN TIME: 0 days 0 hours 13 minutes 58 seconds 504 msec
