                         Program Version 3.0.3 - RELEASE   -
|  1> ! RI-MP2 RIJK def2-TZVP def2-TZVP/C def2-TZVP/JK TIGHTSCF
|  2> % maxcore 2000
|  3> % mp2 density relaxed end
|  4> *xyz 0 1
|  5>  C        0.0374143937     1.5327264874    -0.0934286760
|  6>  C        0.0018211128     0.0224897811     0.0058734049
|  7>  O        0.6676436941    -0.5050767155    -1.1705451112
|  8>  C        0.7281240691    -1.8211749042    -1.2482788181
|  9>  N        0.2610845001    -2.6745320790    -0.3949282877
| 10>  O        0.5947534894    -3.9465438901    -0.9622535818
| 11>  C        1.2567903255    -3.7866454229    -2.1468034604
| 12>  O        1.6602639567    -4.6669557321    -2.8489329259
| 13>  N        1.3362064291    -2.4087731496    -2.3210934548
| 14>  H        1.0672423275     1.8987163150    -0.1236357916
| 15>  H       -0.4820909078     1.8781730340    -0.9913088841
| 16>  H       -0.4574406412     1.9666271768     0.7799281121
| 17>  H        0.5247055213    -0.3490359288     0.8925885980
| 18>  H       -1.0197208699    -0.3695235941     0.0276824384
| 19>  H        1.7687396797    -1.9518324979    -3.1048621019
| 20> *
| 21>
| 22>                          ****END OF INPUT****

CARTESIAN COORDINATES (ANGSTROEM)
---------------------------------
  C      0.037414    1.532726   -0.093429
  C      0.001821    0.022490    0.005873
  O      0.667644   -0.505077   -1.170545
  C      0.728124   -1.821175   -1.248279
  N      0.261085   -2.674532   -0.394928
  O      0.594753   -3.946544   -0.962254
  C      1.256790   -3.786645   -2.146803
  O      1.660264   -4.666956   -2.848933
  N      1.336206   -2.408773   -2.321093
  H      1.067242    1.898716   -0.123636
  H     -0.482091    1.878173   -0.991309
  H     -0.457441    1.966627    0.779928
  H      0.524706   -0.349036    0.892589
  H     -1.019721   -0.369524    0.027682
  H      1.768740   -1.951832   -3.104862

 Total Charge           Charge          ....    0
 Multiplicity           Mult            ....    1
 Number of Electrons    NEL             ....   68
 Basis Dimension        Dim             ....  315

ORBITAL ENERGIES
----------------

  NO   OCC          E(Eh)            E(eV)
   0   2.0000     -20.641648      -561.6878
   1   2.0000     -20.641045      -561.6714
   2   2.0000     -20.547454      -559.1246
   3   2.0000     -15.645439      -425.7340
   4   2.0000     -15.622874      -425.1200
   5   2.0000     -11.425074      -310.8921
   6   2.0000     -11.409642      -310.4721
   7   2.0000     -11.318176      -307.9832
   8   2.0000     -11.246187      -306.0243
   9   2.0000      -1.522768       -41.4366
  10   2.0000      -1.472938       -40.0807
  11   2.0000      -1.396083       -37.9893
  12   2.0000      -1.289239       -35.0820
  13   2.0000      -1.161306       -31.6007
  14   2.0000      -1.064593       -28.9690
  15   2.0000      -0.916914       -24.9505
  16   2.0000      -0.884524       -24.0691
  17   2.0000      -0.839043       -22.8315
  18   2.0000      -0.789502       -21.4834
  19   2.0000      -0.732103       -19.9215
  20   2.0000      -0.731530       -19.9059
  21   2.0000      -0.683675       -18.6037
  22   2.0000      -0.666313       -18.1313
  23   2.0000      -0.635388       -17.2898
  24   2.0000      -0.599906       -16.3243
  25   2.0000      -0.583058       -15.8658
  26   2.0000      -0.570835       -15.5332
  27   2.0000      -0.552201       -15.0262
  28   2.0000      -0.541096       -14.7240
  29   2.0000      -0.530430       -14.4337
  30   2.0000      -0.527253       -14.3473
  31   2.0000      -0.484500       -13.1839
  32   2.0000      -0.463265       -12.6061
  33   2.0000      -0.387743       -10.5510
  34   0.0000       0.119681         3.2567
  35   0.0000       0.131537         3.5793
  36   0.0000       0.168760         4.5922
  37   0.0000       0.176653         4.8070
  38   0.0000       0.189718         5.1625

MULLIKEN ATOMIC CHARGES
-----------------------
   0 C :   -0.363888
   1 C :   -0.074226
   2 O :   -0.257368
   3 C :    0.358015
   4 N :   -0.197755
   5 O :   -0.132153
   6 C :    0.343419
   7 O :   -0.310882
   8 N :   -0.332913
   9 H :    0.138780
  10 H :    0.138777
  11 H :    0.140223
  12 H :    0.136600
  13 H :    0.136615
  14 H :    0.276754
Sum of atomic charges:    0.0000000

LOEWDIN ATOMIC CHARGES
----------------------
   0 C :   -0.310721
   1 C :   -0.285603
   2 O :    0.266522
   3 C :   -0.495023
   4 N :    0.012535
   5 O :    0.229320
   6 C :   -0.560350
   7 O :    0.111737
   8 N :    0.172352
   9 H :    0.127671
  10 H :    0.127670
  11 H :    0.132995
  12 H :    0.132775
  13 H :    0.132779
  14 H :    0.205341

  Mayer bond orders larger than 0.1
B(  0-C ,  1-C ) :   0.9427 B(  0-C ,  9-H ) :   0.9333 B(  0-C , 10-H ) :   0.9333
B(  0-C , 11-H ) :   0.9313 B(  1-C ,  2-O ) :   0.8020 B(  1-C , 12-H ) :   0.9286
B(  1-C , 13-H ) :   0.9286 B(  2-O ,  3-C ) :   1.1760 B(  3-C ,  4-N ) :   1.6189
B(  3-C ,  8-N ) :   1.0923 B(  4-N ,  5-O ) :   0.7752 B(  5-O ,  6-C ) :   1.1109
B(  6-C ,  7-O ) :   2.0191 B(  6-C ,  8-N ) :   1.0472 B(  8-N , 14-H ) :   0.8538

MP2 TOTAL ENERGY:     -490.331652237 Eh
FINAL SINGLE POINT ENERGY      -490.331652237017

DIPOLE MOMENT
-------------
                                X             Y             Z
Electronic contribution:      2.70520     -11.90866      -4.55318
Nuclear contribution   :     -2.77769      14.19674       4.63067
                        -----------------------------------------
Total Dipole Moment    :     -0.07249       2.28807       0.07749
                        -----------------------------------------
Magnitude (a.u.)       :      2.29053
Magnitude (Debye)      :      5.82207

                             ****ORCA TERMINATED NORMALLY****
TOTAL RUN TIME: 0 days 0 hours 13 minutes 10 seconds 856 msec
