                         Program Version 3.0.3 - RELEASE   -
|  1> ! RI-MP2 RIJK def2-TZVP def2-TZVP/C def2-TZVP/JK TIGHTSCF
|  2> % maxcore 2000
|  3> % mp2 density relaxed end
|  4> *xyz 0 1
|  5>  C       -0.0176508301     1.5493406899    -0.0610491920
|  6>  C       -0.0120772028     0.0324423354    -0.0149176564
|  7>  O        0.6585837994    -0.4453523357    -1.1727683678
|  8>  C        0.7519543613    -1.7929038083    -1.2853562273
|  9>  C        0.2999390847    -2.8017508322    -0.4567838307
| 10>  N        0.6744743575    -3.9602702292    -1.0700710136
| 11>  N        1.3309771799    -3.7635861087    -2.2250908156
| 12>  C        1.3882945883    -2.4413879386    -2.3747303580
| 13>  C        2.0482016579    -1.8047537185    -3.5534927851
| 14>  H        1.0045926496     1.9371716913    -0.0778320717
| 15>  H       -0.5353341654     1.9048389849    -0.9562028141
| 16>  H       -0.5279871411     1.9518939490     0.8188225054
| 17>  H        0.5035158838    -0.3328624174     0.8864411156
| 18>  H       -1.0382928259    -0.3652418487     0.0067637499
| 19>  H       -0.2347890861    -2.7935086774     0.4775546200
| 20>  H        0.5159699562    -4.8998149615    -0.7523892722
| 21>  H        1.3445316191    -1.1833890032    -4.1184014084
| 22>  H        2.8733161381    -1.1527851629    -3.2460630131
| 23>  H        2.4426379856    -2.5766351184    -4.2175758650
| 24> *
| 25>
| 26>                          ****END OF INPUT****

CARTESIAN COORDINATES (ANGSTROEM)
---------------------------------
  C     -0.017651    1.549341   -0.061049
  C     -0.012077    0.032442   -0.014918
  O      0.658584   -0.445352   -1.172768
  C      0.751954   -1.792904   -1.285356
  C      0.299939   -2.801751   -0.456784
  N      0.674474   -3.960270   -1.070071
  N      1.330977   -3.763586   -2.225091
  C      1.388295   -2.441388   -2.374730
  C      2.048202   -1.804754   -3.553493
  H      1.004593    1.937172   -0.077832
  H     -0.535334    1.904839   -0.956203
  H     -0.527987    1.951894    0.818823
  H      0.503516   -0.332862    0.886441
  H     -1.038293   -0.365242    0.006764
  H     -0.234789   -2.793509    0.477555
  H      0.515970   -4.899815   -0.752389
  H      1.344532   -1.183389   -4.118401
  H      2.873316   -1.152785   -3.246063
  H      2.442638   -2.576635   -4.217576

 Total Charge           Charge          ....    0
 Multiplicity           Mult            ....    1
 Number of Electrons    NEL             ....   68
 Basis Dimension        Dim             ....  339

ORBITAL ENERGIES
----------------

  NO   OCC          E(Eh)            E(eV)
   0   2.0000     -20.577854      -559.9519
   1   2.0000     -15.624735      -425.1706
   2   2.0000     -15.579404      -423.9371
   3   2.0000     -11.287855      -307.1581
   4   2.0000     -11.274819      -306.8034
   5   2.0000     -11.263852      -306.5050
   6   2.0000     -11.247743      -306.0667
   7   2.0000     -11.222556      -305.3813
   8   2.0000     -11.214910      -305.1732
   9   2.0000      -1.407586       -38.3024
  10   2.0000      -1.361625       -37.0517
  11   2.0000      -1.102223       -29.9930
  12   2.0000      -1.055716       -28.7275
  13   2.0000      -1.010120       -27.4868
  14   2.0000      -0.955208       -25.9925
  15   2.0000      -0.869142       -23.6506
  16   2.0000      -0.790910       -21.5218
  17   2.0000      -0.762466       -20.7478
  18   2.0000      -0.738847       -20.1051
  19   2.0000      -0.671829       -18.2814
  20   2.0000      -0.665781       -18.1168
  21   2.0000      -0.630718       -17.1627
  22   2.0000      -0.611058       -16.6277
  23   2.0000      -0.572908       -15.5896
  24   2.0000      -0.549854       -14.9623
  25   2.0000      -0.547538       -14.8993
  26   2.0000      -0.546005       -14.8576
  27   2.0000      -0.543008       -14.7760
  28   2.0000      -0.521847       -14.2002
  29   2.0000      -0.495121       -13.4729
  30   2.0000      -0.477225       -12.9859
  31   2.0000      -0.447837       -12.1863
  32   2.0000      -0.344638        -9.3781
  33   2.0000      -0.314127        -8.5478
  34   0.0000       0.131802         3.5865
  35   0.0000       0.142066         3.8658
  36   0.0000       0.159353         4.3362
  37   0.0000       0.161700         4.4001
  38   0.0000       0.169674         4.6171

MULLIKEN ATOMIC CHARGES
-----------------------
   0 C :   -0.371052
   1 C :   -0.068318
   2 O :   -0.286602
   3 C :    0.183241
   4 C :   -0.173902
   5 N :   -0.116422
   6 N :   -0.215574
   7 C :    0.037817
   8 C :   -0.429062
   9 H :    0.134602
  10 H :    0.134604
  11 H :    0.126926
  12 H :    0.105302
  13 H :    0.105291
  14 H :    0.154849
  15 H :    0.253603
  16 H :    0.137706
  17 H :    0.137672
  18 H :    0.149319
Sum of atomic charges:    0.0000000

LOEWDIN ATOMIC CHARGES
----------------------
   0 C :   -0.313351
   1 C :   -0.327437
   2 O :    0.245760
   3 C :   -0.289585
   4 C :   -0.254457
   5 N :    0.114388
   6 N :    0.039153
   7 C :   -0.282627
   8 C :   -0.274821
   9 H :    0.125962
  10 H :    0.125960
  11 H :    0.126381
  12 H :    0.122469
  13 H :    0.122460
  14 H :    0.135892
  15 H :    0.185072
  16 H :    0.131894
  17 H :    0.131889
  18 H :    0.134997

  Mayer bond orders larger than 0.1
B(  0-C ,  1-C ) :   0.9546 B(  0-C ,  9-H ) :   0.9367 B(  0-C , 10-H ) :   0.9367
B(  0-C , 11-H ) :   0.9334 B(  1-C ,  2-O ) :   0.8786 B(  1-C , 12-H ) :   0.9208
B(  1-C , 13-H ) :   0.9208 B(  2-O ,  3-C ) :   1.0877 B(  3-C ,  4-C ) :   1.3923
B(  3-C ,  7-C ) :   1.2442 B(  4-C ,  5-N ) :   1.1465 B(  4-C ,  6-N ) :   0.1093
B(  4-C , 14-H ) :   0.9073 B(  5-N ,  6-N ) :   1.0741 B(  5-N , 15-H ) :   0.8758
B(  6-N ,  7-C ) :   1.5717 B(  7-C ,  8-C ) :   0.8874 B(  8-C , 16-H ) :   0.9305
B(  8-C , 17-H ) :   0.9304 B(  8-C , 18-H ) :   0.9507

MP2 TOTAL ENERGY:     -418.514704931 Eh
FINAL SINGLE POINT ENERGY      -418.514704931202

DIPOLE MOMENT
-------------
                                X             Y             Z
Electronic contribution:      0.77088      -8.41148      -1.04255
Nuclear contribution   :     -1.37447       8.56973       2.09593
                        -----------------------------------------
Total Dipole Moment    :     -0.60359       0.15825       1.05338
                        -----------------------------------------
Magnitude (a.u.)       :      1.22432
Magnitude (Debye)      :      3.11197

                             ****ORCA TERMINATED NORMALLY****
TOTAL RUN TIME: 0 days 0 hours 18 minutes 8 seconds 670 msec
