                         Program Version 3.0.3 - RELEASE   -
|  1> ! RI-MP2 RIJK def2-TZVP def2-TZVP/C def2-TZVP/JK TIGHTSCF
|  2> % maxcore 2000
|  3> % mp2 density relaxed end
|  4> *xyz 0 1
|  5>  C        0.2607068717     1.3821688156     0.3858342262
|  6>  C       -0.2103748705     0.0227206801    -0.1621960185
|  7>  C        0.5658345869    -0.4281182086    -1.3577236886
|  8>  N        0.2183184423    -0.2586847854    -2.6117130803
|  9>  C        1.2509637408    -0.7908602446    -3.3611163655
| 10>  C        2.2363408727    -1.2891815620    -2.5405823660
| 11>  N        1.7877979684    -1.0507163219    -1.2701972174
| 12>  C        1.2451237287    -0.8021978703    -4.7811477411
| 13>  N        1.2624228266    -0.8215663567    -5.9385783244
| 14>  H        1.3058585748     1.3442828773     0.7102314008
| 15>  H        0.1748658872     2.1554335229    -0.3821856437
| 16>  H       -0.3472636184     1.6802476926     1.2447095106
| 17>  H       -0.1509835574    -0.7378417700     0.6259942359
| 18>  H       -1.2577635811     0.0883160335    -0.4667608853
| 19>  H        3.1726940013    -1.7775312279    -2.7500867513
| 20>  H        2.2695685560    -1.2992538147    -0.4214913713
| 21> *
| 22>
| 23>                          ****END OF INPUT****

CARTESIAN COORDINATES (ANGSTROEM)
---------------------------------
  C      0.260707    1.382169    0.385834
  C     -0.210375    0.022721   -0.162196
  C      0.565835   -0.428118   -1.357724
  N      0.218318   -0.258685   -2.611713
  C      1.250964   -0.790860   -3.361116
  C      2.236341   -1.289182   -2.540582
  N      1.787798   -1.050716   -1.270197
  C      1.245124   -0.802198   -4.781148
  N      1.262423   -0.821566   -5.938578
  H      1.305859    1.344283    0.710231
  H      0.174866    2.155434   -0.382186
  H     -0.347264    1.680248    1.244710
  H     -0.150984   -0.737842    0.625994
  H     -1.257764    0.088316   -0.466761
  H      3.172694   -1.777531   -2.750087
  H      2.269569   -1.299254   -0.421491

 Total Charge           Charge          ....    0
 Multiplicity           Mult            ....    1
 Number of Electrons    NEL             ....   64
 Basis Dimension        Dim             ....  321

ORBITAL ENERGIES
----------------

  NO   OCC          E(Eh)            E(eV)
   0   2.0000     -15.646091      -425.7518
   1   2.0000     -15.568918      -423.6518
   2   2.0000     -15.563141      -423.4946
   3   2.0000     -11.324479      -308.1547
   4   2.0000     -11.300134      -307.4923
   5   2.0000     -11.292594      -307.2871
   6   2.0000     -11.268161      -306.6223
   7   2.0000     -11.259822      -306.3953
   8   2.0000     -11.240903      -305.8805
   9   2.0000      -1.371311       -37.3153
  10   2.0000      -1.213647       -33.0250
  11   2.0000      -1.191773       -32.4298
  12   2.0000      -1.095985       -29.8233
  13   2.0000      -1.022302       -27.8183
  14   2.0000      -0.900806       -24.5122
  15   2.0000      -0.887191       -24.1417
  16   2.0000      -0.828702       -22.5501
  17   2.0000      -0.755749       -20.5650
  18   2.0000      -0.685119       -18.6430
  19   2.0000      -0.652810       -17.7639
  20   2.0000      -0.646809       -17.6006
  21   2.0000      -0.615722       -16.7546
  22   2.0000      -0.612449       -16.6656
  23   2.0000      -0.553464       -15.0605
  24   2.0000      -0.546303       -14.8657
  25   2.0000      -0.530905       -14.4467
  26   2.0000      -0.518366       -14.1055
  27   2.0000      -0.495387       -13.4802
  28   2.0000      -0.471211       -12.8223
  29   2.0000      -0.453193       -12.3320
  30   2.0000      -0.418724       -11.3941
  31   2.0000      -0.336403        -9.1540
  32   0.0000       0.099700         2.7130
  33   0.0000       0.117196         3.1891
  34   0.0000       0.138287         3.7630
  35   0.0000       0.160152         4.3580
  36   0.0000       0.166722         4.5367

MULLIKEN ATOMIC CHARGES
-----------------------
   0 C :   -0.384815
   1 C :   -0.271246
   2 C :    0.237453
   3 N :   -0.285089
   4 C :    0.212612
   5 C :   -0.081620
   6 N :   -0.266831
   7 C :   -0.221803
   8 N :   -0.050902
   9 H :    0.115817
  10 H :    0.150910
  11 H :    0.139036
  12 H :    0.125779
  13 H :    0.152824
  14 H :    0.172032
  15 H :    0.255844
Sum of atomic charges:    0.0000000

LOEWDIN ATOMIC CHARGES
----------------------
   0 C :   -0.305165
   1 C :   -0.256581
   2 C :   -0.301410
   3 N :    0.159066
   4 C :   -0.263749
   5 C :   -0.178591
   6 N :    0.209285
   7 C :   -0.152131
   8 N :    0.071418
   9 H :    0.118199
  10 H :    0.129444
  11 H :    0.124077
  12 H :    0.143704
  13 H :    0.157883
  14 H :    0.144601
  15 H :    0.199950

  Mayer bond orders larger than 0.1
B(  0-C ,  1-C ) :   0.9139 B(  0-C ,  9-H ) :   0.9350 B(  0-C , 10-H ) :   0.9361
B(  0-C , 11-H ) :   0.9354 B(  1-C ,  2-C ) :   0.8881 B(  1-C , 12-H ) :   0.9380
B(  1-C , 13-H ) :   0.9465 B(  2-C ,  3-N ) :   1.5767 B(  2-C ,  6-N ) :   1.1360
B(  3-N ,  4-C ) :   1.2224 B(  4-C ,  5-C ) :   1.4601 B(  4-C ,  7-C ) :   0.9175
B(  5-C ,  6-N ) :   1.1723 B(  5-C , 14-H ) :   0.8948 B(  6-N , 15-H ) :   0.8634
B(  7-C ,  8-N ) :   2.8713

MP2 TOTAL ENERGY:     -396.299499749 Eh
FINAL SINGLE POINT ENERGY      -396.299499748651

DIPOLE MOMENT
-------------
                                X             Y             Z
Electronic contribution:      2.24548      -4.48502     -11.01917
Nuclear contribution   :     -1.39701       4.13840      13.86356
                        -----------------------------------------
Total Dipole Moment    :      0.84847      -0.34662       2.84440
                        -----------------------------------------
Magnitude (a.u.)       :      2.98842
Magnitude (Debye)      :      7.59595

                             ****ORCA TERMINATED NORMALLY****
TOTAL RUN TIME: 0 days 0 hours 15 minutes 28 seconds 189 msec
