                         Program Version 3.0.3 - RELEASE   -
|  1> ! RI-MP2 RIJK def2-TZVP def2-TZVP/C def2-TZVP/JK TIGHTSCF
|  2> % maxcore 2000
|  3> % mp2 density relaxed end
|  4> *xyz 0 1
|  5>  O       -0.0259829490     1.4506186737     0.0101593408
|  6>  C       -0.0133521276     0.0333727212     0.0022886652
|  7>  C       -1.3834868267    -0.4645392286     0.0124806888
|  8>  C       -2.5079081658    -0.8960224208     0.0206730527
|  9>  C       -3.8130812745    -1.4344939825     0.0300963838
| 10>  N       -4.9081564843    -0.7033669881     0.0411100329
| 11>  O       -5.9414716140    -1.5893635381     0.0473678146
| 12>  N       -5.5023158425    -2.8845129254     0.0402987982
| 13>  C       -4.2038674652    -2.8104434807     0.0297160715
| 14>  H        0.8894147990     1.7486444391     0.0030979957
| 15>  H        0.4979128450    -0.3650414377    -0.8897173653
| 16>  H        0.5146186891    -0.3747266506     0.8800675285
| 17>  H       -3.5865459735    -3.6944877716     0.0222517924
| 18> *
| 19>
| 20>                          ****END OF INPUT****

CARTESIAN COORDINATES (ANGSTROEM)
---------------------------------
  O     -0.025983    1.450619    0.010159
  C     -0.013352    0.033373    0.002289
  C     -1.383487   -0.464539    0.012481
  C     -2.507908   -0.896022    0.020673
  C     -3.813081   -1.434494    0.030096
  N     -4.908156   -0.703367    0.041110
  O     -5.941472   -1.589364    0.047368
  N     -5.502316   -2.884513    0.040299
  C     -4.203867   -2.810443    0.029716
  H      0.889415    1.748644    0.003098
  H      0.497913   -0.365041   -0.889717
  H      0.514619   -0.374727    0.880068
  H     -3.586546   -3.694488    0.022252

 Total Charge           Charge          ....    0
 Multiplicity           Mult            ....    1
 Number of Electrons    NEL             ....   64
 Basis Dimension        Dim             ....  303

ORBITAL ENERGIES
----------------

  NO   OCC          E(Eh)            E(eV)
   0   2.0000     -20.688851      -562.9722
   1   2.0000     -20.585493      -560.1597
   2   2.0000     -15.666140      -426.2974
   3   2.0000     -15.665375      -426.2765
   4   2.0000     -11.330433      -308.3168
   5   2.0000     -11.324518      -308.1558
   6   2.0000     -11.304531      -307.6119
   7   2.0000     -11.267618      -306.6075
   8   2.0000     -11.259860      -306.3964
   9   2.0000      -1.553920       -42.2843
  10   2.0000      -1.391161       -37.8554
  11   2.0000      -1.224491       -33.3201
  12   2.0000      -1.193340       -32.4724
  13   2.0000      -1.078943       -29.3595
  14   2.0000      -0.981376       -26.7046
  15   2.0000      -0.889481       -24.2040
  16   2.0000      -0.874109       -23.7857
  17   2.0000      -0.770672       -20.9710
  18   2.0000      -0.734661       -19.9911
  19   2.0000      -0.697607       -18.9829
  20   2.0000      -0.695865       -18.9354
  21   2.0000      -0.668854       -18.2005
  22   2.0000      -0.664384       -18.0788
  23   2.0000      -0.598047       -16.2737
  24   2.0000      -0.555963       -15.1285
  25   2.0000      -0.545112       -14.8332
  26   2.0000      -0.507579       -13.8119
  27   2.0000      -0.500249       -13.6125
  28   2.0000      -0.480471       -13.0743
  29   2.0000      -0.441871       -12.0239
  30   2.0000      -0.422140       -11.4870
  31   2.0000      -0.376323       -10.2403
  32   0.0000       0.072341         1.9685
  33   0.0000       0.107301         2.9198
  34   0.0000       0.140435         3.8214
  35   0.0000       0.149072         4.0565
  36   0.0000       0.159403         4.3376

MULLIKEN ATOMIC CHARGES
-----------------------
   0 O :   -0.437098
   1 C :   -0.179938
   2 C :    0.076818
   3 C :    0.123795
   4 C :   -0.063364
   5 N :   -0.090025
   6 O :   -0.000077
   7 N :   -0.086495
   8 C :   -0.103475
   9 H :    0.320998
  10 H :    0.134993
  11 H :    0.134985
  12 H :    0.168883
Sum of atomic charges:   -0.0000000

LOEWDIN ATOMIC CHARGES
----------------------
   0 O :   -0.030652
   1 C :   -0.334188
   2 C :   -0.021658
   3 C :   -0.025554
   4 C :   -0.285183
   5 N :    0.071292
   6 O :    0.215996
   7 N :    0.033936
   8 C :   -0.229317
   9 H :    0.178422
  10 H :    0.138017
  11 H :    0.138011
  12 H :    0.150879

  Mayer bond orders larger than 0.1
B(  0-O ,  1-C ) :   1.1227 B(  0-O ,  9-H ) :   0.8438 B(  1-C ,  2-C ) :   0.8945
B(  1-C , 10-H ) :   0.9477 B(  1-C , 11-H ) :   0.9477 B(  2-C ,  3-C ) :   2.6731
B(  2-C ,  4-C ) :  -0.1722 B(  3-C ,  4-C ) :   1.1249 B(  4-C ,  5-N ) :   1.5204
B(  4-C ,  8-C ) :   1.2112 B(  5-N ,  6-O ) :   0.9472 B(  5-N ,  7-N ) :   0.1251
B(  6-O ,  7-N ) :   0.9526 B(  7-N ,  8-C ) :   1.5855 B(  8-C , 12-H ) :   0.9165

MP2 TOTAL ENERGY:     -451.912459336 Eh
FINAL SINGLE POINT ENERGY      -451.912459336108

DIPOLE MOMENT
-------------
                                X             Y             Z
Electronic contribution:     -7.97333      -1.75607       0.06181
Nuclear contribution   :     10.07829       1.19109      -0.08241
                        -----------------------------------------
Total Dipole Moment    :      2.10495      -0.56498      -0.02060
                        -----------------------------------------
Magnitude (a.u.)       :      2.17956
Magnitude (Debye)      :      5.53999

                             ****ORCA TERMINATED NORMALLY****
TOTAL RUN TIME: 0 days 0 hours 12 minutes 29 seconds 521 msec
