                         Program Version 3.0.3 - RELEASE   -
|  1> ! RI-MP2 RIJK def2-TZVP def2-TZVP/C def2-TZVP/JK TIGHTSCF
|  2> % maxcore 2000
|  3> % mp2 density relaxed end
|  4> *xyz 0 1
|  5>  C       -0.0318672079     1.5432534478     0.0512688806
|  6>  C       -0.0091765761     0.0468658573     0.0126581181
|  7>  C       -0.0244636086    -0.7801296461    -1.0812330985
|  8>  N       -0.1188725891    -0.5298510236    -2.4317460108
|  9>  O       -0.0039445980    -2.0665208314    -0.7135741367
| 10>  N        0.0222567074    -2.1380780449     0.6974634226
| 11>  C        0.0216663442    -0.8857114892     1.0820496647
| 12>  H        0.9456797880     1.9880161114    -0.1763630430
| 13>  H       -0.7529689158     1.9542685728    -0.6645546155
| 14>  H       -0.3224317699     1.9001778376     1.0431553325
| 15>  H        0.3079512527     0.3354065360    -2.7283421503
| 16>  H        0.1539126931    -1.3112967570    -3.0114478467
| 17>  H        0.0375202099    -0.6720678608     2.1432443331
| 18> *
| 19>
| 20>                          ****END OF INPUT****

CARTESIAN COORDINATES (ANGSTROEM)
---------------------------------
  C     -0.031867    1.543253    0.051269
  C     -0.009177    0.046866    0.012658
  C     -0.024464   -0.780130   -1.081233
  N     -0.118873   -0.529851   -2.431746
  O     -0.003945   -2.066521   -0.713574
  N      0.022257   -2.138078    0.697463
  C      0.021666   -0.885711    1.082050
  H      0.945680    1.988016   -0.176363
  H     -0.752969    1.954269   -0.664555
  H     -0.322432    1.900178    1.043155
  H      0.307951    0.335407   -2.728342
  H      0.153913   -1.311297   -3.011448
  H      0.037520   -0.672068    2.143244

 Total Charge           Charge          ....    0
 Multiplicity           Mult            ....    1
 Number of Electrons    NEL             ....   52
 Basis Dimension        Dim             ....  253

ORBITAL ENERGIES
----------------

  NO   OCC          E(Eh)            E(eV)
   0   2.0000     -20.630640      -561.3882
   1   2.0000     -15.602135      -424.5557
   2   2.0000     -15.594642      -424.3518
   3   2.0000     -11.347132      -308.7712
   4   2.0000     -11.272364      -306.7366
   5   2.0000     -11.238550      -305.8165
   6   2.0000     -11.224156      -305.4248
   7   2.0000      -1.482824       -40.3497
   8   2.0000      -1.243234       -33.8301
   9   2.0000      -1.151394       -31.3310
  10   2.0000      -1.064713       -28.9723
  11   2.0000      -0.950336       -25.8600
  12   2.0000      -0.824794       -22.4438
  13   2.0000      -0.796483       -21.6734
  14   2.0000      -0.724480       -19.7141
  15   2.0000      -0.690930       -18.8012
  16   2.0000      -0.659663       -17.9504
  17   2.0000      -0.615934       -16.7604
  18   2.0000      -0.580667       -15.8007
  19   2.0000      -0.576909       -15.6985
  20   2.0000      -0.557513       -15.1707
  21   2.0000      -0.537355       -14.6222
  22   2.0000      -0.501187       -13.6380
  23   2.0000      -0.465046       -12.6545
  24   2.0000      -0.417797       -11.3688
  25   2.0000      -0.316769        -8.6197
  26   0.0000       0.114792         3.1237
  27   0.0000       0.142141         3.8679
  28   0.0000       0.155006         4.2179
  29   0.0000       0.177805         4.8383
  30   0.0000       0.194116         5.2822

MULLIKEN ATOMIC CHARGES
-----------------------
   0 C :   -0.430776
   1 C :   -0.055950
   2 C :    0.263209
   3 N :   -0.518174
   4 O :   -0.133304
   5 N :   -0.134599
   6 C :   -0.101659
   7 H :    0.146368
   8 H :    0.149516
   9 H :    0.146957
  10 H :    0.263950
  11 H :    0.266703
  12 H :    0.137760
Sum of atomic charges:   -0.0000000

LOEWDIN ATOMIC CHARGES
----------------------
   0 C :   -0.277420
   1 C :   -0.225760
   2 C :   -0.365650
   3 N :   -0.055999
   4 O :    0.271123
   5 N :    0.021057
   6 C :   -0.262316
   7 H :    0.128914
   8 H :    0.131935
   9 H :    0.135634
  10 H :    0.177424
  11 H :    0.178964
  12 H :    0.142095

  Mayer bond orders larger than 0.1
B(  0-C ,  1-C ) :   0.8502 B(  0-C ,  7-H ) :   0.9304 B(  0-C ,  8-H ) :   0.9419
B(  0-C ,  9-H ) :   0.9429 B(  1-C ,  2-C ) :   1.4580 B(  1-C ,  6-C ) :   1.2367
B(  2-C ,  3-N ) :   1.0637 B(  2-C ,  4-O ) :   1.1554 B(  2-C ,  5-N ) :   0.1036
B(  3-N , 10-H ) :   0.8692 B(  3-N , 11-H ) :   0.8666 B(  4-O ,  5-N ) :   0.8509
B(  5-N ,  6-C ) :   1.6199 B(  6-C , 12-H ) :   0.9319

MP2 TOTAL ENERGY:     -340.064995977 Eh
FINAL SINGLE POINT ENERGY      -340.064995977195

DIPOLE MOMENT
-------------
                                X             Y             Z
Electronic contribution:     -0.05719      -6.46407       0.23580
Nuclear contribution   :      0.43674       7.75841      -0.99390
                        -----------------------------------------
Total Dipole Moment    :      0.37954       1.29433      -0.75809
                        -----------------------------------------
Magnitude (a.u.)       :      1.54728
Magnitude (Debye)      :      3.93286

                             ****ORCA TERMINATED NORMALLY****
TOTAL RUN TIME: 0 days 0 hours 7 minutes 12 seconds 782 msec
