                         Program Version 3.0.3 - RELEASE   -
|  1> ! RI-MP2 RIJK def2-TZVP def2-TZVP/C def2-TZVP/JK TIGHTSCF
|  2> % maxcore 2000
|  3> % mp2 density relaxed end
|  4> *xyz 0 1
|  5>  C       -0.0208219385     1.3425286615    -0.4718022834
|  6>  C       -0.0289600220    -0.1488689825    -0.1236962100
|  7>  C       -1.4188084457    -0.6393482818     0.2590351580
|  8>  O       -2.3823414887    -0.5815177911    -0.8360093491
|  9>  C       -2.6430749207    -1.9942004245    -0.8430688130
| 10>  C       -2.2938817299    -2.6543394675    -2.0958467569
| 11>  N       -1.9945825918    -3.1862497442    -3.0773306362
| 12>  C       -1.6263319295    -2.1536353954     0.3369905882
| 13>  O       -1.2155716409    -3.0571374137     0.9856395617
| 14>  H        0.9820369266     1.6644088279    -0.7650296871
| 15>  H       -0.7014197683     1.5476174612    -1.3024973962
| 16>  H       -0.3347905773     1.9506499972     0.3831792083
| 17>  H        0.3358492696    -0.7384926360    -0.9722650135
| 18>  H        0.6375478843    -0.3564591258     0.7221430511
| 19>  H       -1.7994613176    -0.1020736933     1.1387287162
| 20>  H       -3.6770727096    -2.2344895420    -0.5647157483
| 21> *
| 22>
| 23>                          ****END OF INPUT****

CARTESIAN COORDINATES (ANGSTROEM)
---------------------------------
  C     -0.020822    1.342529   -0.471802
  C     -0.028960   -0.148869   -0.123696
  C     -1.418808   -0.639348    0.259035
  O     -2.382341   -0.581518   -0.836009
  C     -2.643075   -1.994200   -0.843069
  C     -2.293882   -2.654339   -2.095847
  N     -1.994583   -3.186250   -3.077331
  C     -1.626332   -2.153635    0.336991
  O     -1.215572   -3.057137    0.985640
  H      0.982037    1.664409   -0.765030
  H     -0.701420    1.547617   -1.302497
  H     -0.334791    1.950650    0.383179
  H      0.335849   -0.738493   -0.972265
  H      0.637548   -0.356459    0.722143
  H     -1.799461   -0.102074    1.138729
  H     -3.677073   -2.234490   -0.564716

 Total Charge           Charge          ....    0
 Multiplicity           Mult            ....    1
 Number of Electrons    NEL             ....   66
 Basis Dimension        Dim             ....  321

ORBITAL ENERGIES
----------------

  NO   OCC          E(Eh)            E(eV)
   0   2.0000     -20.605690      -560.7093
   1   2.0000     -20.604507      -560.6771
   2   2.0000     -15.595367      -424.3715
   3   2.0000     -11.380742      -309.6857
   4   2.0000     -11.364025      -309.2308
   5   2.0000     -11.329059      -308.2794
   6   2.0000     -11.293111      -307.3012
   7   2.0000     -11.257151      -306.3227
   8   2.0000     -11.235622      -305.7368
   9   2.0000      -1.458341       -39.6835
  10   2.0000      -1.427726       -38.8504
  11   2.0000      -1.237542       -33.6752
  12   2.0000      -1.091433       -29.6994
  13   2.0000      -1.036725       -28.2107
  14   2.0000      -0.985743       -26.8234
  15   2.0000      -0.872263       -23.7355
  16   2.0000      -0.793943       -21.6043
  17   2.0000      -0.755143       -20.5485
  18   2.0000      -0.721484       -19.6326
  19   2.0000      -0.706277       -19.2188
  20   2.0000      -0.654504       -17.8100
  21   2.0000      -0.631213       -17.1762
  22   2.0000      -0.599844       -16.3226
  23   2.0000      -0.581216       -15.8157
  24   2.0000      -0.575435       -15.6584
  25   2.0000      -0.565465       -15.3871
  26   2.0000      -0.552916       -15.0456
  27   2.0000      -0.529730       -14.4147
  28   2.0000      -0.513429       -13.9711
  29   2.0000      -0.500144       -13.6096
  30   2.0000      -0.487236       -13.2584
  31   2.0000      -0.474279       -12.9058
  32   2.0000      -0.429986       -11.7005
  33   0.0000       0.094038         2.5589
  34   0.0000       0.119439         3.2501
  35   0.0000       0.133212         3.6249
  36   0.0000       0.138887         3.7793
  37   0.0000       0.154599         4.2069

MULLIKEN ATOMIC CHARGES
-----------------------
   0 C :   -0.397252
   1 C :   -0.231293
   2 C :    0.093086
   3 O :   -0.318258
   4 C :    0.210711
   5 C :   -0.207739
   6 N :   -0.046536
   7 C :    0.128240
   8 O :   -0.200779
   9 H :    0.143506
  10 H :    0.152256
  11 H :    0.124875
  12 H :    0.129994
  13 H :    0.130604
  14 H :    0.129442
  15 H :    0.159145
Sum of atomic charges:    0.0000000

LOEWDIN ATOMIC CHARGES
----------------------
   0 C :   -0.308886
   1 C :   -0.264331
   2 C :   -0.238596
   3 O :    0.184709
   4 C :   -0.247796
   5 C :   -0.162088
   6 N :    0.087613
   7 C :   -0.260210
   8 O :    0.214146
   9 H :    0.125919
  10 H :    0.129282
  11 H :    0.123010
  12 H :    0.147072
  13 H :    0.149753
  14 H :    0.152374
  15 H :    0.168030

  Mayer bond orders larger than 0.1
B(  0-C ,  1-C ) :   0.9190 B(  0-C ,  9-H ) :   0.9380 B(  0-C , 10-H ) :   0.9354
B(  0-C , 11-H ) :   0.9340 B(  1-C ,  2-C ) :   0.9147 B(  1-C , 12-H ) :   0.9237
B(  1-C , 13-H ) :   0.9233 B(  2-C ,  3-O ) :   0.8973 B(  2-C ,  7-C ) :   0.8909
B(  2-C , 14-H ) :   0.8895 B(  3-O ,  4-C ) :   0.9631 B(  4-C ,  5-C ) :   0.9183
B(  4-C ,  7-C ) :   0.8577 B(  4-C , 15-H ) :   0.8808 B(  5-C ,  6-N ) :   2.8205
B(  7-C ,  8-O ) :   2.0933

MP2 TOTAL ENERGY:     -437.161455725 Eh
FINAL SINGLE POINT ENERGY      -437.161455724537

DIPOLE MOMENT
-------------
                                X             Y             Z
Electronic contribution:     -5.57710      -9.78317      -1.69190
Nuclear contribution   :      5.50438      10.84694       2.79158
                        -----------------------------------------
Total Dipole Moment    :     -0.07272       1.06377       1.09968
                        -----------------------------------------
Magnitude (a.u.)       :      1.53173
Magnitude (Debye)      :      3.89334

                             ****ORCA TERMINATED NORMALLY****
TOTAL RUN TIME: 0 days 0 hours 23 minutes 59 seconds 658 msec
