                         Program Version 3.0.3 - RELEASE   -
|  1> ! RI-MP2 RIJK def2-TZVP def2-TZVP/C def2-TZVP/JK TIGHTSCF
|  2> % maxcore 2000
|  3> % mp2 density relaxed end
|  4> *xyz 0 1
|  5>  C       -0.2527538594     1.5637754432     0.4682606830
|  6>  C       -0.1206966475     0.1455066876    -0.0788509196
|  7>  O        0.9713579186    -0.5507272085     0.5426145183
|  8>  C       -1.4374913001    -0.6470802171    -0.0005219191
|  9>  C       -1.2542695998    -2.1678919685    -0.1882543341
| 10>  O       -0.3002682279    -2.4535814261    -1.1887339638
| 11>  C       -1.0999857605    -2.9525647088     1.1582131597
| 12>  C       -2.6063404066    -3.3146094049     1.0851416631
| 13>  C       -2.5902475539    -2.9208424551    -0.4161757989
| 14>  H        0.6911847526     2.1053292951     0.3626062608
| 15>  H       -1.0336950218     2.1172928471    -0.0632969585
| 16>  H       -0.5235617704     1.5474985921     1.5313579462
| 17>  H        0.1805830652     0.1944630596    -1.1301909955
| 18>  H        0.7742018471    -0.6456307224     1.4811114111
| 19>  H       -1.9392184282    -0.4545540796     0.9577728815
| 20>  H       -2.1028985689    -0.2598070169    -0.7821265406
| 21>  H        0.5435142217    -2.1263707284    -0.8476035397
| 22>  H       -0.4606394155    -3.8253949478     1.0037381288
| 23>  H       -0.7504862963    -2.4072551186     2.0400025074
| 24>  H       -2.8830793119    -4.3420616013     1.3290362175
| 25>  H       -3.2263113322    -2.6415750511     1.6837323591
| 26>  H       -3.4331335367    -2.3430768893    -0.8047195976
| 27>  H       -2.4169164474    -3.7818703704    -1.0660049891
| 28> *
| 29>
| 30>                          ****END OF INPUT****

CARTESIAN COORDINATES (ANGSTROEM)
---------------------------------
  C     -0.252754    1.563775    0.468261
  C     -0.120697    0.145507   -0.078851
  O      0.971358   -0.550727    0.542615
  C     -1.437491   -0.647080   -0.000522
  C     -1.254270   -2.167892   -0.188254
  O     -0.300268   -2.453581   -1.188734
  C     -1.099986   -2.952565    1.158213
  C     -2.606340   -3.314609    1.085142
  C     -2.590248   -2.920842   -0.416176
  H      0.691185    2.105329    0.362606
  H     -1.033695    2.117293   -0.063297
  H     -0.523562    1.547499    1.531358
  H      0.180583    0.194463   -1.130191
  H      0.774202   -0.645631    1.481111
  H     -1.939218   -0.454554    0.957773
  H     -2.102899   -0.259807   -0.782127
  H      0.543514   -2.126371   -0.847604
  H     -0.460639   -3.825395    1.003738
  H     -0.750486   -2.407255    2.040003
  H     -2.883079   -4.342062    1.329036
  H     -3.226311   -2.641575    1.683732
  H     -3.433134   -2.343077   -0.804720
  H     -2.416916   -3.781870   -1.066005

 Total Charge           Charge          ....    0
 Multiplicity           Mult            ....    1
 Number of Electrons    NEL             ....   72
 Basis Dimension        Dim             ....  363

ORBITAL ENERGIES
----------------

  NO   OCC          E(Eh)            E(eV)
   0   2.0000     -20.564790      -559.5964
   1   2.0000     -20.539577      -558.9103
   2   2.0000     -11.286029      -307.1084
   3   2.0000     -11.280137      -306.9481
   4   2.0000     -11.224559      -305.4358
   5   2.0000     -11.223722      -305.4130
   6   2.0000     -11.220778      -305.3329
   7   2.0000     -11.218367      -305.2673
   8   2.0000     -11.214094      -305.1510
   9   2.0000      -1.372320       -37.3427
  10   2.0000      -1.349096       -36.7108
  11   2.0000      -1.120694       -30.4956
  12   2.0000      -1.048597       -28.5338
  13   2.0000      -0.960142       -26.1268
  14   2.0000      -0.902059       -24.5463
  15   2.0000      -0.863815       -23.5056
  16   2.0000      -0.816268       -22.2118
  17   2.0000      -0.736569       -20.0431
  18   2.0000      -0.694299       -18.8928
  19   2.0000      -0.662652       -18.0317
  20   2.0000      -0.645287       -17.5592
  21   2.0000      -0.640176       -17.4201
  22   2.0000      -0.632110       -17.2006
  23   2.0000      -0.591345       -16.0913
  24   2.0000      -0.574084       -15.6216
  25   2.0000      -0.559308       -15.2196
  26   2.0000      -0.540758       -14.7148
  27   2.0000      -0.533911       -14.5285
  28   2.0000      -0.513453       -13.9718
  29   2.0000      -0.499419       -13.5899
  30   2.0000      -0.476987       -12.9795
  31   2.0000      -0.472366       -12.8537
  32   2.0000      -0.468920       -12.7600
  33   2.0000      -0.456080       -12.4106
  34   2.0000      -0.417636       -11.3645
  35   2.0000      -0.402720       -10.9586
  36   0.0000       0.119754         3.2587
  37   0.0000       0.151028         4.1097
  38   0.0000       0.159615         4.3433
  39   0.0000       0.170633         4.6432
  40   0.0000       0.176811         4.8113

MULLIKEN ATOMIC CHARGES
-----------------------
   0 C :   -0.382787
   1 C :    0.046822
   2 O :   -0.489327
   3 C :   -0.377216
   4 C :    0.353157
   5 O :   -0.473204
   6 C :   -0.278167
   7 C :   -0.245781
   8 C :   -0.243417
   9 H :    0.147788
  10 H :    0.131091
  11 H :    0.114624
  12 H :    0.116423
  13 H :    0.312890
  14 H :    0.124974
  15 H :    0.121687
  16 H :    0.335975
  17 H :    0.121739
  18 H :    0.087911
  19 H :    0.117317
  20 H :    0.117589
  21 H :    0.112973
  22 H :    0.126941
Sum of atomic charges:    0.0000000

LOEWDIN ATOMIC CHARGES
----------------------
   0 C :   -0.303375
   1 C :   -0.368139
   2 O :   -0.030888
   3 C :   -0.221032
   4 C :   -0.361674
   5 O :    0.009138
   6 C :   -0.219675
   7 C :   -0.245401
   8 C :   -0.201256
   9 H :    0.126591
  10 H :    0.128912
  11 H :    0.120440
  12 H :    0.147255
  13 H :    0.172748
  14 H :    0.144922
  15 H :    0.148135
  16 H :    0.178477
  17 H :    0.138726
  18 H :    0.114988
  19 H :    0.123778
  20 H :    0.129864
  21 H :    0.125005
  22 H :    0.142461

  Mayer bond orders larger than 0.1
B(  0-C ,  1-C ) :   0.9408 B(  0-C ,  9-H ) :   0.9430 B(  0-C , 10-H ) :   0.9330
B(  0-C , 11-H ) :   0.9226 B(  1-C ,  2-O ) :   0.8701 B(  1-C ,  3-C ) :   0.9343
B(  1-C , 12-H ) :   0.9302 B(  2-O , 13-H ) :   0.8425 B(  3-C ,  4-C ) :   0.9001
B(  3-C , 14-H ) :   0.9163 B(  3-C , 15-H ) :   0.9113 B(  4-C ,  5-O ) :   1.0119
B(  4-C ,  6-C ) :   0.8872 B(  4-C ,  8-C ) :   0.8576 B(  5-O , 16-H ) :   0.8177
B(  6-C ,  7-C ) :   0.9452 B(  6-C , 17-H ) :   0.9193 B(  6-C , 18-H ) :   0.9297
B(  7-C ,  8-C ) :   0.9350 B(  7-C , 19-H ) :   0.9292 B(  7-C , 20-H ) :   0.9284
B(  8-C , 21-H ) :   0.9323 B(  8-C , 22-H ) :   0.9239

MP2 TOTAL ENERGY:     -424.722704648 Eh
FINAL SINGLE POINT ENERGY      -424.722704648128

DIPOLE MOMENT
-------------
                                X             Y             Z
Electronic contribution:      3.20464      -2.64742      -2.56836
Nuclear contribution   :     -3.57118       3.21592       3.33571
                        -----------------------------------------
Total Dipole Moment    :     -0.36655       0.56850       0.76735
                        -----------------------------------------
Magnitude (a.u.)       :      1.02292
Magnitude (Debye)      :      2.60006

                             ****ORCA TERMINATED NORMALLY****
TOTAL RUN TIME: 0 days 0 hours 20 minutes 43 seconds 339 msec
