                         Program Version 3.0.3 - RELEASE   -
|  1> ! RI-MP2 RIJK def2-TZVP def2-TZVP/C def2-TZVP/JK TIGHTSCF
|  2> % maxcore 2000
|  3> % mp2 density relaxed end
|  4> *xyz 0 1
|  5>  C        0.1151237522     1.3484363225     0.0083420721
|  6>  C        1.3788600541     0.5165888703    -0.0088069605
|  7>  C        0.0404544417    -0.1478201970     0.0009650274
|  8>  C       -0.6787080248    -1.0116030994     1.0495050912
|  9>  C       -1.8325731743    -1.1441515837     0.0142788756
| 10>  C       -0.6996178849    -1.0002467247    -1.0423056261
| 11>  O       -0.0689747856    -2.2761637860    -1.1930552947
| 12>  C        0.6275494158    -2.6489727498    -0.0184821513
| 13>  O       -0.0453160611    -2.2890130222     1.1737576833
| 14>  H       -0.1413544931     1.8703574256     0.9250594220
| 15>  H       -0.1595719717     1.8802525357    -0.8973439360
| 16>  H        1.9572231933     0.4844157672    -0.9267893775
| 17>  H        1.9754557164     0.4745141626     0.8970263686
| 18>  H       -0.8626231924    -0.6356278511     2.0575394328
| 19>  H       -2.3797935954    -2.0877778052     0.0146259957
| 20>  H       -2.5092516690    -0.2868593164     0.0256971986
| 21>  H       -0.9036055309    -0.6133700960    -2.0423210772
| 22>  H        0.7173527089    -3.7381850679    -0.0252930606
| 23>  H        1.6275886408    -2.1928850549    -0.0260024547
| 24> *
| 25>
| 26>                          ****END OF INPUT****

CARTESIAN COORDINATES (ANGSTROEM)
---------------------------------
  C      0.115124    1.348436    0.008342
  C      1.378860    0.516589   -0.008807
  C      0.040454   -0.147820    0.000965
  C     -0.678708   -1.011603    1.049505
  C     -1.832573   -1.144152    0.014279
  C     -0.699618   -1.000247   -1.042306
  O     -0.068975   -2.276164   -1.193055
  C      0.627549   -2.648973   -0.018482
  O     -0.045316   -2.289013    1.173758
  H     -0.141354    1.870357    0.925059
  H     -0.159572    1.880253   -0.897344
  H      1.957223    0.484416   -0.926789
  H      1.975456    0.474514    0.897026
  H     -0.862623   -0.635628    2.057539
  H     -2.379794   -2.087778    0.014626
  H     -2.509252   -0.286859    0.025697
  H     -0.903606   -0.613370   -2.042321
  H      0.717353   -3.738185   -0.025293
  H      1.627589   -2.192885   -0.026002

 Total Charge           Charge          ....    0
 Multiplicity           Mult            ....    1
 Number of Electrons    NEL             ....   68
 Basis Dimension        Dim             ....  339

ORBITAL ENERGIES
----------------

  NO   OCC          E(Eh)            E(eV)
   0   2.0000     -20.558243      -559.4182
   1   2.0000     -20.558226      -559.4178
   2   2.0000     -11.322197      -308.0926
   3   2.0000     -11.290939      -307.2421
   4   2.0000     -11.290930      -307.2418
   5   2.0000     -11.243826      -305.9601
   6   2.0000     -11.238745      -305.8218
   7   2.0000     -11.234960      -305.7188
   8   2.0000     -11.223334      -305.4025
   9   2.0000      -1.421755       -38.6879
  10   2.0000      -1.335963       -36.3534
  11   2.0000      -1.172528       -31.9061
  12   2.0000      -1.079478       -29.3741
  13   2.0000      -0.909037       -24.7362
  14   2.0000      -0.887822       -24.1589
  15   2.0000      -0.857199       -23.3256
  16   2.0000      -0.834709       -22.7136
  17   2.0000      -0.722312       -19.6551
  18   2.0000      -0.706516       -19.2253
  19   2.0000      -0.676568       -18.4104
  20   2.0000      -0.669500       -18.2180
  21   2.0000      -0.625429       -17.0188
  22   2.0000      -0.620065       -16.8728
  23   2.0000      -0.585263       -15.9258
  24   2.0000      -0.574606       -15.6358
  25   2.0000      -0.552997       -15.0478
  26   2.0000      -0.537521       -14.6267
  27   2.0000      -0.524886       -14.2829
  28   2.0000      -0.506146       -13.7729
  29   2.0000      -0.460864       -12.5407
  30   2.0000      -0.434820       -11.8321
  31   2.0000      -0.422316       -11.4918
  32   2.0000      -0.412146       -11.2151
  33   2.0000      -0.386239       -10.5101
  34   0.0000       0.140777         3.8307
  35   0.0000       0.151609         4.1255
  36   0.0000       0.170217         4.6318
  37   0.0000       0.174611         4.7514
  38   0.0000       0.196632         5.3506

MULLIKEN ATOMIC CHARGES
-----------------------
   0 C :   -0.318293
   1 C :   -0.255763
   2 C :   -0.101171
   3 C :    0.151091
   4 C :   -0.254902
   5 C :    0.151091
   6 O :   -0.335544
   7 C :    0.081041
   8 O :   -0.335544
   9 H :    0.130542
  10 H :    0.130542
  11 H :    0.138286
  12 H :    0.138286
  13 H :    0.114643
  14 H :    0.118802
  15 H :    0.114669
  16 H :    0.114643
  17 H :    0.129851
  18 H :    0.087733
Sum of atomic charges:    0.0000000

LOEWDIN ATOMIC CHARGES
----------------------
   0 C :   -0.194871
   1 C :   -0.205120
   2 C :   -0.215915
   3 C :   -0.237006
   4 C :   -0.193256
   5 C :   -0.237006
   6 O :    0.166731
   7 C :   -0.368186
   8 O :    0.166731
   9 H :    0.135964
  10 H :    0.135964
  11 H :    0.138641
  12 H :    0.138641
  13 H :    0.133624
  14 H :    0.131722
  15 H :    0.138896
  16 H :    0.133624
  17 H :    0.121191
  18 H :    0.109631

  Mayer bond orders larger than 0.1
B(  0-C ,  1-C ) :   0.9723 B(  0-C ,  2-C ) :   0.8653 B(  0-C ,  9-H ) :   0.9180
B(  0-C , 10-H ) :   0.9180 B(  1-C ,  2-C ) :   0.8187 B(  1-C , 11-H ) :   0.9238
B(  1-C , 12-H ) :   0.9238 B(  2-C ,  3-C ) :   0.8734 B(  2-C ,  5-C ) :   0.8734
B(  3-C ,  4-C ) :   0.9503 B(  3-C ,  8-O ) :   0.9007 B(  3-C , 13-H ) :   0.9138
B(  4-C ,  5-C ) :   0.9503 B(  4-C , 14-H ) :   0.9066 B(  4-C , 15-H ) :   0.9180
B(  5-C ,  6-O ) :   0.9007 B(  5-C , 16-H ) :   0.9138 B(  6-O ,  7-C ) :   0.9740
B(  7-C ,  8-O ) :   0.9740 B(  7-C , 17-H ) :   0.9266 B(  7-C , 18-H ) :   0.9282

MP2 TOTAL ENERGY:     -422.276341353 Eh
FINAL SINGLE POINT ENERGY      -422.276341353184

DIPOLE MOMENT
-------------
                                X             Y             Z
Electronic contribution:     -0.46313      -4.09674      -0.01761
Nuclear contribution   :      0.48899       4.86277       0.02151
                        -----------------------------------------
Total Dipole Moment    :      0.02585       0.76603       0.00390
                        -----------------------------------------
Magnitude (a.u.)       :      0.76648
Magnitude (Debye)      :      1.94823

                             ****ORCA TERMINATED NORMALLY****
TOTAL RUN TIME: 0 days 0 hours 23 minutes 34 seconds 20 msec
