                         Program Version 3.0.3 - RELEASE   -
|  1> ! RI-MP2 RIJK def2-TZVP def2-TZVP/C def2-TZVP/JK TIGHTSCF
|  2> % maxcore 2000
|  3> % mp2 density relaxed end
|  4> *xyz 0 1
|  5>  C        0.1069778021     1.3682340049     0.0979833434
|  6>  O       -0.0497888579    -0.0293475933    -0.0245694738
|  7>  C       -1.3746777362    -0.5611224460     0.0068313301
|  8>  C       -2.1537072724    -0.1236107555     1.2548170774
|  9>  C       -2.1396959803    -0.2040330773    -1.2773267955
| 10>  C       -1.1288277147    -2.0909425615     0.0209466752
| 11>  C       -0.4332607622    -2.5551672111     1.2191750026
| 12>  N        0.0988273836    -2.9341026691     2.1721934535
| 13>  H        1.1749194401     1.5653891777    -0.0211731367
| 14>  H       -0.4354448905     1.9265900295    -0.6778257422
| 15>  H       -0.2057546175     1.7418206916     1.0817414092
| 16>  H       -2.3823873954     0.9448931605     1.2253655625
| 17>  H       -3.1055744344    -0.6603088710     1.3139402195
| 18>  H       -1.5821595489    -0.3353735127     2.1621127349
| 19>  H       -1.5651917562    -0.5008942015    -2.1596030325
| 20>  H       -3.1108186457    -0.7076617319    -1.3059088010
| 21>  H       -2.3283617891     0.8710743478    -1.3364935722
| 22>  H       -2.0816134310    -2.6237431870    -0.0615618353
| 23>  H       -0.5252249334    -2.3512482243    -0.8543641493
| 24> *
| 25>
| 26>                          ****END OF INPUT****

CARTESIAN COORDINATES (ANGSTROEM)
---------------------------------
  C      0.106978    1.368234    0.097983
  O     -0.049789   -0.029348   -0.024569
  C     -1.374678   -0.561122    0.006831
  C     -2.153707   -0.123611    1.254817
  C     -2.139696   -0.204033   -1.277327
  C     -1.128828   -2.090943    0.020947
  C     -0.433261   -2.555167    1.219175
  N      0.098827   -2.934103    2.172193
  H      1.174919    1.565389   -0.021173
  H     -0.435445    1.926590   -0.677826
  H     -0.205755    1.741821    1.081741
  H     -2.382387    0.944893    1.225366
  H     -3.105574   -0.660309    1.313940
  H     -1.582160   -0.335374    2.162113
  H     -1.565192   -0.500894   -2.159603
  H     -3.110819   -0.707662   -1.305909
  H     -2.328362    0.871074   -1.336494
  H     -2.081613   -2.623743   -0.061562
  H     -0.525225   -2.351248   -0.854364

 Total Charge           Charge          ....    0
 Multiplicity           Mult            ....    1
 Number of Electrons    NEL             ....   62
 Basis Dimension        Dim             ....  314

ORBITAL ENERGIES
----------------

  NO   OCC          E(Eh)            E(eV)
   0   2.0000     -20.564797      -559.5966
   1   2.0000     -15.559872      -423.4056
   2   2.0000     -11.315875      -307.9206
   3   2.0000     -11.278273      -306.8974
   4   2.0000     -11.276180      -306.8405
   5   2.0000     -11.265786      -306.5576
   6   2.0000     -11.234554      -305.7078
   7   2.0000     -11.230291      -305.5918
   8   2.0000      -1.386969       -37.7413
   9   2.0000      -1.210346       -32.9352
  10   2.0000      -1.105113       -30.0717
  11   2.0000      -0.998180       -27.1619
  12   2.0000      -0.959523       -26.1100
  13   2.0000      -0.939037       -25.5525
  14   2.0000      -0.784491       -21.3471
  15   2.0000      -0.707661       -19.2564
  16   2.0000      -0.676493       -18.4083
  17   2.0000      -0.666707       -18.1420
  18   2.0000      -0.644101       -17.5269
  19   2.0000      -0.610482       -16.6121
  20   2.0000      -0.580743       -15.8028
  21   2.0000      -0.571879       -15.5616
  22   2.0000      -0.567251       -15.4357
  23   2.0000      -0.550233       -14.9726
  24   2.0000      -0.543327       -14.7847
  25   2.0000      -0.524306       -14.2671
  26   2.0000      -0.515445       -14.0260
  27   2.0000      -0.477042       -12.9810
  28   2.0000      -0.450468       -12.2579
  29   2.0000      -0.444055       -12.0834
  30   2.0000      -0.432062       -11.7570
  31   0.0000       0.117700         3.2028
  32   0.0000       0.148090         4.0297
  33   0.0000       0.166030         4.5179
  34   0.0000       0.167910         4.5691
  35   0.0000       0.184581         5.0227

MULLIKEN ATOMIC CHARGES
-----------------------
   0 C :   -0.235395
   1 O :   -0.299323
   2 C :    0.174504
   3 C :   -0.456743
   4 C :   -0.409176
   5 C :   -0.087380
   6 C :   -0.196824
   7 N :   -0.055886
   8 H :    0.150119
   9 H :    0.109693
  10 H :    0.126854
  11 H :    0.143122
  12 H :    0.137070
  13 H :    0.173100
  14 H :    0.144238
  15 H :    0.135175
  16 H :    0.139230
  17 H :    0.154533
  18 H :    0.153089
Sum of atomic charges:    0.0000000

LOEWDIN ATOMIC CHARGES
----------------------
   0 C :   -0.351331
   1 O :    0.180903
   2 C :   -0.396563
   3 C :   -0.268055
   4 C :   -0.270482
   5 C :   -0.207844
   6 C :   -0.190725
   7 N :    0.055120
   8 H :    0.117695
   9 H :    0.101985
  10 H :    0.105039
  11 H :    0.127900
  12 H :    0.133322
  13 H :    0.138218
  14 H :    0.130614
  15 H :    0.130070
  16 H :    0.127023
  17 H :    0.166704
  18 H :    0.170406

  Mayer bond orders larger than 0.1
B(  0-C ,  1-O ) :   0.9111 B(  0-C ,  8-H ) :   0.9407 B(  0-C ,  9-H ) :   0.9287
B(  0-C , 10-H ) :   0.9360 B(  1-O ,  2-C ) :   0.9624 B(  2-C ,  3-C ) :   0.9142
B(  2-C ,  4-C ) :   0.9261 B(  2-C ,  5-C ) :   0.8795 B(  3-C , 11-H ) :   0.9300
B(  3-C , 12-H ) :   0.9243 B(  3-C , 13-H ) :   0.9316 B(  4-C , 14-H ) :   0.9367
B(  4-C , 15-H ) :   0.9278 B(  4-C , 16-H ) :   0.9309 B(  5-C ,  6-C ) :   0.9436
B(  5-C , 17-H ) :   0.9070 B(  5-C , 18-H ) :   0.8970 B(  6-C ,  7-N ) :   2.8799

MP2 TOTAL ENERGY:     -364.458133388 Eh
FINAL SINGLE POINT ENERGY      -364.458133387943

DIPOLE MOMENT
-------------
                                X             Y             Z
Electronic contribution:      4.80042      -7.23799       3.56037
Nuclear contribution   :     -5.89795       8.24521      -4.72033
                        -----------------------------------------
Total Dipole Moment    :     -1.09754       1.00722      -1.15997
                        -----------------------------------------
Magnitude (a.u.)       :      1.88801
Magnitude (Debye)      :      4.79895

                             ****ORCA TERMINATED NORMALLY****
TOTAL RUN TIME: 0 days 0 hours 14 minutes 31 seconds 206 msec
