                         Program Version 3.0.3 - RELEASE   -
|  1> ! RI-MP2 RIJK def2-TZVP def2-TZVP/C def2-TZVP/JK TIGHTSCF
|  2> % maxcore 2000
|  3> % mp2 density relaxed end
|  4> *xyz 0 1
|  5>  C        0.2805325403     1.1575938760    -0.0884060180
|  6>  O       -0.0494148348    -0.2072378922    -0.2101437574
|  7>  C       -1.4284641370    -0.5896756945    -0.0199027119
|  8>  C       -1.9815039570    -0.0689351752     1.3033136521
|  9>  C       -2.2703956588    -0.2318934211    -1.2684834859
| 10>  C       -2.2168204987    -1.4708056481    -2.2134584674
| 11>  C       -1.2169033697    -2.4453636142    -1.5640161112
| 12>  C       -1.3452959703    -2.1395104191    -0.0640306860
| 13>  O       -0.3325531735    -2.6612826360     0.7621438809
| 14>  H        1.3222785421     1.2572223211    -0.4047935659
| 15>  H       -0.3379437040     1.7979222095    -0.7333919439
| 16>  H        0.1938202033     1.5207545044     0.9442249307
| 17>  H       -2.0464542306     1.0229160081     1.3282426814
| 18>  H       -2.9901753472    -0.4614232205     1.4627867654
| 19>  H       -1.3501498146    -0.4049340603     2.1312601936
| 20>  H       -3.3001335042     0.0014239332    -0.9821370512
| 21>  H       -1.8726286744     0.6656878930    -1.7492896389
| 22>  H       -3.2073253306    -1.9329698559    -2.2772113052
| 23>  H       -1.9320003456    -1.2020486957    -3.2334901374
| 24>  H       -1.4173768035    -3.4941197098    -1.7959488938
| 25>  H       -0.1927687691    -2.2193986118    -1.8783199532
| 26>  H       -2.2927234267    -2.5463482677     0.3119032505
| 27>  H        0.4306677045    -2.0867219733     0.6150227625
| 28> *
| 29>
| 30>                          ****END OF INPUT****

CARTESIAN COORDINATES (ANGSTROEM)
---------------------------------
  C      0.280533    1.157594   -0.088406
  O     -0.049415   -0.207238   -0.210144
  C     -1.428464   -0.589676   -0.019903
  C     -1.981504   -0.068935    1.303314
  C     -2.270396   -0.231893   -1.268483
  C     -2.216820   -1.470806   -2.213458
  C     -1.216903   -2.445364   -1.564016
  C     -1.345296   -2.139510   -0.064031
  O     -0.332553   -2.661283    0.762144
  H      1.322279    1.257222   -0.404794
  H     -0.337944    1.797922   -0.733392
  H      0.193820    1.520755    0.944225
  H     -2.046454    1.022916    1.328243
  H     -2.990175   -0.461423    1.462787
  H     -1.350150   -0.404934    2.131260
  H     -3.300134    0.001424   -0.982137
  H     -1.872629    0.665688   -1.749290
  H     -3.207325   -1.932970   -2.277211
  H     -1.932000   -1.202049   -3.233490
  H     -1.417377   -3.494120   -1.795949
  H     -0.192769   -2.219399   -1.878320
  H     -2.292723   -2.546348    0.311903
  H      0.430668   -2.086722    0.615023

 Total Charge           Charge          ....    0
 Multiplicity           Mult            ....    1
 Number of Electrons    NEL             ....   72
 Basis Dimension        Dim             ....  363

ORBITAL ENERGIES
----------------

  NO   OCC          E(Eh)            E(eV)
   0   2.0000     -20.558153      -559.4158
   1   2.0000     -20.539718      -558.9142
   2   2.0000     -11.284406      -307.0643
   3   2.0000     -11.274651      -306.7988
   4   2.0000     -11.267737      -306.6107
   5   2.0000     -11.221968      -305.3653
   6   2.0000     -11.220273      -305.3191
   7   2.0000     -11.217084      -305.2324
   8   2.0000     -11.209552      -305.0274
   9   2.0000      -1.383519       -37.6475
  10   2.0000      -1.343500       -36.5585
  11   2.0000      -1.110896       -30.2290
  12   2.0000      -1.012201       -27.5434
  13   2.0000      -0.953861       -25.9559
  14   2.0000      -0.936232       -25.4762
  15   2.0000      -0.882918       -24.0254
  16   2.0000      -0.789512       -21.4837
  17   2.0000      -0.759257       -20.6604
  18   2.0000      -0.692998       -18.8574
  19   2.0000      -0.662181       -18.0188
  20   2.0000      -0.651303       -17.7229
  21   2.0000      -0.622827       -16.9480
  22   2.0000      -0.606540       -16.5048
  23   2.0000      -0.591091       -16.0844
  24   2.0000      -0.583876       -15.8881
  25   2.0000      -0.561736       -15.2856
  26   2.0000      -0.552254       -15.0276
  27   2.0000      -0.536231       -14.5916
  28   2.0000      -0.525150       -14.2901
  29   2.0000      -0.495810       -13.4917
  30   2.0000      -0.475824       -12.9478
  31   2.0000      -0.473724       -12.8907
  32   2.0000      -0.468432       -12.7467
  33   2.0000      -0.454197       -12.3593
  34   2.0000      -0.418897       -11.3988
  35   2.0000      -0.405764       -11.0414
  36   0.0000       0.131819         3.5870
  37   0.0000       0.149911         4.0793
  38   0.0000       0.160775         4.3749
  39   0.0000       0.171620         4.6700
  40   0.0000       0.190745         5.1904

MULLIKEN ATOMIC CHARGES
-----------------------
   0 C :   -0.241494
   1 O :   -0.360000
   2 C :    0.223639
   3 C :   -0.443589
   4 C :   -0.287175
   5 C :   -0.229600
   6 C :   -0.190173
   7 C :    0.105741
   8 O :   -0.479592
   9 H :    0.143858
  10 H :    0.110056
  11 H :    0.127916
  12 H :    0.140819
  13 H :    0.132955
  14 H :    0.149756
  15 H :    0.120875
  16 H :    0.106622
  17 H :    0.116569
  18 H :    0.116110
  19 H :    0.121498
  20 H :    0.102553
  21 H :    0.087055
  22 H :    0.325600
Sum of atomic charges:    0.0000000

LOEWDIN ATOMIC CHARGES
----------------------
   0 C :   -0.359895
   1 O :    0.160182
   2 C :   -0.349648
   3 C :   -0.277030
   4 C :   -0.210287
   5 C :   -0.248527
   6 C :   -0.243861
   7 C :   -0.311826
   8 O :   -0.012162
   9 H :    0.114645
  10 H :    0.102209
  11 H :    0.104333
  12 H :    0.125074
  13 H :    0.131327
  14 H :    0.133263
  15 H :    0.138961
  16 H :    0.137155
  17 H :    0.134648
  18 H :    0.132440
  19 H :    0.132828
  20 H :    0.139565
  21 H :    0.148787
  22 H :    0.177819

  Mayer bond orders larger than 0.1
B(  0-C ,  1-O ) :   0.9157 B(  0-C ,  9-H ) :   0.9405 B(  0-C , 10-H ) :   0.9287
B(  0-C , 11-H ) :   0.9382 B(  1-O ,  2-C ) :   0.8656 B(  2-C ,  3-C ) :   0.8736
B(  2-C ,  4-C ) :   0.9209 B(  2-C ,  7-C ) :   0.8877 B(  3-C , 12-H ) :   0.9412
B(  3-C , 13-H ) :   0.9237 B(  3-C , 14-H ) :   0.9441 B(  4-C ,  5-C ) :   0.9540
B(  4-C , 15-H ) :   0.9251 B(  4-C , 16-H ) :   0.9060 B(  5-C ,  6-C ) :   0.9383
B(  5-C , 17-H ) :   0.9355 B(  5-C , 18-H ) :   0.9222 B(  6-C ,  7-C ) :   0.9255
B(  6-C , 19-H ) :   0.9323 B(  6-C , 20-H ) :   0.9092 B(  7-C ,  8-O ) :   0.9854
B(  7-C , 21-H ) :   0.9314 B(  8-O , 22-H ) :   0.8186

MP2 TOTAL ENERGY:     -424.737841725 Eh
FINAL SINGLE POINT ENERGY      -424.737841725262

DIPOLE MOMENT
-------------
                                X             Y             Z
Electronic contribution:      2.63724      -3.93101       1.06049
Nuclear contribution   :     -2.90824       4.86985      -1.36594
                        -----------------------------------------
Total Dipole Moment    :     -0.27101       0.93883      -0.30546
                        -----------------------------------------
Magnitude (a.u.)       :      1.02379
Magnitude (Debye)      :      2.60228

                             ****ORCA TERMINATED NORMALLY****
TOTAL RUN TIME: 0 days 0 hours 21 minutes 28 seconds 972 msec
