                         Program Version 3.0.3 - RELEASE   -
|  1> ! RI-MP2 RIJK def2-TZVP def2-TZVP/C def2-TZVP/JK TIGHTSCF
|  2> % maxcore 2000
|  3> % mp2 density relaxed end
|  4> *xyz 0 1
|  5>  C       -0.1444004099     1.6087788060    -0.0031006168
|  6>  C        0.1121225315     0.1143314670     0.0177711977
|  7>  C        1.2757361227    -0.7683435795    -0.3987225664
|  8>  C        2.7145720012    -0.5130636133     0.1245482486
|  9>  C        2.9919309588     0.6388244169     1.0320942389
| 10>  O        2.6240677970     1.9824401090     0.9039358015
| 11>  C        2.1651367916    -0.4757464594     1.5791778784
| 12>  C        0.7350074750    -0.8048502578     1.0313118157
| 13>  C       -0.0158308894    -1.9069507688     1.7262951142
| 14>  H       -0.2118411626     1.9642542364    -1.0386696967
| 15>  H       -1.1131948067     1.8081823284     0.4699465888
| 16>  H        0.6180597734     2.1810579881     0.5149877742
| 17>  H       -0.7770891251    -0.4019065645    -0.3548808014
| 18>  H        1.1313921376    -1.5233167072    -1.1636596273
| 19>  H        3.5290755938    -1.1197055383    -0.2561935703
| 20>  H        4.0060602829     0.5429347150     1.4324802891
| 21>  H        2.9939080691     2.3081060286     0.0761874719
| 22>  H        2.5253907007    -1.0360378839     2.4351741098
| 23>  H       -0.4115175041    -1.5703505821     2.6933942871
| 24>  H       -0.8618806032    -2.2494188238     1.1222017868
| 25>  H        0.6304027757    -2.7719243468     1.9210382362
| 26> *
| 27>
| 28>                          ****END OF INPUT****

CARTESIAN COORDINATES (ANGSTROEM)
---------------------------------
  C     -0.144400    1.608779   -0.003101
  C      0.112123    0.114331    0.017771
  C      1.275736   -0.768344   -0.398723
  C      2.714572   -0.513064    0.124548
  C      2.991931    0.638824    1.032094
  O      2.624068    1.982440    0.903936
  C      2.165137   -0.475746    1.579178
  C      0.735007   -0.804850    1.031312
  C     -0.015831   -1.906951    1.726295
  H     -0.211841    1.964254   -1.038670
  H     -1.113195    1.808182    0.469947
  H      0.618060    2.181058    0.514988
  H     -0.777089   -0.401907   -0.354881
  H      1.131392   -1.523317   -1.163660
  H      3.529076   -1.119706   -0.256194
  H      4.006060    0.542935    1.432480
  H      2.993908    2.308106    0.076187
  H      2.525391   -1.036038    2.435174
  H     -0.411518   -1.570351    2.693394
  H     -0.861881   -2.249419    1.122202
  H      0.630403   -2.771924    1.921038

 Total Charge           Charge          ....    0
 Multiplicity           Mult            ....    1
 Number of Electrons    NEL             ....   68
 Basis Dimension        Dim             ....  351

ORBITAL ENERGIES
----------------

  NO   OCC          E(Eh)            E(eV)
   0   2.0000     -20.559777      -559.4600
   1   2.0000     -11.291517      -307.2578
   2   2.0000     -11.238341      -305.8108
   3   2.0000     -11.237522      -305.7885
   4   2.0000     -11.234768      -305.7136
   5   2.0000     -11.234113      -305.6958
   6   2.0000     -11.228400      -305.5403
   7   2.0000     -11.216644      -305.2204
   8   2.0000     -11.196533      -304.6731
   9   2.0000      -1.370793       -37.3012
  10   2.0000      -1.204371       -32.7726
  11   2.0000      -1.085017       -29.5248
  12   2.0000      -0.982190       -26.7268
  13   2.0000      -0.943590       -25.6764
  14   2.0000      -0.847457       -23.0605
  15   2.0000      -0.837083       -22.7782
  16   2.0000      -0.743229       -20.2243
  17   2.0000      -0.716967       -19.5097
  18   2.0000      -0.685194       -18.6451
  19   2.0000      -0.664200       -18.0738
  20   2.0000      -0.616623       -16.7792
  21   2.0000      -0.609752       -16.5922
  22   2.0000      -0.585894       -15.9430
  23   2.0000      -0.568081       -15.4583
  24   2.0000      -0.557692       -15.1756
  25   2.0000      -0.545814       -14.8524
  26   2.0000      -0.532228       -14.4827
  27   2.0000      -0.478633       -13.0243
  28   2.0000      -0.470745       -12.8096
  29   2.0000      -0.457282       -12.4433
  30   2.0000      -0.438819       -11.9409
  31   2.0000      -0.431802       -11.7499
  32   2.0000      -0.386691       -10.5224
  33   2.0000      -0.311706        -8.4820
  34   0.0000       0.134495         3.6598
  35   0.0000       0.147286         4.0079
  36   0.0000       0.158136         4.3031
  37   0.0000       0.169835         4.6214
  38   0.0000       0.183757         5.0003

MULLIKEN ATOMIC CHARGES
-----------------------
   0 C :   -0.407870
   1 C :   -0.109745
   2 C :   -0.118466
   3 C :   -0.185005
   4 C :    0.049365
   5 O :   -0.472216
   6 C :   -0.195076
   7 C :    0.109763
   8 C :   -0.409549
   9 H :    0.118523
  10 H :    0.118352
  11 H :    0.181236
  12 H :    0.101726
  13 H :    0.127854
  14 H :    0.131007
  15 H :    0.102173
  16 H :    0.325447
  17 H :    0.140182
  18 H :    0.137255
  19 H :    0.127723
  20 H :    0.127321
Sum of atomic charges:    0.0000000

LOEWDIN ATOMIC CHARGES
----------------------
   0 C :   -0.305371
   1 C :   -0.190051
   2 C :   -0.137626
   3 C :   -0.148015
   4 C :   -0.315496
   5 O :   -0.001608
   6 C :   -0.115846
   7 C :   -0.188577
   8 C :   -0.273631
   9 H :    0.122335
  10 H :    0.123706
  11 H :    0.127575
  12 H :    0.167310
  13 H :    0.139125
  14 H :    0.138180
  15 H :    0.151105
  16 H :    0.180667
  17 H :    0.141737
  18 H :    0.129496
  19 H :    0.128453
  20 H :    0.126530

  Mayer bond orders larger than 0.1
B(  0-C ,  1-C ) :   0.8694 B(  0-C ,  9-H ) :   0.9370 B(  0-C , 10-H ) :   0.9357
B(  0-C , 11-H ) :   0.9290 B(  1-C ,  2-C ) :   0.8905 B(  1-C ,  7-C ) :   0.9250
B(  1-C , 12-H ) :   0.9335 B(  2-C ,  3-C ) :   0.8721 B(  2-C ,  7-C ) :   0.8189
B(  2-C , 13-H ) :   0.9223 B(  3-C ,  4-C ) :   0.9122 B(  3-C ,  6-C ) :   0.8768
B(  3-C , 14-H ) :   0.9173 B(  4-C ,  5-O ) :   1.0057 B(  4-C ,  6-C ) :   0.8645
B(  4-C , 15-H ) :   0.9709 B(  5-O , 16-H ) :   0.8376 B(  6-C ,  7-C ) :   0.8474
B(  6-C , 17-H ) :   0.9221 B(  7-C ,  8-C ) :   0.8762 B(  8-C , 18-H ) :   0.9424
B(  8-C , 19-H ) :   0.9378 B(  8-C , 20-H ) :   0.9343

MP2 TOTAL ENERGY:     -386.320667852 Eh
FINAL SINGLE POINT ENERGY      -386.320667851586

DIPOLE MOMENT
-------------
                                X             Y             Z
Electronic contribution:      4.58389       1.70949      -0.14561
Nuclear contribution   :     -4.28486      -2.13422      -0.22220
                        -----------------------------------------
Total Dipole Moment    :      0.29904      -0.42473      -0.36781
                        -----------------------------------------
Magnitude (a.u.)       :      0.63648
Magnitude (Debye)      :      1.61780

                             ****ORCA TERMINATED NORMALLY****
TOTAL RUN TIME: 0 days 0 hours 19 minutes 37 seconds 534 msec
