                         Program Version 3.0.3 - RELEASE   -
|  1> ! RI-MP2 RIJK def2-TZVP def2-TZVP/C def2-TZVP/JK TIGHTSCF
|  2> % maxcore 2000
|  3> % mp2 density relaxed end
|  4> *xyz 0 1
|  5>  N       -0.0781168419     1.2231692843     0.4351629430
|  6>  C        0.0943614712    -0.0373122268    -0.0456204088
|  7>  O        1.1877498951    -0.5294296406    -0.2444168357
|  8>  C       -1.2005906882    -0.7889841348    -0.3730526505
|  9>  C       -1.0368130618    -2.2627942040    -0.1008188073
| 10>  O       -1.4197256967    -2.7326389381     1.1924093200
| 11>  C       -2.1891513755    -3.1723702565     0.0719691391
| 12>  C       -3.5477971457    -2.6784266748    -0.0147090647
| 13>  N       -4.6336270754    -2.2921153353    -0.1035498798
| 14>  H        0.7415106009     1.7564289449     0.6769280809
| 15>  H       -0.9816492118     1.5877932972     0.6801745169
| 16>  H       -2.0625809468    -0.3975693003     0.1733833780
| 17>  H       -1.3949021867    -0.6413345634    -1.4431693153
| 18>  H       -0.1121075486    -2.6938291068    -0.4790041147
| 19>  H       -2.0794877381    -4.2243174751    -0.1847366213
| 20> *
| 21>
| 22>                          ****END OF INPUT****

CARTESIAN COORDINATES (ANGSTROEM)
---------------------------------
  N     -0.078117    1.223169    0.435163
  C      0.094361   -0.037312   -0.045620
  O      1.187750   -0.529430   -0.244417
  C     -1.200591   -0.788984   -0.373053
  C     -1.036813   -2.262794   -0.100819
  O     -1.419726   -2.732639    1.192409
  C     -2.189151   -3.172370    0.071969
  C     -3.547797   -2.678427   -0.014709
  N     -4.633627   -2.292115   -0.103550
  H      0.741511    1.756429    0.676928
  H     -0.981649    1.587793    0.680175
  H     -2.062581   -0.397569    0.173383
  H     -1.394902   -0.641335   -1.443169
  H     -0.112108   -2.693829   -0.479004
  H     -2.079488   -4.224317   -0.184737

 Total Charge           Charge          ....    0
 Multiplicity           Mult            ....    1
 Number of Electrons    NEL             ....   66
 Basis Dimension        Dim             ....  315

ORBITAL ENERGIES
----------------

  NO   OCC          E(Eh)            E(eV)
   0   2.0000     -20.611544      -560.8686
   1   2.0000     -20.534496      -558.7721
   2   2.0000     -15.600492      -424.5110
   3   2.0000     -15.593468      -424.3198
   4   2.0000     -11.372296      -309.4559
   5   2.0000     -11.351141      -308.8802
   6   2.0000     -11.331514      -308.3462
   7   2.0000     -11.292714      -307.2904
   8   2.0000     -11.272005      -306.7269
   9   2.0000      -1.458359       -39.6840
  10   2.0000      -1.400466       -38.1086
  11   2.0000      -1.236891       -33.6575
  12   2.0000      -1.229491       -33.4561
  13   2.0000      -1.069472       -29.1018
  14   2.0000      -1.000148       -27.2154
  15   2.0000      -0.894248       -24.3337
  16   2.0000      -0.816681       -22.2230
  17   2.0000      -0.765335       -20.8258
  18   2.0000      -0.732941       -19.9443
  19   2.0000      -0.728045       -19.8111
  20   2.0000      -0.677067       -18.4239
  21   2.0000      -0.645392       -17.5620
  22   2.0000      -0.612101       -16.6561
  23   2.0000      -0.608640       -16.5619
  24   2.0000      -0.588519       -16.0144
  25   2.0000      -0.566924       -15.4268
  26   2.0000      -0.550035       -14.9672
  27   2.0000      -0.529998       -14.4220
  28   2.0000      -0.494570       -13.4579
  29   2.0000      -0.483950       -13.1689
  30   2.0000      -0.453228       -12.3329
  31   2.0000      -0.440438       -11.9849
  32   2.0000      -0.432195       -11.7606
  33   0.0000       0.115396         3.1401
  34   0.0000       0.132240         3.5984
  35   0.0000       0.138028         3.7559
  36   0.0000       0.153835         4.1861
  37   0.0000       0.157299         4.2803

MULLIKEN ATOMIC CHARGES
-----------------------
   0 N :   -0.472426
   1 C :    0.282319
   2 O :   -0.352660
   3 C :   -0.246844
   4 C :    0.038141
   5 O :   -0.300612
   6 C :    0.124892
   7 C :   -0.170163
   8 N :   -0.055560
   9 H :    0.266992
  10 H :    0.265963
  11 H :    0.145872
  12 H :    0.151916
  13 H :    0.161559
  14 H :    0.160611
Sum of atomic charges:   -0.0000000

LOEWDIN ATOMIC CHARGES
----------------------
   0 N :   -0.008335
   1 C :   -0.474766
   2 O :    0.088615
   3 C :   -0.210659
   4 C :   -0.235229
   5 O :    0.198344
   6 C :   -0.256864
   7 C :   -0.168369
   8 N :    0.079506
   9 H :    0.177275
  10 H :    0.173529
  11 H :    0.154318
  12 H :    0.167482
  13 H :    0.154583
  14 H :    0.160571

  Mayer bond orders larger than 0.1
B(  0-N ,  1-C ) :   1.1775 B(  0-N ,  9-H ) :   0.8553 B(  0-N , 10-H ) :   0.8676
B(  1-C ,  2-O ) :   1.9563 B(  1-C ,  3-C ) :   0.9071 B(  3-C ,  4-C ) :   0.9113
B(  3-C , 11-H ) :   0.9255 B(  3-C , 12-H ) :   0.8873 B(  4-C ,  5-O ) :   0.8809
B(  4-C ,  6-C ) :   0.9233 B(  4-C , 13-H ) :   0.9214 B(  5-O ,  6-C ) :   0.9305
B(  6-C ,  7-C ) :   0.9056 B(  6-C , 14-H ) :   0.9033 B(  7-C ,  8-N ) :   2.8214

MP2 TOTAL ENERGY:     -453.229368833 Eh
FINAL SINGLE POINT ENERGY      -453.229368833077

DIPOLE MOMENT
-------------
                                X             Y             Z
Electronic contribution:     -1.84877      -2.98310       0.93059
Nuclear contribution   :      2.10116       3.67389      -1.13989
                        -----------------------------------------
Total Dipole Moment    :      0.25239       0.69079      -0.20931
                        -----------------------------------------
Magnitude (a.u.)       :      0.76466
Magnitude (Debye)      :      1.94362

                             ****ORCA TERMINATED NORMALLY****
TOTAL RUN TIME: 0 days 0 hours 20 minutes 40 seconds 148 msec
