                         Program Version 3.0.3 - RELEASE   -
|  1> ! RI-MP2 RIJK def2-TZVP def2-TZVP/C def2-TZVP/JK TIGHTSCF
|  2> % maxcore 2000
|  3> % mp2 density relaxed end
|  4> *xyz 0 1
|  5>  C       -0.9139253184     1.0447560281     2.9375392092
|  6>  C       -0.8413130817    -0.3135224203     2.2470612586
|  7>  C       -2.1305179889    -0.7079663077     1.5306827486
|  8>  O       -3.1005458958     0.0281782034     1.5384385196
|  9>  C       -2.0897388023    -2.0290610993     0.8472360680
| 10>  C       -3.3157776882    -2.9550001430     0.7697488799
| 11>  C       -4.6346295229    -2.6220554473     1.4324113965
| 12>  C       -2.8243209158    -2.2943478322    -0.4781281618
| 13>  C       -3.5912570301    -1.2194728932    -1.2169156205
| 14>  H        0.0323731228     1.2783448010     3.4337551568
| 15>  H       -1.1331137346     1.8370704430     2.2172729795
| 16>  H       -1.7110293271     1.0599615882     3.6851908201
| 17>  H       -0.0274922455    -0.3424262968     1.5085905399
| 18>  H       -0.6000361904    -1.1122715099     2.9627873044
| 19>  H       -1.1367195949    -2.5380764855     0.9530698549
| 20>  H       -3.0413952137    -4.0033565261     0.8642084665
| 21>  H       -4.8368971376    -1.5515076695     1.4285199964
| 22>  H       -5.4543148433    -3.1380681346     0.9199219302
| 23>  H       -4.6344240621    -2.9570041659     2.4752336497
| 24>  H       -2.2528491006    -2.9433269120    -1.1380573219
| 25>  H       -4.0630037969    -0.5111353303    -0.5366900049
| 26>  H       -2.9215388127    -0.6543929618    -1.8740535030
| 27>  H       -4.3650752393    -1.6739010381    -1.8458040367
| 28> *
| 29>
| 30>                          ****END OF INPUT****

CARTESIAN COORDINATES (ANGSTROEM)
---------------------------------
  C     -0.913925    1.044756    2.937539
  C     -0.841313   -0.313522    2.247061
  C     -2.130518   -0.707966    1.530683
  O     -3.100546    0.028178    1.538439
  C     -2.089739   -2.029061    0.847236
  C     -3.315778   -2.955000    0.769749
  C     -4.634630   -2.622055    1.432411
  C     -2.824321   -2.294348   -0.478128
  C     -3.591257   -1.219473   -1.216916
  H      0.032373    1.278345    3.433755
  H     -1.133114    1.837070    2.217273
  H     -1.711029    1.059962    3.685191
  H     -0.027492   -0.342426    1.508591
  H     -0.600036   -1.112272    2.962787
  H     -1.136720   -2.538076    0.953070
  H     -3.041395   -4.003357    0.864208
  H     -4.836897   -1.551508    1.428520
  H     -5.454315   -3.138068    0.919922
  H     -4.634424   -2.957004    2.475234
  H     -2.252849   -2.943327   -1.138057
  H     -4.063004   -0.511135   -0.536690
  H     -2.921539   -0.654393   -1.874054
  H     -4.365075   -1.673901   -1.845804

 Total Charge           Charge          ....    0
 Multiplicity           Mult            ....    1
 Number of Electrons    NEL             ....   70
 Basis Dimension        Dim             ....  363

ORBITAL ENERGIES
----------------

  NO   OCC          E(Eh)            E(eV)
   0   2.0000     -20.531349      -558.6864
   1   2.0000     -11.324029      -308.1425
   2   2.0000     -11.242975      -305.9369
   3   2.0000     -11.242228      -305.9166
   4   2.0000     -11.235094      -305.7224
   5   2.0000     -11.234589      -305.7087
   6   2.0000     -11.212807      -305.1160
   7   2.0000     -11.210350      -305.0491
   8   2.0000     -11.210343      -305.0489
   9   2.0000      -1.376825       -37.4653
  10   2.0000      -1.156779       -31.4775
  11   2.0000      -1.050174       -28.5767
  12   2.0000      -0.979691       -26.6587
  13   2.0000      -0.961362       -26.1600
  14   2.0000      -0.905846       -24.6493
  15   2.0000      -0.823921       -22.4200
  16   2.0000      -0.751667       -20.4539
  17   2.0000      -0.714834       -19.4516
  18   2.0000      -0.689361       -18.7585
  19   2.0000      -0.637150       -17.3377
  20   2.0000      -0.625618       -17.0239
  21   2.0000      -0.612286       -16.6611
  22   2.0000      -0.576110       -15.6768
  23   2.0000      -0.570309       -15.5189
  24   2.0000      -0.541135       -14.7250
  25   2.0000      -0.537517       -14.6266
  26   2.0000      -0.532107       -14.4794
  27   2.0000      -0.527878       -14.3643
  28   2.0000      -0.514628       -14.0037
  29   2.0000      -0.510199       -13.8832
  30   2.0000      -0.485563       -13.2128
  31   2.0000      -0.477602       -12.9962
  32   2.0000      -0.418680       -11.3929
  33   2.0000      -0.399194       -10.8626
  34   2.0000      -0.390330       -10.6214
  35   0.0000       0.125475         3.4143
  36   0.0000       0.144770         3.9394
  37   0.0000       0.150231         4.0880
  38   0.0000       0.162784         4.4296
  39   0.0000       0.173945         4.7333

MULLIKEN ATOMIC CHARGES
-----------------------
   0 C :   -0.367379
   1 C :   -0.240939
   2 C :    0.218122
   3 O :   -0.350351
   4 C :   -0.179840
   5 C :   -0.060941
   6 C :   -0.423814
   7 C :   -0.060953
   8 C :   -0.423806
   9 H :    0.130686
  10 H :    0.131405
  11 H :    0.131404
  12 H :    0.132272
  13 H :    0.132266
  14 H :    0.127471
  15 H :    0.124424
  16 H :    0.167532
  17 H :    0.131122
  18 H :    0.129120
  19 H :    0.124427
  20 H :    0.167525
  21 H :    0.129123
  22 H :    0.131124
Sum of atomic charges:   -0.0000000

LOEWDIN ATOMIC CHARGES
----------------------
   0 C :   -0.313707
   1 C :   -0.268197
   2 C :   -0.313241
   3 O :    0.134728
   4 C :   -0.163598
   5 C :   -0.199432
   6 C :   -0.290315
   7 C :   -0.199423
   8 C :   -0.290312
   9 H :    0.120310
  10 H :    0.126386
  11 H :    0.126386
  12 H :    0.149976
  13 H :    0.149974
  14 H :    0.154470
  15 H :    0.150789
  16 H :    0.133347
  17 H :    0.127122
  18 H :    0.126740
  19 H :    0.150790
  20 H :    0.133345
  21 H :    0.126740
  22 H :    0.127124

  Mayer bond orders larger than 0.1
B(  0-C ,  1-C ) :   0.9416 B(  0-C ,  9-H ) :   0.9395 B(  0-C , 10-H ) :   0.9359
B(  0-C , 11-H ) :   0.9359 B(  1-C ,  2-C ) :   0.9331 B(  1-C , 12-H ) :   0.9131
B(  1-C , 13-H ) :   0.9131 B(  2-C ,  3-O ) :   1.8456 B(  2-C ,  4-C ) :   0.9653
B(  4-C ,  5-C ) :   0.8142 B(  4-C ,  7-C ) :   0.8142 B(  4-C , 14-H ) :   0.9307
B(  5-C ,  6-C ) :   0.9170 B(  5-C ,  7-C ) :   0.8982 B(  5-C , 15-H ) :   0.9321
B(  6-C , 16-H ) :   0.9295 B(  6-C , 17-H ) :   0.9336 B(  6-C , 18-H ) :   0.9373
B(  7-C ,  8-C ) :   0.9170 B(  7-C , 19-H ) :   0.9321 B(  8-C , 20-H ) :   0.9295
B(  8-C , 21-H ) :   0.9373 B(  8-C , 22-H ) :   0.9336

MP2 TOTAL ENERGY:     -387.626263787 Eh
FINAL SINGLE POINT ENERGY      -387.626263786682

DIPOLE MOMENT
-------------
                                X             Y             Z
Electronic contribution:      0.15631      -0.17525      -0.03064
Nuclear contribution   :      0.46521      -0.53116      -0.09867
                        -----------------------------------------
Total Dipole Moment    :      0.62151      -0.70641      -0.12932
                        -----------------------------------------
Magnitude (a.u.)       :      0.94974
Magnitude (Debye)      :      2.41405

                             ****ORCA TERMINATED NORMALLY****
TOTAL RUN TIME: 0 days 0 hours 20 minutes 1 seconds 478 msec
