                         Program Version 3.0.3 - RELEASE   -
|  1> ! RI-MP2 RIJK def2-TZVP def2-TZVP/C def2-TZVP/JK TIGHTSCF
|  2> % maxcore 2000
|  3> % mp2 density relaxed end
|  4> *xyz 0 1
|  5>  O       -0.3311779930     1.3002585519     0.0802997716
|  6>  C        0.0383894212    -0.0584096252    -0.0611092810
|  7>  C        0.8874181141    -0.3192321870    -1.3232592633
|  8>  C        0.1385561105     0.0381135004    -2.5860797104
|  9>  C        0.4636939425    -0.6330821629    -3.8665769021
| 10>  N       -0.8133973268    -0.9147825506    -3.1849033612
| 11>  C        0.7390360351    -0.5487182749     1.1441912244
| 12>  N        1.3177342035    -0.9101519205     2.0768722250
| 13>  H        0.4674157140     1.8167748471     0.2411499120
| 14>  H       -0.9079876988    -0.6041483030    -0.1460897940
| 15>  H        1.8121193819     0.2681739718    -1.2443542113
| 16>  H        1.1866038852    -1.3743642425    -1.3437456107
| 17>  H       -0.2154130139     1.0652931737    -2.6178574442
| 18>  H        0.3735920886    -0.0921834308    -4.8040028433
| 19>  H        1.2378565526    -1.3967541046    -3.8589339733
| 20>  H       -0.7518156167    -1.8140689929    -2.7112357881
| 21> *
| 22>
| 23>                          ****END OF INPUT****

CARTESIAN COORDINATES (ANGSTROEM)
---------------------------------
  O     -0.331178    1.300259    0.080300
  C      0.038389   -0.058410   -0.061109
  C      0.887418   -0.319232   -1.323259
  C      0.138556    0.038114   -2.586080
  C      0.463694   -0.633082   -3.866577
  N     -0.813397   -0.914783   -3.184903
  C      0.739036   -0.548718    1.144191
  N      1.317734   -0.910152    2.076872
  H      0.467416    1.816775    0.241150
  H     -0.907988   -0.604148   -0.146090
  H      1.812119    0.268174   -1.244354
  H      1.186604   -1.374364   -1.343746
  H     -0.215413    1.065293   -2.617857
  H      0.373592   -0.092183   -4.804003
  H      1.237857   -1.396754   -3.858934
  H     -0.751816   -1.814069   -2.711236

 Total Charge           Charge          ....    0
 Multiplicity           Mult            ....    1
 Number of Electrons    NEL             ....   60
 Basis Dimension        Dim             ....  296

ORBITAL ENERGIES
----------------

  NO   OCC          E(Eh)            E(eV)
   0   2.0000     -20.597522      -560.4871
   1   2.0000     -15.586118      -424.1198
   2   2.0000     -15.571750      -423.7289
   3   2.0000     -11.350230      -308.8555
   4   2.0000     -11.282724      -307.0185
   5   2.0000     -11.277221      -306.8688
   6   2.0000     -11.268945      -306.6436
   7   2.0000     -11.267648      -306.6083
   8   2.0000      -1.407820       -38.3087
   9   2.0000      -1.275729       -34.7143
  10   2.0000      -1.230403       -33.4810
  11   2.0000      -1.079303       -29.3693
  12   2.0000      -0.954643       -25.9772
  13   2.0000      -0.894629       -24.3441
  14   2.0000      -0.825174       -22.4541
  15   2.0000      -0.772466       -21.0199
  16   2.0000      -0.701816       -19.0974
  17   2.0000      -0.677865       -18.4456
  18   2.0000      -0.670640       -18.2490
  19   2.0000      -0.640859       -17.4387
  20   2.0000      -0.587554       -15.9882
  21   2.0000      -0.575619       -15.6634
  22   2.0000      -0.562000       -15.2928
  23   2.0000      -0.526814       -14.3353
  24   2.0000      -0.514001       -13.9867
  25   2.0000      -0.493246       -13.4219
  26   2.0000      -0.484208       -13.1760
  27   2.0000      -0.478510       -13.0209
  28   2.0000      -0.462378       -12.5820
  29   2.0000      -0.403564       -10.9815
  30   0.0000       0.110608         3.0098
  31   0.0000       0.128341         3.4923
  32   0.0000       0.147998         4.0272
  33   0.0000       0.160814         4.3760
  34   0.0000       0.174727         4.7546

MULLIKEN ATOMIC CHARGES
-----------------------
   0 O :   -0.447233
   1 C :    0.184097
   2 C :   -0.301015
   3 C :   -0.010627
   4 C :   -0.181353
   5 N :   -0.370426
   6 C :   -0.177789
   7 N :   -0.050161
   8 H :    0.326784
   9 H :    0.140172
  10 H :    0.135915
  11 H :    0.143300
  12 H :    0.131430
  13 H :    0.130284
  14 H :    0.129678
  15 H :    0.216945
Sum of atomic charges:   -0.0000000

LOEWDIN ATOMIC CHARGES
----------------------
   0 O :    0.014557
   1 C :   -0.335216
   2 C :   -0.233000
   3 C :   -0.280318
   4 C :   -0.263659
   5 N :   -0.019348
   6 C :   -0.173286
   7 N :    0.071119
   8 H :    0.185046
   9 H :    0.170870
  10 H :    0.150691
  11 H :    0.153391
  12 H :    0.147425
  13 H :    0.126457
  14 H :    0.122225
  15 H :    0.163043

  Mayer bond orders larger than 0.1
B(  0-O ,  1-C ) :   0.9130 B(  0-O ,  8-H ) :   0.8342 B(  1-C ,  2-C ) :   0.9213
B(  1-C ,  6-C ) :   0.9161 B(  1-C ,  9-H ) :   0.9138 B(  2-C ,  3-C ) :   0.9214
B(  2-C , 10-H ) :   0.9009 B(  2-C , 11-H ) :   0.9253 B(  3-C ,  4-C ) :   0.9316
B(  3-C ,  5-N ) :   0.9130 B(  3-C , 12-H ) :   0.9134 B(  4-C ,  5-N ) :   0.9304
B(  4-C , 13-H ) :   0.9229 B(  4-C , 14-H ) :   0.9199 B(  5-N , 15-H ) :   0.8726
B(  6-C ,  7-N ) :   2.8585

MP2 TOTAL ENERGY:     -379.265546563 Eh
FINAL SINGLE POINT ENERGY      -379.265546563222

DIPOLE MOMENT
-------------
                                X             Y             Z
Electronic contribution:     -0.28486       0.43358       7.00375
Nuclear contribution   :      0.83800      -0.29915      -7.99951
                        -----------------------------------------
Total Dipole Moment    :      0.55314       0.13443      -0.99576
                        -----------------------------------------
Magnitude (a.u.)       :      1.14699
Magnitude (Debye)      :      2.91541

                             ****ORCA TERMINATED NORMALLY****
TOTAL RUN TIME: 0 days 0 hours 10 minutes 31 seconds 978 msec
