                         Program Version 3.0.3 - RELEASE   -
|  1> ! RI-MP2 RIJK def2-TZVP def2-TZVP/C def2-TZVP/JK TIGHTSCF
|  2> % maxcore 2000
|  3> % mp2 density relaxed end
|  4> *xyz 0 1
|  5>  C       -0.3501268131     1.5523318149     0.1059881986
|  6>  C       -0.0295953606     0.0436700743     0.0778396576
|  7>  C        0.7975233964    -0.3418013797     1.3215762583
|  8>  C       -1.3693276677    -0.7208704443     0.1513907163
|  9>  C        0.6736786669    -0.3825394842    -1.2502590145
| 10>  C        1.3306397459     0.6189900374    -2.2630207782
| 11>  C        2.5631414708     0.7198509097    -1.3167338884
| 12>  C        2.1845010009    -0.7899706059    -1.3587102059
| 13>  C        2.0298066995    -0.6173779592    -2.8966209766
| 14>  H        0.5499127770     2.1723121441     0.1053013921
| 15>  H       -0.9546794499     1.8418225674    -0.7600709301
| 16>  H       -0.9220493370     1.8031012958     1.0067018730
| 17>  H        0.2387061915    -0.1126942527     2.2361799764
| 18>  H        1.0182960920    -1.4144341412     1.3296701531
| 19>  H        1.7487029103     0.1937732933     1.3750790098
| 20>  H       -2.0095632680    -0.4771158689    -0.7035531454
| 21>  H       -1.2055452268    -1.8041111649     0.1479412593
| 22>  H       -1.9178001896    -0.4669531120     1.0649949569
| 23>  H        0.0295018871    -1.1038951742    -1.7659421611
| 24>  H        0.8395045084     1.4356942868    -2.7948860927
| 25>  H        3.5119255105     0.9912139419    -1.7897944554
| 26>  H        2.4406043188     1.2506189399    -0.3740807994
| 27>  H        2.6850319635    -1.6096266745    -0.8403153138
| 28>  H        1.3896578609    -1.3374413859    -3.4140787321
| 29>  H        2.9482551223    -0.4197650578    -3.4559399781
| 30> *
| 31>
| 32>                          ****END OF INPUT****

CARTESIAN COORDINATES (ANGSTROEM)
---------------------------------
  C     -0.350127    1.552332    0.105988
  C     -0.029595    0.043670    0.077840
  C      0.797523   -0.341801    1.321576
  C     -1.369328   -0.720870    0.151391
  C      0.673679   -0.382539   -1.250259
  C      1.330640    0.618990   -2.263021
  C      2.563141    0.719851   -1.316734
  C      2.184501   -0.789971   -1.358710
  C      2.029807   -0.617378   -2.896621
  H      0.549913    2.172312    0.105301
  H     -0.954679    1.841823   -0.760071
  H     -0.922049    1.803101    1.006702
  H      0.238706   -0.112694    2.236180
  H      1.018296   -1.414434    1.329670
  H      1.748703    0.193773    1.375079
  H     -2.009563   -0.477116   -0.703553
  H     -1.205545   -1.804111    0.147941
  H     -1.917800   -0.466953    1.064995
  H      0.029502   -1.103895   -1.765942
  H      0.839505    1.435694   -2.794886
  H      3.511926    0.991214   -1.789794
  H      2.440604    1.250619   -0.374081
  H      2.685032   -1.609627   -0.840315
  H      1.389658   -1.337441   -3.414079
  H      2.948255   -0.419765   -3.455940

 Total Charge           Charge          ....    0
 Multiplicity           Mult            ....    1
 Number of Electrons    NEL             ....   70
 Basis Dimension        Dim             ....  375

ORBITAL ENERGIES
----------------

  NO   OCC          E(Eh)            E(eV)
   0   2.0000     -11.237302      -305.7825
   1   2.0000     -11.237223      -305.7804
   2   2.0000     -11.232934      -305.6637
   3   2.0000     -11.226887      -305.4991
   4   2.0000     -11.222293      -305.3741
   5   2.0000     -11.221508      -305.3528
   6   2.0000     -11.207864      -304.9815
   7   2.0000     -11.207314      -304.9665
   8   2.0000     -11.207296      -304.9660
   9   2.0000      -1.203790       -32.7568
  10   2.0000      -1.085323       -29.5331
  11   2.0000      -0.927921       -25.2500
  12   2.0000      -0.927557       -25.2401
  13   2.0000      -0.901064       -24.5192
  14   2.0000      -0.891394       -24.2561
  15   2.0000      -0.845760       -23.0143
  16   2.0000      -0.762137       -20.7388
  17   2.0000      -0.699146       -19.0247
  18   2.0000      -0.669582       -18.2202
  19   2.0000      -0.624964       -17.0061
  20   2.0000      -0.617613       -16.8061
  21   2.0000      -0.594222       -16.1696
  22   2.0000      -0.572027       -15.5656
  23   2.0000      -0.544928       -14.8282
  24   2.0000      -0.538022       -14.6403
  25   2.0000      -0.530223       -14.4281
  26   2.0000      -0.509829       -13.8731
  27   2.0000      -0.487376       -13.2622
  28   2.0000      -0.474538       -12.9128
  29   2.0000      -0.458378       -12.4731
  30   2.0000      -0.449626       -12.2350
  31   2.0000      -0.437971       -11.9178
  32   2.0000      -0.428096       -11.6491
  33   2.0000      -0.415672       -11.3110
  34   2.0000      -0.415412       -11.3039
  35   0.0000       0.133790         3.6406
  36   0.0000       0.159704         4.3458
  37   0.0000       0.165350         4.4994
  38   0.0000       0.170677         4.6444
  39   0.0000       0.185284         5.0418

MULLIKEN ATOMIC CHARGES
-----------------------
   0 C :   -0.408463
   1 C :    0.108761
   2 C :   -0.408468
   3 C :   -0.428061
   4 C :   -0.168882
   5 C :   -0.116955
   6 C :   -0.221876
   7 C :   -0.116959
   8 C :   -0.194166
   9 H :    0.128192
  10 H :    0.130219
  11 H :    0.129393
  12 H :    0.129394
  13 H :    0.130220
  14 H :    0.128196
  15 H :    0.131668
  16 H :    0.131668
  17 H :    0.128150
  18 H :    0.098337
  19 H :    0.129437
  20 H :    0.106518
  21 H :    0.106183
  22 H :    0.129436
  23 H :    0.108162
  24 H :    0.109897
Sum of atomic charges:   -0.0000000

LOEWDIN ATOMIC CHARGES
----------------------
   0 C :   -0.270652
   1 C :   -0.320660
   2 C :   -0.270652
   3 C :   -0.278170
   4 C :   -0.138185
   5 C :   -0.169419
   6 C :   -0.197419
   7 C :   -0.169418
   8 C :   -0.200708
   9 H :    0.122308
  10 H :    0.126059
  11 H :    0.124768
  12 H :    0.124769
  13 H :    0.126059
  14 H :    0.122309
  15 H :    0.124122
  16 H :    0.124122
  17 H :    0.122790
  18 H :    0.151987
  19 H :    0.122925
  20 H :    0.126082
  21 H :    0.120571
  22 H :    0.122925
  23 H :    0.126193
  24 H :    0.127294

  Mayer bond orders larger than 0.1
B(  0-C ,  1-C ) :   0.9259 B(  0-C ,  9-H ) :   0.9310 B(  0-C , 10-H ) :   0.9367
B(  0-C , 11-H ) :   0.9347 B(  1-C ,  2-C ) :   0.9259 B(  1-C ,  3-C ) :   0.8820
B(  1-C ,  4-C ) :   0.8676 B(  2-C , 12-H ) :   0.9347 B(  2-C , 13-H ) :   0.9367
B(  2-C , 14-H ) :   0.9310 B(  3-C , 15-H ) :   0.9376 B(  3-C , 16-H ) :   0.9376
B(  3-C , 17-H ) :   0.9383 B(  4-C ,  5-C ) :   0.8826 B(  4-C ,  7-C ) :   0.8826
B(  4-C , 18-H ) :   0.9350 B(  5-C ,  6-C ) :   0.9160 B(  5-C ,  8-C ) :   0.9087
B(  5-C , 19-H ) :   0.8906 B(  6-C ,  7-C ) :   0.9160 B(  6-C , 20-H ) :   0.9302
B(  6-C , 21-H ) :   0.9292 B(  7-C ,  8-C ) :   0.9087 B(  7-C , 22-H ) :   0.8906
B(  8-C , 23-H ) :   0.9292 B(  8-C , 24-H ) :   0.9285

MP2 TOTAL ENERGY:     -351.663940327 Eh
FINAL SINGLE POINT ENERGY      -351.663940327109

DIPOLE MOMENT
-------------
                                X             Y             Z
Electronic contribution:      2.86902      -0.64932      -3.72059
Nuclear contribution   :     -2.88178       0.65001       3.73371
                        -----------------------------------------
Total Dipole Moment    :     -0.01276       0.00069       0.01312
                        -----------------------------------------
Magnitude (a.u.)       :      0.01831
Magnitude (Debye)      :      0.04655

                             ****ORCA TERMINATED NORMALLY****
TOTAL RUN TIME: 0 days 0 hours 25 minutes 43 seconds 456 msec
