                         Program Version 3.0.3 - RELEASE   -
|  1> ! RI-MP2 RIJK def2-TZVP def2-TZVP/C def2-TZVP/JK TIGHTSCF
|  2> % maxcore 2000
|  3> % mp2 density relaxed end
|  4> *xyz 0 1
|  5>  C        1.1886685741     1.7415112492     0.3177620085
|  6>  C        0.2592620830     0.5584402245     0.0141958720
|  7>  C        0.6021518534    -0.0332861699    -1.3830124978
|  8>  O        1.8288872721    -0.7352733626    -1.4074992678
|  9>  C       -0.5083455058    -0.8673085030    -1.8917516245
| 10>  N       -1.3878297904    -1.5167166836    -2.2675468553
| 11>  C        0.3664297391    -0.4951984424     1.1028714928
| 12>  C       -0.6152003445    -0.5535003485     2.2133161363
| 13>  N       -0.5758082455    -1.6242268973     1.2043837085
| 14>  H        2.2357140227     1.4273035224     0.2728148754
| 15>  H        1.0468956285     2.5515646741    -0.4044254493
| 16>  H        0.9920271696     2.1386945513     1.3172468055
| 17>  H       -0.7782662201     0.9139297327    -0.0336785434
| 18>  H        0.7282942631     0.7950975289    -2.0892970839
| 19>  H        1.7226879097    -1.5441011952    -0.8923985489
| 20>  H        1.3920262481    -0.7811374773     1.3333300092
| 21>  H       -0.2964220885    -0.8470143662     3.2092972177
| 22>  H       -1.4440005989     0.1503681132     2.1927544357
| 23>  H       -1.3400719795    -1.5132910404     0.5421698495
| 24> *
| 25>
| 26>                          ****END OF INPUT****

CARTESIAN COORDINATES (ANGSTROEM)
---------------------------------
  C      1.188669    1.741511    0.317762
  C      0.259262    0.558440    0.014196
  C      0.602152   -0.033286   -1.383012
  O      1.828887   -0.735273   -1.407499
  C     -0.508346   -0.867309   -1.891752
  N     -1.387830   -1.516717   -2.267547
  C      0.366430   -0.495198    1.102871
  C     -0.615200   -0.553500    2.213316
  N     -0.575808   -1.624227    1.204384
  H      2.235714    1.427304    0.272815
  H      1.046896    2.551565   -0.404425
  H      0.992027    2.138695    1.317247
  H     -0.778266    0.913930   -0.033679
  H      0.728294    0.795098   -2.089297
  H      1.722688   -1.544101   -0.892399
  H      1.392026   -0.781137    1.333330
  H     -0.296422   -0.847014    3.209297
  H     -1.444001    0.150368    2.192754
  H     -1.340072   -1.513291    0.542170

 Total Charge           Charge          ....    0
 Multiplicity           Mult            ....    1
 Number of Electrons    NEL             ....   68
 Basis Dimension        Dim             ....  339

ORBITAL ENERGIES
----------------

  NO   OCC          E(Eh)            E(eV)
   0   2.0000     -20.593822      -560.3864
   1   2.0000     -15.584065      -424.0640
   2   2.0000     -15.569179      -423.6589
   3   2.0000     -11.346209      -308.7460
   4   2.0000     -11.281894      -306.9959
   5   2.0000     -11.276456      -306.8480
   6   2.0000     -11.269583      -306.6609
   7   2.0000     -11.268144      -306.6218
   8   2.0000     -11.238825      -305.8240
   9   2.0000      -1.404843       -38.2277
  10   2.0000      -1.274801       -34.6891
  11   2.0000      -1.229206       -33.4484
  12   2.0000      -1.100097       -29.9352
  13   2.0000      -0.985948       -26.8290
  14   2.0000      -0.914972       -24.8976
  15   2.0000      -0.884125       -24.0583
  16   2.0000      -0.809004       -22.0141
  17   2.0000      -0.771646       -20.9976
  18   2.0000      -0.702098       -19.1051
  19   2.0000      -0.694170       -18.8893
  20   2.0000      -0.648311       -17.6414
  21   2.0000      -0.633081       -17.2270
  22   2.0000      -0.593310       -16.1448
  23   2.0000      -0.585955       -15.9446
  24   2.0000      -0.571834       -15.5604
  25   2.0000      -0.561321       -15.2743
  26   2.0000      -0.527660       -14.3583
  27   2.0000      -0.513107       -13.9624
  28   2.0000      -0.504474       -13.7274
  29   2.0000      -0.498141       -13.5551
  30   2.0000      -0.482216       -13.1218
  31   2.0000      -0.473505       -12.8847
  32   2.0000      -0.449945       -12.2436
  33   2.0000      -0.401608       -10.9283
  34   0.0000       0.121551         3.3076
  35   0.0000       0.133256         3.6261
  36   0.0000       0.144348         3.9279
  37   0.0000       0.154561         4.2058
  38   0.0000       0.173123         4.7109

MULLIKEN ATOMIC CHARGES
-----------------------
   0 C :   -0.434667
   1 C :   -0.026570
   2 C :    0.241678
   3 O :   -0.456219
   4 C :   -0.224543
   5 N :   -0.053717
   6 C :   -0.196521
   7 C :   -0.177190
   8 N :   -0.347513
   9 H :    0.154020
  10 H :    0.138750
  11 H :    0.146277
  12 H :    0.116396
  13 H :    0.139342
  14 H :    0.342028
  15 H :    0.143552
  16 H :    0.127264
  17 H :    0.130881
  18 H :    0.236751
Sum of atomic charges:   -0.0000000

LOEWDIN ATOMIC CHARGES
----------------------
   0 C :   -0.279166
   1 C :   -0.251165
   2 C :   -0.314866
   3 O :    0.019401
   4 C :   -0.176040
   5 N :    0.068042
   6 C :   -0.274899
   7 C :   -0.259252
   8 N :   -0.011294
   9 H :    0.132774
  10 H :    0.126128
  11 H :    0.130026
  12 H :    0.164641
  13 H :    0.171595
  14 H :    0.188192
  15 H :    0.146404
  16 H :    0.126077
  17 H :    0.123677
  18 H :    0.169724

  Mayer bond orders larger than 0.1
B(  0-C ,  1-C ) :   0.8957 B(  0-C ,  9-H ) :   0.9345 B(  0-C , 10-H ) :   0.9335
B(  0-C , 11-H ) :   0.9379 B(  1-C ,  2-C ) :   0.8646 B(  1-C ,  6-C ) :   0.8856
B(  1-C , 12-H ) :   0.9156 B(  2-C ,  3-O ) :   0.9432 B(  2-C ,  4-C ) :   0.9125
B(  2-C , 13-H ) :   0.9070 B(  3-O , 14-H ) :   0.8304 B(  4-C ,  5-N ) :   2.8407
B(  6-C ,  7-C ) :   0.9485 B(  6-C ,  8-N ) :   0.9342 B(  6-C , 15-H ) :   0.9165
B(  7-C ,  8-N ) :   0.9309 B(  7-C , 16-H ) :   0.9217 B(  7-C , 17-H ) :   0.9177
B(  8-N , 18-H ) :   0.8629

MP2 TOTAL ENERGY:     -418.487342208 Eh
FINAL SINGLE POINT ENERGY      -418.487342208419

DIPOLE MOMENT
-------------
                                X             Y             Z
Electronic contribution:     -2.01082      -5.38882      -6.30368
Nuclear contribution   :      2.40273       6.65618       7.13009
                        -----------------------------------------
Total Dipole Moment    :      0.39192       1.26735       0.82641
                        -----------------------------------------
Magnitude (a.u.)       :      1.56292
Magnitude (Debye)      :      3.97264

                             ****ORCA TERMINATED NORMALLY****
TOTAL RUN TIME: 0 days 0 hours 20 minutes 37 seconds 245 msec
