                         Program Version 3.0.3 - RELEASE   -
|  1> ! RI-MP2 RIJK def2-TZVP def2-TZVP/C def2-TZVP/JK TIGHTSCF
|  2> % maxcore 2000
|  3> % mp2 density relaxed end
|  4> *xyz 0 1
|  5>  C        0.0601376170    -1.1923571531    -0.0053276553
|  6>  C        0.0526839081     0.0080256168     0.0013462464
|  7>  C        0.0071920698     1.4628784866     0.0098653868
|  8>  O        1.3254621912     1.9860819997     0.0003905700
|  9>  C        1.3481879174     3.3935560633     0.0079412886
| 10>  C        2.8250105849     3.8054125064    -0.0038491362
| 11>  C        2.9878786747     5.2555452437     0.0026882971
| 12>  N        3.0961055485     6.4057204470     0.0079409090
| 13>  H        0.0729297700    -2.2544460004    -0.0115294690
| 14>  H       -0.5540857813     1.8246384011    -0.8679563954
| 15>  H       -0.5374618816     1.8147858044     0.9020467205
| 16>  H        0.8320799305     3.8064761994    -0.8730740871
| 17>  H        0.8490081182     3.7966691062     0.9031377199
| 18>  H        3.3269048823     3.3775631379     0.8699820753
| 19>  H        3.3101033204     3.3873649911    -0.8918026007
| 20> *
| 21>
| 22>                          ****END OF INPUT****

CARTESIAN COORDINATES (ANGSTROEM)
---------------------------------
  C      0.060138   -1.192357   -0.005328
  C      0.052684    0.008026    0.001346
  C      0.007192    1.462878    0.009865
  O      1.325462    1.986082    0.000391
  C      1.348188    3.393556    0.007941
  C      2.825011    3.805413   -0.003849
  C      2.987879    5.255545    0.002688
  N      3.096106    6.405720    0.007941
  H      0.072930   -2.254446   -0.011529
  H     -0.554086    1.824638   -0.867956
  H     -0.537462    1.814786    0.902047
  H      0.832080    3.806476   -0.873074
  H      0.849008    3.796669    0.903138
  H      3.326905    3.377563    0.869982
  H      3.310103    3.387365   -0.891803

 Total Charge           Charge          ....    0
 Multiplicity           Mult            ....    1
 Number of Electrons    NEL             ....   58
 Basis Dimension        Dim             ....  290

ORBITAL ENERGIES
----------------

  NO   OCC          E(Eh)            E(eV)
   0   2.0000     -20.590176      -560.2872
   1   2.0000     -15.575084      -423.8196
   2   2.0000     -11.326148      -308.2002
   3   2.0000     -11.315365      -307.9067
   4   2.0000     -11.288497      -307.1756
   5   2.0000     -11.279187      -306.9223
   6   2.0000     -11.246940      -306.0448
   7   2.0000     -11.239579      -305.8445
   8   2.0000      -1.413449       -38.4619
   9   2.0000      -1.224770       -33.3277
  10   2.0000      -1.097408       -29.8620
  11   2.0000      -1.054358       -28.6905
  12   2.0000      -0.965810       -26.2810
  13   2.0000      -0.890656       -24.2360
  14   2.0000      -0.749775       -20.4024
  15   2.0000      -0.723383       -19.6843
  16   2.0000      -0.715216       -19.4620
  17   2.0000      -0.687104       -18.6970
  18   2.0000      -0.651035       -17.7156
  19   2.0000      -0.645603       -17.5677
  20   2.0000      -0.590397       -16.0655
  21   2.0000      -0.567939       -15.4544
  22   2.0000      -0.558425       -15.1955
  23   2.0000      -0.526279       -14.3208
  24   2.0000      -0.465455       -12.6657
  25   2.0000      -0.464012       -12.6264
  26   2.0000      -0.462872       -12.5954
  27   2.0000      -0.411624       -11.2009
  28   2.0000      -0.400865       -10.9081
  29   0.0000       0.117675         3.2021
  30   0.0000       0.137569         3.7435
  31   0.0000       0.159818         4.3489
  32   0.0000       0.162364         4.4182
  33   0.0000       0.162476         4.4212

MULLIKEN ATOMIC CHARGES
-----------------------
   0 C :   -0.069078
   1 C :   -0.044178
   2 C :   -0.212489
   3 O :   -0.270535
   4 C :   -0.072773
   5 C :   -0.087892
   6 C :   -0.201905
   7 N :   -0.062373
   8 H :    0.197865
   9 H :    0.132307
  10 H :    0.132301
  11 H :    0.115017
  12 H :    0.115023
  13 H :    0.164354
  14 H :    0.164356
Sum of atomic charges:    0.0000000

LOEWDIN ATOMIC CHARGES
----------------------
   0 C :   -0.079068
   1 C :   -0.104988
   2 C :   -0.304145
   3 O :    0.170930
   4 C :   -0.310630
   5 C :   -0.239737
   6 C :   -0.193161
   7 N :    0.060296
   8 H :    0.129420
   9 H :    0.140481
  10 H :    0.140482
  11 H :    0.127271
  12 H :    0.127271
  13 H :    0.167789
  14 H :    0.167789

  Mayer bond orders larger than 0.1
B(  0-C ,  1-C ) :   2.6258 B(  0-C ,  2-C ) :  -0.1053 B(  0-C ,  8-H ) :   0.8946
B(  1-C ,  2-C ) :   1.1238 B(  2-C ,  3-O ) :   0.9740 B(  2-C ,  9-H ) :   0.9221
B(  2-C , 10-H ) :   0.9221 B(  3-O ,  4-C ) :   0.9482 B(  4-C ,  5-C ) :   0.9296
B(  4-C , 11-H ) :   0.9217 B(  4-C , 12-H ) :   0.9217 B(  5-C ,  6-C ) :   0.9032
B(  5-C , 13-H ) :   0.9075 B(  5-C , 14-H ) :   0.9075 B(  6-C ,  7-N ) :   2.8603

MP2 TOTAL ENERGY:     -361.995729417 Eh
FINAL SINGLE POINT ENERGY      -361.995729416703

DIPOLE MOMENT
-------------
                                X             Y             Z
Electronic contribution:      2.08322       1.47790      -0.01137
Nuclear contribution   :     -2.73641      -2.68120       0.01080
                        -----------------------------------------
Total Dipole Moment    :     -0.65319      -1.20330      -0.00057
                        -----------------------------------------
Magnitude (a.u.)       :      1.36916
Magnitude (Debye)      :      3.48012

                             ****ORCA TERMINATED NORMALLY****
TOTAL RUN TIME: 0 days 0 hours 8 minutes 39 seconds 836 msec
