                         Program Version 3.0.3 - RELEASE   -
|  1> ! RI-MP2 RIJK def2-TZVP def2-TZVP/C def2-TZVP/JK TIGHTSCF
|  2> % maxcore 2000
|  3> % mp2 density relaxed end
|  4> *xyz 0 1
|  5>  O       -0.0738530022     1.2903315157     0.0095418575
|  6>  C        0.0077570910    -0.0302758462     0.0027659255
|  7>  N        1.1886773717    -0.5850731820    -0.0067586137
|  8>  C        1.2743769749    -1.9422577628    -0.0141294295
|  9>  O        2.2381879128    -2.6354802001    -0.0231355987
| 10>  O       -0.0127605666    -2.6451428423    -0.0105074172
| 11>  C       -1.1216317618    -1.9362993508    -0.0007274246
| 12>  N       -1.2141857693    -0.6509732880     0.0063254209
| 13>  H        0.8355256175     1.6270809062     0.0060570302
| 14>  H       -2.0176941280    -2.5533059796     0.0011416798
| 15> *
| 16>
| 17>                          ****END OF INPUT****

CARTESIAN COORDINATES (ANGSTROEM)
---------------------------------
  O     -0.073853    1.290332    0.009542
  C      0.007757   -0.030276    0.002766
  N      1.188677   -0.585073   -0.006759
  C      1.274377   -1.942258   -0.014129
  O      2.238188   -2.635480   -0.023136
  O     -0.012761   -2.645143   -0.010507
  C     -1.121632   -1.936299   -0.000727
  N     -1.214186   -0.650973    0.006325
  H      0.835526    1.627081    0.006057
  H     -2.017694   -2.553306    0.001142

 Total Charge           Charge          ....    0
 Multiplicity           Mult            ....    1
 Number of Electrons    NEL             ....   58
 Basis Dimension        Dim             ....  260

ORBITAL ENERGIES
----------------

  NO   OCC          E(Eh)            E(eV)
   0   2.0000     -20.667714      -562.3971
   1   2.0000     -20.646586      -561.8222
   2   2.0000     -20.562028      -559.5212
   3   2.0000     -15.606327      -424.6697
   4   2.0000     -15.589635      -424.2155
   5   2.0000     -11.436935      -311.2148
   6   2.0000     -11.436639      -311.2068
   7   2.0000     -11.416682      -310.6637
   8   2.0000      -1.524412       -41.4813
   9   2.0000      -1.487963       -40.4895
  10   2.0000      -1.417515       -38.5725
  11   2.0000      -1.306728       -35.5579
  12   2.0000      -1.243686       -33.8424
  13   2.0000      -0.979040       -26.6410
  14   2.0000      -0.935832       -25.4653
  15   2.0000      -0.842006       -22.9121
  16   2.0000      -0.793598       -21.5949
  17   2.0000      -0.725323       -19.7370
  18   2.0000      -0.713360       -19.4115
  19   2.0000      -0.680327       -18.5126
  20   2.0000      -0.668347       -18.1867
  21   2.0000      -0.645986       -17.5782
  22   2.0000      -0.633411       -17.2360
  23   2.0000      -0.573071       -15.5941
  24   2.0000      -0.536325       -14.5942
  25   2.0000      -0.500298       -13.6138
  26   2.0000      -0.495338       -13.4788
  27   2.0000      -0.465389       -12.6639
  28   2.0000      -0.426657       -11.6099
  29   0.0000       0.064656         1.7594
  30   0.0000       0.131414         3.5760
  31   0.0000       0.140680         3.8281
  32   0.0000       0.151449         4.1212
  33   0.0000       0.166524         4.5314

MULLIKEN ATOMIC CHARGES
-----------------------
   0 O :   -0.348069
   1 C :    0.367835
   2 N :   -0.319607
   3 C :    0.290625
   4 O :   -0.240487
   5 O :   -0.171144
   6 C :    0.174916
   7 N :   -0.282175
   8 H :    0.357521
   9 H :    0.170586
Sum of atomic charges:    0.0000000

LOEWDIN ATOMIC CHARGES
----------------------
   0 O :    0.151931
   1 C :   -0.438729
   2 N :    0.108895
   3 C :   -0.492730
   4 O :    0.169857
   5 O :    0.303357
   6 C :   -0.281493
   7 N :    0.118609
   8 H :    0.214486
   9 H :    0.145818

  Mayer bond orders larger than 0.1
B(  0-O ,  1-C ) :   1.2224 B(  0-O ,  8-H ) :   0.8010 B(  1-C ,  2-N ) :   1.5114
B(  1-C ,  7-N ) :   1.1747 B(  2-N ,  3-C ) :   1.2069 B(  3-C ,  4-O ) :   2.0689
B(  3-C ,  5-O ) :   0.8622 B(  5-O ,  6-C ) :   1.1938 B(  6-C ,  7-N ) :   1.5991
B(  6-C ,  9-H ) :   0.9219

MP2 TOTAL ENERGY:     -449.966773516 Eh
FINAL SINGLE POINT ENERGY      -449.966773516160

DIPOLE MOMENT
-------------
                                X             Y             Z
Electronic contribution:      0.87046      -0.79733      -0.00856
Nuclear contribution   :     -1.66681       1.25060       0.01536
                        -----------------------------------------
Total Dipole Moment    :     -0.79635       0.45326       0.00681
                        -----------------------------------------
Magnitude (a.u.)       :      0.91633
Magnitude (Debye)      :      2.32914

                             ****ORCA TERMINATED NORMALLY****
TOTAL RUN TIME: 0 days 0 hours 7 minutes 42 seconds 896 msec
