                         Program Version 3.0.3 - RELEASE   -
|  1> ! RI-MP2 RIJK def2-TZVP def2-TZVP/C def2-TZVP/JK TIGHTSCF
|  2> % maxcore 2000
|  3> % mp2 density relaxed end
|  4> *xyz 0 1
|  5>  C        0.0320237032     1.4239644178    -0.0742519604
|  6>  O        0.0122711810    -0.0021063555    -0.0158549525
|  7>  C        0.5847068957    -0.6664870659    -1.0204867234
|  8>  C        0.7124372739    -2.0020742655    -1.2292287255
|  9>  C        1.4221998720    -2.1262117508    -2.4829986048
| 10>  C        1.6592604731    -0.8551991444    -2.9188169018
| 11>  O        1.1482512599     0.0490557272    -2.0265033864
| 12>  C        1.7985823738    -3.3241488795    -3.1333122665
| 13>  C        2.1108338907    -4.3545553575    -3.6723498279
| 14>  H        1.0579910679     1.8053477434    -0.0847223104
| 15>  H       -0.4951683008     1.7909795584    -0.9605786272
| 16>  H       -0.4796005960     1.7605173393     0.8274873419
| 17>  H        0.3594875624    -2.7960270045    -0.5947412640
| 18>  H        2.1462247307    -0.4454119097    -3.7857470333
| 19>  H        2.3890803027    -5.2592037826    -4.1528624977
| 20> *
| 21>
| 22>                          ****END OF INPUT****

CARTESIAN COORDINATES (ANGSTROEM)
---------------------------------
  C      0.032024    1.423964   -0.074252
  O      0.012271   -0.002106   -0.015855
  C      0.584707   -0.666487   -1.020487
  C      0.712437   -2.002074   -1.229229
  C      1.422200   -2.126212   -2.482999
  C      1.659260   -0.855199   -2.918817
  O      1.148251    0.049056   -2.026503
  C      1.798582   -3.324149   -3.133312
  C      2.110834   -4.354555   -3.672350
  H      1.057991    1.805348   -0.084722
  H     -0.495168    1.790980   -0.960579
  H     -0.479601    1.760517    0.827487
  H      0.359488   -2.796027   -0.594741
  H      2.146225   -0.445412   -3.785747
  H      2.389080   -5.259204   -4.152862

 Total Charge           Charge          ....    0
 Multiplicity           Mult            ....    1
 Number of Electrons    NEL             ....   64
 Basis Dimension        Dim             ....  315

ORBITAL ENERGIES
----------------

  NO   OCC          E(Eh)            E(eV)
   0   2.0000     -20.637045      -561.5625
   1   2.0000     -20.606004      -560.7179
   2   2.0000     -11.360940      -309.1469
   3   2.0000     -11.295585      -307.3685
   4   2.0000     -11.294330      -307.3344
   5   2.0000     -11.260923      -306.4253
   6   2.0000     -11.241069      -305.8850
   7   2.0000     -11.229311      -305.5651
   8   2.0000     -11.223079      -305.3955
   9   2.0000      -1.494418       -40.6652
  10   2.0000      -1.415196       -38.5094
  11   2.0000      -1.116646       -30.3855
  12   2.0000      -1.039102       -28.2754
  13   2.0000      -1.005469       -27.3602
  14   2.0000      -0.948292       -25.8043
  15   2.0000      -0.855566       -23.2811
  16   2.0000      -0.792626       -21.5685
  17   2.0000      -0.763327       -20.7712
  18   2.0000      -0.713047       -19.4030
  19   2.0000      -0.693706       -18.8767
  20   2.0000      -0.668141       -18.1810
  21   2.0000      -0.653518       -17.7831
  22   2.0000      -0.625998       -17.0343
  23   2.0000      -0.603218       -16.4144
  24   2.0000      -0.580456       -15.7950
  25   2.0000      -0.567550       -15.4438
  26   2.0000      -0.528091       -14.3701
  27   2.0000      -0.513740       -13.9796
  28   2.0000      -0.467717       -12.7272
  29   2.0000      -0.396926       -10.8009
  30   2.0000      -0.364000        -9.9049
  31   2.0000      -0.298806        -8.1309
  32   0.0000       0.120798         3.2871
  33   0.0000       0.144210         3.9241
  34   0.0000       0.163706         4.4547
  35   0.0000       0.172617         4.6972
  36   0.0000       0.180370         4.9081

MULLIKEN ATOMIC CHARGES
-----------------------
   0 C :   -0.216841
   1 O :   -0.276180
   2 C :    0.356539
   3 C :   -0.344620
   4 C :   -0.027643
   5 C :   -0.094332
   6 O :   -0.223006
   7 C :    0.060683
   8 C :   -0.154356
   9 H :    0.137141
  10 H :    0.137093
  11 H :    0.151488
  12 H :    0.146887
  13 H :    0.155179
  14 H :    0.191968
Sum of atomic charges:    0.0000000

LOEWDIN ATOMIC CHARGES
----------------------
   0 C :   -0.310280
   1 O :    0.238345
   2 C :   -0.371946
   3 C :   -0.131877
   4 C :   -0.185114
   5 C :   -0.194659
   6 O :    0.347747
   7 C :   -0.067797
   8 C :   -0.081171
   9 H :    0.111767
  10 H :    0.111766
  11 H :    0.117973
  12 H :    0.150658
  13 H :    0.137314
  14 H :    0.127275

  Mayer bond orders larger than 0.1
B(  0-C ,  1-O ) :   0.8450 B(  0-C ,  9-H ) :   0.9344 B(  0-C , 10-H ) :   0.9344
B(  0-C , 11-H ) :   0.9363 B(  1-O ,  2-C ) :   1.1111 B(  2-C ,  3-C ) :   1.5121
B(  2-C ,  6-O ) :   1.0216 B(  3-C ,  4-C ) :   1.1182 B(  3-C , 12-H ) :   0.9393
B(  4-C ,  5-C ) :   1.5106 B(  4-C ,  7-C ) :   1.1163 B(  4-C ,  8-C ) :  -0.1621
B(  5-C ,  6-O ) :   1.0237 B(  5-C , 13-H ) :   0.9258 B(  7-C ,  8-C ) :   2.6162
B(  8-C , 14-H ) :   0.8771

MP2 TOTAL ENERGY:     -419.883095166 Eh
FINAL SINGLE POINT ENERGY      -419.883095166442

DIPOLE MOMENT
-------------
                                X             Y             Z
Electronic contribution:      0.99099      -3.10607      -1.70171
Nuclear contribution   :     -1.03581       3.78869       1.76972
                        -----------------------------------------
Total Dipole Moment    :     -0.04482       0.68262       0.06801
                        -----------------------------------------
Magnitude (a.u.)       :      0.68747
Magnitude (Debye)      :      1.74740

                             ****ORCA TERMINATED NORMALLY****
TOTAL RUN TIME: 0 days 0 hours 13 minutes 13 seconds 951 msec
