                         Program Version 3.0.3 - RELEASE   -
|  1> ! RI-MP2 RIJK def2-TZVP def2-TZVP/C def2-TZVP/JK TIGHTSCF
|  2> % maxcore 2000
|  3> % mp2 density relaxed end
|  4> *xyz 0 1
|  5>  C       -0.2755759105     1.5093764352     0.2406012743
|  6>  C        0.0778533243     0.0369990259     0.1807778414
|  7>  O        1.0604973439    -0.3131436261    -0.8587269410
|  8>  C        1.7873013070    -1.1230921740     0.0843535984
|  9>  C        2.2568831930    -2.4685289144    -0.3978669011
| 10>  O        3.0809890810    -3.1223343779     0.5498600830
| 11>  C        2.4011176959    -0.2137428035     1.0892713276
| 12>  O        2.8505470437     1.0620670550     0.7523030106
| 13>  C        0.9397047354    -0.6203594572     1.2534213838
| 14>  H       -0.6784269603     1.8427739587    -0.7215275687
| 15>  H       -1.0494006592     1.6659509656     0.9999669417
| 16>  H        0.5894642914     2.1198151055     0.5033878317
| 17>  H       -0.8231157421    -0.5606219374    -0.0081479013
| 18>  H        1.4000257471    -3.1285456806    -0.5697330900
| 19>  H        2.7610051472    -2.3350677664    -1.3684376804
| 20>  H        3.9129414079    -2.6401998441     0.5960788608
| 21>  H        3.0459621865    -0.6924641803     1.8207370801
| 22>  H        2.5655714349     1.2062560191    -0.1607439968
| 23>  H        0.5748972028    -1.1398633432     2.1299723360
| 24> *
| 25>
| 26>                          ****END OF INPUT****

CARTESIAN COORDINATES (ANGSTROEM)
---------------------------------
  C     -0.275576    1.509376    0.240601
  C      0.077853    0.036999    0.180778
  O      1.060497   -0.313144   -0.858727
  C      1.787301   -1.123092    0.084354
  C      2.256883   -2.468529   -0.397867
  O      3.080989   -3.122334    0.549860
  C      2.401118   -0.213743    1.089271
  O      2.850547    1.062067    0.752303
  C      0.939705   -0.620359    1.253421
  H     -0.678427    1.842774   -0.721528
  H     -1.049401    1.665951    0.999967
  H      0.589464    2.119815    0.503388
  H     -0.823116   -0.560622   -0.008148
  H      1.400026   -3.128546   -0.569733
  H      2.761005   -2.335068   -1.368438
  H      3.912941   -2.640200    0.596079
  H      3.045962   -0.692464    1.820737
  H      2.565571    1.206256   -0.160744
  H      0.574897   -1.139863    2.129972

 Total Charge           Charge          ....    0
 Multiplicity           Mult            ....    1
 Number of Electrons    NEL             ....   70
 Basis Dimension        Dim             ....  339

ORBITAL ENERGIES
----------------

  NO   OCC          E(Eh)            E(eV)
   0   2.0000     -20.569830      -559.7335
   1   2.0000     -20.568532      -559.6982
   2   2.0000     -20.563596      -559.5639
   3   2.0000     -11.300049      -307.4900
   4   2.0000     -11.297533      -307.4215
   5   2.0000     -11.294686      -307.3440
   6   2.0000     -11.291359      -307.2535
   7   2.0000     -11.240893      -305.8802
   8   2.0000     -11.221679      -305.3574
   9   2.0000      -1.413596       -38.4659
  10   2.0000      -1.373878       -37.3851
  11   2.0000      -1.363373       -37.0993
  12   2.0000      -1.113861       -30.3097
  13   2.0000      -1.035569       -28.1793
  14   2.0000      -0.963502       -26.2182
  15   2.0000      -0.882545       -24.0153
  16   2.0000      -0.807797       -21.9813
  17   2.0000      -0.748977       -20.3807
  18   2.0000      -0.729305       -19.8454
  19   2.0000      -0.696041       -18.9402
  20   2.0000      -0.689714       -18.7681
  21   2.0000      -0.637393       -17.3444
  22   2.0000      -0.626146       -17.0383
  23   2.0000      -0.607523       -16.5315
  24   2.0000      -0.591912       -16.1067
  25   2.0000      -0.579058       -15.7570
  26   2.0000      -0.565027       -15.3752
  27   2.0000      -0.544770       -14.8239
  28   2.0000      -0.527146       -14.3444
  29   2.0000      -0.509710       -13.8699
  30   2.0000      -0.493644       -13.4327
  31   2.0000      -0.482397       -13.1267
  32   2.0000      -0.461303       -12.5527
  33   2.0000      -0.392114       -10.6700
  34   2.0000      -0.381299       -10.3757
  35   0.0000       0.131770         3.5857
  36   0.0000       0.142701         3.8831
  37   0.0000       0.165784         4.5112
  38   0.0000       0.167626         4.5613
  39   0.0000       0.184184         5.0119

MULLIKEN ATOMIC CHARGES
-----------------------
   0 C :   -0.386142
   1 C :    0.065025
   2 O :   -0.355595
   3 C :    0.120741
   4 C :   -0.022007
   5 O :   -0.471273
   6 C :   -0.010942
   7 O :   -0.462071
   8 C :   -0.166139
   9 H :    0.139144
  10 H :    0.131131
  11 H :    0.141281
  12 H :    0.102186
  13 H :    0.120639
  14 H :    0.122059
  15 H :    0.321688
  16 H :    0.128262
  17 H :    0.336090
  18 H :    0.145921
Sum of atomic charges:    0.0000000

LOEWDIN ATOMIC CHARGES
----------------------
   0 C :   -0.295128
   1 C :   -0.267225
   2 O :    0.169833
   3 C :   -0.284384
   4 C :   -0.308823
   5 O :   -0.033329
   6 C :   -0.293801
   7 O :    0.001022
   8 C :   -0.140556
   9 H :    0.129107
  10 H :    0.132498
  11 H :    0.127787
  12 H :    0.144682
  13 H :    0.137541
  14 H :    0.129379
  15 H :    0.176805
  16 H :    0.150392
  17 H :    0.183083
  18 H :    0.141118

  Mayer bond orders larger than 0.1
B(  0-C ,  1-C ) :   0.9315 B(  0-C ,  9-H ) :   0.9297 B(  0-C , 10-H ) :   0.9280
B(  0-C , 11-H ) :   0.9269 B(  1-C ,  2-O ) :   0.8685 B(  1-C ,  8-C ) :   0.9223
B(  1-C , 12-H ) :   0.9146 B(  2-O ,  3-C ) :   0.9376 B(  3-C ,  4-C ) :   0.8619
B(  3-C ,  6-C ) :   0.9313 B(  3-C ,  8-C ) :   0.8026 B(  4-C ,  5-O ) :   0.9170
B(  4-C , 13-H ) :   0.9270 B(  4-C , 14-H ) :   0.9365 B(  5-O , 15-H ) :   0.8425
B(  6-C ,  7-O ) :   0.9817 B(  6-C ,  8-C ) :   0.8541 B(  6-C , 16-H ) :   0.9461
B(  7-O , 17-H ) :   0.8179 B(  8-C , 18-H ) :   0.8936

MP2 TOTAL ENERGY:     -459.381235566 Eh
FINAL SINGLE POINT ENERGY      -459.381235565844

DIPOLE MOMENT
-------------
                                X             Y             Z
Electronic contribution:      3.28084      -2.06721      -0.21671
Nuclear contribution   :     -3.61081       2.05185       0.14804
                        -----------------------------------------
Total Dipole Moment    :     -0.32998      -0.01536      -0.06867
                        -----------------------------------------
Magnitude (a.u.)       :      0.33740
Magnitude (Debye)      :      0.85760

                             ****ORCA TERMINATED NORMALLY****
TOTAL RUN TIME: 0 days 0 hours 15 minutes 51 seconds 854 msec
