                         Program Version 3.0.3 - RELEASE   -
|  1> ! RI-MP2 RIJK def2-TZVP def2-TZVP/C def2-TZVP/JK TIGHTSCF
|  2> % maxcore 2000
|  3> % mp2 density relaxed end
|  4> *xyz 0 1
|  5>  C        0.8364361064     0.0900042265     1.0264343628
|  6>  O       -0.0474602113     0.1002939218    -0.0822947077
|  7>  C       -1.2334946396    -0.6325590899     0.1041429601
|  8>  C       -2.2512496301     0.0662376973     0.9810354628
|  9>  N       -2.5707037138     1.3793181370     0.4434127799
| 10>  C       -3.8436872304     1.7958957565     0.2218263652
| 11>  O       -4.8455522073     1.1822323735     0.5274936677
| 12>  C       -1.6920702414    -1.3821597609    -1.1075688711
| 13>  C       -1.1473190280    -2.1361603399     0.0911957158
| 14>  H        1.7316702684     0.6355108427     0.7194374606
| 15>  H        0.4082682970     0.5866921487     1.9079958618
| 16>  H        1.1184270367    -0.9331420153     1.3083213969
| 17>  H       -3.1840950212    -0.4990372065     1.0266963912
| 18>  H       -1.8758887482     0.1577148655     2.0093699877
| 19>  H       -1.8050229788     1.9165692793     0.0666843548
| 20>  H       -3.8705212678     2.7877837046    -0.2715097823
| 21>  H       -2.7559613106    -1.4243255909    -1.3122114152
| 22>  H       -1.0560987207    -1.3209504603    -1.9827955166
| 23>  H       -0.1605901682    -2.5742311296    -0.0091002615
| 24>  H       -1.8346193110    -2.7036748801     0.7092951370
| 25> *
| 26>
| 27>                          ****END OF INPUT****

CARTESIAN COORDINATES (ANGSTROEM)
---------------------------------
  C      0.836436    0.090004    1.026434
  O     -0.047460    0.100294   -0.082295
  C     -1.233495   -0.632559    0.104143
  C     -2.251250    0.066238    0.981035
  N     -2.570704    1.379318    0.443413
  C     -3.843687    1.795896    0.221826
  O     -4.845552    1.182232    0.527494
  C     -1.692070   -1.382160   -1.107569
  C     -1.147319   -2.136160    0.091196
  H      1.731670    0.635511    0.719437
  H      0.408268    0.586692    1.907996
  H      1.118427   -0.933142    1.308321
  H     -3.184095   -0.499037    1.026696
  H     -1.875889    0.157715    2.009370
  H     -1.805023    1.916569    0.066684
  H     -3.870521    2.787784   -0.271510
  H     -2.755961   -1.424326   -1.312211
  H     -1.056099   -1.320950   -1.982796
  H     -0.160590   -2.574231   -0.009100
  H     -1.834619   -2.703675    0.709295

 Total Charge           Charge          ....    0
 Multiplicity           Mult            ....    1
 Number of Electrons    NEL             ....   70
 Basis Dimension        Dim             ....  345

ORBITAL ENERGIES
----------------

  NO   OCC          E(Eh)            E(eV)
   0   2.0000     -20.572896      -559.8170
   1   2.0000     -20.518509      -558.3370
   2   2.0000     -15.584918      -424.0872
   3   2.0000     -11.345687      -308.7318
   4   2.0000     -11.295841      -307.3755
   5   2.0000     -11.282113      -307.0019
   6   2.0000     -11.269324      -306.6539
   7   2.0000     -11.235870      -305.7436
   8   2.0000     -11.230632      -305.6010
   9   2.0000      -1.394656       -37.9505
  10   2.0000      -1.378661       -37.5153
  11   2.0000      -1.233781       -33.5729
  12   2.0000      -1.142961       -31.1015
  13   2.0000      -0.981146       -26.6983
  14   2.0000      -0.943706       -25.6796
  15   2.0000      -0.838791       -22.8247
  16   2.0000      -0.812917       -22.1206
  17   2.0000      -0.784333       -21.3428
  18   2.0000      -0.732436       -19.9306
  19   2.0000      -0.692234       -18.8367
  20   2.0000      -0.668067       -18.1790
  21   2.0000      -0.649468       -17.6729
  22   2.0000      -0.628285       -17.0965
  23   2.0000      -0.627512       -17.0755
  24   2.0000      -0.598335       -16.2815
  25   2.0000      -0.585804       -15.9405
  26   2.0000      -0.566569       -15.4171
  27   2.0000      -0.536235       -14.5917
  28   2.0000      -0.523704       -14.2507
  29   2.0000      -0.508882       -13.8474
  30   2.0000      -0.474411       -12.9094
  31   2.0000      -0.430443       -11.7130
  32   2.0000      -0.426145       -11.5960
  33   2.0000      -0.410945       -11.1824
  34   2.0000      -0.388661       -10.5760
  35   0.0000       0.135595         3.6897
  36   0.0000       0.149510         4.0684
  37   0.0000       0.162013         4.4086
  38   0.0000       0.168636         4.5888
  39   0.0000       0.178373         4.8538

MULLIKEN ATOMIC CHARGES
-----------------------
   0 C :   -0.213634
   1 O :   -0.328783
   2 C :    0.196439
   3 C :   -0.141500
   4 N :   -0.317669
   5 C :    0.188037
   6 O :   -0.375922
   7 C :   -0.260699
   8 C :   -0.317583
   9 H :    0.145074
  10 H :    0.117483
  11 H :    0.119994
  12 H :    0.163116
  13 H :    0.138128
  14 H :    0.250423
  15 H :    0.078827
  16 H :    0.144897
  17 H :    0.135939
  18 H :    0.139292
  19 H :    0.138143
Sum of atomic charges:    0.0000000

LOEWDIN ATOMIC CHARGES
----------------------
   0 C :   -0.343394
   1 O :    0.179933
   2 C :   -0.361824
   3 C :   -0.236192
   4 N :    0.091912
   5 C :   -0.440473
   6 O :    0.047457
   7 C :   -0.196745
   8 C :   -0.207987
   9 H :    0.114736
  10 H :    0.102801
  11 H :    0.105826
  12 H :    0.156563
  13 H :    0.136497
  14 H :    0.188396
  15 H :    0.109513
  16 H :    0.139470
  17 H :    0.139767
  18 H :    0.138079
  19 H :    0.135664

  Mayer bond orders larger than 0.1
B(  0-C ,  1-O ) :   0.8863 B(  0-C ,  9-H ) :   0.9389 B(  0-C , 10-H ) :   0.9326
B(  0-C , 11-H ) :   0.9341 B(  1-O ,  2-C ) :   0.9434 B(  2-C ,  3-C ) :   0.9603
B(  2-C ,  7-C ) :   0.8586 B(  2-C ,  8-C ) :   0.8947 B(  3-C ,  4-N ) :   0.8104
B(  3-C , 12-H ) :   0.9174 B(  3-C , 13-H ) :   0.9289 B(  4-N ,  5-C ) :   1.1737
B(  4-N , 14-H ) :   0.8645 B(  5-C ,  6-O ) :   1.8770 B(  5-C , 15-H ) :   0.9307
B(  7-C ,  8-C ) :   0.9228 B(  7-C , 16-H ) :   0.9236 B(  7-C , 17-H ) :   0.9206
B(  8-C , 18-H ) :   0.9188 B(  8-C , 19-H ) :   0.9156

MP2 TOTAL ENERGY:     -439.560730419 Eh
FINAL SINGLE POINT ENERGY      -439.560730419289

DIPOLE MOMENT
-------------
                                X             Y             Z
Electronic contribution:     -5.18370       3.84881      -1.10647
Nuclear contribution   :      6.67264      -3.94042       1.24883
                        -----------------------------------------
Total Dipole Moment    :      1.48893      -0.09161       0.14237
                        -----------------------------------------
Magnitude (a.u.)       :      1.49853
Magnitude (Debye)      :      3.80895

                             ****ORCA TERMINATED NORMALLY****
TOTAL RUN TIME: 0 days 0 hours 16 minutes 56 seconds 921 msec
