                         Program Version 3.0.3 - RELEASE   -
|  1> ! RI-MP2 RIJK def2-TZVP def2-TZVP/C def2-TZVP/JK TIGHTSCF
|  2> % maxcore 2000
|  3> % mp2 density relaxed end
|  4> *xyz 0 1
|  5>  O       -0.0402465634     1.3262204812     0.2161848588
|  6>  N        0.0160320920    -0.0381950977    -0.0159998880
|  7>  C       -1.1553711088    -0.5593430793    -0.0619100321
|  8>  C       -2.4920290083     0.0237411946     0.0517926041
|  9>  C       -3.4337855202    -0.9335516892     0.0125785350
| 10>  C       -2.8417105662    -2.3178029665    -0.0282173454
| 11>  O       -3.4008409788    -3.1448181487    -1.0208025826
| 12>  C       -1.3467746553    -2.0307123858    -0.2838454624
| 13>  O       -0.5599115145    -2.8586355554    -0.6652131158
| 14>  H        0.8905024423     1.5790303686     0.2253666774
| 15>  H       -2.6632974399     1.0873229295     0.1378815755
| 16>  H       -4.5037498238    -0.7679447981     0.0441748346
| 17>  H       -2.9297347898    -2.7877012044     0.9696913916
| 18>  H       -2.7093150754    -3.7751069288    -1.2650187508
| 19> *
| 20>
| 21>                          ****END OF INPUT****

CARTESIAN COORDINATES (ANGSTROEM)
---------------------------------
  O     -0.040247    1.326220    0.216185
  N      0.016032   -0.038195   -0.016000
  C     -1.155371   -0.559343   -0.061910
  C     -2.492029    0.023741    0.051793
  C     -3.433786   -0.933552    0.012579
  C     -2.841711   -2.317803   -0.028217
  O     -3.400841   -3.144818   -1.020803
  C     -1.346775   -2.030712   -0.283845
  O     -0.559912   -2.858636   -0.665213
  H      0.890502    1.579030    0.225367
  H     -2.663297    1.087323    0.137882
  H     -4.503750   -0.767945    0.044175
  H     -2.929735   -2.787701    0.969691
  H     -2.709315   -3.775107   -1.265019

 Total Charge           Charge          ....    0
 Multiplicity           Mult            ....    1
 Number of Electrons    NEL             ....   66
 Basis Dimension        Dim             ....  309

ORBITAL ENERGIES
----------------

  NO   OCC          E(Eh)            E(eV)
   0   2.0000     -20.620634      -561.1160
   1   2.0000     -20.579228      -559.9893
   2   2.0000     -20.577383      -559.9391
   3   2.0000     -15.653621      -425.9567
   4   2.0000     -11.355492      -308.9986
   5   2.0000     -11.317384      -307.9617
   6   2.0000     -11.300950      -307.5145
   7   2.0000     -11.276750      -306.8560
   8   2.0000     -11.267751      -306.6111
   9   2.0000      -1.454597       -39.5816
  10   2.0000      -1.422891       -38.7188
  11   2.0000      -1.383006       -37.6335
  12   2.0000      -1.203001       -32.7353
  13   2.0000      -1.125051       -30.6142
  14   2.0000      -0.966706       -26.3054
  15   2.0000      -0.920758       -25.0551
  16   2.0000      -0.801825       -21.8188
  17   2.0000      -0.762093       -20.7376
  18   2.0000      -0.717989       -19.5375
  19   2.0000      -0.709390       -19.3035
  20   2.0000      -0.703666       -19.1477
  21   2.0000      -0.670480       -18.2447
  22   2.0000      -0.625550       -17.0221
  23   2.0000      -0.621343       -16.9076
  24   2.0000      -0.617827       -16.8119
  25   2.0000      -0.594964       -16.1898
  26   2.0000      -0.575222       -15.6526
  27   2.0000      -0.539766       -14.6878
  28   2.0000      -0.487793       -13.2735
  29   2.0000      -0.472095       -12.8464
  30   2.0000      -0.464990       -12.6530
  31   2.0000      -0.423569       -11.5259
  32   2.0000      -0.363721        -9.8973
  33   0.0000       0.055001         1.4967
  34   0.0000       0.110215         2.9991
  35   0.0000       0.138764         3.7760
  36   0.0000       0.156337         4.2542
  37   0.0000       0.164596         4.4789

MULLIKEN ATOMIC CHARGES
-----------------------
   0 O :   -0.346106
   1 N :   -0.045056
   2 C :    0.075146
   3 C :   -0.172240
   4 C :   -0.165641
   5 C :    0.216220
   6 O :   -0.475958
   7 C :    0.066257
   8 O :   -0.259684
   9 H :    0.348576
  10 H :    0.161283
  11 H :    0.153980
  12 H :    0.108295
  13 H :    0.334928
Sum of atomic charges:   -0.0000000

LOEWDIN ATOMIC CHARGES
----------------------
   0 O :   -0.044734
   1 N :    0.060448
   2 C :   -0.256763
   3 C :   -0.105669
   4 C :   -0.081926
   5 C :   -0.302998
   6 O :   -0.004709
   7 C :   -0.258543
   8 O :    0.177496
   9 H :    0.179015
  10 H :    0.151100
  11 H :    0.146424
  12 H :    0.153241
  13 H :    0.187617

  Mayer bond orders larger than 0.1
B(  0-O ,  1-N ) :   0.8323 B(  0-O ,  9-H ) :   0.8371 B(  1-N ,  2-C ) :   1.7615
B(  2-C ,  3-C ) :   0.9699 B(  2-C ,  5-C ) :  -0.1136 B(  2-C ,  7-C ) :   0.8993
B(  3-C ,  4-C ) :   1.6457 B(  3-C , 10-H ) :   0.9096 B(  4-C ,  5-C ) :   0.9100
B(  4-C , 11-H ) :   0.9094 B(  5-C ,  6-O ) :   0.9646 B(  5-C ,  7-C ) :   0.9262
B(  5-C , 12-H ) :   0.8962 B(  6-O , 13-H ) :   0.8227 B(  7-C ,  8-O ) :   2.0195

MP2 TOTAL ENERGY:     -473.036034923 Eh
FINAL SINGLE POINT ENERGY      -473.036034923188

DIPOLE MOMENT
-------------
                                X             Y             Z
Electronic contribution:      3.10831      -0.37047      -0.56843
Nuclear contribution   :     -3.36187       1.14745       1.10332
                        -----------------------------------------
Total Dipole Moment    :     -0.25356       0.77698       0.53489
                        -----------------------------------------
Magnitude (a.u.)       :      0.97678
Magnitude (Debye)      :      2.48277

                             ****ORCA TERMINATED NORMALLY****
TOTAL RUN TIME: 0 days 0 hours 13 minutes 14 seconds 149 msec
