                         Program Version 3.0.3 - RELEASE   -
|  1> ! RI-MP2 RIJK def2-TZVP def2-TZVP/C def2-TZVP/JK TIGHTSCF
|  2> % maxcore 2000
|  3> % mp2 density relaxed end
|  4> *xyz 0 1
|  5>  C        0.0738271477     1.4051134004    -0.0075211201
|  6>  N        0.0350518831    -0.0475973071     0.0026284257
|  7>  C       -1.0828597544    -0.6365589922    -0.0230076198
|  8>  N       -2.3835371247    -0.1089146576    -0.0389520787
|  9>  C       -3.3958855365    -1.0531498077     0.1146711249
| 10>  O       -4.5701447534    -0.8170209573     0.2363386415
| 11>  C       -2.6949799229    -2.4003180688     0.1052172016
| 12>  O       -1.9955210748    -2.6073866363    -1.1294165356
| 13>  C       -1.2534806746    -2.1272080415     0.0004191243
| 14>  H        1.0321650666     1.7401719301     0.3963940846
| 15>  H        0.0011627231     1.7856490716    -1.0350414297
| 16>  H       -0.7254432714     1.8741748366     0.5863258288
| 17>  H       -2.6029816406     0.8657770618    -0.1718136299
| 18>  H       -3.1492473632    -3.2646104418     0.5751747270
| 19>  H       -0.4625090839    -2.7622025102     0.3801094754
| 20> *
| 21>
| 22>                          ****END OF INPUT****

CARTESIAN COORDINATES (ANGSTROEM)
---------------------------------
  C      0.073827    1.405113   -0.007521
  N      0.035052   -0.047597    0.002628
  C     -1.082860   -0.636559   -0.023008
  N     -2.383537   -0.108915   -0.038952
  C     -3.395886   -1.053150    0.114671
  O     -4.570145   -0.817021    0.236339
  C     -2.694980   -2.400318    0.105217
  O     -1.995521   -2.607387   -1.129417
  C     -1.253481   -2.127208    0.000419
  H      1.032165    1.740172    0.396394
  H      0.001163    1.785649   -1.035041
  H     -0.725443    1.874175    0.586326
  H     -2.602982    0.865777   -0.171814
  H     -3.149247   -3.264610    0.575175
  H     -0.462509   -2.762203    0.380109

 Total Charge           Charge          ....    0
 Multiplicity           Mult            ....    1
 Number of Electrons    NEL             ....   66
 Basis Dimension        Dim             ....  315

ORBITAL ENERGIES
----------------

  NO   OCC          E(Eh)            E(eV)
   0   2.0000     -20.611316      -560.8624
   1   2.0000     -20.560318      -559.4747
   2   2.0000     -15.623471      -425.1363
   3   2.0000     -15.567698      -423.6186
   4   2.0000     -11.385738      -309.8217
   5   2.0000     -11.344173      -308.6906
   6   2.0000     -11.326351      -308.2057
   7   2.0000     -11.325534      -308.1834
   8   2.0000     -11.264838      -306.5318
   9   2.0000      -1.462773       -39.8041
  10   2.0000      -1.415926       -38.5293
  11   2.0000      -1.307155       -35.5695
  12   2.0000      -1.215577       -33.0775
  13   2.0000      -1.019518       -27.7425
  14   2.0000      -0.986248       -26.8372
  15   2.0000      -0.911903       -24.8141
  16   2.0000      -0.837657       -22.7938
  17   2.0000      -0.828464       -22.5436
  18   2.0000      -0.724050       -19.7024
  19   2.0000      -0.698470       -19.0063
  20   2.0000      -0.673679       -18.3317
  21   2.0000      -0.662571       -18.0295
  22   2.0000      -0.634014       -17.2524
  23   2.0000      -0.627133       -17.0652
  24   2.0000      -0.606850       -16.5132
  25   2.0000      -0.581830       -15.8324
  26   2.0000      -0.574273       -15.6268
  27   2.0000      -0.512933       -13.9576
  28   2.0000      -0.502153       -13.6643
  29   2.0000      -0.481766       -13.1095
  30   2.0000      -0.444460       -12.0944
  31   2.0000      -0.427915       -11.6441
  32   2.0000      -0.390185       -10.6175
  33   0.0000       0.109736         2.9861
  34   0.0000       0.124319         3.3829
  35   0.0000       0.151685         4.1276
  36   0.0000       0.159041         4.3277
  37   0.0000       0.177141         4.8203

MULLIKEN ATOMIC CHARGES
-----------------------
   0 C :   -0.308164
   1 N :   -0.203535
   2 C :    0.128731
   3 N :   -0.296850
   4 C :    0.203316
   5 O :   -0.289070
   6 C :    0.042482
   7 O :   -0.301434
   8 C :    0.038654
   9 H :    0.155417
  10 H :    0.153306
  11 H :    0.109587
  12 H :    0.256175
  13 H :    0.160726
  14 H :    0.150658
Sum of atomic charges:    0.0000000

LOEWDIN ATOMIC CHARGES
----------------------
   0 C :   -0.333114
   1 N :    0.092783
   2 C :   -0.308932
   3 N :    0.177364
   4 C :   -0.396127
   5 O :    0.134988
   6 C :   -0.203673
   7 O :    0.195927
   8 C :   -0.199168
   9 H :    0.121172
  10 H :    0.122203
  11 H :    0.106233
  12 H :    0.194347
  13 H :    0.146684
  14 H :    0.149313

  Mayer bond orders larger than 0.1
B(  0-C ,  1-N ) :   0.8651 B(  0-C ,  9-H ) :   0.9443 B(  0-C , 10-H ) :   0.9232
B(  0-C , 11-H ) :   0.9244 B(  1-N ,  2-C ) :   1.9780 B(  2-C ,  3-N ) :   1.0105
B(  2-C ,  8-C ) :   0.8826 B(  3-N ,  4-C ) :   1.0896 B(  3-N , 12-H ) :   0.8587
B(  4-C ,  5-O ) :   2.0217 B(  4-C ,  6-C ) :   0.9126 B(  6-C ,  7-O ) :   0.8697
B(  6-C ,  8-C ) :   0.9053 B(  6-C , 13-H ) :   0.9160 B(  7-O ,  8-C ) :   0.9060
B(  8-C , 14-H ) :   0.9406

MP2 TOTAL ENERGY:     -453.219121116 Eh
FINAL SINGLE POINT ENERGY      -453.219121116251

DIPOLE MOMENT
-------------
                                X             Y             Z
Electronic contribution:     -4.79645      -4.82906      -0.73905
Nuclear contribution   :      5.32776       5.32182       1.20215
                        -----------------------------------------
Total Dipole Moment    :      0.53131       0.49276       0.46311
                        -----------------------------------------
Magnitude (a.u.)       :      0.85998
Magnitude (Debye)      :      2.18590

                             ****ORCA TERMINATED NORMALLY****
TOTAL RUN TIME: 0 days 0 hours 13 minutes 8 seconds 521 msec
