                         Program Version 3.0.3 - RELEASE   -
|  1> ! RI-MP2 RIJK def2-TZVP def2-TZVP/C def2-TZVP/JK TIGHTSCF
|  2> % maxcore 2000
|  3> % mp2 density relaxed end
|  4> *xyz 0 1
|  5>  C       -0.3572096824     1.4777026284    -0.2427471108
|  6>  C        0.0902473462     0.0388172554     0.0479286829
|  7>  C        0.9415258824    -0.5391089482    -1.0515196499
|  8>  O        0.2323304555    -0.8850509360    -2.2848983692
|  9>  C        0.8931549371    -1.9208669987    -1.5411461908
| 10>  C        2.2502442141    -2.2753912824    -2.1608867212
| 11>  O        2.1475563027    -2.6241608583    -3.5315453081
| 12>  C        3.0531096029    -0.9985129381    -1.9386927190
| 13>  C        2.3347554163    -0.0476057301    -1.3413439217
| 14>  H        0.4974420578     2.1550104861    -0.3414762485
| 15>  H       -0.9286433090     1.5195286305    -1.1743901087
| 16>  H       -0.9897221252     1.8578877084     0.5644226518
| 17>  H        0.6581751470     0.0024916748     0.9861926037
| 18>  H       -0.7886287526    -0.6006669102     0.1804865789
| 19>  H        0.2457844375    -2.6896615729    -1.1279454749
| 20>  H        2.7036135512    -3.1400429316    -1.6632081602
| 21>  H        1.5918666595    -1.9387008342    -3.9265745260
| 22>  H        4.0623160417    -0.8959131453    -2.3208157107
| 23>  H        2.6677257274     0.9572267723    -1.1097782677
| 24> *
| 25>
| 26>                          ****END OF INPUT****

CARTESIAN COORDINATES (ANGSTROEM)
---------------------------------
  C     -0.357210    1.477703   -0.242747
  C      0.090247    0.038817    0.047929
  C      0.941526   -0.539109   -1.051520
  O      0.232330   -0.885051   -2.284898
  C      0.893155   -1.920867   -1.541146
  C      2.250244   -2.275391   -2.160887
  O      2.147556   -2.624161   -3.531545
  C      3.053110   -0.998513   -1.938693
  C      2.334755   -0.047606   -1.341344
  H      0.497442    2.155010   -0.341476
  H     -0.928643    1.519529   -1.174390
  H     -0.989722    1.857888    0.564423
  H      0.658175    0.002492    0.986193
  H     -0.788629   -0.600667    0.180487
  H      0.245784   -2.689662   -1.127945
  H      2.703614   -3.140043   -1.663208
  H      1.591867   -1.938701   -3.926575
  H      4.062316   -0.895913   -2.320816
  H      2.667726    0.957227   -1.109778

 Total Charge           Charge          ....    0
 Multiplicity           Mult            ....    1
 Number of Electrons    NEL             ....   68
 Basis Dimension        Dim             ....  339

ORBITAL ENERGIES
----------------

  NO   OCC          E(Eh)            E(eV)
   0   2.0000     -20.569531      -559.7254
   1   2.0000     -20.555825      -559.3524
   2   2.0000     -11.298740      -307.4543
   3   2.0000     -11.293360      -307.3080
   4   2.0000     -11.285205      -307.0860
   5   2.0000     -11.241890      -305.9074
   6   2.0000     -11.239384      -305.8392
   7   2.0000     -11.238748      -305.8219
   8   2.0000     -11.222985      -305.3930
   9   2.0000      -1.414805       -38.4988
  10   2.0000      -1.359347       -36.9897
  11   2.0000      -1.109229       -30.1837
  12   2.0000      -1.055767       -28.7289
  13   2.0000      -0.958904       -26.0931
  14   2.0000      -0.925352       -25.1801
  15   2.0000      -0.850528       -23.1440
  16   2.0000      -0.794232       -21.6121
  17   2.0000      -0.756934       -20.5972
  18   2.0000      -0.725302       -19.7365
  19   2.0000      -0.658345       -17.9145
  20   2.0000      -0.633797       -17.2465
  21   2.0000      -0.621984       -16.9250
  22   2.0000      -0.604363       -16.4456
  23   2.0000      -0.587135       -15.9767
  24   2.0000      -0.567000       -15.4288
  25   2.0000      -0.552890       -15.0449
  26   2.0000      -0.547135       -14.8883
  27   2.0000      -0.521619       -14.1940
  28   2.0000      -0.499061       -13.5801
  29   2.0000      -0.491489       -13.3741
  30   2.0000      -0.468762       -12.7557
  31   2.0000      -0.451801       -12.2941
  32   2.0000      -0.418951       -11.4002
  33   2.0000      -0.364466        -9.9176
  34   0.0000       0.122719         3.3394
  35   0.0000       0.139456         3.7948
  36   0.0000       0.159845         4.3496
  37   0.0000       0.168717         4.5910
  38   0.0000       0.179091         4.8733

MULLIKEN ATOMIC CHARGES
-----------------------
   0 C :   -0.416458
   1 C :   -0.221263
   2 C :    0.294843
   3 O :   -0.355336
   4 C :   -0.062089
   5 C :    0.157424
   6 O :   -0.464702
   7 C :   -0.189603
   8 C :   -0.235681
   9 H :    0.124037
  10 H :    0.148208
  11 H :    0.137173
  12 H :    0.119563
  13 H :    0.124401
  14 H :    0.130074
  15 H :    0.104028
  16 H :    0.328293
  17 H :    0.137316
  18 H :    0.139770
Sum of atomic charges:   -0.0000000

LOEWDIN ATOMIC CHARGES
----------------------
   0 C :   -0.307059
   1 C :   -0.248248
   2 C :   -0.266827
   3 O :    0.165703
   4 C :   -0.214528
   5 C :   -0.303290
   6 O :   -0.014214
   7 C :   -0.118675
   8 C :   -0.109300
   9 H :    0.120421
  10 H :    0.128409
  11 H :    0.122740
  12 H :    0.146915
  13 H :    0.147985
  14 H :    0.137042
  15 H :    0.147888
  16 H :    0.182393
  17 H :    0.140625
  18 H :    0.142020

  Mayer bond orders larger than 0.1
B(  0-C ,  1-C ) :   0.9280 B(  0-C ,  9-H ) :   0.9363 B(  0-C , 10-H ) :   0.9378
B(  0-C , 11-H ) :   0.9390 B(  1-C ,  2-C ) :   0.8957 B(  1-C , 12-H ) :   0.9255
B(  1-C , 13-H ) :   0.9341 B(  2-C ,  3-O ) :   0.7926 B(  2-C ,  4-C ) :   0.9438
B(  2-C ,  8-C ) :   0.9100 B(  3-O ,  4-C ) :   0.9002 B(  4-C ,  5-C ) :   0.9308
B(  4-C , 14-H ) :   0.9077 B(  5-C ,  6-O ) :   0.9410 B(  5-C ,  7-C ) :   0.9355
B(  5-C , 15-H ) :   0.9296 B(  6-O , 16-H ) :   0.8249 B(  7-C ,  8-C ) :   1.7755
B(  7-C , 17-H ) :   0.9308 B(  8-C , 18-H ) :   0.9170

MP2 TOTAL ENERGY:     -422.308240869 Eh
FINAL SINGLE POINT ENERGY      -422.308240869073

DIPOLE MOMENT
-------------
                                X             Y             Z
Electronic contribution:      2.72426      -5.14689      -4.73334
Nuclear contribution   :     -2.66599       5.56518       5.65711
                        -----------------------------------------
Total Dipole Moment    :      0.05827       0.41829       0.92377
                        -----------------------------------------
Magnitude (a.u.)       :      1.01573
Magnitude (Debye)      :      2.58179

                             ****ORCA TERMINATED NORMALLY****
TOTAL RUN TIME: 0 days 0 hours 18 minutes 35 seconds 420 msec
