                         Program Version 3.0.3 - RELEASE   -
|  1> ! RI-MP2 RIJK def2-TZVP def2-TZVP/C def2-TZVP/JK TIGHTSCF
|  2> % maxcore 2000
|  3> % mp2 density relaxed end
|  4> *xyz 0 1
|  5>  C       -0.1942540853     1.6253583983    -0.1652372318
|  6>  C       -0.0342441448     0.1175846994    -0.0060726144
|  7>  C        0.9448203386    -0.6483998081    -1.0166878972
|  8>  C        1.8658578919    -0.8383282083     0.2012046176
|  9>  C        2.6428269710     0.3703940737     0.8237682097
| 10>  C        2.0795113371    -0.4716454238     1.9700720643
| 11>  C        0.7340595682    -0.6138374766     1.1901261932
| 12>  N        2.4910711624    -1.7947727823     1.2177003130
| 13>  C        3.9081322782    -2.1439267222     1.1468244316
| 14>  H        0.7499349304     2.1543678950    -0.3124573545
| 15>  H       -0.8205515220     1.8405165143    -1.0386270550
| 16>  H       -0.6895868165     2.0571110471     0.7107870337
| 17>  H       -1.0354536990    -0.3198513780    -0.0383919356
| 18>  H        0.4942108734    -1.5754435943    -1.3798771433
| 19>  H        1.3474394025    -0.0820668318    -1.8622262661
| 20>  H        3.7238011760     0.3813162070     0.6853558233
| 21>  H        2.2375729620     1.3725785203     0.6984096021
| 22>  H        2.2688020433    -0.3954879169     3.0459154084
| 23>  H        0.2036887628    -1.5281846244     1.4603085129
| 24>  H        4.2041699486    -2.5785921146     2.1076393855
| 25>  H        4.0286568982    -2.9205457026     0.3843089993
| 26>  H        4.6123159628    -1.3309274711     0.9123250832
| 27> *
| 28>
| 29>                          ****END OF INPUT****

CARTESIAN COORDINATES (ANGSTROEM)
---------------------------------
  C     -0.194254    1.625358   -0.165237
  C     -0.034244    0.117585   -0.006073
  C      0.944820   -0.648400   -1.016688
  C      1.865858   -0.838328    0.201205
  C      2.642827    0.370394    0.823768
  C      2.079511   -0.471645    1.970072
  C      0.734060   -0.613837    1.190126
  N      2.491071   -1.794773    1.217700
  C      3.908132   -2.143927    1.146824
  H      0.749935    2.154368   -0.312457
  H     -0.820552    1.840517   -1.038627
  H     -0.689587    2.057111    0.710787
  H     -1.035454   -0.319851   -0.038392
  H      0.494211   -1.575444   -1.379877
  H      1.347439   -0.082067   -1.862226
  H      3.723801    0.381316    0.685356
  H      2.237573    1.372579    0.698410
  H      2.268802   -0.395488    3.045915
  H      0.203689   -1.528185    1.460309
  H      4.204170   -2.578592    2.107639
  H      4.028657   -2.920546    0.384309
  H      4.612316   -1.330927    0.912325

 Total Charge           Charge          ....    0
 Multiplicity           Mult            ....    1
 Number of Electrons    NEL             ....   68
 Basis Dimension        Dim             ....  357

ORBITAL ENERGIES
----------------

  NO   OCC          E(Eh)            E(eV)
   0   2.0000     -15.554708      -423.2651
   1   2.0000     -11.280056      -306.9459
   2   2.0000     -11.264892      -306.5333
   3   2.0000     -11.247391      -306.0571
   4   2.0000     -11.234669      -305.7109
   5   2.0000     -11.232650      -305.6559
   6   2.0000     -11.221619      -305.3558
   7   2.0000     -11.217658      -305.2480
   8   2.0000     -11.213204      -305.1268
   9   2.0000      -1.277171       -34.7536
  10   2.0000      -1.107164       -30.1275
  11   2.0000      -1.023280       -27.8449
  12   2.0000      -0.962007       -26.1775
  13   2.0000      -0.916389       -24.9362
  14   2.0000      -0.869337       -23.6559
  15   2.0000      -0.812629       -22.1128
  16   2.0000      -0.782352       -21.2889
  17   2.0000      -0.693806       -18.8794
  18   2.0000      -0.662370       -18.0240
  19   2.0000      -0.633342       -17.2341
  20   2.0000      -0.598639       -16.2898
  21   2.0000      -0.587895       -15.9974
  22   2.0000      -0.582673       -15.8553
  23   2.0000      -0.569753       -15.5038
  24   2.0000      -0.559436       -15.2230
  25   2.0000      -0.525109       -14.2889
  26   2.0000      -0.515755       -14.0344
  27   2.0000      -0.496966       -13.5231
  28   2.0000      -0.457118       -12.4388
  29   2.0000      -0.443663       -12.0727
  30   2.0000      -0.430603       -11.7173
  31   2.0000      -0.418662       -11.3924
  32   2.0000      -0.358288        -9.7495
  33   2.0000      -0.355916        -9.6850
  34   0.0000       0.137760         3.7486
  35   0.0000       0.154507         4.2044
  36   0.0000       0.159947         4.3524
  37   0.0000       0.169265         4.6059
  38   0.0000       0.190626         5.1872

MULLIKEN ATOMIC CHARGES
-----------------------
   0 C :   -0.412507
   1 C :   -0.051083
   2 C :   -0.240835
   3 C :    0.020656
   4 C :   -0.212561
   5 C :   -0.053654
   6 C :   -0.097692
   7 N :   -0.179449
   8 C :   -0.311962
   9 H :    0.119067
  10 H :    0.133618
  11 H :    0.138937
  12 H :    0.108513
  13 H :    0.120067
  14 H :    0.119398
  15 H :    0.117379
  16 H :    0.101202
  17 H :    0.125908
  18 H :    0.087219
  19 H :    0.138290
  20 H :    0.139144
  21 H :    0.090342
Sum of atomic charges:    0.0000000

LOEWDIN ATOMIC CHARGES
----------------------
   0 C :   -0.305238
   1 C :   -0.205719
   2 C :   -0.178564
   3 C :   -0.223370
   4 C :   -0.185333
   5 C :   -0.170689
   6 C :   -0.140161
   7 N :    0.114460
   8 C :   -0.348647
   9 H :    0.117630
  10 H :    0.125570
  11 H :    0.127719
  12 H :    0.149289
  13 H :    0.138590
  14 H :    0.127999
  15 H :    0.124238
  16 H :    0.129053
  17 H :    0.120028
  18 H :    0.147287
  19 H :    0.117908
  20 H :    0.119326
  21 H :    0.098623

  Mayer bond orders larger than 0.1
B(  0-C ,  1-C ) :   0.9147 B(  0-C ,  9-H ) :   0.9331 B(  0-C , 10-H ) :   0.9355
B(  0-C , 11-H ) :   0.9388 B(  1-C ,  2-C ) :   0.9225 B(  1-C ,  6-C ) :   0.8642
B(  1-C , 12-H ) :   0.9210 B(  2-C ,  3-C ) :   0.8748 B(  2-C , 13-H ) :   0.9106
B(  2-C , 14-H ) :   0.9114 B(  3-C ,  4-C ) :   0.9348 B(  3-C ,  6-C ) :   0.8437
B(  3-C ,  7-N ) :   0.9583 B(  4-C ,  5-C ) :   0.9342 B(  4-C , 15-H ) :   0.9224
B(  4-C , 16-H ) :   0.8918 B(  5-C ,  6-C ) :   0.9555 B(  5-C ,  7-N ) :   0.8214
B(  5-C , 17-H ) :   0.8830 B(  6-C , 18-H ) :   0.9023 B(  7-N ,  8-C ) :   0.9071
B(  8-C , 19-H ) :   0.9373 B(  8-C , 20-H ) :   0.9383 B(  8-C , 21-H ) :   0.9132

MP2 TOTAL ENERGY:     -366.396510441 Eh
FINAL SINGLE POINT ENERGY      -366.396510441205

DIPOLE MOMENT
-------------
                                X             Y             Z
Electronic contribution:     -0.16936      -2.68844       1.83589
Nuclear contribution   :      0.22394       3.12388      -2.10741
                        -----------------------------------------
Total Dipole Moment    :      0.05458       0.43544      -0.27152
                        -----------------------------------------
Magnitude (a.u.)       :      0.51605
Magnitude (Debye)      :      1.31170

                             ****ORCA TERMINATED NORMALLY****
TOTAL RUN TIME: 0 days 0 hours 22 minutes 27 seconds 717 msec
