                         Program Version 3.0.3 - RELEASE   -
|  1> ! RI-MP2 RIJK def2-TZVP def2-TZVP/C def2-TZVP/JK TIGHTSCF
|  2> % maxcore 2000
|  3> % mp2 density relaxed end
|  4> *xyz 0 1
|  5>  N       -0.0751047132     1.3586710767     0.1860770902
|  6>  C        0.0626769927     0.0297251843    -0.1072823505
|  7>  O        1.1413088083    -0.4648618870    -0.3710386328
|  8>  C       -1.2394208380    -0.7694439025    -0.0820843683
|  9>  C       -1.0097091281    -2.2608074540     0.1779428050
| 10>  C       -2.2764671346    -3.0923164045     0.0374022290
| 11>  C       -2.9197514466    -3.2697427090    -1.3712117516
| 12>  C       -3.2225743375    -4.7475884817    -1.0048094644
| 13>  C       -2.1683395966    -4.6413202288     0.1292983217
| 14>  H        0.7292216341     1.9533222228     0.0693121002
| 15>  H       -0.9761840846     1.7878897725     0.3019214487
| 16>  H       -1.9288323571    -0.3431127271     0.6574210541
| 17>  H       -1.7202890832    -0.6339316961    -1.0611448193
| 18>  H       -0.2439893159    -2.6177766369    -0.5190730341
| 19>  H       -0.5882600691    -2.3928293353     1.1827553852
| 20>  H       -3.0387245928    -2.7366566579     0.7428560334
| 21>  H       -3.7621463754    -2.6267870361    -1.6395822993
| 22>  H       -2.1632858028    -3.1982378171    -2.1606261248
| 23>  H       -4.2347674243    -4.8659473383    -0.6070585775
| 24>  H       -3.0650043151    -5.5043550515    -1.7768017939
| 25>  H       -1.1832268031    -4.9858686435    -0.2024158984
| 26>  H       -2.3951980471    -5.1134894088     1.0885855572
| 27> *
| 28>
| 29>                          ****END OF INPUT****

CARTESIAN COORDINATES (ANGSTROEM)
---------------------------------
  N     -0.075105    1.358671    0.186077
  C      0.062677    0.029725   -0.107282
  O      1.141309   -0.464862   -0.371039
  C     -1.239421   -0.769444   -0.082084
  C     -1.009709   -2.260807    0.177943
  C     -2.276467   -3.092316    0.037402
  C     -2.919751   -3.269743   -1.371212
  C     -3.222574   -4.747588   -1.004809
  C     -2.168340   -4.641320    0.129298
  H      0.729222    1.953322    0.069312
  H     -0.976184    1.787890    0.301921
  H     -1.928832   -0.343113    0.657421
  H     -1.720289   -0.633932   -1.061145
  H     -0.243989   -2.617777   -0.519073
  H     -0.588260   -2.392829    1.182755
  H     -3.038725   -2.736657    0.742856
  H     -3.762146   -2.626787   -1.639582
  H     -2.163286   -3.198238   -2.160626
  H     -4.234767   -4.865947   -0.607059
  H     -3.065004   -5.504355   -1.776802
  H     -1.183227   -4.985869   -0.202416
  H     -2.395198   -5.113489    1.088586

 Total Charge           Charge          ....    0
 Multiplicity           Mult            ....    1
 Number of Electrons    NEL             ....   70
 Basis Dimension        Dim             ....  357

ORBITAL ENERGIES
----------------

  NO   OCC          E(Eh)            E(eV)
   0   2.0000     -20.513444      -558.1992
   1   2.0000     -15.580308      -423.9617
   2   2.0000     -11.347462      -308.7801
   3   2.0000     -11.238666      -305.8197
   4   2.0000     -11.224699      -305.4396
   5   2.0000     -11.218123      -305.2606
   6   2.0000     -11.217579      -305.2458
   7   2.0000     -11.217512      -305.2440
   8   2.0000     -11.215923      -305.2008
   9   2.0000      -1.378211       -37.5030
  10   2.0000      -1.207389       -32.8547
  11   2.0000      -1.131476       -30.7890
  12   2.0000      -1.048500       -28.5311
  13   2.0000      -0.930659       -25.3245
  14   2.0000      -0.893870       -24.3234
  15   2.0000      -0.834399       -22.7052
  16   2.0000      -0.779660       -21.2156
  17   2.0000      -0.744976       -20.2718
  18   2.0000      -0.717925       -19.5357
  19   2.0000      -0.667920       -18.1750
  20   2.0000      -0.653495       -17.7825
  21   2.0000      -0.630003       -17.1433
  22   2.0000      -0.615517       -16.7491
  23   2.0000      -0.582493       -15.8504
  24   2.0000      -0.563481       -15.3331
  25   2.0000      -0.540232       -14.7005
  26   2.0000      -0.535245       -14.5648
  27   2.0000      -0.510720       -13.8974
  28   2.0000      -0.487566       -13.2674
  29   2.0000      -0.467033       -12.7086
  30   2.0000      -0.449754       -12.2384
  31   2.0000      -0.434430       -11.8214
  32   2.0000      -0.428540       -11.6612
  33   2.0000      -0.413721       -11.2579
  34   2.0000      -0.412429       -11.2228
  35   0.0000       0.122089         3.3222
  36   0.0000       0.142115         3.8672
  37   0.0000       0.158461         4.3119
  38   0.0000       0.161596         4.3972
  39   0.0000       0.166342         4.5264

MULLIKEN ATOMIC CHARGES
-----------------------
   0 N :   -0.482379
   1 C :    0.278766
   2 O :   -0.352233
   3 C :   -0.242263
   4 C :   -0.297830
   5 C :   -0.005334
   6 C :   -0.270805
   7 C :   -0.192620
   8 C :   -0.235982
   9 H :    0.258260
  10 H :    0.256571
  11 H :    0.123578
  12 H :    0.141497
  13 H :    0.139211
  14 H :    0.118746
  15 H :    0.087555
  16 H :    0.114110
  17 H :    0.112273
  18 H :    0.108850
  19 H :    0.114085
  20 H :    0.111694
  21 H :    0.114249
Sum of atomic charges:    0.0000000

LOEWDIN ATOMIC CHARGES
----------------------
   0 N :   -0.028041
   1 C :   -0.475491
   2 O :    0.084003
   3 C :   -0.237480
   4 C :   -0.247928
   5 C :   -0.239241
   6 C :   -0.228624
   7 C :   -0.245941
   8 C :   -0.222617
   9 H :    0.171690
  10 H :    0.168370
  11 H :    0.140893
  12 H :    0.154011
  13 H :    0.148343
  14 H :    0.143927
  15 H :    0.147958
  16 H :    0.120149
  17 H :    0.135592
  18 H :    0.131796
  19 H :    0.121183
  20 H :    0.135787
  21 H :    0.121663

  Mayer bond orders larger than 0.1
B(  0-N ,  1-C ) :   1.1546 B(  0-N ,  9-H ) :   0.8597 B(  0-N , 10-H ) :   0.8723
B(  1-C ,  2-O ) :   1.9799 B(  1-C ,  3-C ) :   0.8981 B(  3-C ,  4-C ) :   0.9334
B(  3-C , 11-H ) :   0.9189 B(  3-C , 12-H ) :   0.9003 B(  4-C ,  5-C ) :   0.9082
B(  4-C , 13-H ) :   0.9297 B(  4-C , 14-H ) :   0.9367 B(  5-C ,  6-C ) :   0.9252
B(  5-C ,  8-C ) :   0.9353 B(  5-C , 15-H ) :   0.9205 B(  6-C ,  7-C ) :   0.9409
B(  6-C , 16-H ) :   0.9283 B(  6-C , 17-H ) :   0.9222 B(  7-C ,  8-C ) :   0.9372
B(  7-C , 18-H ) :   0.9285 B(  7-C , 19-H ) :   0.9277 B(  8-C , 20-H ) :   0.9226
B(  8-C , 21-H ) :   0.9317

MP2 TOTAL ENERGY:     -403.686927404 Eh
FINAL SINGLE POINT ENERGY      -403.686927403774

DIPOLE MOMENT
-------------
                                X             Y             Z
Electronic contribution:      6.47551       6.60961       0.63952
Nuclear contribution   :     -7.57241      -5.79545      -0.42394
                        -----------------------------------------
Total Dipole Moment    :     -1.09689       0.81417       0.21558
                        -----------------------------------------
Magnitude (a.u.)       :      1.38294
Magnitude (Debye)      :      3.51514

                             ****ORCA TERMINATED NORMALLY****
TOTAL RUN TIME: 0 days 0 hours 18 minutes 40 seconds 601 msec
