                         Program Version 3.0.3 - RELEASE   -
|  1> ! RI-MP2 RIJK def2-TZVP def2-TZVP/C def2-TZVP/JK TIGHTSCF
|  2> % maxcore 2000
|  3> % mp2 density relaxed end
|  4> *xyz 0 1
|  5>  C        0.1001055864     1.4386550375     0.1084842416
|  6>  C       -0.0422511634    -0.0895986876     0.0038805006
|  7>  C       -1.5114456081    -0.4702751394    -0.0153225601
|  8>  O       -2.0644903545    -1.1567807572     0.8039831838
|  9>  C        0.6265867964    -0.6315512311    -1.2511627891
| 10>  C        2.0887696575    -1.0014867113    -1.2293171622
| 11>  C        1.0387037774    -2.0798739159    -1.3314689816
| 12>  H        1.1556916003     1.7227428053     0.0738805433
| 13>  H       -0.4071749048     1.9386767196    -0.7246169598
| 14>  H       -0.3294670302     1.8169829523     1.0408899344
| 15>  H        0.3973431413    -0.5687082049     0.8857998446
| 16>  H       -2.0727262536    -0.0535646075    -0.8873533656
| 17>  H        0.2628964821    -0.1851766940    -2.1741969668
| 18>  H        2.6888212877    -0.7793055617    -2.1047579359
| 19>  H        2.6218593461    -0.9017928723    -0.2892967581
| 20>  H        0.8639939696    -2.7004794265    -0.4588734553
| 21>  H        0.9203794098    -2.5987660354    -2.2759871938
| 22> *
| 23>
| 24>                          ****END OF INPUT****

CARTESIAN COORDINATES (ANGSTROEM)
---------------------------------
  C      0.100106    1.438655    0.108484
  C     -0.042251   -0.089599    0.003881
  C     -1.511446   -0.470275   -0.015323
  O     -2.064490   -1.156781    0.803983
  C      0.626587   -0.631551   -1.251163
  C      2.088770   -1.001487   -1.229317
  C      1.038704   -2.079874   -1.331469
  H      1.155692    1.722743    0.073881
  H     -0.407175    1.938677   -0.724617
  H     -0.329467    1.816983    1.040890
  H      0.397343   -0.568708    0.885800
  H     -2.072726   -0.053565   -0.887353
  H      0.262896   -0.185177   -2.174197
  H      2.688821   -0.779306   -2.104758
  H      2.621859   -0.901793   -0.289297
  H      0.863994   -2.700479   -0.458873
  H      0.920379   -2.598766   -2.275987

 Total Charge           Charge          ....    0
 Multiplicity           Mult            ....    1
 Number of Electrons    NEL             ....   54
 Basis Dimension        Dim             ....  277

ORBITAL ENERGIES
----------------

  NO   OCC          E(Eh)            E(eV)
   0   2.0000     -20.553869      -559.2992
   1   2.0000     -11.326784      -308.2175
   2   2.0000     -11.247413      -306.0577
   3   2.0000     -11.245323      -306.0008
   4   2.0000     -11.235257      -305.7269
   5   2.0000     -11.232802      -305.6601
   6   2.0000     -11.232421      -305.6497
   7   2.0000      -1.392752       -37.8987
   8   2.0000      -1.160418       -31.5766
   9   2.0000      -1.058858       -28.8130
  10   2.0000      -0.908263       -24.7151
  11   2.0000      -0.832095       -22.6424
  12   2.0000      -0.818814       -22.2811
  13   2.0000      -0.780776       -21.2460
  14   2.0000      -0.677169       -18.4267
  15   2.0000      -0.665468       -18.1083
  16   2.0000      -0.633161       -17.2292
  17   2.0000      -0.621982       -16.9250
  18   2.0000      -0.572202       -15.5704
  19   2.0000      -0.565893       -15.3987
  20   2.0000      -0.537272       -14.6199
  21   2.0000      -0.522082       -14.2066
  22   2.0000      -0.506882       -13.7930
  23   2.0000      -0.488497       -13.2927
  24   2.0000      -0.444820       -12.1042
  25   2.0000      -0.424296       -11.5457
  26   2.0000      -0.398143       -10.8340
  27   0.0000       0.129157         3.5145
  28   0.0000       0.142464         3.8766
  29   0.0000       0.151088         4.1113
  30   0.0000       0.161442         4.3931
  31   0.0000       0.174627         4.7519

MULLIKEN ATOMIC CHARGES
-----------------------
   0 C :   -0.414636
   1 C :    0.014336
   2 C :    0.099075
   3 O :   -0.262691
   4 C :   -0.147302
   5 C :   -0.262360
   6 C :   -0.256428
   7 H :    0.144178
   8 H :    0.126194
   9 H :    0.147520
  10 H :    0.086004
  11 H :    0.064173
  12 H :    0.122624
  13 H :    0.133337
  14 H :    0.131265
  15 H :    0.141384
  16 H :    0.133327
Sum of atomic charges:    0.0000000

LOEWDIN ATOMIC CHARGES
----------------------
   0 C :   -0.280341
   1 C :   -0.267326
   2 C :   -0.268498
   3 O :    0.133615
   4 C :   -0.211886
   5 C :   -0.224696
   6 C :   -0.222217
   7 H :    0.129832
   8 H :    0.125784
   9 H :    0.127379
  10 H :    0.161171
  11 H :    0.111544
  12 H :    0.150269
  13 H :    0.131763
  14 H :    0.134115
  15 H :    0.137343
  16 H :    0.132149

  Mayer bond orders larger than 0.1
B(  0-C ,  1-C ) :   0.9063 B(  0-C ,  7-H ) :   0.9347 B(  0-C ,  8-H ) :   0.9254
B(  0-C ,  9-H ) :   0.9387 B(  1-C ,  2-C ) :   0.8644 B(  1-C ,  4-C ) :   0.9144
B(  1-C , 10-H ) :   0.8967 B(  2-C ,  3-O ) :   2.0060 B(  2-C , 11-H ) :   0.9285
B(  4-C ,  5-C ) :   0.8915 B(  4-C ,  6-C ) :   0.8887 B(  4-C , 12-H ) :   0.9139
B(  5-C ,  6-C ) :   0.9084 B(  5-C , 13-H ) :   0.9299 B(  5-C , 14-H ) :   0.9267
B(  6-C , 15-H ) :   0.9254 B(  6-C , 16-H ) :   0.9309

MP2 TOTAL ENERGY:     -309.177441910 Eh
FINAL SINGLE POINT ENERGY      -309.177441909831

DIPOLE MOMENT
-------------
                                X             Y             Z
Electronic contribution:     -4.90282      -2.52736       2.14438
Nuclear contribution   :      5.62190       3.07018      -2.76739
                        -----------------------------------------
Total Dipole Moment    :      0.71908       0.54282      -0.62302
                        -----------------------------------------
Magnitude (a.u.)       :      1.09539
Magnitude (Debye)      :      2.78426

                             ****ORCA TERMINATED NORMALLY****
TOTAL RUN TIME: 0 days 0 hours 8 minutes 37 seconds 95 msec
