                         Program Version 3.0.3 - RELEASE   -
|  1> ! RI-MP2 RIJK def2-TZVP def2-TZVP/C def2-TZVP/JK TIGHTSCF
|  2> % maxcore 2000
|  3> % mp2 density relaxed end
|  4> *xyz 0 1
|  5>  C       -0.0443287400     1.3591784841     0.0675772839
|  6>  O       -0.0028793265    -0.0570149960     0.0082852519
|  7>  C        0.6132680159    -0.5794682510    -1.0701924097
|  8>  C        1.2202934722     0.0409173997    -2.1455324234
|  9>  N        1.6727925260    -0.9824232225    -2.9305855806
| 10>  N        1.4117762521    -2.1929035729    -2.4573451901
| 11>  C        0.7564063834    -1.9771817204    -1.3064662613
| 12>  C        0.2743685425    -3.0642062220    -0.4458224603
| 13>  O        0.4081406633    -4.2452237515    -0.6671593391
| 14>  H        0.9684225769     1.7825175476     0.0918536955
| 15>  H       -0.5875095193     1.7739880765    -0.7917115892
| 16>  H       -0.5685466047     1.6179435803     0.9881438043
| 17>  H        1.3648537241     1.0736670617    -2.4110922411
| 18>  H        2.1678664406    -0.8999684550    -3.8036093511
| 19>  H       -0.2466893466    -2.7007049386     0.4655466903
| 20> *
| 21>
| 22>                          ****END OF INPUT****

CARTESIAN COORDINATES (ANGSTROEM)
---------------------------------
  C     -0.044329    1.359178    0.067577
  O     -0.002879   -0.057015    0.008285
  C      0.613268   -0.579468   -1.070192
  C      1.220293    0.040917   -2.145532
  N      1.672793   -0.982423   -2.930586
  N      1.411776   -2.192904   -2.457345
  C      0.756406   -1.977182   -1.306466
  C      0.274369   -3.064206   -0.445822
  O      0.408141   -4.245224   -0.667159
  H      0.968423    1.782518    0.091854
  H     -0.587510    1.773988   -0.791712
  H     -0.568547    1.617944    0.988144
  H      1.364854    1.073667   -2.411092
  H      2.167866   -0.899968   -3.803609
  H     -0.246689   -2.700705    0.465547

 Total Charge           Charge          ....    0
 Multiplicity           Mult            ....    1
 Number of Electrons    NEL             ....   66
 Basis Dimension        Dim             ....  315

ORBITAL ENERGIES
----------------

  NO   OCC          E(Eh)            E(eV)
   0   2.0000     -20.604326      -560.6722
   1   2.0000     -20.543595      -559.0196
   2   2.0000     -15.663799      -426.2336
   3   2.0000     -15.618973      -425.0139
   4   2.0000     -11.326306      -308.2045
   5   2.0000     -11.309896      -307.7579
   6   2.0000     -11.301822      -307.5382
   7   2.0000     -11.284917      -307.0782
   8   2.0000     -11.265036      -306.5372
   9   2.0000      -1.435669       -39.0665
  10   2.0000      -1.400158       -38.1002
  11   2.0000      -1.378279       -37.5049
  12   2.0000      -1.119977       -30.4761
  13   2.0000      -1.074183       -29.2300
  14   2.0000      -0.970629       -26.4121
  15   2.0000      -0.918056       -24.9816
  16   2.0000      -0.815802       -22.1991
  17   2.0000      -0.777123       -21.1466
  18   2.0000      -0.761003       -20.7079
  19   2.0000      -0.684579       -18.6283
  20   2.0000      -0.680336       -18.5129
  21   2.0000      -0.668615       -18.1939
  22   2.0000      -0.642666       -17.4878
  23   2.0000      -0.629811       -17.1380
  24   2.0000      -0.627376       -17.0718
  25   2.0000      -0.586020       -15.9464
  26   2.0000      -0.529571       -14.4104
  27   2.0000      -0.527580       -14.3562
  28   2.0000      -0.517246       -14.0750
  29   2.0000      -0.481027       -13.0894
  30   2.0000      -0.421901       -11.4805
  31   2.0000      -0.370794       -10.0898
  32   2.0000      -0.342506        -9.3200
  33   0.0000       0.089584         2.4377
  34   0.0000       0.119154         3.2424
  35   0.0000       0.134033         3.6472
  36   0.0000       0.167383         4.5547
  37   0.0000       0.171374         4.6633

MULLIKEN ATOMIC CHARGES
-----------------------
   0 C :   -0.245712
   1 O :   -0.292089
   2 C :    0.221075
   3 C :   -0.180188
   4 N :   -0.068011
   5 N :   -0.200066
   6 C :    0.057319
   7 C :    0.015519
   8 O :   -0.264100
   9 H :    0.132916
  10 H :    0.132912
  11 H :    0.156845
  12 H :    0.168820
  13 H :    0.264060
  14 H :    0.100698
Sum of atomic charges:    0.0000000

LOEWDIN ATOMIC CHARGES
----------------------
   0 C :   -0.319452
   1 O :    0.232257
   2 C :   -0.279857
   3 C :   -0.234097
   4 N :    0.139964
   5 N :    0.072441
   6 C :   -0.261638
   7 C :   -0.277062
   8 O :    0.134083
   9 H :    0.110476
  10 H :    0.110469
  11 H :    0.119580
  12 H :    0.139829
  13 H :    0.193213
  14 H :    0.119795

  Mayer bond orders larger than 0.1
B(  0-C ,  1-O ) :   0.8746 B(  0-C ,  9-H ) :   0.9337 B(  0-C , 10-H ) :   0.9337
B(  0-C , 11-H ) :   0.9383 B(  1-O ,  2-C ) :   1.0929 B(  2-C ,  3-C ) :   1.3674
B(  2-C ,  6-C ) :   1.1603 B(  3-C ,  4-N ) :   1.1414 B(  3-C ,  5-N ) :   0.1238
B(  3-C , 12-H ) :   0.9013 B(  4-N ,  5-N ) :   1.1083 B(  4-N , 13-H ) :   0.8696
B(  5-N ,  6-C ) :   1.4782 B(  6-C ,  7-C ) :   0.8505 B(  6-C , 14-H ) :  -0.1120
B(  7-C ,  8-O ) :   2.0200 B(  7-C , 14-H ) :   0.9923

MP2 TOTAL ENERGY:     -453.212025198 Eh
FINAL SINGLE POINT ENERGY      -453.212025197711

DIPOLE MOMENT
-------------
                                X             Y             Z
Electronic contribution:      1.19071      -6.99904      -2.02086
Nuclear contribution   :     -0.96714       9.65567       1.59756
                        -----------------------------------------
Total Dipole Moment    :      0.22356       2.65663      -0.42330
                        -----------------------------------------
Magnitude (a.u.)       :      2.69942
Magnitude (Debye)      :      6.86137

                             ****ORCA TERMINATED NORMALLY****
TOTAL RUN TIME: 0 days 0 hours 15 minutes 40 seconds 847 msec
