                         Program Version 3.0.3 - RELEASE   -
|  1> ! RI-MP2 RIJK def2-TZVP def2-TZVP/C def2-TZVP/JK TIGHTSCF
|  2> % maxcore 2000
|  3> % mp2 density relaxed end
|  4> *xyz 0 1
|  5>  C       -0.0381866365     1.5728544532     0.3921361686
|  6>  C       -0.1769171915     0.0612258684     0.2877081096
|  7>  C       -1.3425121684    -0.5326960935    -0.4126600190
|  8>  N        0.0024326234    -0.6066448326    -1.0070266256
|  9>  C        1.3615005345     2.0345428389     0.1336401731
| 10>  N        2.1954468119     2.4064749915     1.0934850553
| 11>  N        3.3231615703     2.6955576950     0.3983094664
| 12>  C        3.1261271502     2.4932852004    -0.9182386182
| 13>  N        1.8946389859     2.0754266742    -1.1279443339
| 14>  H       -0.6992504032     2.0481870912    -0.3414680182
| 15>  H       -0.3463590411     1.9065875800     1.3875053874
| 16>  H        0.2655517218    -0.4849164811     1.1189058382
| 17>  H       -1.7535297112    -1.4848409596    -0.0884838807
| 18>  H       -2.0726006154     0.1495684857    -0.8425539429
| 19>  H        0.1188349293     0.0934205163    -1.7365911263
| 20>  H        4.1433176573     3.0200553241     0.8833188003
| 21>  H        3.8866901429     2.6632666377    -1.6655200142
| 22> *
| 23>
| 24>                          ****END OF INPUT****

CARTESIAN COORDINATES (ANGSTROEM)
---------------------------------
  C     -0.038187    1.572854    0.392136
  C     -0.176917    0.061226    0.287708
  C     -1.342512   -0.532696   -0.412660
  N      0.002433   -0.606645   -1.007027
  C      1.361501    2.034543    0.133640
  N      2.195447    2.406475    1.093485
  N      3.323162    2.695558    0.398309
  C      3.126127    2.493285   -0.918239
  N      1.894639    2.075427   -1.127944
  H     -0.699250    2.048187   -0.341468
  H     -0.346359    1.906588    1.387505
  H      0.265552   -0.484916    1.118906
  H     -1.753530   -1.484841   -0.088484
  H     -2.072601    0.149568   -0.842554
  H      0.118835    0.093421   -1.736591
  H      4.143318    3.020055    0.883319
  H      3.886690    2.663267   -1.665520

 Total Charge           Charge          ....    0
 Multiplicity           Mult            ....    1
 Number of Electrons    NEL             ....   66
 Basis Dimension        Dim             ....  327

ORBITAL ENERGIES
----------------

  NO   OCC          E(Eh)            E(eV)
   0   2.0000     -15.652053      -425.9140
   1   2.0000     -15.593204      -424.3127
   2   2.0000     -15.558025      -423.3554
   3   2.0000     -15.546303      -423.0364
   4   2.0000     -11.322490      -308.1006
   5   2.0000     -11.293199      -307.3036
   6   2.0000     -11.256824      -306.3137
   7   2.0000     -11.248081      -306.0758
   8   2.0000     -11.238919      -305.8265
   9   2.0000      -1.413611       -38.4663
  10   2.0000      -1.254122       -34.1264
  11   2.0000      -1.199364       -32.6364
  12   2.0000      -1.126425       -30.6516
  13   2.0000      -1.006589       -27.3907
  14   2.0000      -0.884067       -24.0567
  15   2.0000      -0.864413       -23.5219
  16   2.0000      -0.820282       -22.3210
  17   2.0000      -0.783887       -21.3306
  18   2.0000      -0.758979       -20.6529
  19   2.0000      -0.664499       -18.0819
  20   2.0000      -0.656537       -17.8653
  21   2.0000      -0.642752       -17.4902
  22   2.0000      -0.631036       -17.1714
  23   2.0000      -0.569645       -15.5008
  24   2.0000      -0.548308       -14.9202
  25   2.0000      -0.518637       -14.1128
  26   2.0000      -0.508826       -13.8459
  27   2.0000      -0.468573       -12.7505
  28   2.0000      -0.461743       -12.5647
  29   2.0000      -0.449005       -12.2181
  30   2.0000      -0.415925       -11.3179
  31   2.0000      -0.381372       -10.3777
  32   2.0000      -0.369351       -10.0505
  33   0.0000       0.127854         3.4791
  34   0.0000       0.143862         3.9147
  35   0.0000       0.154601         4.2069
  36   0.0000       0.173147         4.7116
  37   0.0000       0.175828         4.7845

MULLIKEN ATOMIC CHARGES
-----------------------
   0 C :   -0.281304
   1 C :   -0.044291
   2 C :   -0.180523
   3 N :   -0.366273
   4 C :    0.193000
   5 N :   -0.204719
   6 N :   -0.123303
   7 C :    0.046018
   8 N :   -0.332270
   9 H :    0.139197
  10 H :    0.133910
  11 H :    0.123591
  12 H :    0.120130
  13 H :    0.121188
  14 H :    0.232281
  15 H :    0.265199
  16 H :    0.158170
Sum of atomic charges:    0.0000000

LOEWDIN ATOMIC CHARGES
----------------------
   0 C :   -0.222563
   1 C :   -0.277059
   2 C :   -0.270530
   3 N :   -0.015080
   4 C :   -0.350748
   5 N :    0.044196
   6 N :    0.125543
   7 C :   -0.318721
   8 N :    0.096813
   9 H :    0.154774
  10 H :    0.155897
  11 H :    0.142114
  12 H :    0.122826
  13 H :    0.119604
  14 H :    0.166679
  15 H :    0.191039
  16 H :    0.135217

  Mayer bond orders larger than 0.1
B(  0-C ,  1-C ) :   0.9433 B(  0-C ,  4-C ) :   0.8891 B(  0-C ,  9-H ) :   0.9401
B(  0-C , 10-H ) :   0.9315 B(  1-C ,  2-C ) :   0.9490 B(  1-C ,  3-N ) :   0.9370
B(  1-C , 11-H ) :   0.9119 B(  2-C ,  3-N ) :   0.9283 B(  2-C , 12-H ) :   0.9239
B(  2-C , 13-H ) :   0.9127 B(  3-N , 14-H ) :   0.8698 B(  4-C ,  5-N ) :   1.6030
B(  4-C ,  8-N ) :   1.2933 B(  5-N ,  6-N ) :   1.0661 B(  6-N ,  7-C ) :   1.2258
B(  6-N , 15-H ) :   0.8652 B(  7-C ,  8-N ) :   1.5067 B(  7-C , 16-H ) :   0.9238

MP2 TOTAL ENERGY:     -413.482410799 Eh
FINAL SINGLE POINT ENERGY      -413.482410799064

DIPOLE MOMENT
-------------
                                X             Y             Z
Electronic contribution:      6.00645       3.63176       0.44214
Nuclear contribution   :     -5.28394      -2.70522      -0.20740
                        -----------------------------------------
Total Dipole Moment    :      0.72251       0.92654       0.23474
                        -----------------------------------------
Magnitude (a.u.)       :      1.19817
Magnitude (Debye)      :      3.04550

                             ****ORCA TERMINATED NORMALLY****
TOTAL RUN TIME: 0 days 0 hours 15 minutes 0 seconds 372 msec
