                         Program Version 3.0.3 - RELEASE   -
|  1> ! RI-MP2 RIJK def2-TZVP def2-TZVP/C def2-TZVP/JK TIGHTSCF
|  2> % maxcore 2000
|  3> % mp2 density relaxed end
|  4> *xyz 0 1
|  5>  C        0.0100177446     1.4958549757     0.0125510428
|  6>  C       -0.0628926421     0.0043795152    -0.0271638443
|  7>  C       -1.1487733639    -0.7466193959     0.2027022281
|  8>  C       -1.0754109913    -2.1936166534     0.1299364376
|  9>  N       -2.0800120068    -2.9406525403     0.3407382351
| 10>  O        0.1630801710    -2.7058235415    -0.1845414263
| 11>  N        1.3156819207    -1.8342137277    -0.4256704230
| 12>  N        1.1671754821    -0.6229401465    -0.3440218984
| 13>  H        0.7455626022     1.8224959001     0.7554455515
| 14>  H        0.3404600138     1.8878454972    -0.9552977458
| 15>  H       -0.9604219641     1.9301627349     0.2590029660
| 16>  H       -2.1129365330    -0.3192171844     0.4485955685
| 17>  H       -1.8274742332    -3.9253551933     0.2430301482
| 18> *
| 19>
| 20>                          ****END OF INPUT****

CARTESIAN COORDINATES (ANGSTROEM)
---------------------------------
  C      0.010018    1.495855    0.012551
  C     -0.062893    0.004380   -0.027164
  C     -1.148773   -0.746619    0.202702
  C     -1.075411   -2.193617    0.129936
  N     -2.080012   -2.940653    0.340738
  O      0.163080   -2.705824   -0.184541
  N      1.315682   -1.834214   -0.425670
  N      1.167175   -0.622940   -0.344022
  H      0.745563    1.822496    0.755446
  H      0.340460    1.887845   -0.955298
  H     -0.960422    1.930163    0.259003
  H     -2.112937   -0.319217    0.448596
  H     -1.827474   -3.925355    0.243030

 Total Charge           Charge          ....    0
 Multiplicity           Mult            ....    1
 Number of Electrons    NEL             ....   58
 Basis Dimension        Dim             ....  278

ORBITAL ENERGIES
----------------

  NO   OCC          E(Eh)            E(eV)
   0   2.0000     -20.642751      -561.7178
   1   2.0000     -15.736588      -428.2143
   2   2.0000     -15.661565      -426.1728
   3   2.0000     -15.547570      -423.0709
   4   2.0000     -11.360166      -309.1258
   5   2.0000     -11.321996      -308.0872
   6   2.0000     -11.277878      -306.8867
   7   2.0000     -11.258031      -306.3466
   8   2.0000      -1.498034       -40.7636
   9   2.0000      -1.360516       -37.0215
  10   2.0000      -1.215098       -33.0645
  11   2.0000      -1.139718       -31.0133
  12   2.0000      -1.008577       -27.4448
  13   2.0000      -0.955388       -25.9974
  14   2.0000      -0.871327       -23.7100
  15   2.0000      -0.779858       -21.2210
  16   2.0000      -0.724018       -19.7015
  17   2.0000      -0.677014       -18.4225
  18   2.0000      -0.673217       -18.3192
  19   2.0000      -0.631031       -17.1712
  20   2.0000      -0.608020       -16.5451
  21   2.0000      -0.606648       -16.5077
  22   2.0000      -0.578767       -15.7491
  23   2.0000      -0.543590       -14.7918
  24   2.0000      -0.540603       -14.7106
  25   2.0000      -0.480936       -13.0869
  26   2.0000      -0.469307       -12.7705
  27   2.0000      -0.433968       -11.8089
  28   2.0000      -0.366314        -9.9679
  29   0.0000       0.045522         1.2387
  30   0.0000       0.131277         3.5722
  31   0.0000       0.134400         3.6572
  32   0.0000       0.167939         4.5698
  33   0.0000       0.171862         4.6766

MULLIKEN ATOMIC CHARGES
-----------------------
   0 C :   -0.402448
   1 C :    0.122252
   2 C :   -0.149295
   3 C :    0.161946
   4 N :   -0.379831
   5 O :   -0.166408
   6 N :    0.008097
   7 N :   -0.050649
   8 H :    0.158267
   9 H :    0.158280
  10 H :    0.147725
  11 H :    0.162738
  12 H :    0.229327
Sum of atomic charges:    0.0000000

LOEWDIN ATOMIC CHARGES
----------------------
   0 C :   -0.257569
   1 C :   -0.240109
   2 C :   -0.075436
   3 C :   -0.424650
   4 N :   -0.050832
   5 O :    0.173885
   6 N :    0.034392
   7 N :    0.083580
   8 H :    0.141569
   9 H :    0.141563
  10 H :    0.135727
  11 H :    0.167933
  12 H :    0.169947

  Mayer bond orders larger than 0.1
B(  0-C ,  1-C ) :   0.9138 B(  0-C ,  8-H ) :   0.9200 B(  0-C ,  9-H ) :   0.9200
B(  0-C , 10-H ) :   0.9498 B(  1-C ,  2-C ) :   1.5723 B(  1-C ,  7-N ) :   1.0057
B(  2-C ,  3-C ) :   1.0319 B(  2-C , 11-H ) :   0.9132 B(  3-C ,  4-N ) :   1.9676
B(  3-C ,  5-O ) :   1.0885 B(  4-N , 12-H ) :   0.8528 B(  5-O ,  6-N ) :   0.7652
B(  6-N ,  7-N ) :   1.5852

MP2 TOTAL ENERGY:     -394.076696962 Eh
FINAL SINGLE POINT ENERGY      -394.076696962464

DIPOLE MOMENT
-------------
                                X             Y             Z
Electronic contribution:      2.45992      -5.82688      -0.80878
Nuclear contribution   :     -2.59919       6.96864       0.88561
                        -----------------------------------------
Total Dipole Moment    :     -0.13927       1.14176       0.07683
                        -----------------------------------------
Magnitude (a.u.)       :      1.15278
Magnitude (Debye)      :      2.93014

                             ****ORCA TERMINATED NORMALLY****
TOTAL RUN TIME: 0 days 0 hours 11 minutes 19 seconds 703 msec
