                         Program Version 3.0.3 - RELEASE   -
|  1> ! RI-MP2 RIJK def2-TZVP def2-TZVP/C def2-TZVP/JK TIGHTSCF
|  2> % maxcore 2000
|  3> % mp2 density relaxed end
|  4> *xyz 0 1
|  5>  O        0.0124124974     0.1496919661    -0.7868648694
|  6>  C        0.0053224713     1.1989369407    -0.2054956570
|  7>  C       -1.2857705934     1.9465675226     0.1164869088
|  8>  O       -1.1835945440     2.8284081754     1.2147876798
|  9>  C       -0.1741947310     3.7906408058     0.9846299946
| 10>  C        0.3702184475     4.2926179015     2.3385464740
| 11>  C        1.4546411331     3.1760471674     2.2812907859
| 12>  C        1.1787936797     3.0760465788     0.7629134196
| 13>  O        1.1675954564     1.7734271661     0.1792991490
| 14>  H       -1.6089363921     2.4749391935    -0.7964726839
| 15>  H       -2.0442922850     1.2002691055     0.3570128397
| 16>  H       -0.4996664029     4.5236546774     0.2330480354
| 17>  H        0.7901242601     5.2979057791     2.2610065209
| 18>  H       -0.3450741636     4.2595814694     3.1609105967
| 19>  H        2.4709754966     3.4248477932     2.5886199744
| 20>  H        1.1294882501     2.2694912176     2.7943302418
| 21>  H        1.8770321097     3.6792906796     0.1760401098
| 22> *
| 23>
| 24>                          ****END OF INPUT****

CARTESIAN COORDINATES (ANGSTROEM)
---------------------------------
  O      0.012412    0.149692   -0.786865
  C      0.005322    1.198937   -0.205496
  C     -1.285771    1.946568    0.116487
  O     -1.183595    2.828408    1.214788
  C     -0.174195    3.790641    0.984630
  C      0.370218    4.292618    2.338546
  C      1.454641    3.176047    2.281291
  C      1.178794    3.076047    0.762913
  O      1.167595    1.773427    0.179299
  H     -1.608936    2.474939   -0.796473
  H     -2.044292    1.200269    0.357013
  H     -0.499666    4.523655    0.233048
  H      0.790124    5.297906    2.261007
  H     -0.345074    4.259581    3.160911
  H      2.470975    3.424848    2.588620
  H      1.129488    2.269491    2.794330
  H      1.877032    3.679291    0.176040

 Total Charge           Charge          ....    0
 Multiplicity           Mult            ....    1
 Number of Electrons    NEL             ....   68
 Basis Dimension        Dim             ....  327

ORBITAL ENERGIES
----------------

  NO   OCC          E(Eh)            E(eV)
   0   2.0000     -20.607213      -560.7508
   1   2.0000     -20.588534      -560.2425
   2   2.0000     -20.541908      -558.9737
   3   2.0000     -11.384848      -309.7975
   4   2.0000     -11.310138      -307.7645
   5   2.0000     -11.309405      -307.7445
   6   2.0000     -11.305679      -307.6432
   7   2.0000     -11.245155      -305.9962
   8   2.0000     -11.242149      -305.9144
   9   2.0000      -1.466896       -39.9163
  10   2.0000      -1.408998       -38.3408
  11   2.0000      -1.366734       -37.1907
  12   2.0000      -1.147958       -31.2375
  13   2.0000      -0.997682       -27.1483
  14   2.0000      -0.941498       -25.6195
  15   2.0000      -0.913065       -24.8458
  16   2.0000      -0.829915       -22.5831
  17   2.0000      -0.751479       -20.4488
  18   2.0000      -0.741850       -20.1868
  19   2.0000      -0.701522       -19.0894
  20   2.0000      -0.689907       -18.7733
  21   2.0000      -0.661734       -18.0067
  22   2.0000      -0.631567       -17.1858
  23   2.0000      -0.614993       -16.7348
  24   2.0000      -0.597433       -16.2570
  25   2.0000      -0.586470       -15.9587
  26   2.0000      -0.560645       -15.2559
  27   2.0000      -0.527450       -14.3526
  28   2.0000      -0.511090       -13.9075
  29   2.0000      -0.501458       -13.6454
  30   2.0000      -0.483137       -13.1468
  31   2.0000      -0.465548       -12.6682
  32   2.0000      -0.437952       -11.9173
  33   2.0000      -0.415750       -11.3131
  34   0.0000       0.127783         3.4772
  35   0.0000       0.143554         3.9063
  36   0.0000       0.153758         4.1840
  37   0.0000       0.161023         4.3816
  38   0.0000       0.172089         4.6828

MULLIKEN ATOMIC CHARGES
-----------------------
   0 O :   -0.286003
   1 C :    0.223158
   2 C :   -0.076019
   3 O :   -0.298207
   4 C :    0.008445
   5 C :   -0.209963
   6 C :   -0.247835
   7 C :    0.073011
   8 O :   -0.212403
   9 H :    0.119918
  10 H :    0.162091
  11 H :    0.105331
  12 H :    0.129773
  13 H :    0.132298
  14 H :    0.131168
  15 H :    0.131596
  16 H :    0.113641
Sum of atomic charges:   -0.0000000

LOEWDIN ATOMIC CHARGES
----------------------
   0 O :    0.139524
   1 C :   -0.480784
   2 C :   -0.284517
   3 O :    0.190848
   4 C :   -0.286220
   5 C :   -0.211542
   6 C :   -0.212641
   7 C :   -0.253621
   8 O :    0.286959
   9 H :    0.139112
  10 H :    0.150437
  11 H :    0.127213
  12 H :    0.138860
  13 H :    0.136769
  14 H :    0.127945
  15 H :    0.144783
  16 H :    0.146875

  Mayer bond orders larger than 0.1
B(  0-O ,  1-C ) :   2.0156 B(  1-C ,  2-C ) :   0.9239 B(  1-C ,  8-O ) :   1.1229
B(  2-C ,  3-O ) :   0.9138 B(  2-C ,  9-H ) :   0.9093 B(  2-C , 10-H ) :   0.9154
B(  3-O ,  4-C ) :   0.9917 B(  4-C ,  5-C ) :   0.9038 B(  4-C ,  7-C ) :   0.9151
B(  4-C , 11-H ) :   0.9481 B(  5-C ,  6-C ) :   0.9340 B(  5-C , 12-H ) :   0.9201
B(  5-C , 13-H ) :   0.9160 B(  6-C ,  7-C ) :   0.9129 B(  6-C , 14-H ) :   0.9306
B(  6-C , 15-H ) :   0.9124 B(  7-C ,  8-O ) :   0.8727 B(  7-C , 16-H ) :   0.9326

MP2 TOTAL ENERGY:     -458.242118799 Eh
FINAL SINGLE POINT ENERGY      -458.242118798558

DIPOLE MOMENT
-------------
                                X             Y             Z
Electronic contribution:     -0.50774      -5.53372      -3.98972
Nuclear contribution   :      0.46217       7.06031       4.46151
                        -----------------------------------------
Total Dipole Moment    :     -0.04557       1.52659       0.47179
                        -----------------------------------------
Magnitude (a.u.)       :      1.59848
Magnitude (Debye)      :      4.06302

                             ****ORCA TERMINATED NORMALLY****
TOTAL RUN TIME: 0 days 0 hours 15 minutes 47 seconds 578 msec
