                         Program Version 3.0.3 - RELEASE   -
|  1> ! RI-MP2 RIJK def2-TZVP def2-TZVP/C def2-TZVP/JK TIGHTSCF
|  2> % maxcore 2000
|  3> % mp2 density relaxed end
|  4> *xyz 0 1
|  5>  O       -0.1724340079    -0.0802083811    -0.4377152225
|  6>  C        0.2335657440     0.9808835875    -0.0468006138
|  7>  C        1.3894718821     1.7344035758    -0.6898539619
|  8>  N        1.2287726750     3.1704040696    -0.4916108821
|  9>  C        2.4184441022     3.9586725138    -0.8267911331
| 10>  C        2.8297662854     3.8969943922    -2.2399168335
| 11>  C        3.1279775552     3.7987547065    -3.3990385992
| 12>  C        2.1970109104     5.3602907402    -0.4182528527
| 13>  N        2.0205433582     6.4556467511    -0.0999921331
| 14>  H       -0.1987932760     1.4953554043     0.8398154387
| 15>  H        2.2989251202     1.4168643987    -0.1577215531
| 16>  H        1.4972659551     1.4111544251    -1.7346032456
| 17>  H        0.4436257959     3.5165846574    -1.0353520386
| 18>  H        3.2409760951     3.5735498110    -0.2074198336
| 19>  H        3.3998689951     3.7238087280    -4.4237903959
| 20> *
| 21>
| 22>                          ****END OF INPUT****

CARTESIAN COORDINATES (ANGSTROEM)
---------------------------------
  O     -0.172434   -0.080208   -0.437715
  C      0.233566    0.980884   -0.046801
  C      1.389472    1.734404   -0.689854
  N      1.228773    3.170404   -0.491611
  C      2.418444    3.958673   -0.826791
  C      2.829766    3.896994   -2.239917
  C      3.127978    3.798755   -3.399039
  C      2.197011    5.360291   -0.418253
  N      2.020543    6.455647   -0.099992
  H     -0.198793    1.495355    0.839815
  H      2.298925    1.416864   -0.157722
  H      1.497266    1.411154   -1.734603
  H      0.443626    3.516585   -1.035352
  H      3.240976    3.573550   -0.207420
  H      3.399869    3.723809   -4.423790

 Total Charge           Charge          ....    0
 Multiplicity           Mult            ....    1
 Number of Electrons    NEL             ....   64
 Basis Dimension        Dim             ....  315

ORBITAL ENERGIES
----------------

  NO   OCC          E(Eh)            E(eV)
   0   2.0000     -20.575001      -559.8742
   1   2.0000     -15.604830      -424.6290
   2   2.0000     -15.590639      -424.2429
   3   2.0000     -11.365643      -309.2749
   4   2.0000     -11.348333      -308.8038
   5   2.0000     -11.294895      -307.3497
   6   2.0000     -11.291934      -307.2692
   7   2.0000     -11.270647      -306.6899
   8   2.0000     -11.265212      -306.5420
   9   2.0000      -1.414619       -38.4937
  10   2.0000      -1.280996       -34.8577
  11   2.0000      -1.230905       -33.4946
  12   2.0000      -1.098141       -29.8819
  13   2.0000      -1.031354       -28.0646
  14   2.0000      -0.957642       -26.0588
  15   2.0000      -0.827440       -22.5158
  16   2.0000      -0.783781       -21.3278
  17   2.0000      -0.760632       -20.6979
  18   2.0000      -0.716909       -19.5081
  19   2.0000      -0.692569       -18.8458
  20   2.0000      -0.667695       -18.1689
  21   2.0000      -0.641771       -17.4635
  22   2.0000      -0.621619       -16.9151
  23   2.0000      -0.601242       -16.3606
  24   2.0000      -0.574066       -15.6211
  25   2.0000      -0.527569       -14.3559
  26   2.0000      -0.489389       -13.3170
  27   2.0000      -0.485660       -13.2155
  28   2.0000      -0.452852       -12.3227
  29   2.0000      -0.439366       -11.9557
  30   2.0000      -0.430151       -11.7050
  31   2.0000      -0.422476       -11.4962
  32   0.0000       0.096244         2.6189
  33   0.0000       0.115812         3.1514
  34   0.0000       0.133198         3.6245
  35   0.0000       0.141972         3.8633
  36   0.0000       0.146449         3.9851

MULLIKEN ATOMIC CHARGES
-----------------------
   0 O :   -0.251527
   1 C :    0.080287
   2 C :   -0.105637
   3 N :   -0.329277
   4 C :    0.002568
   5 C :   -0.047547
   6 C :   -0.143223
   7 C :   -0.126691
   8 N :   -0.043409
   9 H :    0.096422
  10 H :    0.134145
  11 H :    0.139564
  12 H :    0.224952
  13 H :    0.164150
  14 H :    0.205225
Sum of atomic charges:    0.0000000

LOEWDIN ATOMIC CHARGES
----------------------
   0 O :    0.143139
   1 C :   -0.294267
   2 C :   -0.298505
   3 N :    0.029349
   4 C :   -0.285070
   5 C :   -0.082738
   6 C :   -0.061241
   7 C :   -0.146212
   8 N :    0.083207
   9 H :    0.115012
  10 H :    0.152475
  11 H :    0.136402
  12 H :    0.185465
  13 H :    0.189468
  14 H :    0.133516

  Mayer bond orders larger than 0.1
B(  0-O ,  1-C ) :   2.0056 B(  1-C ,  2-C ) :   0.8788 B(  1-C ,  9-H ) :   0.9310
B(  2-C ,  3-N ) :   0.9188 B(  2-C , 10-H ) :   0.8994 B(  2-C , 11-H ) :   0.8951
B(  3-N ,  4-C ) :   0.9627 B(  3-N , 12-H ) :   0.8711 B(  4-C ,  5-C ) :   1.0150
B(  4-C ,  7-C ) :   0.9363 B(  4-C , 13-H ) :   0.9305 B(  5-C ,  6-C ) :   2.6323
B(  6-C , 14-H ) :   0.8974 B(  7-C ,  8-N ) :   2.8529

MP2 TOTAL ENERGY:     -416.047495304 Eh
FINAL SINGLE POINT ENERGY      -416.047495304300

DIPOLE MOMENT
-------------
                                X             Y             Z
Electronic contribution:     -0.14374       3.02776       0.44689
Nuclear contribution   :      0.77570      -3.60972      -1.05365
                        -----------------------------------------
Total Dipole Moment    :      0.63196      -0.58196      -0.60675
                        -----------------------------------------
Magnitude (a.u.)       :      1.05176
Magnitude (Debye)      :      2.67335

                             ****ORCA TERMINATED NORMALLY****
TOTAL RUN TIME: 0 days 0 hours 12 minutes 0 seconds 357 msec
