                         Program Version 3.0.3 - RELEASE   -
|  1> ! RI-MP2 RIJK def2-TZVP def2-TZVP/C def2-TZVP/JK TIGHTSCF
|  2> % maxcore 2000
|  3> % mp2 density relaxed end
|  4> *xyz 0 1
|  5>  O        0.1245538268     1.4390624241     0.0054319817
|  6>  C        0.1026753344     0.0304589571     0.0798593626
|  7>  C       -1.3359287722    -0.4925006258     0.0161661487
|  8>  O       -1.9788308983     0.0336906032    -1.1486861793
|  9>  C       -1.4185032708    -2.0169242200     0.0625886736
| 10>  C       -2.8047882367    -2.7372689146     0.1451297361
| 11>  C       -2.3628699478    -3.7353070296    -0.9703378806
| 12>  C       -1.2266963347    -2.7561093598    -1.2741102913
| 13>  O       -0.5965012058    -2.4862199172    -2.2608243962
| 14>  H       -0.5199448660     1.6704949129    -0.6760492970
| 15>  H        0.6864774965    -0.4328513027    -0.7341415366
| 16>  H        0.5696157536    -0.2556948335     1.0293323869
| 17>  H       -1.8966550137    -0.0684223425     0.8576347772
| 18>  H       -1.5328249770    -0.3543622348    -1.9143756149
| 19>  H       -0.7303628546    -2.4157928937     0.8179420237
| 20>  H       -3.0675449349    -3.1696164150     1.1104812256
| 21>  H       -3.6060775868    -2.0789184024    -0.1956143950
| 22>  H       -1.9814702446    -4.6779499408    -0.5643621497
| 23>  H       -3.0489573375    -3.9543183149    -1.7912526555
| 24> *
| 25>
| 26>                          ****END OF INPUT****

CARTESIAN COORDINATES (ANGSTROEM)
---------------------------------
  O      0.124554    1.439062    0.005432
  C      0.102675    0.030459    0.079859
  C     -1.335929   -0.492501    0.016166
  O     -1.978831    0.033691   -1.148686
  C     -1.418503   -2.016924    0.062589
  C     -2.804788   -2.737269    0.145130
  C     -2.362870   -3.735307   -0.970338
  C     -1.226696   -2.756109   -1.274110
  O     -0.596501   -2.486220   -2.260824
  H     -0.519945    1.670495   -0.676049
  H      0.686477   -0.432851   -0.734142
  H      0.569616   -0.255695    1.029332
  H     -1.896655   -0.068422    0.857635
  H     -1.532825   -0.354362   -1.914376
  H     -0.730363   -2.415793    0.817942
  H     -3.067545   -3.169616    1.110481
  H     -3.606078   -2.078918   -0.195614
  H     -1.981470   -4.677950   -0.564362
  H     -3.048957   -3.954318   -1.791253

 Total Charge           Charge          ....    0
 Multiplicity           Mult            ....    1
 Number of Electrons    NEL             ....   70
 Basis Dimension        Dim             ....  339

ORBITAL ENERGIES
----------------

  NO   OCC          E(Eh)            E(eV)
   0   2.0000     -20.570271      -559.7455
   1   2.0000     -20.569213      -559.7167
   2   2.0000     -20.550919      -559.2189
   3   2.0000     -11.348502      -308.8084
   4   2.0000     -11.296316      -307.3884
   5   2.0000     -11.277507      -306.8766
   6   2.0000     -11.258742      -306.3659
   7   2.0000     -11.254003      -306.2370
   8   2.0000     -11.252833      -306.2052
   9   2.0000      -1.413122       -38.4530
  10   2.0000      -1.383842       -37.6562
  11   2.0000      -1.350347       -36.7448
  12   2.0000      -1.154588       -31.4179
  13   2.0000      -1.026242       -27.9255
  14   2.0000      -0.926432       -25.2095
  15   2.0000      -0.876795       -23.8588
  16   2.0000      -0.844907       -22.9911
  17   2.0000      -0.744686       -20.2639
  18   2.0000      -0.708178       -19.2705
  19   2.0000      -0.694759       -18.9054
  20   2.0000      -0.682787       -18.5796
  21   2.0000      -0.656597       -17.8669
  22   2.0000      -0.636241       -17.3130
  23   2.0000      -0.615943       -16.7607
  24   2.0000      -0.605422       -16.4744
  25   2.0000      -0.577196       -15.7063
  26   2.0000      -0.557824       -15.1792
  27   2.0000      -0.539364       -14.6768
  28   2.0000      -0.519391       -14.1333
  29   2.0000      -0.509732       -13.8705
  30   2.0000      -0.506457       -13.7814
  31   2.0000      -0.489535       -13.3209
  32   2.0000      -0.467450       -12.7199
  33   2.0000      -0.429902       -11.6982
  34   2.0000      -0.410673       -11.1750
  35   0.0000       0.107903         2.9362
  36   0.0000       0.136330         3.7097
  37   0.0000       0.155456         4.2302
  38   0.0000       0.156402         4.2559
  39   0.0000       0.165595         4.5061

MULLIKEN ATOMIC CHARGES
-----------------------
   0 O :   -0.475169
   1 C :   -0.032510
   2 C :    0.041232
   3 O :   -0.500707
   4 C :   -0.086509
   5 C :   -0.262257
   6 C :   -0.190441
   7 C :    0.091589
   8 O :   -0.277542
   9 H :    0.327605
  10 H :    0.121303
  11 H :    0.103024
  12 H :    0.114638
  13 H :    0.332941
  14 H :    0.132342
  15 H :    0.133574
  16 H :    0.146988
  17 H :    0.142278
  18 H :    0.137619
Sum of atomic charges:   -0.0000000

LOEWDIN ATOMIC CHARGES
----------------------
   0 O :   -0.044557
   1 C :   -0.341089
   2 C :   -0.336632
   3 O :   -0.021995
   4 C :   -0.190460
   5 C :   -0.203064
   6 C :   -0.203825
   7 C :   -0.303400
   8 O :    0.149612
   9 H :    0.177027
  10 H :    0.123560
  11 H :    0.129707
  12 H :    0.151703
  13 H :    0.180528
  14 H :    0.170037
  15 H :    0.128985
  16 H :    0.144067
  17 H :    0.150713
  18 H :    0.139083

  Mayer bond orders larger than 0.1
B(  0-O ,  1-C ) :   0.9439 B(  0-O ,  9-H ) :   0.8250 B(  1-C ,  2-C ) :   0.9502
B(  1-C , 10-H ) :   0.9168 B(  1-C , 11-H ) :   0.9216 B(  2-C ,  3-O ) :   0.8815
B(  2-C ,  4-C ) :   0.8972 B(  2-C , 12-H ) :   0.9240 B(  3-O , 13-H ) :   0.8249
B(  4-C ,  5-C ) :   0.8946 B(  4-C ,  7-C ) :   0.8600 B(  4-C , 14-H ) :   0.8869
B(  5-C ,  6-C ) :   0.9319 B(  5-C , 15-H ) :   0.9307 B(  5-C , 16-H ) :   0.9225
B(  6-C ,  7-C ) :   0.9223 B(  6-C , 17-H ) :   0.9029 B(  6-C , 18-H ) :   0.9038
B(  7-C ,  8-O ) :   1.9629

MP2 TOTAL ENERGY:     -459.433213336 Eh
FINAL SINGLE POINT ENERGY      -459.433213335962

DIPOLE MOMENT
-------------
                                X             Y             Z
Electronic contribution:      1.82265       1.14344      -3.27404
Nuclear contribution   :     -2.41472      -2.27110       3.79999
                        -----------------------------------------
Total Dipole Moment    :     -0.59207      -1.12766       0.52595
                        -----------------------------------------
Magnitude (a.u.)       :      1.37796
Magnitude (Debye)      :      3.50251

                             ****ORCA TERMINATED NORMALLY****
TOTAL RUN TIME: 0 days 0 hours 16 minutes 27 seconds 273 msec
