                         Program Version 3.0.3 - RELEASE   -
|  1> ! RI-MP2 RIJK def2-TZVP def2-TZVP/C def2-TZVP/JK TIGHTSCF
|  2> % maxcore 2000
|  3> % mp2 density relaxed end
|  4> *xyz 0 1
|  5>  C        0.2444074349     1.5440164084     0.2623200807
|  6>  C        0.0711405032     0.0702986116     0.0661871354
|  7>  C       -1.0544622705    -0.6258443324    -0.1377542749
|  8>  C       -2.4666478671    -0.0955704072    -0.2066762852
|  9>  C       -3.1291594264    -0.3939760963    -1.4771899417
| 10>  C       -3.6611930661    -0.6471514982    -2.5248985722
| 11>  C       -0.7920308880    -2.1142368277    -0.2349669693
| 12>  C        0.7429932566    -2.1990634866    -0.3962466902
| 13>  C        1.2751018585    -0.8494766838     0.1391063839
| 14>  H        0.9292852394     1.9592370485    -0.4881137972
| 15>  H       -0.6953339543     2.0979877752     0.1980751948
| 16>  H        0.6930757464     1.7583945392     1.2412814646
| 17>  H       -3.0611718500    -0.5371752231     0.6076430046
| 18>  H       -2.4826662441     0.9865349922    -0.0375455685
| 19>  H       -4.1356088169    -0.8652442229    -3.4492395431
| 20>  H       -1.1379698099    -2.6218639333     0.6784872233
| 21>  H       -1.3324507093    -2.5796796372    -1.0662909438
| 22>  H        1.1788226072    -3.0621417827     0.1133250410
| 23>  H        0.9913648900    -2.2914022592    -1.4581950768
| 24>  H        2.1259996796    -0.4708118046    -0.4405823220
| 25>  H        1.6289635268    -0.9282391099     1.1782298666
| 26> *
| 27>
| 28>                          ****END OF INPUT****

CARTESIAN COORDINATES (ANGSTROEM)
---------------------------------
  C      0.244407    1.544016    0.262320
  C      0.071141    0.070299    0.066187
  C     -1.054462   -0.625844   -0.137754
  C     -2.466648   -0.095570   -0.206676
  C     -3.129159   -0.393976   -1.477190
  C     -3.661193   -0.647151   -2.524899
  C     -0.792031   -2.114237   -0.234967
  C      0.742993   -2.199063   -0.396247
  C      1.275102   -0.849477    0.139106
  H      0.929285    1.959237   -0.488114
  H     -0.695334    2.097988    0.198075
  H      0.693076    1.758395    1.241281
  H     -3.061172   -0.537175    0.607643
  H     -2.482666    0.986535   -0.037546
  H     -4.135609   -0.865244   -3.449240
  H     -1.137970   -2.621864    0.678487
  H     -1.332451   -2.579680   -1.066291
  H      1.178823   -3.062142    0.113325
  H      0.991365   -2.291402   -1.458195
  H      2.126000   -0.470812   -0.440582
  H      1.628964   -0.928239    1.178230

 Total Charge           Charge          ....    0
 Multiplicity           Mult            ....    1
 Number of Electrons    NEL             ....   66
 Basis Dimension        Dim             ....  351

ORBITAL ENERGIES
----------------

  NO   OCC          E(Eh)            E(eV)
   0   2.0000     -11.254513      -306.2509
   1   2.0000     -11.231226      -305.6172
   2   2.0000     -11.226762      -305.4957
   3   2.0000     -11.224970      -305.4470
   4   2.0000     -11.222549      -305.3811
   5   2.0000     -11.220001      -305.3117
   6   2.0000     -11.217401      -305.2410
   7   2.0000     -11.216645      -305.2204
   8   2.0000     -11.216078      -305.2050
   9   2.0000      -1.143804       -31.1245
  10   2.0000      -1.062836       -28.9212
  11   2.0000      -1.010232       -27.4898
  12   2.0000      -0.985474       -26.8161
  13   2.0000      -0.920915       -25.0594
  14   2.0000      -0.895338       -24.3634
  15   2.0000      -0.788771       -21.4635
  16   2.0000      -0.720340       -19.6014
  17   2.0000      -0.679906       -18.5012
  18   2.0000      -0.646735       -17.5985
  19   2.0000      -0.638822       -17.3832
  20   2.0000      -0.613846       -16.7036
  21   2.0000      -0.612621       -16.6703
  22   2.0000      -0.568975       -15.4826
  23   2.0000      -0.559427       -15.2228
  24   2.0000      -0.539668       -14.6851
  25   2.0000      -0.517586       -14.0842
  26   2.0000      -0.483063       -13.1448
  27   2.0000      -0.476861       -12.9761
  28   2.0000      -0.471425       -12.8281
  29   2.0000      -0.466617       -12.6973
  30   2.0000      -0.383394       -10.4327
  31   2.0000      -0.382084       -10.3970
  32   2.0000      -0.328289        -8.9332
  33   0.0000       0.131646         3.5823
  34   0.0000       0.152010         4.1364
  35   0.0000       0.154355         4.2002
  36   0.0000       0.164721         4.4823
  37   0.0000       0.174637         4.7521

MULLIKEN ATOMIC CHARGES
-----------------------
   0 C :   -0.414195
   1 C :   -0.016982
   2 C :    0.014663
   3 C :   -0.334792
   4 C :   -0.014355
   5 C :   -0.178621
   6 C :   -0.212509
   7 C :   -0.228204
   8 C :   -0.200692
   9 H :    0.142104
  10 H :    0.124285
  11 H :    0.138671
  12 H :    0.147432
  13 H :    0.141522
  14 H :    0.186870
  15 H :    0.107972
  16 H :    0.135913
  17 H :    0.120565
  18 H :    0.111442
  19 H :    0.117542
  20 H :    0.111365
Sum of atomic charges:   -0.0000000

LOEWDIN ATOMIC CHARGES
----------------------
   0 C :   -0.273137
   1 C :   -0.165306
   2 C :   -0.137207
   3 C :   -0.210286
   4 C :   -0.102764
   5 C :   -0.110622
   6 C :   -0.211230
   7 C :   -0.236978
   8 C :   -0.215481
   9 H :    0.132615
  10 H :    0.125031
  11 H :    0.132172
  12 H :    0.165245
  13 H :    0.159870
  14 H :    0.125509
  15 H :    0.138940
  16 H :    0.141163
  17 H :    0.129958
  18 H :    0.137735
  19 H :    0.135711
  20 H :    0.139062

  Mayer bond orders larger than 0.1
B(  0-C ,  1-C ) :   0.8840 B(  0-C ,  9-H ) :   0.9352 B(  0-C , 10-H ) :   0.9512
B(  0-C , 11-H ) :   0.9289 B(  1-C ,  2-C ) :   1.6952 B(  1-C ,  8-C ) :   0.9442
B(  2-C ,  3-C ) :   0.8993 B(  2-C ,  6-C ) :   0.9399 B(  3-C ,  4-C ) :   1.0594
B(  3-C , 12-H ) :   0.9141 B(  3-C , 13-H ) :   0.9411 B(  4-C ,  5-C ) :   2.6283
B(  5-C , 14-H ) :   0.9081 B(  6-C ,  7-C ) :   0.9455 B(  6-C , 15-H ) :   0.9066
B(  6-C , 16-H ) :   0.9295 B(  7-C ,  8-C ) :   0.9444 B(  7-C , 17-H ) :   0.9385
B(  7-C , 18-H ) :   0.9323 B(  8-C , 19-H ) :   0.9316 B(  8-C , 20-H ) :   0.9062

MP2 TOTAL ENERGY:     -349.284076455 Eh
FINAL SINGLE POINT ENERGY      -349.284076455121

DIPOLE MOMENT
-------------
                                X             Y             Z
Electronic contribution:     -5.18421      -0.37442      -2.38121
Nuclear contribution   :      5.39623       0.44461       2.60770
                        -----------------------------------------
Total Dipole Moment    :      0.21202       0.07019       0.22649
                        -----------------------------------------
Magnitude (a.u.)       :      0.31808
Magnitude (Debye)      :      0.80850

                             ****ORCA TERMINATED NORMALLY****
TOTAL RUN TIME: 0 days 0 hours 18 minutes 22 seconds 627 msec
