                         Program Version 3.0.3 - RELEASE   -
|  1> ! RI-MP2 RIJK def2-TZVP def2-TZVP/C def2-TZVP/JK TIGHTSCF
|  2> % maxcore 2000
|  3> % mp2 density relaxed end
|  4> *xyz 0 1
|  5>  C       -0.5877703792     1.3882856146    -0.0416427592
|  6>  C        0.0775010526     0.0206526025    -0.0721657267
|  7>  C        1.4308859366    -0.0952095365    -0.8338560868
|  8>  N        2.0223740869    -0.6627558721     0.3717891902
|  9>  C        3.2665481807    -1.1405839450     0.5770022841
| 10>  O        4.1431816108    -1.1683005967    -0.2656884563
| 11>  C        0.8136949550    -0.5233220031     1.2167709841
| 12>  C        0.9965573758     0.4709625876     2.3654415599
| 13>  C        0.2632374071    -1.8561710528     1.7268092029
| 14>  H        0.1060232878     2.1762520052     0.2661920583
| 15>  H       -0.9586006456     1.6489442672    -1.0386962763
| 16>  H       -1.4433389221     1.4052003053     0.6416440259
| 17>  H       -0.6401428217    -0.7238249584    -0.4280694613
| 18>  H        1.4512715873    -0.7665057146    -1.6977929816
| 19>  H        1.8772963254     0.8623673892    -1.1274524544
| 20>  H        3.4074682608    -1.5150994585     1.6120794056
| 21>  H        1.4349938766     1.4103959040     2.0206182791
| 22>  H        0.0363681283     0.6917537055     2.8430113329
| 23>  H        1.6590688431     0.0525504043     3.1301790218
| 24>  H        0.9122516909    -2.2878501796     2.4959175827
| 25>  H       -0.7278880250    -1.7108603027     2.1705707915
| 26>  H        0.1727961379    -2.5791940455     0.9112430338
| 27> *
| 28>
| 29>                          ****END OF INPUT****

CARTESIAN COORDINATES (ANGSTROEM)
---------------------------------
  C     -0.587770    1.388286   -0.041643
  C      0.077501    0.020653   -0.072166
  C      1.430886   -0.095210   -0.833856
  N      2.022374   -0.662756    0.371789
  C      3.266548   -1.140584    0.577002
  O      4.143182   -1.168301   -0.265688
  C      0.813695   -0.523322    1.216771
  C      0.996557    0.470963    2.365442
  C      0.263237   -1.856171    1.726809
  H      0.106023    2.176252    0.266192
  H     -0.958601    1.648944   -1.038696
  H     -1.443339    1.405200    0.641644
  H     -0.640143   -0.723825   -0.428069
  H      1.451272   -0.766506   -1.697793
  H      1.877296    0.862367   -1.127452
  H      3.407468   -1.515099    1.612079
  H      1.434994    1.410396    2.020618
  H      0.036368    0.691754    2.843011
  H      1.659069    0.052550    3.130179
  H      0.912252   -2.287850    2.495918
  H     -0.727888   -1.710860    2.170571
  H      0.172796   -2.579194    0.911243

 Total Charge           Charge          ....    0
 Multiplicity           Mult            ....    1
 Number of Electrons    NEL             ....   70
 Basis Dimension        Dim             ....  357

ORBITAL ENERGIES
----------------

  NO   OCC          E(Eh)            E(eV)
   0   2.0000     -20.509962      -558.1044
   1   2.0000     -15.575126      -423.8207
   2   2.0000     -11.336680      -308.4867
   3   2.0000     -11.290351      -307.2261
   4   2.0000     -11.264734      -306.5290
   5   2.0000     -11.246708      -306.0385
   6   2.0000     -11.230287      -305.5916
   7   2.0000     -11.229921      -305.5817
   8   2.0000     -11.229405      -305.5676
   9   2.0000      -1.370070       -37.2815
  10   2.0000      -1.269374       -34.5414
  11   2.0000      -1.076075       -29.2815
  12   2.0000      -1.037878       -28.2421
  13   2.0000      -0.960064       -26.1247
  14   2.0000      -0.949012       -25.8239
  15   2.0000      -0.860682       -23.4204
  16   2.0000      -0.806334       -21.9415
  17   2.0000      -0.729648       -19.8547
  18   2.0000      -0.680424       -18.5153
  19   2.0000      -0.666657       -18.1407
  20   2.0000      -0.649572       -17.6757
  21   2.0000      -0.611320       -16.6349
  22   2.0000      -0.596969       -16.2443
  23   2.0000      -0.587248       -15.9798
  24   2.0000      -0.574744       -15.6396
  25   2.0000      -0.564686       -15.3659
  26   2.0000      -0.548367       -14.9218
  27   2.0000      -0.533129       -14.5072
  28   2.0000      -0.515357       -14.0236
  29   2.0000      -0.513348       -13.9689
  30   2.0000      -0.495523       -13.4839
  31   2.0000      -0.484410       -13.1815
  32   2.0000      -0.446497       -12.1498
  33   2.0000      -0.412267       -11.2184
  34   2.0000      -0.368687       -10.0325
  35   0.0000       0.116771         3.1775
  36   0.0000       0.150704         4.1009
  37   0.0000       0.152815         4.1583
  38   0.0000       0.166551         4.5321
  39   0.0000       0.173564         4.7229

MULLIKEN ATOMIC CHARGES
-----------------------
   0 C :   -0.427090
   1 C :   -0.014855
   2 C :   -0.174664
   3 N :   -0.042154
   4 C :    0.116694
   5 O :   -0.368056
   6 C :    0.054222
   7 C :   -0.400826
   8 C :   -0.403303
   9 H :    0.129419
  10 H :    0.145043
  11 H :    0.133916
  12 H :    0.107879
  13 H :    0.122985
  14 H :    0.120993
  15 H :    0.075123
  16 H :    0.140704
  17 H :    0.133639
  18 H :    0.140825
  19 H :    0.135734
  20 H :    0.133472
  21 H :    0.140301
Sum of atomic charges:   -0.0000000

LOEWDIN ATOMIC CHARGES
----------------------
   0 C :   -0.295877
   1 C :   -0.205612
   2 C :   -0.195431
   3 N :    0.216070
   4 C :   -0.426885
   5 O :    0.048688
   6 C :   -0.283409
   7 C :   -0.266664
   8 C :   -0.269360
   9 H :    0.125078
  10 H :    0.129477
  11 H :    0.126311
  12 H :    0.150485
  13 H :    0.130133
  14 H :    0.131967
  15 H :    0.110295
  16 H :    0.128526
  17 H :    0.130412
  18 H :    0.129326
  19 H :    0.126974
  20 H :    0.130407
  21 H :    0.129090

  Mayer bond orders larger than 0.1
B(  0-C ,  1-C ) :   0.9023 B(  0-C ,  9-H ) :   0.9361 B(  0-C , 10-H ) :   0.9356
B(  0-C , 11-H ) :   0.9389 B(  1-C ,  2-C ) :   0.9146 B(  1-C ,  6-C ) :   0.8806
B(  1-C , 12-H ) :   0.9170 B(  2-C ,  3-N ) :   0.8862 B(  2-C , 13-H ) :   0.9211
B(  2-C , 14-H ) :   0.9144 B(  3-N ,  4-C ) :   1.1303 B(  3-N ,  6-C ) :   0.8852
B(  4-C ,  5-O ) :   1.9078 B(  4-C , 15-H ) :   0.9358 B(  6-C ,  7-C ) :   0.9226
B(  6-C ,  8-C ) :   0.9219 B(  7-C , 16-H ) :   0.9396 B(  7-C , 17-H ) :   0.9307
B(  7-C , 18-H ) :   0.9271 B(  8-C , 19-H ) :   0.9308 B(  8-C , 20-H ) :   0.9315
B(  8-C , 21-H ) :   0.9338

MP2 TOTAL ENERGY:     -403.679268243 Eh
FINAL SINGLE POINT ENERGY      -403.679268243146

DIPOLE MOMENT
-------------
                                X             Y             Z
Electronic contribution:      8.40788      -3.17727      -3.47264
Nuclear contribution   :    -10.10686       3.54426       4.13644
                        -----------------------------------------
Total Dipole Moment    :     -1.69898       0.36699       0.66380
                        -----------------------------------------
Magnitude (a.u.)       :      1.86060
Magnitude (Debye)      :      4.72926

                             ****ORCA TERMINATED NORMALLY****
TOTAL RUN TIME: 0 days 0 hours 20 minutes 34 seconds 730 msec
