                         Program Version 3.0.3 - RELEASE   -
|  1> ! RI-MP2 RIJK def2-TZVP def2-TZVP/C def2-TZVP/JK TIGHTSCF
|  2> % maxcore 2000
|  3> % mp2 density relaxed end
|  4> *xyz 0 1
|  5>  C       -0.1818564600     1.5576927464     0.0005401582
|  6>  C        0.1131904105     0.0488436071     0.0612211803
|  7>  C        0.7849751852    -0.4677364067    -1.1738467945
|  8>  C        2.0283952066    -0.9808141989    -1.3104431478
|  9>  N        2.3398157806    -1.3677757533    -2.6159908270
| 10>  C        1.2650704273    -1.1324093852    -3.4593179962
| 11>  O        1.1983284611    -1.3559803046    -4.6374977512
| 12>  C        0.1728241207    -0.5097539896    -2.5086847057
| 13>  O       -0.9244436436    -0.1651098724    -2.8764553641
| 14>  H        0.7426486068     2.1350976038    -0.0996977959
| 15>  H       -0.8221953801     1.7875533743    -0.8548094448
| 16>  H       -0.6932871699     1.8873405709     0.9098406619
| 17>  H        0.7351518957    -0.1783665644     0.9350192786
| 18>  H       -0.8325075726    -0.4892407158     0.2020670782
| 19>  H        2.7734260423    -1.1172074577    -0.5364639918
| 20>  H        3.2082671294    -1.7801899138    -2.9119516482
| 21> *
| 22>
| 23>                          ****END OF INPUT****

CARTESIAN COORDINATES (ANGSTROEM)
---------------------------------
  C     -0.181856    1.557693    0.000540
  C      0.113190    0.048844    0.061221
  C      0.784975   -0.467736   -1.173847
  C      2.028395   -0.980814   -1.310443
  N      2.339816   -1.367776   -2.615991
  C      1.265070   -1.132409   -3.459318
  O      1.198328   -1.355980   -4.637498
  C      0.172824   -0.509754   -2.508685
  O     -0.924444   -0.165110   -2.876455
  H      0.742649    2.135098   -0.099698
  H     -0.822195    1.787553   -0.854809
  H     -0.693287    1.887341    0.909841
  H      0.735152   -0.178367    0.935019
  H     -0.832508   -0.489241    0.202067
  H      2.773426   -1.117207   -0.536464
  H      3.208267   -1.780190   -2.911952

 Total Charge           Charge          ....    0
 Multiplicity           Mult            ....    1
 Number of Electrons    NEL             ....   66
 Basis Dimension        Dim             ....  321

ORBITAL ENERGIES
----------------

  NO   OCC          E(Eh)            E(eV)
   0   2.0000     -20.568559      -559.6989
   1   2.0000     -20.563431      -559.5594
   2   2.0000     -15.622579      -425.1120
   3   2.0000     -11.377652      -309.6016
   4   2.0000     -11.349885      -308.8461
   5   2.0000     -11.328386      -308.2610
   6   2.0000     -11.250771      -306.1491
   7   2.0000     -11.246772      -306.0402
   8   2.0000     -11.221872      -305.3627
   9   2.0000      -1.426874       -38.8272
  10   2.0000      -1.397397       -38.0251
  11   2.0000      -1.301130       -35.4055
  12   2.0000      -1.106246       -30.1025
  13   2.0000      -1.016888       -27.6709
  14   2.0000      -0.957808       -26.0633
  15   2.0000      -0.877603       -23.8808
  16   2.0000      -0.802394       -21.8342
  17   2.0000      -0.771196       -20.9853
  18   2.0000      -0.732783       -19.9400
  19   2.0000      -0.672057       -18.2876
  20   2.0000      -0.658104       -17.9079
  21   2.0000      -0.639886       -17.4122
  22   2.0000      -0.628258       -17.0958
  23   2.0000      -0.615295       -16.7430
  24   2.0000      -0.597261       -16.2523
  25   2.0000      -0.548213       -14.9176
  26   2.0000      -0.529087       -14.3972
  27   2.0000      -0.518774       -14.1166
  28   2.0000      -0.512620       -13.9491
  29   2.0000      -0.497348       -13.5335
  30   2.0000      -0.494059       -13.4440
  31   2.0000      -0.407688       -11.0937
  32   2.0000      -0.348970        -9.4960
  33   0.0000       0.042524         1.1571
  34   0.0000       0.118811         3.2330
  35   0.0000       0.135493         3.6870
  36   0.0000       0.158581         4.3152
  37   0.0000       0.176665         4.8073

MULLIKEN ATOMIC CHARGES
-----------------------
   0 C :   -0.393717
   1 C :   -0.203602
   2 C :   -0.028326
   3 C :   -0.016821
   4 N :   -0.284068
   5 C :    0.219605
   6 O :   -0.258377
   7 C :    0.152884
   8 O :   -0.258196
   9 H :    0.120955
  10 H :    0.154811
  11 H :    0.132080
  12 H :    0.118733
  13 H :    0.129425
  14 H :    0.160526
  15 H :    0.254088
Sum of atomic charges:   -0.0000000

LOEWDIN ATOMIC CHARGES
----------------------
   0 C :   -0.305368
   1 C :   -0.250064
   2 C :   -0.171868
   3 C :   -0.125844
   4 N :    0.138945
   5 C :   -0.367336
   6 O :    0.159313
   7 C :   -0.263726
   8 O :    0.185299
   9 H :    0.120438
  10 H :    0.128826
  11 H :    0.121717
  12 H :    0.143311
  13 H :    0.151014
  14 H :    0.144545
  15 H :    0.190798

  Mayer bond orders larger than 0.1
B(  0-C ,  1-C ) :   0.9110 B(  0-C ,  9-H ) :   0.9356 B(  0-C , 10-H ) :   0.9361
B(  0-C , 11-H ) :   0.9349 B(  1-C ,  2-C ) :   0.8799 B(  1-C , 12-H ) :   0.9486
B(  1-C , 13-H ) :   0.9244 B(  2-C ,  3-C ) :   1.6219 B(  2-C ,  7-C ) :   0.9530
B(  3-C ,  4-N ) :   1.0315 B(  3-C , 14-H ) :   0.8933 B(  4-N ,  5-C ) :   1.0522
B(  4-N , 15-H ) :   0.8600 B(  5-C ,  6-O ) :   2.0416 B(  5-C ,  7-C ) :   0.8812
B(  7-C ,  8-O ) :   1.9487

MP2 TOTAL ENERGY:     -437.209612438 Eh
FINAL SINGLE POINT ENERGY      -437.209612437586

DIPOLE MOMENT
-------------
                                X             Y             Z
Electronic contribution:      1.55442      -5.42420      -9.78759
Nuclear contribution   :     -0.07072       5.19235      11.38362
                        -----------------------------------------
Total Dipole Moment    :      1.48370      -0.23185       1.59603
                        -----------------------------------------
Magnitude (a.u.)       :      2.19145
Magnitude (Debye)      :      5.57023

                             ****ORCA TERMINATED NORMALLY****
TOTAL RUN TIME: 0 days 0 hours 15 minutes 24 seconds 179 msec
