                         Program Version 3.0.3 - RELEASE   -
|  1> ! RI-MP2 RIJK def2-TZVP def2-TZVP/C def2-TZVP/JK TIGHTSCF
|  2> % maxcore 2000
|  3> % mp2 density relaxed end
|  4> *xyz 0 1
|  5>  N       -0.0213248773    -1.1181954519    -0.0048135711
|  6>  C        0.0048512177     0.0356178930     0.0025324040
|  7>  C       -0.0118803892     1.4973580581     0.0119394159
|  8>  O        1.3408680235     1.9557664717    -0.0007130800
|  9>  C        1.4786591699     3.2898647584     0.0058878845
| 10>  N        0.4528494947     4.1087182610     0.0227411093
| 11>  O        1.0165186583     5.3841534424     0.0240891734
| 12>  C        2.3527782985     5.2682798141     0.0079628260
| 13>  C        2.7306200758     3.9674858493    -0.0043334722
| 14>  H       -0.5535036588     1.8741906300    -0.8634434704
| 15>  H       -0.5331813688     1.8630114653     0.9042382861
| 16>  H        2.9020628172     6.1971355570     0.0073306289
| 17>  H        3.7189129186     3.5426006815    -0.0183025846
| 18> *
| 19>
| 20>                          ****END OF INPUT****

CARTESIAN COORDINATES (ANGSTROEM)
---------------------------------
  N     -0.021325   -1.118195   -0.004814
  C      0.004851    0.035618    0.002532
  C     -0.011880    1.497358    0.011939
  O      1.340868    1.955766   -0.000713
  C      1.478659    3.289865    0.005888
  N      0.452849    4.108718    0.022741
  O      1.016519    5.384153    0.024089
  C      2.352778    5.268280    0.007963
  C      2.730620    3.967486   -0.004333
  H     -0.553504    1.874191   -0.863443
  H     -0.533181    1.863011    0.904238
  H      2.902063    6.197136    0.007331
  H      3.718913    3.542601   -0.018303

 Total Charge           Charge          ....    0
 Multiplicity           Mult            ....    1
 Number of Electrons    NEL             ....   64
 Basis Dimension        Dim             ....  303

ORBITAL ENERGIES
----------------

  NO   OCC          E(Eh)            E(eV)
   0   2.0000     -20.661969      -562.2408
   1   2.0000     -20.641156      -561.6744
   2   2.0000     -15.628449      -425.2717
   3   2.0000     -15.589606      -424.2148
   4   2.0000     -11.364855      -309.2534
   5   2.0000     -11.358686      -309.0856
   6   2.0000     -11.339287      -308.5577
   7   2.0000     -11.288573      -307.1777
   8   2.0000     -11.259231      -306.3792
   9   2.0000      -1.516296       -41.2605
  10   2.0000      -1.468863       -39.9698
  11   2.0000      -1.235067       -33.6079
  12   2.0000      -1.174673       -31.9645
  13   2.0000      -1.100150       -29.9366
  14   2.0000      -1.040455       -28.3122
  15   2.0000      -0.864877       -23.5345
  16   2.0000      -0.832372       -22.6500
  17   2.0000      -0.773415       -21.0457
  18   2.0000      -0.739065       -20.1110
  19   2.0000      -0.724606       -19.7175
  20   2.0000      -0.685116       -18.6430
  21   2.0000      -0.671289       -18.2667
  22   2.0000      -0.629185       -17.1210
  23   2.0000      -0.612686       -16.6720
  24   2.0000      -0.571959       -15.5638
  25   2.0000      -0.571147       -15.5417
  26   2.0000      -0.566262       -15.4088
  27   2.0000      -0.503718       -13.7069
  28   2.0000      -0.483166       -13.1476
  29   2.0000      -0.475325       -12.9343
  30   2.0000      -0.417201       -11.3526
  31   2.0000      -0.393526       -10.7084
  32   0.0000       0.108906         2.9635
  33   0.0000       0.128888         3.5072
  34   0.0000       0.145571         3.9612
  35   0.0000       0.156584         4.2609
  36   0.0000       0.170028         4.6267

MULLIKEN ATOMIC CHARGES
-----------------------
   0 N :   -0.046059
   1 C :   -0.140370
   2 C :    0.013391
   3 O :   -0.246656
   4 C :    0.258359
   5 N :   -0.169468
   6 O :   -0.109926
   7 C :    0.026625
   8 C :   -0.257918
   9 H :    0.167222
  10 H :    0.167203
  11 H :    0.169450
  12 H :    0.168146
Sum of atomic charges:    0.0000000

LOEWDIN ATOMIC CHARGES
----------------------
   0 N :    0.081908
   1 C :   -0.177951
   2 C :   -0.266262
   3 O :    0.272771
   4 C :   -0.403740
   5 N :    0.023453
   6 O :    0.275459
   7 C :   -0.250861
   8 C :   -0.163291
   9 H :    0.156807
  10 H :    0.156800
  11 H :    0.141047
  12 H :    0.153859

  Mayer bond orders larger than 0.1
B(  0-N ,  1-C ) :   2.8520 B(  1-C ,  2-C ) :   0.9104 B(  2-C ,  3-O ) :   0.8729
B(  2-C ,  9-H ) :   0.9065 B(  2-C , 10-H ) :   0.9065 B(  3-O ,  4-C ) :   1.0927
B(  4-C ,  5-N ) :   1.5102 B(  4-C ,  8-C ) :   1.1830 B(  5-N ,  6-O ) :   0.8522
B(  5-N ,  7-C ) :   0.1045 B(  6-O ,  7-C ) :   1.1210 B(  7-C ,  8-C ) :   1.5679
B(  7-C , 11-H ) :   0.9166 B(  8-C , 12-H ) :   0.9100

MP2 TOTAL ENERGY:     -451.986289188 Eh
FINAL SINGLE POINT ENERGY      -451.986289187775

DIPOLE MOMENT
-------------
                                X             Y             Z
Electronic contribution:     -0.61391      -0.99707       0.00085
Nuclear contribution   :      1.31467       2.32222      -0.00041
                        -----------------------------------------
Total Dipole Moment    :      0.70076       1.32515       0.00044
                        -----------------------------------------
Magnitude (a.u.)       :      1.49902
Magnitude (Debye)      :      3.81022

                             ****ORCA TERMINATED NORMALLY****
TOTAL RUN TIME: 0 days 0 hours 12 minutes 52 seconds 883 msec
