                         Program Version 3.0.3 - RELEASE   -
|  1> ! RI-MP2 RIJK def2-TZVP def2-TZVP/C def2-TZVP/JK TIGHTSCF
|  2> % maxcore 2000
|  3> % mp2 density relaxed end
|  4> *xyz 0 1
|  5>  C        0.2509908664     1.5343710189    -0.2013982518
|  6>  C       -0.0711550615     0.0987890348     0.1831098649
|  7>  O       -0.3877800457    -0.2453516785     1.2896519195
|  8>  N        0.0286542177    -0.7848727825    -0.9074861465
|  9>  C       -0.0352023858    -2.1896584665    -0.8456443337
| 10>  O        0.0317233380    -2.8438510600     0.1510475043
| 11>  N       -0.1887517497    -2.7239979524    -2.1471862971
| 12>  C       -0.0318603191    -4.0573535656    -2.5180567231
| 13>  O        0.3713324511    -4.9492046485    -1.8275812627
| 14>  H        1.2946198491     1.6220915393    -0.5223663439
| 15>  H       -0.3835544973     1.8769148572    -1.0259243415
| 16>  H        0.0876155552     2.1703259301     0.6674376930
| 17>  H        0.2710643029    -0.3726256271    -1.7954406390
| 18>  H       -0.5319078087    -2.1101265817    -2.8712557706
| 19>  H       -0.3231949627    -4.1873866275    -3.5806337617
| 20> *
| 21>
| 22>                          ****END OF INPUT****

CARTESIAN COORDINATES (ANGSTROEM)
---------------------------------
  C      0.250991    1.534371   -0.201398
  C     -0.071155    0.098789    0.183110
  O     -0.387780   -0.245352    1.289652
  N      0.028654   -0.784873   -0.907486
  C     -0.035202   -2.189658   -0.845644
  O      0.031723   -2.843851    0.151048
  N     -0.188752   -2.723998   -2.147186
  C     -0.031860   -4.057354   -2.518057
  O      0.371332   -4.949205   -1.827581
  H      1.294620    1.622092   -0.522366
  H     -0.383554    1.876915   -1.025924
  H      0.087616    2.170326    0.667438
  H      0.271064   -0.372626   -1.795441
  H     -0.531908   -2.110127   -2.871256
  H     -0.323195   -4.187387   -3.580634

 Total Charge           Charge          ....    0
 Multiplicity           Mult            ....    1
 Number of Electrons    NEL             ....   68
 Basis Dimension        Dim             ....  315

ORBITAL ENERGIES
----------------

  NO   OCC          E(Eh)            E(eV)
   0   2.0000     -20.556192      -559.3624
   1   2.0000     -20.548712      -559.1589
   2   2.0000     -20.547041      -559.1134
   3   2.0000     -15.633844      -425.4185
   4   2.0000     -15.629413      -425.2979
   5   2.0000     -11.415896      -310.6423
   6   2.0000     -11.380898      -309.6900
   7   2.0000     -11.380005      -309.6657
   8   2.0000     -11.260796      -306.4218
   9   2.0000      -1.441229       -39.2178
  10   2.0000      -1.414228       -38.4831
  11   2.0000      -1.401482       -38.1363
  12   2.0000      -1.285643       -34.9841
  13   2.0000      -1.239529       -33.7293
  14   2.0000      -1.036350       -28.2005
  15   2.0000      -0.940737       -25.5988
  16   2.0000      -0.829627       -22.5753
  17   2.0000      -0.804727       -21.8977
  18   2.0000      -0.787056       -21.4169
  19   2.0000      -0.722221       -19.6526
  20   2.0000      -0.689385       -18.7591
  21   2.0000      -0.661880       -18.0107
  22   2.0000      -0.654683       -17.8148
  23   2.0000      -0.637795       -17.3553
  24   2.0000      -0.622778       -16.9467
  25   2.0000      -0.620756       -16.8916
  26   2.0000      -0.585705       -15.9378
  27   2.0000      -0.569294       -15.4913
  28   2.0000      -0.528362       -14.3775
  29   2.0000      -0.494787       -13.4638
  30   2.0000      -0.461718       -12.5640
  31   2.0000      -0.445692       -12.1279
  32   2.0000      -0.444269       -12.0892
  33   2.0000      -0.428116       -11.6496
  34   0.0000       0.085316         2.3216
  35   0.0000       0.114379         3.1124
  36   0.0000       0.125658         3.4193
  37   0.0000       0.157458         4.2846
  38   0.0000       0.163034         4.4364

MULLIKEN ATOMIC CHARGES
-----------------------
   0 C :   -0.444507
   1 C :    0.299481
   2 O :   -0.268383
   3 N :   -0.360155
   4 C :    0.405207
   5 O :   -0.238664
   6 N :   -0.349844
   7 C :    0.187649
   8 O :   -0.261428
   9 H :    0.155078
  10 H :    0.145066
  11 H :    0.166913
  12 H :    0.237315
  13 H :    0.240013
  14 H :    0.086260
Sum of atomic charges:   -0.0000000

LOEWDIN ATOMIC CHARGES
----------------------
   0 C :   -0.279233
   1 C :   -0.436220
   2 O :    0.158939
   3 N :    0.116797
   4 C :   -0.478248
   5 O :    0.180350
   6 N :    0.096363
   7 C :   -0.395255
   8 O :    0.135035
   9 H :    0.136570
  10 H :    0.132603
  11 H :    0.140892
  12 H :    0.190911
  13 H :    0.188681
  14 H :    0.111817

  Mayer bond orders larger than 0.1
B(  0-C ,  1-C ) :   0.9112 B(  0-C ,  9-H ) :   0.9149 B(  0-C , 10-H ) :   0.9186
B(  0-C , 11-H ) :   0.9376 B(  1-C ,  2-O ) :   2.0303 B(  1-C ,  3-N ) :   0.9842
B(  3-N ,  4-C ) :   0.9748 B(  3-N , 12-H ) :   0.8713 B(  4-C ,  5-O ) :   2.0472
B(  4-C ,  6-N ) :   0.9468 B(  6-N ,  7-C ) :   1.0105 B(  6-N , 13-H ) :   0.8700
B(  7-C ,  8-O ) :   2.0016 B(  7-C , 14-H ) :   0.9247

MP2 TOTAL ENERGY:     -490.389438658 Eh
FINAL SINGLE POINT ENERGY      -490.389438657568

DIPOLE MOMENT
-------------
                                X             Y             Z
Electronic contribution:     -0.49525      -7.12120       1.77981
Nuclear contribution   :      0.39821       9.15466      -4.26969
                        -----------------------------------------
Total Dipole Moment    :     -0.09704       2.03346      -2.48988
                        -----------------------------------------
Magnitude (a.u.)       :      3.21619
Magnitude (Debye)      :      8.17490

                             ****ORCA TERMINATED NORMALLY****
TOTAL RUN TIME: 0 days 0 hours 13 minutes 24 seconds 225 msec
