                         Program Version 3.0.3 - RELEASE   -
|  1> ! RI-MP2 RIJK def2-TZVP def2-TZVP/C def2-TZVP/JK TIGHTSCF
|  2> % maxcore 2000
|  3> % mp2 density relaxed end
|  4> *xyz 0 1
|  5>  C       -0.2646921969     1.4359661360     0.1791608932
|  6>  C       -0.0651228762    -0.0652819644     0.0047560270
|  7>  C        0.7773459135    -0.5176766308    -1.2448626032
|  8>  C        0.8891154033     0.3764436607    -2.4721572992
|  9>  C        1.9815659011    -0.6686644260    -0.3052973235
| 10>  C        3.3394479661    -1.2068958549    -0.4935886258
| 11>  N        3.1322855062     0.2410797820    -0.2528459103
| 12>  C        1.0668712274    -0.6590788682     0.9247826271
| 13>  O        1.5234562706     0.0797770576     2.0199198246
| 14>  H        0.6753252282     1.9903205131     0.0957389120
| 15>  H       -0.9585488787     1.8348756484    -0.5679905952
| 16>  H       -0.6717544635     1.6464796907     1.1719856034
| 17>  H       -1.0277195030    -0.5771692381     0.0950582855
| 18>  H        0.4466762776    -1.5147563986    -1.5591249084
| 19>  H        1.1961777513     1.3948253343    -2.2143506922
| 20>  H        1.6155664897    -0.0248225299    -3.1887120028
| 21>  H       -0.0722229144     0.4464859431    -2.9912082589
| 22>  H        3.8363671491    -1.7359638305     0.3154419417
| 23>  H        3.6385690618    -1.5191049618    -1.4916672955
| 24>  H        3.2291729143     0.7630506580    -1.1202591944
| 25>  H        0.8097232613    -1.6688252585     1.2660495684
| 26>  H        2.2665573012     0.6036404478     1.6808393165
| 27> *
| 28>
| 29>                          ****END OF INPUT****

CARTESIAN COORDINATES (ANGSTROEM)
---------------------------------
  C     -0.264692    1.435966    0.179161
  C     -0.065123   -0.065282    0.004756
  C      0.777346   -0.517677   -1.244863
  C      0.889115    0.376444   -2.472157
  C      1.981566   -0.668664   -0.305297
  C      3.339448   -1.206896   -0.493589
  N      3.132286    0.241080   -0.252846
  C      1.066871   -0.659079    0.924783
  O      1.523456    0.079777    2.019920
  H      0.675325    1.990321    0.095739
  H     -0.958549    1.834876   -0.567991
  H     -0.671754    1.646480    1.171986
  H     -1.027720   -0.577169    0.095058
  H      0.446676   -1.514756   -1.559125
  H      1.196178    1.394825   -2.214351
  H      1.615566   -0.024823   -3.188712
  H     -0.072223    0.446486   -2.991208
  H      3.836367   -1.735964    0.315442
  H      3.638569   -1.519105   -1.491667
  H      3.229173    0.763051   -1.120259
  H      0.809723   -1.668825    1.266050
  H      2.266557    0.603640    1.680839

 Total Charge           Charge          ....    0
 Multiplicity           Mult            ....    1
 Number of Electrons    NEL             ....   70
 Basis Dimension        Dim             ....  357

ORBITAL ENERGIES
----------------

  NO   OCC          E(Eh)            E(eV)
   0   2.0000     -20.540298      -558.9299
   1   2.0000     -15.566743      -423.5926
   2   2.0000     -11.271978      -306.7261
   3   2.0000     -11.264205      -306.5146
   4   2.0000     -11.260704      -306.4193
   5   2.0000     -11.237725      -305.7940
   6   2.0000     -11.226451      -305.4872
   7   2.0000     -11.225942      -305.4734
   8   2.0000     -11.210596      -305.0558
   9   2.0000      -1.356221       -36.9047
  10   2.0000      -1.267239       -34.4833
  11   2.0000      -1.116551       -30.3829
  12   2.0000      -0.992614       -27.0104
  13   2.0000      -0.961984       -26.1769
  14   2.0000      -0.891873       -24.2691
  15   2.0000      -0.841749       -22.9051
  16   2.0000      -0.811793       -22.0900
  17   2.0000      -0.740458       -20.1489
  18   2.0000      -0.696050       -18.9405
  19   2.0000      -0.672751       -18.3065
  20   2.0000      -0.642774       -17.4908
  21   2.0000      -0.613217       -16.6865
  22   2.0000      -0.587484       -15.9862
  23   2.0000      -0.578886       -15.7523
  24   2.0000      -0.558600       -15.2003
  25   2.0000      -0.540950       -14.7200
  26   2.0000      -0.534350       -14.5404
  27   2.0000      -0.522954       -14.2303
  28   2.0000      -0.504717       -13.7340
  29   2.0000      -0.497237       -13.5305
  30   2.0000      -0.467002       -12.7078
  31   2.0000      -0.439237       -11.9522
  32   2.0000      -0.431626       -11.7451
  33   2.0000      -0.409311       -11.1379
  34   2.0000      -0.384775       -10.4703
  35   0.0000       0.122860         3.3432
  36   0.0000       0.144011         3.9187
  37   0.0000       0.155712         4.2371
  38   0.0000       0.177790         4.8379
  39   0.0000       0.185270         5.0415

MULLIKEN ATOMIC CHARGES
-----------------------
   0 C :   -0.481552
   1 C :    0.005455
   2 C :    0.035800
   3 C :   -0.470218
   4 C :   -0.052702
   5 C :   -0.174255
   6 N :   -0.442315
   7 C :    0.094424
   8 O :   -0.479945
   9 H :    0.126731
  10 H :    0.132541
  11 H :    0.149235
  12 H :    0.107833
  13 H :    0.103888
  14 H :    0.135346
  15 H :    0.139871
  16 H :    0.145372
  17 H :    0.127547
  18 H :    0.130394
  19 H :    0.224280
  20 H :    0.101390
  21 H :    0.340882
Sum of atomic charges:    0.0000000

LOEWDIN ATOMIC CHARGES
----------------------
   0 C :   -0.297049
   1 C :   -0.206164
   2 C :   -0.202472
   3 C :   -0.300777
   4 C :   -0.267362
   5 C :   -0.237582
   6 N :   -0.002740
   7 C :   -0.276278
   8 O :   -0.005039
   9 H :    0.122936
  10 H :    0.123139
  11 H :    0.131284
  12 H :    0.138969
  13 H :    0.157133
  14 H :    0.123640
  15 H :    0.125188
  16 H :    0.129844
  17 H :    0.130231
  18 H :    0.125505
  19 H :    0.165774
  20 H :    0.140136
  21 H :    0.181683

  Mayer bond orders larger than 0.1
B(  0-C ,  1-C ) :   0.8576 B(  0-C ,  9-H ) :   0.9433 B(  0-C , 10-H ) :   0.9375
B(  0-C , 11-H ) :   0.9332 B(  1-C ,  2-C ) :   0.9118 B(  1-C ,  7-C ) :   0.8660
B(  1-C , 12-H ) :   0.9199 B(  2-C ,  3-C ) :   0.8564 B(  2-C ,  4-C ) :   0.9041
B(  2-C , 13-H ) :   0.9138 B(  3-C , 14-H ) :   0.9380 B(  3-C , 15-H ) :   0.9422
B(  3-C , 16-H ) :   0.9393 B(  4-C ,  5-C ) :   0.9211 B(  4-C ,  6-N ) :   0.8024
B(  4-C ,  7-C ) :   0.9174 B(  5-C ,  6-N ) :   0.9371 B(  5-C , 17-H ) :   0.9147
B(  5-C , 18-H ) :   0.9242 B(  6-N , 19-H ) :   0.8701 B(  7-C ,  8-O ) :   1.0293
B(  7-C , 20-H ) :   0.9444 B(  8-O , 21-H ) :   0.8051

MP2 TOTAL ENERGY:     -403.630224096 Eh
FINAL SINGLE POINT ENERGY      -403.630224096358

DIPOLE MOMENT
-------------
                                X             Y             Z
Electronic contribution:      2.83898      -2.67743       4.74945
Nuclear contribution   :     -2.82044       2.44035      -5.96302
                        -----------------------------------------
Total Dipole Moment    :      0.01854      -0.23708      -1.21357
                        -----------------------------------------
Magnitude (a.u.)       :      1.23665
Magnitude (Debye)      :      3.14332

                             ****ORCA TERMINATED NORMALLY****
TOTAL RUN TIME: 0 days 0 hours 20 minutes 1 seconds 92 msec
