                         Program Version 3.0.3 - RELEASE   -
|  1> ! RI-MP2 RIJK def2-TZVP def2-TZVP/C def2-TZVP/JK TIGHTSCF
|  2> % maxcore 2000
|  3> % mp2 density relaxed end
|  4> *xyz 0 1
|  5>  N       -0.0356622247     1.2907126945     0.0899333227
|  6>  C       -0.2112627669    -0.0321147361    -0.2903872814
|  7>  O        0.3615986409    -0.5420523201    -1.2303086671
|  8>  N       -1.0909306157    -0.7327497904     0.5270686963
|  9>  C       -1.1678998671    -2.1559404336     0.3822718502
| 10>  C       -2.3682927705    -2.8451645787     0.9283334536
| 11>  C       -2.1757360224    -2.7713148023    -0.5838903418
| 12>  C       -3.0984129063    -1.9159243884    -1.3649625347
| 13>  O       -3.5279288093    -2.2024444427    -2.4550173575
| 14>  H        0.4314904623     1.8374053975    -0.6177610910
| 15>  H       -0.8156685118     1.7617138943     0.5236755537
| 16>  H       -1.2058704420    -0.3836480986     1.4674434299
| 17>  H       -0.2168787609    -2.6812276625     0.4193119123
| 18>  H       -2.2523887558    -3.8115700105     1.4037002247
| 19>  H       -3.1541480123    -2.2234015966     1.3463275605
| 20>  H       -1.8620635670    -3.6718441005    -1.0986192715
| 21>  H       -3.3897708805    -0.9686072050    -0.8594808989
| 22> *
| 23>
| 24>                          ****END OF INPUT****

CARTESIAN COORDINATES (ANGSTROEM)
---------------------------------
  N     -0.035662    1.290713    0.089933
  C     -0.211263   -0.032115   -0.290387
  O      0.361599   -0.542052   -1.230309
  N     -1.090931   -0.732750    0.527069
  C     -1.167900   -2.155940    0.382272
  C     -2.368293   -2.845165    0.928333
  C     -2.175736   -2.771315   -0.583890
  C     -3.098413   -1.915924   -1.364963
  O     -3.527929   -2.202444   -2.455017
  H      0.431490    1.837405   -0.617761
  H     -0.815669    1.761714    0.523676
  H     -1.205870   -0.383648    1.467443
  H     -0.216879   -2.681228    0.419312
  H     -2.252389   -3.811570    1.403700
  H     -3.154148   -2.223402    1.346328
  H     -1.862064   -3.671844   -1.098619
  H     -3.389771   -0.968607   -0.859481

 Total Charge           Charge          ....    0
 Multiplicity           Mult            ....    1
 Number of Electrons    NEL             ....   68
 Basis Dimension        Dim             ....  327

ORBITAL ENERGIES
----------------

  NO   OCC          E(Eh)            E(eV)
   0   2.0000     -20.546412      -559.0963
   1   2.0000     -20.524519      -558.5006
   2   2.0000     -15.599447      -424.4825
   3   2.0000     -15.590689      -424.2442
   4   2.0000     -11.386746      -309.8491
   5   2.0000     -11.327598      -308.2396
   6   2.0000     -11.295184      -307.3576
   7   2.0000     -11.260127      -306.4036
   8   2.0000     -11.251362      -306.1651
   9   2.0000      -1.406618       -38.2760
  10   2.0000      -1.385891       -37.7120
  11   2.0000      -1.264476       -34.4082
  12   2.0000      -1.214891       -33.0589
  13   2.0000      -1.141498       -31.0617
  14   2.0000      -0.922088       -25.0913
  15   2.0000      -0.866520       -23.5792
  16   2.0000      -0.824304       -22.4305
  17   2.0000      -0.774584       -21.0775
  18   2.0000      -0.750569       -20.4240
  19   2.0000      -0.716221       -19.4894
  20   2.0000      -0.702256       -19.1094
  21   2.0000      -0.667407       -18.1611
  22   2.0000      -0.630749       -17.1636
  23   2.0000      -0.622227       -16.9317
  24   2.0000      -0.611848       -16.6492
  25   2.0000      -0.586666       -15.9640
  26   2.0000      -0.562396       -15.3036
  27   2.0000      -0.542177       -14.7534
  28   2.0000      -0.470653       -12.8071
  29   2.0000      -0.467206       -12.7133
  30   2.0000      -0.456100       -12.4111
  31   2.0000      -0.435450       -11.8492
  32   2.0000      -0.419448       -11.4138
  33   2.0000      -0.396482       -10.7888
  34   0.0000       0.108907         2.9635
  35   0.0000       0.129360         3.5201
  36   0.0000       0.148148         4.0313
  37   0.0000       0.150946         4.1074
  38   0.0000       0.173247         4.7143

MULLIKEN ATOMIC CHARGES
-----------------------
   0 N :   -0.527282
   1 C :    0.389029
   2 O :   -0.371397
   3 N :   -0.401031
   4 C :    0.003219
   5 C :   -0.287671
   6 C :   -0.013254
   7 C :    0.059366
   8 O :   -0.268329
   9 H :    0.270075
  10 H :    0.253057
  11 H :    0.241609
  12 H :    0.138783
  13 H :    0.151541
  14 H :    0.145941
  15 H :    0.141008
  16 H :    0.075335
Sum of atomic charges:    0.0000000

LOEWDIN ATOMIC CHARGES
----------------------
   0 N :   -0.065746
   1 C :   -0.563900
   2 O :    0.079981
   3 N :    0.086346
   4 C :   -0.236377
   5 C :   -0.191532
   6 C :   -0.187483
   7 C :   -0.287890
   8 O :    0.129244
   9 H :    0.178017
  10 H :    0.167241
  11 H :    0.187911
  12 H :    0.151088
  13 H :    0.140014
  14 H :    0.141253
  15 H :    0.158345
  16 H :    0.113487

  Mayer bond orders larger than 0.1
B(  0-N ,  1-C ) :   1.0937 B(  0-N ,  9-H ) :   0.8676 B(  0-N , 10-H ) :   0.8709
B(  1-C ,  2-O ) :   1.9497 B(  1-C ,  3-N ) :   1.0573 B(  3-N ,  4-C ) :   0.9016
B(  3-N , 11-H ) :   0.8669 B(  4-C ,  5-C ) :   0.8850 B(  4-C ,  6-C ) :   0.8279
B(  4-C , 12-H ) :   0.9353 B(  5-C ,  6-C ) :   0.8222 B(  5-C , 13-H ) :   0.9269
B(  5-C , 14-H ) :   0.9236 B(  6-C ,  7-C ) :   0.8971 B(  6-C , 15-H ) :   0.9139
B(  7-C ,  8-O ) :   1.9869 B(  7-C , 16-H ) :   0.9495

MP2 TOTAL ENERGY:     -454.440592259 Eh
FINAL SINGLE POINT ENERGY      -454.440592259292

DIPOLE MOMENT
-------------
                                X             Y             Z
Electronic contribution:      0.56454       0.66311      -3.78019
Nuclear contribution   :     -0.71340       0.05184       5.84059
                        -----------------------------------------
Total Dipole Moment    :     -0.14886       0.71496       2.06041
                        -----------------------------------------
Magnitude (a.u.)       :      2.18600
Magnitude (Debye)      :      5.55637

                             ****ORCA TERMINATED NORMALLY****
TOTAL RUN TIME: 0 days 0 hours 21 minutes 41 seconds 83 msec
