                         Program Version 3.0.3 - RELEASE   -
|  1> ! RI-MP2 RIJK def2-TZVP def2-TZVP/C def2-TZVP/JK TIGHTSCF
|  2> % maxcore 2000
|  3> % mp2 density relaxed end
|  4> *xyz 0 1
|  5>  C       -0.9967654026    -0.5638034248     1.2543519868
|  6>  C        0.4103437773    -1.0084781906     0.8338758333
|  7>  C        0.6249908277    -2.5244615247     1.0866972396
|  8>  C        0.5208733450    -2.9091959257     2.4889775485
|  9>  C        0.4434599443    -3.2030778740     3.6525093730
| 10>  C        0.6685360512    -0.6868331083    -0.6272717924
| 11>  C        1.0807305731     0.6988566442    -1.0639712164
| 12>  C        2.0470349008    -0.4529328917    -1.2109197137
| 13>  C        3.3215272273    -0.5069151958    -0.3954522870
| 14>  H       -1.1223446690     0.5133546890     1.1104320016
| 15>  H       -1.7615730870    -1.0715839217     0.6542130159
| 16>  H       -1.1850248615    -0.7980153686     2.3056770097
| 17>  H        1.1346810767    -0.4689482787     1.4551488719
| 18>  H       -0.1088039056    -3.0905852365     0.4962145230
| 19>  H        1.6108498222    -2.8148664533     0.7043864551
| 20>  H        0.3741348031    -3.4751096068     4.6763393016
| 21>  H       -0.0261406634    -1.1938221657    -1.2960463126
| 22>  H        0.6282633969     1.1307985789    -1.9500603463
| 23>  H        1.2925061544     1.4212502248    -0.2803286542
| 24>  H        2.1708111167    -0.8225944064    -2.2261270807
| 25>  H        3.1812083345    -0.1101582988     0.6138833248
| 26>  H        3.6989873493    -1.5314639900    -0.3006739623
| 27>  H        4.1075012885     0.0896281552    -0.8718916294
| 28> *
| 29>
| 30>                          ****END OF INPUT****

CARTESIAN COORDINATES (ANGSTROEM)
---------------------------------
  C     -0.996765   -0.563803    1.254352
  C      0.410344   -1.008478    0.833876
  C      0.624991   -2.524462    1.086697
  C      0.520873   -2.909196    2.488978
  C      0.443460   -3.203078    3.652509
  C      0.668536   -0.686833   -0.627272
  C      1.080731    0.698857   -1.063971
  C      2.047035   -0.452933   -1.210920
  C      3.321527   -0.506915   -0.395452
  H     -1.122345    0.513355    1.110432
  H     -1.761573   -1.071584    0.654213
  H     -1.185025   -0.798015    2.305677
  H      1.134681   -0.468948    1.455149
  H     -0.108804   -3.090585    0.496215
  H      1.610850   -2.814866    0.704386
  H      0.374135   -3.475110    4.676339
  H     -0.026141   -1.193822   -1.296046
  H      0.628263    1.130799   -1.950060
  H      1.292506    1.421250   -0.280329
  H      2.170811   -0.822594   -2.226127
  H      3.181208   -0.110158    0.613883
  H      3.698987   -1.531464   -0.300674
  H      4.107501    0.089628   -0.871892

 Total Charge           Charge          ....    0
 Multiplicity           Mult            ....    1
 Number of Electrons    NEL             ....   68
 Basis Dimension        Dim             ....  363

ORBITAL ENERGIES
----------------

  NO   OCC          E(Eh)            E(eV)
   0   2.0000     -11.246425      -306.0308
   1   2.0000     -11.236514      -305.7611
   2   2.0000     -11.231074      -305.6131
   3   2.0000     -11.229629      -305.5737
   4   2.0000     -11.228309      -305.5378
   5   2.0000     -11.220807      -305.3337
   6   2.0000     -11.218341      -305.2666
   7   2.0000     -11.215287      -305.1835
   8   2.0000     -11.209645      -305.0300
   9   2.0000      -1.155120       -31.4324
  10   2.0000      -1.084280       -29.5048
  11   2.0000      -1.015742       -27.6398
  12   2.0000      -0.963247       -26.2113
  13   2.0000      -0.938552       -25.5393
  14   2.0000      -0.854792       -23.2601
  15   2.0000      -0.796405       -21.6713
  16   2.0000      -0.746399       -20.3105
  17   2.0000      -0.715223       -19.4622
  18   2.0000      -0.671390       -18.2695
  19   2.0000      -0.639243       -17.3947
  20   2.0000      -0.617493       -16.8028
  21   2.0000      -0.601415       -16.3653
  22   2.0000      -0.570434       -15.5223
  23   2.0000      -0.563236       -15.3264
  24   2.0000      -0.545515       -14.8442
  25   2.0000      -0.543522       -14.7900
  26   2.0000      -0.501051       -13.6343
  27   2.0000      -0.498915       -13.5762
  28   2.0000      -0.494112       -13.4455
  29   2.0000      -0.465561       -12.6685
  30   2.0000      -0.411981       -11.2106
  31   2.0000      -0.396014       -10.7761
  32   2.0000      -0.380765       -10.3612
  33   2.0000      -0.375203       -10.2098
  34   0.0000       0.136396         3.7115
  35   0.0000       0.152144         4.1400
  36   0.0000       0.155417         4.2291
  37   0.0000       0.165402         4.5008
  38   0.0000       0.171503         4.6668

MULLIKEN ATOMIC CHARGES
-----------------------
   0 C :   -0.406283
   1 C :   -0.032161
   2 C :   -0.372658
   3 C :   -0.008575
   4 C :   -0.142262
   5 C :   -0.131991
   6 C :   -0.287633
   7 C :   -0.051695
   8 C :   -0.409467
   9 H :    0.133829
  10 H :    0.117135
  11 H :    0.152372
  12 H :    0.088133
  13 H :    0.138854
  14 H :    0.148118
  15 H :    0.187305
  16 H :    0.112455
  17 H :    0.131248
  18 H :    0.123592
  19 H :    0.113929
  20 H :    0.127865
  21 H :    0.128764
  22 H :    0.139127
Sum of atomic charges:    0.0000000

LOEWDIN ATOMIC CHARGES
----------------------
   0 C :   -0.282029
   1 C :   -0.252971
   2 C :   -0.223221
   3 C :   -0.110826
   4 C :   -0.112804
   5 C :   -0.194796
   6 C :   -0.208998
   7 C :   -0.233416
   8 C :   -0.297690
   9 H :    0.125111
  10 H :    0.124101
  11 H :    0.128790
  12 H :    0.156834
  13 H :    0.158596
  14 H :    0.159992
  15 H :    0.125217
  16 H :    0.151219
  17 H :    0.129707
  18 H :    0.135870
  19 H :    0.146815
  20 H :    0.124570
  21 H :    0.123113
  22 H :    0.126816

  Mayer bond orders larger than 0.1
B(  0-C ,  1-C ) :   0.9219 B(  0-C ,  9-H ) :   0.9383 B(  0-C , 10-H ) :   0.9314
B(  0-C , 11-H ) :   0.9381 B(  1-C ,  2-C ) :   0.8993 B(  1-C ,  5-C ) :   0.9118
B(  1-C , 12-H ) :   0.9287 B(  2-C ,  3-C ) :   1.1124 B(  2-C ,  4-C ) :  -0.1117
B(  2-C , 13-H ) :   0.9164 B(  2-C , 14-H ) :   0.9287 B(  3-C ,  4-C ) :   2.6122
B(  4-C , 15-H ) :   0.8974 B(  5-C ,  6-C ) :   0.8852 B(  5-C ,  7-C ) :   0.8847
B(  5-C , 16-H ) :   0.9143 B(  6-C ,  7-C ) :   0.9005 B(  6-C , 17-H ) :   0.9278
B(  6-C , 18-H ) :   0.9241 B(  7-C ,  8-C ) :   0.9049 B(  7-C , 19-H ) :   0.9297
B(  8-C , 20-H ) :   0.9372 B(  8-C , 21-H ) :   0.9395 B(  8-C , 22-H ) :   0.9366

MP2 TOTAL ENERGY:     -350.460042988 Eh
FINAL SINGLE POINT ENERGY      -350.460042987701

DIPOLE MOMENT
-------------
                                X             Y             Z
Electronic contribution:     -1.05868      -4.11131       3.27360
Nuclear contribution   :      1.13092       4.25956      -3.54460
                        -----------------------------------------
Total Dipole Moment    :      0.07224       0.14825      -0.27100
                        -----------------------------------------
Magnitude (a.u.)       :      0.31723
Magnitude (Debye)      :      0.80634

                             ****ORCA TERMINATED NORMALLY****
TOTAL RUN TIME: 0 days 0 hours 21 minutes 49 seconds 331 msec
