                         Program Version 3.0.3 - RELEASE   -
|  1> ! RI-MP2 RIJK def2-TZVP def2-TZVP/C def2-TZVP/JK TIGHTSCF
|  2> % maxcore 2000
|  3> % mp2 density relaxed end
|  4> *xyz 0 1
|  5>  O        0.0003455570     0.0057500974    -0.0090674605
|  6>  C       -0.0162396875     1.1872861301    -0.0998130992
|  7>  C       -1.0529572530     2.3460897767     0.0434076662
|  8>  O       -0.0261608800     2.9719311869     0.8708189933
|  9>  C        0.9935622394     2.3726699092     0.0154521815
| 10>  C        0.9381893392     3.0830588201    -1.3769147208
| 11>  C       -0.0723004895     4.2479676195    -1.2933280807
| 12>  C       -1.0540987779     3.0571763063    -1.3497013276
| 13>  O       -0.0591155970     2.3305205773    -2.1517931381
| 14>  H       -2.0092296821     2.2422513315     0.5552548738
| 15>  H        1.9658309622     2.2938868029     0.5009551016
| 16>  H        1.8956891580     3.1735240021    -1.8900304680
| 17>  H       -0.0687984071     4.8969283555    -0.4197997053
| 18>  H       -0.0923612732     4.8116971620    -2.2255151720
| 19>  H       -2.0272795284     3.1225639825    -1.8364470942
| 20> *
| 21>
| 22>                          ****END OF INPUT****

CARTESIAN COORDINATES (ANGSTROEM)
---------------------------------
  O      0.000346    0.005750   -0.009067
  C     -0.016240    1.187286   -0.099813
  C     -1.052957    2.346090    0.043408
  O     -0.026161    2.971931    0.870819
  C      0.993562    2.372670    0.015452
  C      0.938189    3.083059   -1.376915
  C     -0.072300    4.247968   -1.293328
  C     -1.054099    3.057176   -1.349701
  O     -0.059116    2.330521   -2.151793
  H     -2.009230    2.242251    0.555255
  H      1.965831    2.293887    0.500955
  H      1.895689    3.173524   -1.890030
  H     -0.068798    4.896928   -0.419800
  H     -0.092361    4.811697   -2.225515
  H     -2.027280    3.122564   -1.836447

 Total Charge           Charge          ....    0
 Multiplicity           Mult            ....    1
 Number of Electrons    NEL             ....   66
 Basis Dimension        Dim             ....  315

ORBITAL ENERGIES
----------------

  NO   OCC          E(Eh)            E(eV)
   0   2.0000     -20.586867      -560.1971
   1   2.0000     -20.574248      -559.8538
   2   2.0000     -20.564665      -559.5930
   3   2.0000     -11.354149      -308.9621
   4   2.0000     -11.317051      -307.9526
   5   2.0000     -11.317041      -307.9523
   6   2.0000     -11.316035      -307.9250
   7   2.0000     -11.316020      -307.9246
   8   2.0000     -11.252413      -306.1937
   9   2.0000      -1.447739       -39.3950
  10   2.0000      -1.406038       -38.2603
  11   2.0000      -1.386230       -37.7212
  12   2.0000      -1.047092       -28.4928
  13   2.0000      -1.023796       -27.8589
  14   2.0000      -0.994862       -27.0716
  15   2.0000      -0.869637       -23.6640
  16   2.0000      -0.820326       -22.3222
  17   2.0000      -0.754598       -20.5337
  18   2.0000      -0.715252       -19.4630
  19   2.0000      -0.688033       -18.7223
  20   2.0000      -0.673923       -18.3384
  21   2.0000      -0.657607       -17.8944
  22   2.0000      -0.598209       -16.2781
  23   2.0000      -0.597312       -16.2537
  24   2.0000      -0.577302       -15.7092
  25   2.0000      -0.576322       -15.6825
  26   2.0000      -0.562974       -15.3193
  27   2.0000      -0.522316       -14.2129
  28   2.0000      -0.495339       -13.4789
  29   2.0000      -0.482553       -13.1309
  30   2.0000      -0.481584       -13.1046
  31   2.0000      -0.420751       -11.4492
  32   2.0000      -0.405652       -11.0384
  33   0.0000       0.131189         3.5698
  34   0.0000       0.141576         3.8525
  35   0.0000       0.155063         4.2195
  36   0.0000       0.168767         4.5924
  37   0.0000       0.176777         4.8103

MULLIKEN ATOMIC CHARGES
-----------------------
   0 O :   -0.218070
   1 C :    0.085039
   2 C :    0.042596
   3 O :   -0.297923
   4 C :    0.042596
   5 C :    0.033239
   6 C :   -0.289798
   7 C :    0.033240
   8 O :   -0.315981
   9 H :    0.153344
  10 H :    0.153345
  11 H :    0.147735
  12 H :    0.147868
  13 H :    0.135035
  14 H :    0.147736
Sum of atomic charges:    0.0000000

LOEWDIN ATOMIC CHARGES
----------------------
   0 O :    0.186641
   1 C :   -0.287493
   2 C :   -0.206082
   3 O :    0.183520
   4 C :   -0.206080
   5 C :   -0.228568
   6 C :   -0.204428
   7 C :   -0.228567
   8 O :    0.162543
   9 H :    0.138033
  10 H :    0.138032
  11 H :    0.135824
  12 H :    0.136567
  13 H :    0.144233
  14 H :    0.135824

  Mayer bond orders larger than 0.1
B(  0-O ,  1-C ) :   2.0985 B(  1-C ,  2-C ) :   0.8926 B(  1-C ,  4-C ) :   0.8926
B(  2-C ,  3-O ) :   0.9221 B(  2-C ,  4-C ) :  -0.1106 B(  2-C ,  7-C ) :   0.8717
B(  2-C ,  9-H ) :   0.8952 B(  3-O ,  4-C ) :   0.9221 B(  4-C ,  5-C ) :   0.8717
B(  4-C , 10-H ) :   0.8952 B(  5-C ,  6-C ) :   0.9577 B(  5-C ,  8-O ) :   0.9096
B(  5-C , 11-H ) :   0.9034 B(  6-C ,  7-C ) :   0.9577 B(  6-C , 12-H ) :   0.8978
B(  6-C , 13-H ) :   0.9200 B(  7-C ,  8-O ) :   0.9096 B(  7-C , 14-H ) :   0.9034

MP2 TOTAL ENERGY:     -456.971437881 Eh
FINAL SINGLE POINT ENERGY      -456.971437881160

DIPOLE MOMENT
-------------
                                X             Y             Z
Electronic contribution:      0.07924      -4.54793       1.47607
Nuclear contribution   :     -0.09768       5.79284      -1.64218
                        -----------------------------------------
Total Dipole Moment    :     -0.01844       1.24491      -0.16612
                        -----------------------------------------
Magnitude (a.u.)       :      1.25608
Magnitude (Debye)      :      3.19269

                             ****ORCA TERMINATED NORMALLY****
TOTAL RUN TIME: 0 days 0 hours 15 minutes 56 seconds 675 msec
