                         Program Version 3.0.3 - RELEASE   -
|  1> ! RI-MP2 RIJK def2-TZVP def2-TZVP/C def2-TZVP/JK TIGHTSCF
|  2> % maxcore 2000
|  3> % mp2 density relaxed end
|  4> *xyz 0 1
|  5>  O        0.0965034826     1.4413362425     0.0626339760
|  6>  C        0.0510143799     0.0424170401     0.0307454056
|  7>  C       -1.4012346330    -0.4488932276     0.2095844926
|  8>  C       -1.5435169114    -1.9055154591     0.6477830726
|  9>  O       -1.1217092687    -2.8585997033    -0.3112471484
| 10>  C        0.2753945246    -2.9269160437    -0.5110007417
| 11>  C        0.7858149970    -1.9441577306    -1.5685683277
| 12>  C        0.6732748482    -0.4565127250    -1.2757758556
| 13>  O        1.0790356214     0.3633280344    -2.0736797733
| 14>  H        0.5194845519     1.6993066340    -0.7740423677
| 15>  H        0.6567987827    -0.3727909395     0.8578146082
| 16>  H       -1.8433747362     0.1879810225     0.9835467263
| 17>  H       -1.9691654579    -0.2741263828    -0.7113508128
| 18>  H       -0.9993742145    -2.0620345999     1.5949332767
| 19>  H       -2.5985815002    -2.1267215464     0.8345495040
| 20>  H        0.8103454428    -2.7933677742     0.4424022293
| 21>  H        0.4862890733    -3.9436088805    -0.8588345161
| 22>  H        1.8440651403    -2.1426231577    -1.7804484478
| 23>  H        0.2530600473    -2.1214916832    -2.5103423302
| 24> *
| 25>
| 26>                          ****END OF INPUT****

CARTESIAN COORDINATES (ANGSTROEM)
---------------------------------
  O      0.096503    1.441336    0.062634
  C      0.051014    0.042417    0.030745
  C     -1.401235   -0.448893    0.209584
  C     -1.543517   -1.905515    0.647783
  O     -1.121709   -2.858600   -0.311247
  C      0.275395   -2.926916   -0.511001
  C      0.785815   -1.944158   -1.568568
  C      0.673275   -0.456513   -1.275776
  O      1.079036    0.363328   -2.073680
  H      0.519485    1.699307   -0.774042
  H      0.656799   -0.372791    0.857815
  H     -1.843375    0.187981    0.983547
  H     -1.969165   -0.274126   -0.711351
  H     -0.999374   -2.062035    1.594933
  H     -2.598582   -2.126722    0.834550
  H      0.810345   -2.793368    0.442402
  H      0.486289   -3.943609   -0.858835
  H      1.844065   -2.142623   -1.780448
  H      0.253060   -2.121492   -2.510342

 Total Charge           Charge          ....    0
 Multiplicity           Mult            ....    1
 Number of Electrons    NEL             ....   70
 Basis Dimension        Dim             ....  339

ORBITAL ENERGIES
----------------

  NO   OCC          E(Eh)            E(eV)
   0   2.0000     -20.569348      -559.7204
   1   2.0000     -20.564013      -559.5753
   2   2.0000     -20.554211      -559.3085
   3   2.0000     -11.346253      -308.7472
   4   2.0000     -11.300716      -307.5081
   5   2.0000     -11.297675      -307.4254
   6   2.0000     -11.290026      -307.2172
   7   2.0000     -11.252776      -306.2036
   8   2.0000     -11.239196      -305.8341
   9   2.0000      -1.418580       -38.6015
  10   2.0000      -1.391254       -37.8579
  11   2.0000      -1.360550       -37.0225
  12   2.0000      -1.074830       -29.2476
  13   2.0000      -1.067328       -29.0435
  14   2.0000      -0.935126       -25.4461
  15   2.0000      -0.907826       -24.7032
  16   2.0000      -0.827497       -22.5173
  17   2.0000      -0.765616       -20.8335
  18   2.0000      -0.711694       -19.3662
  19   2.0000      -0.697586       -18.9823
  20   2.0000      -0.674276       -18.3480
  21   2.0000      -0.652466       -17.7545
  22   2.0000      -0.645731       -17.5712
  23   2.0000      -0.627393       -17.0722
  24   2.0000      -0.603904       -16.4331
  25   2.0000      -0.578119       -15.7314
  26   2.0000      -0.569784       -15.5046
  27   2.0000      -0.542917       -14.7735
  28   2.0000      -0.524296       -14.2668
  29   2.0000      -0.518737       -14.1155
  30   2.0000      -0.506358       -13.7787
  31   2.0000      -0.483639       -13.1605
  32   2.0000      -0.450149       -12.2492
  33   2.0000      -0.434520       -11.8239
  34   2.0000      -0.423737       -11.5305
  35   0.0000       0.119196         3.2435
  36   0.0000       0.134884         3.6704
  37   0.0000       0.150942         4.1073
  38   0.0000       0.158025         4.3001
  39   0.0000       0.169717         4.6182

MULLIKEN ATOMIC CHARGES
-----------------------
   0 O :   -0.471820
   1 C :    0.094756
   2 C :   -0.176986
   3 C :   -0.126453
   4 O :   -0.307886
   5 C :   -0.088264
   6 C :   -0.209402
   7 C :    0.125805
   8 O :   -0.316512
   9 H :    0.335692
  10 H :    0.097381
  11 H :    0.136657
  12 H :    0.117325
  13 H :    0.115275
  14 H :    0.134529
  15 H :    0.111197
  16 H :    0.137086
  17 H :    0.145506
  18 H :    0.146117
Sum of atomic charges:   -0.0000000

LOEWDIN ATOMIC CHARGES
----------------------
   0 O :   -0.003744
   1 C :   -0.340038
   2 C :   -0.243764
   3 C :   -0.325169
   4 O :    0.156598
   5 C :   -0.321357
   6 C :   -0.237172
   7 C :   -0.299289
   8 O :    0.142613
   9 H :    0.182072
  10 H :    0.149409
  11 H :    0.154531
  12 H :    0.144799
  13 H :    0.123131
  14 H :    0.134830
  15 H :    0.122860
  16 H :    0.135033
  17 H :    0.161801
  18 H :    0.162854

  Mayer bond orders larger than 0.1
B(  0-O ,  1-C ) :   1.1034 B(  0-O ,  9-H ) :   0.7961 B(  1-C ,  2-C ) :   0.8512
B(  1-C ,  7-C ) :   0.9232 B(  1-C , 10-H ) :   0.9319 B(  2-C ,  3-C ) :   0.9024
B(  2-C , 11-H ) :   0.9172 B(  2-C , 12-H ) :   0.9057 B(  3-C ,  4-O ) :   0.9219
B(  3-C , 13-H ) :   0.9479 B(  3-C , 14-H ) :   0.9320 B(  4-O ,  5-C ) :   0.9217
B(  5-C ,  6-C ) :   0.9131 B(  5-C , 15-H ) :   0.9393 B(  5-C , 16-H ) :   0.9296
B(  6-C ,  7-C ) :   0.8929 B(  6-C , 17-H ) :   0.9053 B(  6-C , 18-H ) :   0.8977
B(  7-C ,  8-O ) :   1.8867

MP2 TOTAL ENERGY:     -459.451108329 Eh
FINAL SINGLE POINT ENERGY      -459.451108329065

DIPOLE MOMENT
-------------
                                X             Y             Z
Electronic contribution:      1.63280       3.33070      -2.78697
Nuclear contribution   :     -1.51056      -4.21692       3.14041
                        -----------------------------------------
Total Dipole Moment    :      0.12223      -0.88622       0.35344
                        -----------------------------------------
Magnitude (a.u.)       :      0.96189
Magnitude (Debye)      :      2.44494

                             ****ORCA TERMINATED NORMALLY****
TOTAL RUN TIME: 0 days 0 hours 18 minutes 47 seconds 37 msec
