                         Program Version 3.0.3 - RELEASE   -
|  1> ! RI-MP2 RIJK def2-TZVP def2-TZVP/C def2-TZVP/JK TIGHTSCF
|  2> % maxcore 2000
|  3> % mp2 density relaxed end
|  4> *xyz 0 1
|  5>  C       -0.7089773106     1.2369194470    -0.0996985007
|  6>  C        0.1586672981    -0.0166063315    -0.0114558750
|  7>  C        1.3150898383    -0.0540574699    -1.0289386995
|  8>  O        2.3408856984    -0.8624328505    -0.4555931208
|  9>  C        1.9292029529    -1.3173264174     0.8434807636
| 10>  C        3.1995206301    -1.5302606748     1.6538887947
| 11>  O        4.0332686760    -2.4939723883     1.0361277025
| 12>  C        0.8949376075    -0.2858181721     1.3288137881
| 13>  C        1.5062700161     0.9650493895     1.9729333863
| 14>  H       -0.1203383053     2.1496549606     0.0341056077
| 15>  H       -1.1960962193     1.3012425512    -1.0786384497
| 16>  H       -1.4981863015     1.2291972021     0.6592029741
| 17>  H       -0.4807547262    -0.8883757875    -0.2000561246
| 18>  H        1.0053822118    -0.4754684103    -1.9936264872
| 19>  H        1.7165145327     0.9521476669    -1.2171558206
| 20>  H        1.4368679478    -2.2983432429     0.7364516653
| 21>  H        3.7262281671    -0.5729915061     1.7783161686
| 22>  H        2.9511989802    -1.9150551316     2.6493470574
| 23>  H        4.1262333328    -2.2095855676     0.1191949855
| 24>  H        0.2110035383    -0.7532931145     2.0456439623
| 25>  H        2.2199799207     1.4621775230     1.3080916400
| 26>  H        0.7288027799     1.6893858129     2.2317978002
| 27>  H        2.0347712242     0.7130466818     2.8968804719
| 28> *
| 29>
| 30>                          ****END OF INPUT****

CARTESIAN COORDINATES (ANGSTROEM)
---------------------------------
  C     -0.708977    1.236919   -0.099699
  C      0.158667   -0.016606   -0.011456
  C      1.315090   -0.054057   -1.028939
  O      2.340886   -0.862433   -0.455593
  C      1.929203   -1.317326    0.843481
  C      3.199521   -1.530261    1.653889
  O      4.033269   -2.493972    1.036128
  C      0.894938   -0.285818    1.328814
  C      1.506270    0.965049    1.972933
  H     -0.120338    2.149655    0.034106
  H     -1.196096    1.301243   -1.078638
  H     -1.498186    1.229197    0.659203
  H     -0.480755   -0.888376   -0.200056
  H      1.005382   -0.475468   -1.993626
  H      1.716515    0.952148   -1.217156
  H      1.436868   -2.298343    0.736452
  H      3.726228   -0.572992    1.778316
  H      2.951199   -1.915055    2.649347
  H      4.126233   -2.209586    0.119195
  H      0.211004   -0.753293    2.045644
  H      2.219980    1.462178    1.308092
  H      0.728803    1.689386    2.231798
  H      2.034771    0.713047    2.896880

 Total Charge           Charge          ....    0
 Multiplicity           Mult            ....    1
 Number of Electrons    NEL             ....   72
 Basis Dimension        Dim             ....  363

ORBITAL ENERGIES
----------------

  NO   OCC          E(Eh)            E(eV)
   0   2.0000     -20.552311      -559.2568
   1   2.0000     -20.543776      -559.0246
   2   2.0000     -11.275857      -306.8317
   3   2.0000     -11.273912      -306.7787
   4   2.0000     -11.268373      -306.6280
   5   2.0000     -11.237036      -305.7753
   6   2.0000     -11.236328      -305.7560
   7   2.0000     -11.224637      -305.4379
   8   2.0000     -11.221340      -305.3482
   9   2.0000      -1.381200       -37.5844
  10   2.0000      -1.345251       -36.6061
  11   2.0000      -1.099328       -29.9142
  12   2.0000      -1.038292       -28.2534
  13   2.0000      -0.964723       -26.2514
  14   2.0000      -0.921816       -25.0839
  15   2.0000      -0.893946       -24.3255
  16   2.0000      -0.778826       -21.1929
  17   2.0000      -0.766353       -20.8535
  18   2.0000      -0.704961       -19.1830
  19   2.0000      -0.685822       -18.6622
  20   2.0000      -0.651081       -17.7168
  21   2.0000      -0.613753       -16.7011
  22   2.0000      -0.609567       -16.5872
  23   2.0000      -0.584996       -15.9185
  24   2.0000      -0.575647       -15.6642
  25   2.0000      -0.567039       -15.4299
  26   2.0000      -0.561427       -15.2772
  27   2.0000      -0.542257       -14.7556
  28   2.0000      -0.531085       -14.4516
  29   2.0000      -0.514821       -14.0090
  30   2.0000      -0.484295       -13.1783
  31   2.0000      -0.470754       -12.8099
  32   2.0000      -0.464034       -12.6270
  33   2.0000      -0.456809       -12.4304
  34   2.0000      -0.426445       -11.6042
  35   2.0000      -0.410675       -11.1750
  36   0.0000       0.124094         3.3768
  37   0.0000       0.147369         4.0101
  38   0.0000       0.155336         4.2269
  39   0.0000       0.167767         4.5652
  40   0.0000       0.184841         5.0298

MULLIKEN ATOMIC CHARGES
-----------------------
   0 C :   -0.426651
   1 C :   -0.089668
   2 C :   -0.051891
   3 O :   -0.347952
   4 C :    0.011717
   5 C :   -0.006123
   6 O :   -0.480301
   7 C :    0.015878
   8 C :   -0.510337
   9 H :    0.135705
  10 H :    0.141146
  11 H :    0.138648
  12 H :    0.102319
  13 H :    0.105423
  14 H :    0.093075
  15 H :    0.081513
  16 H :    0.103269
  17 H :    0.105291
  18 H :    0.328434
  19 H :    0.109894
  20 H :    0.149979
  21 H :    0.145047
  22 H :    0.145584
Sum of atomic charges:   -0.0000000

LOEWDIN ATOMIC CHARGES
----------------------
   0 C :   -0.293978
   1 C :   -0.259822
   2 C :   -0.276943
   3 O :    0.148137
   4 C :   -0.303323
   5 C :   -0.329817
   6 O :   -0.046801
   7 C :   -0.233368
   8 C :   -0.290123
   9 H :    0.124538
  10 H :    0.127066
  11 H :    0.126481
  12 H :    0.155615
  13 H :    0.122802
  14 H :    0.122334
  15 H :    0.142202
  16 H :    0.120589
  17 H :    0.131132
  18 H :    0.178432
  19 H :    0.154306
  20 H :    0.128720
  21 H :    0.125681
  22 H :    0.126140

  Mayer bond orders larger than 0.1
B(  0-C ,  1-C ) :   0.8980 B(  0-C ,  9-H ) :   0.9337 B(  0-C , 10-H ) :   0.9384
B(  0-C , 11-H ) :   0.9404 B(  1-C ,  2-C ) :   0.9567 B(  1-C ,  7-C ) :   0.8866
B(  1-C , 12-H ) :   0.9266 B(  2-C ,  3-O ) :   0.9507 B(  2-C , 13-H ) :   0.9215
B(  2-C , 14-H ) :   0.9188 B(  3-O ,  4-C ) :   0.9032 B(  4-C ,  5-C ) :   0.9272
B(  4-C ,  7-C ) :   0.9071 B(  4-C , 15-H ) :   0.9309 B(  5-C ,  6-O ) :   0.9276
B(  5-C , 16-H ) :   0.9199 B(  5-C , 17-H ) :   0.9277 B(  6-O , 18-H ) :   0.8330
B(  7-C ,  8-C ) :   0.8573 B(  7-C , 19-H ) :   0.9148 B(  8-C , 20-H ) :   0.9375
B(  8-C , 21-H ) :   0.9388 B(  8-C , 22-H ) :   0.9387

MP2 TOTAL ENERGY:     -424.737434616 Eh
FINAL SINGLE POINT ENERGY      -424.737434615796

DIPOLE MOMENT
-------------
                                X             Y             Z
Electronic contribution:      5.22483      -6.16591      -1.76541
Nuclear contribution   :     -6.19107       6.91819       1.74804
                        -----------------------------------------
Total Dipole Moment    :     -0.96624       0.75228      -0.01737
                        -----------------------------------------
Magnitude (a.u.)       :      1.22468
Magnitude (Debye)      :      3.11290

                             ****ORCA TERMINATED NORMALLY****
TOTAL RUN TIME: 0 days 0 hours 31 minutes 30 seconds 578 msec
