                         Program Version 3.0.3 - RELEASE   -
|  1> ! RI-MP2 RIJK def2-TZVP def2-TZVP/C def2-TZVP/JK TIGHTSCF
|  2> % maxcore 2000
|  3> % mp2 density relaxed end
|  4> *xyz 0 1
|  5>  C        0.0355486279     1.3763258162    -0.4642039036
|  6>  C        1.2548848155     1.7287038041     0.4336174814
|  7>  C        1.5007427289     0.2226350518     0.6506936837
|  8>  O        1.7680317453    -0.1132784442     1.9961738452
|  9>  C        1.5914431203    -1.4681189354     2.3224291159
| 10>  O        0.3023657238    -1.7709561584     2.7738806629
| 11>  C       -0.7089894821    -1.8097545594     1.7783086582
| 12>  C       -0.9755002535    -0.4600883015     1.0991494984
| 13>  C        0.0849872229    -0.0902927435     0.0629381038
| 14>  H       -0.8891349720     1.9250172114    -0.2688593747
| 15>  H        0.2575421978     1.4478291385    -1.5316087253
| 16>  H        2.0651121178     2.3081372567    -0.0132419963
| 17>  H        0.9609340063     2.2000364390     1.3742549937
| 18>  H        2.2960121034    -0.1738075739     0.0024804766
| 19>  H        1.8636746894    -2.1077477829     1.4628524468
| 20>  H        2.2537914407    -1.6770632023     3.1662819761
| 21>  H       -0.4591632888    -2.5682157081     1.0159282511
| 22>  H       -1.6070807993    -2.1512560356     2.3016040472
| 23>  H       -1.9525938574    -0.5089366643     0.6006519516
| 24>  H       -1.0500823639     0.3087725429     1.8765119618
| 25>  H        0.0931025270    -0.8547268310    -0.7214557944
| 26> *
| 27>
| 28>                          ****END OF INPUT****

CARTESIAN COORDINATES (ANGSTROEM)
---------------------------------
  C      0.035549    1.376326   -0.464204
  C      1.254885    1.728704    0.433617
  C      1.500743    0.222635    0.650694
  O      1.768032   -0.113278    1.996174
  C      1.591443   -1.468119    2.322429
  O      0.302366   -1.770956    2.773881
  C     -0.708989   -1.809755    1.778309
  C     -0.975500   -0.460088    1.099149
  C      0.084987   -0.090293    0.062938
  H     -0.889135    1.925017   -0.268859
  H      0.257542    1.447829   -1.531609
  H      2.065112    2.308137   -0.013242
  H      0.960934    2.200036    1.374255
  H      2.296012   -0.173808    0.002480
  H      1.863675   -2.107748    1.462852
  H      2.253791   -1.677063    3.166282
  H     -0.459163   -2.568216    1.015928
  H     -1.607081   -2.151256    2.301604
  H     -1.952594   -0.508937    0.600652
  H     -1.050082    0.308773    1.876512
  H      0.093103   -0.854727   -0.721456

 Total Charge           Charge          ....    0
 Multiplicity           Mult            ....    1
 Number of Electrons    NEL             ....   70
 Basis Dimension        Dim             ....  351

ORBITAL ENERGIES
----------------

  NO   OCC          E(Eh)            E(eV)
   0   2.0000     -20.555142      -559.3339
   1   2.0000     -20.555039      -559.3310
   2   2.0000     -11.324093      -308.1442
   3   2.0000     -11.278185      -306.8950
   4   2.0000     -11.276050      -306.8369
   5   2.0000     -11.229780      -305.5778
   6   2.0000     -11.224366      -305.4305
   7   2.0000     -11.224179      -305.4254
   8   2.0000     -11.219390      -305.2951
   9   2.0000      -1.411575       -38.4109
  10   2.0000      -1.345755       -36.6199
  11   2.0000      -1.133396       -30.8413
  12   2.0000      -1.026067       -27.9207
  13   2.0000      -0.954229       -25.9659
  14   2.0000      -0.890294       -24.2261
  15   2.0000      -0.855583       -23.2816
  16   2.0000      -0.820062       -22.3150
  17   2.0000      -0.738822       -20.1044
  18   2.0000      -0.696553       -18.9542
  19   2.0000      -0.685497       -18.6533
  20   2.0000      -0.672602       -18.3024
  21   2.0000      -0.660608       -17.9761
  22   2.0000      -0.597649       -16.2628
  23   2.0000      -0.585396       -15.9294
  24   2.0000      -0.584824       -15.9139
  25   2.0000      -0.549850       -14.9622
  26   2.0000      -0.533560       -14.5189
  27   2.0000      -0.510689       -13.8966
  28   2.0000      -0.503815       -13.7095
  29   2.0000      -0.485463       -13.2101
  30   2.0000      -0.465244       -12.6599
  31   2.0000      -0.453007       -12.3270
  32   2.0000      -0.432069       -11.7572
  33   2.0000      -0.426633       -11.6093
  34   2.0000      -0.401666       -10.9299
  35   0.0000       0.136292         3.7087
  36   0.0000       0.150167         4.0863
  37   0.0000       0.159160         4.3310
  38   0.0000       0.174536         4.7494
  39   0.0000       0.191532         5.2119

MULLIKEN ATOMIC CHARGES
-----------------------
   0 C :   -0.230652
   1 C :   -0.244023
   2 C :    0.043096
   3 O :   -0.290895
   4 C :    0.048687
   5 O :   -0.296305
   6 C :   -0.066093
   7 C :   -0.246832
   8 C :   -0.056994
   9 H :    0.114216
  10 H :    0.121318
  11 H :    0.120395
  12 H :    0.127311
  13 H :    0.079384
  14 H :    0.086196
  15 H :    0.125198
  16 H :    0.092220
  17 H :    0.132544
  18 H :    0.119399
  19 H :    0.118672
  20 H :    0.103158
Sum of atomic charges:   -0.0000000

LOEWDIN ATOMIC CHARGES
----------------------
   0 C :   -0.219013
   1 C :   -0.217428
   2 C :   -0.288256
   3 O :    0.180675
   4 C :   -0.398939
   5 O :    0.159116
   6 C :   -0.316569
   7 C :   -0.251889
   8 C :   -0.221082
   9 H :    0.127992
  10 H :    0.131765
  11 H :    0.125609
  12 H :    0.141389
  13 H :    0.131573
  14 H :    0.107381
  15 H :    0.122622
  16 H :    0.120647
  17 H :    0.131054
  18 H :    0.144668
  19 H :    0.147921
  20 H :    0.140765

  Mayer bond orders larger than 0.1
B(  0-C ,  1-C ) :   0.9382 B(  0-C ,  8-C ) :   0.8984 B(  0-C ,  9-H ) :   0.9240
B(  0-C , 10-H ) :   0.9247 B(  1-C ,  2-C ) :   0.9127 B(  1-C , 11-H ) :   0.9280
B(  1-C , 12-H ) :   0.9240 B(  2-C ,  3-O ) :   0.9995 B(  2-C ,  8-C ) :   0.9180
B(  2-C , 13-H ) :   0.9455 B(  3-O ,  4-C ) :   0.9638 B(  4-C ,  5-O ) :   0.9945
B(  4-C , 14-H ) :   0.9363 B(  4-C , 15-H ) :   0.9336 B(  5-O ,  6-C ) :   0.9235
B(  6-C ,  7-C ) :   0.9228 B(  6-C , 16-H ) :   0.9418 B(  6-C , 17-H ) :   0.9321
B(  7-C ,  8-C ) :   0.9114 B(  7-C , 18-H ) :   0.9218 B(  7-C , 19-H ) :   0.9076
B(  8-C , 20-H ) :   0.9244

MP2 TOTAL ENERGY:     -423.512158577 Eh
FINAL SINGLE POINT ENERGY      -423.512158577121

DIPOLE MOMENT
-------------
                                X             Y             Z
Electronic contribution:      2.38759      -1.71403       4.15781
Nuclear contribution   :     -2.57546       1.58345      -5.00319
                        -----------------------------------------
Total Dipole Moment    :     -0.18787      -0.13058      -0.84538
                        -----------------------------------------
Magnitude (a.u.)       :      0.87579
Magnitude (Debye)      :      2.22609

                             ****ORCA TERMINATED NORMALLY****
TOTAL RUN TIME: 0 days 0 hours 18 minutes 56 seconds 341 msec
