                         Program Version 3.0.3 - RELEASE   -
|  1> ! RI-MP2 RIJK def2-TZVP def2-TZVP/C def2-TZVP/JK TIGHTSCF
|  2> % maxcore 2000
|  3> % mp2 density relaxed end
|  4> *xyz 0 1
|  5>  C       -0.0136376712     1.6680002111    -0.1601167923
|  6>  C        0.0178381347     0.1355432734    -0.0140364797
|  7>  C       -1.3118932004    -0.4635459723     0.0287269714
|  8>  C       -2.4194538616    -0.9390800012     0.0485774286
|  9>  C       -3.7455380539    -1.4906898584     0.1115272956
| 10>  N       -4.2179581277    -2.3074568648    -1.0380591958
| 11>  C       -4.0158273140    -2.9571333617     0.2619987696
| 12>  C       -2.9175286289    -3.9904593693     0.3408449801
| 13>  C       -3.3506846403    -5.3395696457    -0.2426143007
| 14>  H        1.0037156291     2.0696537166    -0.1892780022
| 15>  H       -0.5268162877     1.9593612506    -1.0804813555
| 16>  H       -0.5415481788     2.1276281251     0.6799266168
| 17>  H        0.5823414592    -0.2999272743    -0.8486664520
| 18>  H        0.5710270203    -0.1342348514     0.8951449099
| 19>  H       -4.4801564170    -0.8325491219     0.5726866020
| 20>  H       -5.2043259077    -2.1193106742    -1.1980285543
| 21>  H       -4.9109841480    -3.2000299016     0.8361903614
| 22>  H       -2.0429016223    -3.6112517577    -0.1960329510
| 23>  H       -2.6191309885    -4.1099395757     1.3903419799
| 24>  H       -4.2100777166    -5.7526013683     0.2980679677
| 25>  H       -3.6367948983    -5.2278507131    -1.2929853614
| 26>  H       -2.5404391504    -6.0728186751    -0.1868539181
| 27> *
| 28>
| 29>                          ****END OF INPUT****

CARTESIAN COORDINATES (ANGSTROEM)
---------------------------------
  C     -0.013638    1.668000   -0.160117
  C      0.017838    0.135543   -0.014036
  C     -1.311893   -0.463546    0.028727
  C     -2.419454   -0.939080    0.048577
  C     -3.745538   -1.490690    0.111527
  N     -4.217958   -2.307457   -1.038059
  C     -4.015827   -2.957133    0.261999
  C     -2.917529   -3.990459    0.340845
  C     -3.350685   -5.339570   -0.242614
  H      1.003716    2.069654   -0.189278
  H     -0.526816    1.959361   -1.080481
  H     -0.541548    2.127628    0.679927
  H      0.582341   -0.299927   -0.848666
  H      0.571027   -0.134235    0.895145
  H     -4.480156   -0.832549    0.572687
  H     -5.204326   -2.119311   -1.198029
  H     -4.910984   -3.200030    0.836190
  H     -2.042902   -3.611252   -0.196033
  H     -2.619131   -4.109940    1.390342
  H     -4.210078   -5.752601    0.298068
  H     -3.636795   -5.227851   -1.292985
  H     -2.540439   -6.072819   -0.186854

 Total Charge           Charge          ....    0
 Multiplicity           Mult            ....    1
 Number of Electrons    NEL             ....   68
 Basis Dimension        Dim             ....  357

ORBITAL ENERGIES
----------------

  NO   OCC          E(Eh)            E(eV)
   0   2.0000     -15.560853      -423.4323
   1   2.0000     -11.277947      -306.8885
   2   2.0000     -11.264114      -306.5121
   3   2.0000     -11.247212      -306.0522
   4   2.0000     -11.221303      -305.3472
   5   2.0000     -11.218909      -305.2820
   6   2.0000     -11.218258      -305.2643
   7   2.0000     -11.213620      -305.1381
   8   2.0000     -11.209986      -305.0392
   9   2.0000      -1.265900       -34.4469
  10   2.0000      -1.073451       -29.2101
  11   2.0000      -1.035494       -28.1772
  12   2.0000      -1.003096       -27.2956
  13   2.0000      -0.912149       -24.8208
  14   2.0000      -0.885466       -24.0947
  15   2.0000      -0.851848       -23.1800
  16   2.0000      -0.786959       -21.4142
  17   2.0000      -0.714678       -19.4474
  18   2.0000      -0.668226       -18.1834
  19   2.0000      -0.634620       -17.2689
  20   2.0000      -0.620440       -16.8830
  21   2.0000      -0.600992       -16.3538
  22   2.0000      -0.569778       -15.5044
  23   2.0000      -0.547397       -14.8954
  24   2.0000      -0.532114       -14.4796
  25   2.0000      -0.519231       -14.1290
  26   2.0000      -0.513757       -13.9800
  27   2.0000      -0.505548       -13.7567
  28   2.0000      -0.494425       -13.4540
  29   2.0000      -0.475403       -12.9364
  30   2.0000      -0.462756       -12.5922
  31   2.0000      -0.411540       -11.1986
  32   2.0000      -0.365272        -9.9395
  33   2.0000      -0.347031        -9.4432
  34   0.0000       0.129322         3.5190
  35   0.0000       0.140277         3.8171
  36   0.0000       0.155375         4.2280
  37   0.0000       0.170087         4.6283
  38   0.0000       0.175034         4.7629

MULLIKEN ATOMIC CHARGES
-----------------------
   0 C :   -0.363527
   1 C :   -0.296271
   2 C :    0.068420
   3 C :    0.060493
   4 C :   -0.304316
   5 N :   -0.371334
   6 C :    0.048729
   7 C :   -0.208192
   8 C :   -0.404278
   9 H :    0.131187
  10 H :    0.131878
  11 H :    0.128167
  12 H :    0.142574
  13 H :    0.138938
  14 H :    0.134792
  15 H :    0.218148
  16 H :    0.119547
  17 H :    0.130479
  18 H :    0.105795
  19 H :    0.116002
  20 H :    0.140139
  21 H :    0.132631
Sum of atomic charges:    0.0000000

LOEWDIN ATOMIC CHARGES
----------------------
   0 C :   -0.300170
   1 C :   -0.278233
   2 C :   -0.068445
   3 C :   -0.064628
   4 C :   -0.245943
   5 N :    0.014237
   6 C :   -0.252037
   7 C :   -0.272362
   8 C :   -0.315731
   9 H :    0.120447
  10 H :    0.124550
  11 H :    0.123509
  12 H :    0.154007
  13 H :    0.152220
  14 H :    0.151500
  15 H :    0.166203
  16 H :    0.137729
  17 H :    0.148660
  18 H :    0.140070
  19 H :    0.118464
  20 H :    0.125265
  21 H :    0.120686

  Mayer bond orders larger than 0.1
B(  0-C ,  1-C ) :   0.9426 B(  0-C ,  9-H ) :   0.9394 B(  0-C , 10-H ) :   0.9351
B(  0-C , 11-H ) :   0.9359 B(  1-C ,  2-C ) :   0.9572 B(  1-C , 12-H ) :   0.9339
B(  1-C , 13-H ) :   0.9393 B(  2-C ,  3-C ) :   2.6681 B(  2-C ,  4-C ) :  -0.1619
B(  3-C ,  4-C ) :   1.0802 B(  4-C ,  5-N ) :   0.9965 B(  4-C ,  6-C ) :   0.9061
B(  4-C , 14-H ) :   0.9402 B(  5-N ,  6-C ) :   0.8667 B(  5-N , 15-H ) :   0.8663
B(  6-C ,  7-C ) :   0.9289 B(  6-C , 16-H ) :   0.9175 B(  7-C ,  8-C ) :   0.9209
B(  7-C , 17-H ) :   0.9315 B(  7-C , 18-H ) :   0.9329 B(  8-C , 19-H ) :   0.9378
B(  8-C , 20-H ) :   0.9383 B(  8-C , 21-H ) :   0.9415

MP2 TOTAL ENERGY:     -366.495448630 Eh
FINAL SINGLE POINT ENERGY      -366.495448629554

DIPOLE MOMENT
-------------
                                X             Y             Z
Electronic contribution:     -3.19958       2.14917      -0.25419
Nuclear contribution   :      3.01159      -2.02810       0.72013
                        -----------------------------------------
Total Dipole Moment    :     -0.18798       0.12107       0.46594
                        -----------------------------------------
Magnitude (a.u.)       :      0.51681
Magnitude (Debye)      :      1.31363

                             ****ORCA TERMINATED NORMALLY****
TOTAL RUN TIME: 0 days 0 hours 18 minutes 13 seconds 658 msec
