                         Program Version 3.0.3 - RELEASE   -
|  1> ! RI-MP2 RIJK def2-TZVP def2-TZVP/C def2-TZVP/JK TIGHTSCF
|  2> % maxcore 2000
|  3> % mp2 density relaxed end
|  4> *xyz 0 1
|  5>  C       -0.1191615346     1.3694197613     0.0279031721
|  6>  N        0.1171818901    -0.0641372587     0.0085712614
|  7>  C        0.7113099056    -0.6485611592     1.0889650633
|  8>  N        1.3558337346    -0.0616182453     2.0543142966
|  9>  C        1.8077211899    -1.1238109850     2.8359657738
| 10>  N        2.6096015897    -0.8550254580     3.9467919623
| 11>  C        1.4039546090    -2.3068271195     2.3102955623
| 12>  C        1.5609355845    -3.7388319319     2.6532958866
| 13>  O        0.6721359429    -1.9901419792     1.1506447799
| 14>  H        0.8173467096     1.8793178112     0.2617742058
| 15>  H       -0.4553143495     1.6847869659    -0.9622700056
| 16>  H       -0.8649666862     1.6743459002     0.7752762676
| 17>  H       -0.5864357211    -0.6356430681    -0.4329986841
| 18>  H        2.4639789629     0.0931519309     4.2685018640
| 19>  H        2.4781687023    -1.5066828743     4.7086070905
| 20>  H        0.6028617711    -4.2330891943     2.8626305759
| 21>  H        2.0514510556    -4.3058823026     1.8515998034
| 22>  H        2.1858485436    -3.8337332435     3.5461687244
| 23> *
| 24>
| 25>                          ****END OF INPUT****

CARTESIAN COORDINATES (ANGSTROEM)
---------------------------------
  C     -0.119162    1.369420    0.027903
  N      0.117182   -0.064137    0.008571
  C      0.711310   -0.648561    1.088965
  N      1.355834   -0.061618    2.054314
  C      1.807721   -1.123811    2.835966
  N      2.609602   -0.855025    3.946792
  C      1.403955   -2.306827    2.310296
  C      1.560936   -3.738832    2.653296
  O      0.672136   -1.990142    1.150645
  H      0.817347    1.879318    0.261774
  H     -0.455314    1.684787   -0.962270
  H     -0.864967    1.674346    0.775276
  H     -0.586436   -0.635643   -0.432999
  H      2.463979    0.093152    4.268502
  H      2.478169   -1.506683    4.708607
  H      0.602862   -4.233089    2.862631
  H      2.051451   -4.305882    1.851600
  H      2.185849   -3.833733    3.546169

 Total Charge           Charge          ....    0
 Multiplicity           Mult            ....    1
 Number of Electrons    NEL             ....   68
 Basis Dimension        Dim             ....  333

ORBITAL ENERGIES
----------------

  NO   OCC          E(Eh)            E(eV)
   0   2.0000     -20.610226      -560.8328
   1   2.0000     -15.583951      -424.0609
   2   2.0000     -15.557007      -423.3277
   3   2.0000     -15.532068      -422.6491
   4   2.0000     -11.361317      -309.1572
   5   2.0000     -11.282981      -307.0255
   6   2.0000     -11.260722      -306.4198
   7   2.0000     -11.254380      -306.2473
   8   2.0000     -11.227761      -305.5229
   9   2.0000      -1.466316       -39.9005
  10   2.0000      -1.256477       -34.1905
  11   2.0000      -1.236278       -33.6408
  12   2.0000      -1.161706       -31.6116
  13   2.0000      -1.033463       -28.1220
  14   2.0000      -0.953786       -25.9538
  15   2.0000      -0.903381       -24.5822
  16   2.0000      -0.801129       -21.7998
  17   2.0000      -0.790768       -21.5179
  18   2.0000      -0.733598       -19.9622
  19   2.0000      -0.668872       -18.2009
  20   2.0000      -0.663889       -18.0653
  21   2.0000      -0.636956       -17.3325
  22   2.0000      -0.614171       -16.7124
  23   2.0000      -0.602782       -16.4025
  24   2.0000      -0.589066       -16.0293
  25   2.0000      -0.557642       -15.1742
  26   2.0000      -0.552394       -15.0314
  27   2.0000      -0.550054       -14.9677
  28   2.0000      -0.535719       -14.5777
  29   2.0000      -0.501340       -13.6421
  30   2.0000      -0.453466       -12.3394
  31   2.0000      -0.444561       -12.0971
  32   2.0000      -0.386809       -10.5256
  33   2.0000      -0.275712        -7.5025
  34   0.0000       0.133701         3.6382
  35   0.0000       0.141642         3.8543
  36   0.0000       0.165014         4.4903
  37   0.0000       0.174117         4.7380
  38   0.0000       0.184736         5.0269

MULLIKEN ATOMIC CHARGES
-----------------------
   0 C :   -0.266199
   1 N :   -0.350062
   2 C :    0.376891
   3 N :   -0.358094
   4 C :    0.152946
   5 N :   -0.529338
   6 C :    0.053017
   7 C :   -0.412084
   8 O :   -0.251977
   9 H :    0.158497
  10 H :    0.136905
  11 H :    0.126684
  12 H :    0.242656
  13 H :    0.254252
  14 H :    0.241190
  15 H :    0.144609
  16 H :    0.148178
  17 H :    0.131928
Sum of atomic charges:    0.0000000

LOEWDIN ATOMIC CHARGES
----------------------
   0 C :   -0.315343
   1 N :    0.056605
   2 C :   -0.444305
   3 N :    0.095145
   4 C :   -0.348377
   5 N :   -0.089280
   6 C :   -0.274983
   7 C :   -0.287396
   8 O :    0.328588
   9 H :    0.127580
  10 H :    0.117403
  11 H :    0.110005
  12 H :    0.187644
  13 H :    0.172294
  14 H :    0.164841
  15 H :    0.129957
  16 H :    0.132920
  17 H :    0.136702

  Mayer bond orders larger than 0.1
B(  0-C ,  1-N ) :   0.8874 B(  0-C ,  9-H ) :   0.9327 B(  0-C , 10-H ) :   0.9328
B(  0-C , 11-H ) :   0.9356 B(  1-N ,  2-C ) :   1.1277 B(  1-N , 12-H ) :   0.8703
B(  2-C ,  3-N ) :   1.5855 B(  2-C ,  8-O ) :   1.1327 B(  3-N ,  4-C ) :   1.1899
B(  4-C ,  5-N ) :   1.0117 B(  4-C ,  6-C ) :   1.6085 B(  5-N , 13-H ) :   0.8763
B(  5-N , 14-H ) :   0.8820 B(  6-C ,  7-C ) :   0.8739 B(  6-C ,  8-O ) :   0.9287
B(  7-C , 15-H ) :   0.9352 B(  7-C , 16-H ) :   0.9373 B(  7-C , 17-H ) :   0.9440

MP2 TOTAL ENERGY:     -434.578779630 Eh
FINAL SINGLE POINT ENERGY      -434.578779630179

DIPOLE MOMENT
-------------
                                X             Y             Z
Electronic contribution:      0.43286      -0.33928      -0.65420
Nuclear contribution   :     -1.21948       0.16714       0.77558
                        -----------------------------------------
Total Dipole Moment    :     -0.78662      -0.17214       0.12138
                        -----------------------------------------
Magnitude (a.u.)       :      0.81433
Magnitude (Debye)      :      2.06986

                             ****ORCA TERMINATED NORMALLY****
TOTAL RUN TIME: 0 days 0 hours 15 minutes 35 seconds 84 msec
