                         Program Version 3.0.3 - RELEASE   -
|  1> ! RI-MP2 RIJK def2-TZVP def2-TZVP/C def2-TZVP/JK TIGHTSCF
|  2> % maxcore 2000
|  3> % mp2 density relaxed end
|  4> *xyz 0 1
|  5>  O       -0.0056252832     0.0510035163    -0.0403219744
|  6>  C       -0.0210303697     1.2498216853     0.0338285409
|  7>  C       -1.2004242483     2.2119312784     0.0617240281
|  8>  C       -0.6860840369     3.2779451522     1.0371842609
|  9>  O        0.7584992899     3.2223567125     0.9670379603
| 10>  C        1.1363114825     2.2411726882     0.0125637083
| 11>  C        1.1451252115     2.8519517787    -1.4130883589
| 12>  O       -0.0717269535     3.5347272920    -1.6637286217
| 13>  C       -1.2351368867     2.7784021286    -1.3903911354
| 14>  H       -2.1493156668     1.7488199002     0.3325523166
| 15>  H       -1.0135458959     4.2884023637     0.7716709931
| 16>  H       -0.9948864511     3.0623952149     2.0666328559
| 17>  H        2.1047847814     1.8133234482     0.2778144829
| 18>  H        1.9362972592     3.6011052765    -1.4990783609
| 19>  H        1.3242282003     2.0544145010    -2.1527454095
| 20>  H       -1.3552263614     1.9494477344    -2.1057276634
| 21>  H       -2.0779138613     3.4653068190    -1.5111099529
| 22> *
| 23>
| 24>                          ****END OF INPUT****

CARTESIAN COORDINATES (ANGSTROEM)
---------------------------------
  O     -0.005625    0.051004   -0.040322
  C     -0.021030    1.249822    0.033829
  C     -1.200424    2.211931    0.061724
  C     -0.686084    3.277945    1.037184
  O      0.758499    3.222357    0.967038
  C      1.136311    2.241173    0.012564
  C      1.145125    2.851952   -1.413088
  O     -0.071727    3.534727   -1.663729
  C     -1.235137    2.778402   -1.390391
  H     -2.149316    1.748820    0.332552
  H     -1.013546    4.288402    0.771671
  H     -0.994886    3.062395    2.066633
  H      2.104785    1.813323    0.277814
  H      1.936297    3.601105   -1.499078
  H      1.324228    2.054415   -2.152745
  H     -1.355226    1.949448   -2.105728
  H     -2.077914    3.465307   -1.511110

 Total Charge           Charge          ....    0
 Multiplicity           Mult            ....    1
 Number of Electrons    NEL             ....   68
 Basis Dimension        Dim             ....  327

ORBITAL ENERGIES
----------------

  NO   OCC          E(Eh)            E(eV)
   0   2.0000     -20.576199      -559.9068
   1   2.0000     -20.571969      -559.7917
   2   2.0000     -20.564748      -559.5952
   3   2.0000     -11.340473      -308.5900
   4   2.0000     -11.303167      -307.5748
   5   2.0000     -11.300350      -307.4982
   6   2.0000     -11.296255      -307.3867
   7   2.0000     -11.295151      -307.3567
   8   2.0000     -11.257677      -306.3370
   9   2.0000      -1.421912       -38.6922
  10   2.0000      -1.399572       -38.0843
  11   2.0000      -1.378765       -37.5181
  12   2.0000      -1.092904       -29.7394
  13   2.0000      -1.047518       -28.5044
  14   2.0000      -0.955247       -25.9936
  15   2.0000      -0.869932       -23.6721
  16   2.0000      -0.832514       -22.6539
  17   2.0000      -0.767589       -20.8872
  18   2.0000      -0.724644       -19.7186
  19   2.0000      -0.686333       -18.6761
  20   2.0000      -0.664801       -18.0901
  21   2.0000      -0.651704       -17.7338
  22   2.0000      -0.633813       -17.2469
  23   2.0000      -0.615092       -16.7375
  24   2.0000      -0.600093       -16.3294
  25   2.0000      -0.589055       -16.0290
  26   2.0000      -0.565426       -15.3860
  27   2.0000      -0.553626       -15.0649
  28   2.0000      -0.539540       -14.6816
  29   2.0000      -0.508397       -13.8342
  30   2.0000      -0.476159       -12.9569
  31   2.0000      -0.451245       -12.2790
  32   2.0000      -0.433848       -11.8056
  33   2.0000      -0.396246       -10.7824
  34   0.0000       0.123979         3.3736
  35   0.0000       0.140897         3.8340
  36   0.0000       0.160005         4.3540
  37   0.0000       0.175167         4.7665
  38   0.0000       0.177937         4.8419

MULLIKEN ATOMIC CHARGES
-----------------------
   0 O :   -0.254076
   1 C :    0.060814
   2 C :   -0.024568
   3 C :   -0.065346
   4 O :   -0.322579
   5 C :    0.099787
   6 C :   -0.084110
   7 O :   -0.303045
   8 C :   -0.116499
   9 H :    0.144472
  10 H :    0.108845
  11 H :    0.114564
  12 H :    0.134487
  13 H :    0.135262
  14 H :    0.110241
  15 H :    0.123162
  16 H :    0.138589
Sum of atomic charges:    0.0000000

LOEWDIN ATOMIC CHARGES
----------------------
   0 O :    0.168596
   1 C :   -0.293615
   2 C :   -0.219654
   3 C :   -0.250687
   4 O :    0.170862
   5 C :   -0.284865
   6 C :   -0.282175
   7 O :    0.169852
   8 C :   -0.279430
   9 H :    0.159809
  10 H :    0.130034
  11 H :    0.126569
  12 H :    0.152494
  13 H :    0.136561
  14 H :    0.129910
  15 H :    0.130247
  16 H :    0.135492

  Mayer bond orders larger than 0.1
B(  0-O ,  1-C ) :   2.0368 B(  1-C ,  2-C ) :   0.8617 B(  1-C ,  5-C ) :   0.9086
B(  2-C ,  3-C ) :   0.9305 B(  2-C ,  8-C ) :   0.8752 B(  2-C ,  9-H ) :   0.8965
B(  3-C ,  4-O ) :   0.9199 B(  3-C , 10-H ) :   0.9106 B(  3-C , 11-H ) :   0.9227
B(  4-O ,  5-C ) :   0.9428 B(  5-C ,  6-C ) :   0.8960 B(  5-C , 12-H ) :   0.8945
B(  6-C ,  7-O ) :   0.9296 B(  6-C , 13-H ) :   0.9187 B(  6-C , 14-H ) :   0.9207
B(  7-O ,  8-C ) :   0.9374 B(  8-C , 15-H ) :   0.9359 B(  8-C , 16-H ) :   0.9194

MP2 TOTAL ENERGY:     -458.239609364 Eh
FINAL SINGLE POINT ENERGY      -458.239609364027

DIPOLE MOMENT
-------------
                                X             Y             Z
Electronic contribution:      1.53768      -2.32131       1.32595
Nuclear contribution   :     -1.97833       2.66002      -1.49948
                        -----------------------------------------
Total Dipole Moment    :     -0.44065       0.33871      -0.17353
                        -----------------------------------------
Magnitude (a.u.)       :      0.58224
Magnitude (Debye)      :      1.47994

                             ****ORCA TERMINATED NORMALLY****
TOTAL RUN TIME: 0 days 0 hours 19 minutes 6 seconds 154 msec
