                         Program Version 3.0.3 - RELEASE   -
|  1> ! RI-MP2 RIJK def2-TZVP def2-TZVP/C def2-TZVP/JK TIGHTSCF
|  2> % maxcore 2000
|  3> % mp2 density relaxed end
|  4> *xyz 0 1
|  5>  C        0.0145889258     1.5057310194     0.0763435455
|  6>  C       -0.0129129380     0.0130416960    -0.0085723291
|  7>  C        0.0342446925    -0.7527852868    -1.1035793159
|  8>  C       -0.0216902566    -2.2335521514    -0.8015659858
|  9>  C       -0.0575292527    -2.2752258549     0.7307254610
| 10>  N        1.1644083601    -1.6911409085     1.3558162374
| 11>  C       -0.0515988132    -0.8532981697     1.2126202007
| 12>  C       -0.7532586129    -3.3220493657     1.4131153400
| 13>  C       -1.3254819379    -4.2216044930     1.9717521917
| 14>  H        0.8971276340     1.8542005403     0.6272295035
| 15>  H        0.0301751444     1.9624565897    -0.9167684025
| 16>  H       -0.8624685933     1.8902531798     0.6123645157
| 17>  H        0.1313962423    -0.3753337799    -2.1159420149
| 18>  H       -0.9157766626    -2.7082917914    -1.2238951127
| 19>  H        0.8480145407    -2.7750385758    -1.1908296727
| 20>  H        1.2086782021    -2.0403718412     2.3129849945
| 21>  H       -0.5842822758    -0.5485184761     2.1079799562
| 22>  H       -1.8338070788    -5.0106107208     2.4680085874
| 23> *
| 24>
| 25>                          ****END OF INPUT****

CARTESIAN COORDINATES (ANGSTROEM)
---------------------------------
  C      0.014589    1.505731    0.076344
  C     -0.012913    0.013042   -0.008572
  C      0.034245   -0.752785   -1.103579
  C     -0.021690   -2.233552   -0.801566
  C     -0.057529   -2.275226    0.730725
  N      1.164408   -1.691141    1.355816
  C     -0.051599   -0.853298    1.212620
  C     -0.753259   -3.322049    1.413115
  C     -1.325482   -4.221604    1.971752
  H      0.897128    1.854201    0.627230
  H      0.030175    1.962457   -0.916768
  H     -0.862469    1.890253    0.612365
  H      0.131396   -0.375334   -2.115942
  H     -0.915777   -2.708292   -1.223895
  H      0.848015   -2.775039   -1.190830
  H      1.208678   -2.040372    2.312985
  H     -0.584282   -0.548518    2.107980
  H     -1.833807   -5.010611    2.468009

 Total Charge           Charge          ....    0
 Multiplicity           Mult            ....    1
 Number of Electrons    NEL             ....   64
 Basis Dimension        Dim             ....  333

ORBITAL ENERGIES
----------------

  NO   OCC          E(Eh)            E(eV)
   0   2.0000     -15.568718      -423.6463
   1   2.0000     -11.287070      -307.1368
   2   2.0000     -11.270414      -306.6836
   3   2.0000     -11.241276      -305.8907
   4   2.0000     -11.235371      -305.7300
   5   2.0000     -11.234027      -305.6934
   6   2.0000     -11.230902      -305.6084
   7   2.0000     -11.226525      -305.4893
   8   2.0000     -11.223808      -305.4153
   9   2.0000      -1.282555       -34.9001
  10   2.0000      -1.097403       -29.8618
  11   2.0000      -1.047354       -28.5000
  12   2.0000      -1.004688       -27.3390
  13   2.0000      -0.917143       -24.9567
  14   2.0000      -0.898334       -24.4449
  15   2.0000      -0.822816       -22.3899
  16   2.0000      -0.745560       -20.2877
  17   2.0000      -0.721623       -19.6363
  18   2.0000      -0.699620       -19.0376
  19   2.0000      -0.627004       -17.0616
  20   2.0000      -0.595704       -16.2099
  21   2.0000      -0.578591       -15.7443
  22   2.0000      -0.574192       -15.6246
  23   2.0000      -0.550387       -14.9768
  24   2.0000      -0.537265       -14.6197
  25   2.0000      -0.512001       -13.9322
  26   2.0000      -0.490939       -13.3591
  27   2.0000      -0.482801       -13.1377
  28   2.0000      -0.434763       -11.8305
  29   2.0000      -0.396389       -10.7863
  30   2.0000      -0.359347        -9.7783
  31   2.0000      -0.333940        -9.0870
  32   0.0000       0.136251         3.7076
  33   0.0000       0.149728         4.0743
  34   0.0000       0.152770         4.1571
  35   0.0000       0.165582         4.5057
  36   0.0000       0.167443         4.5564

MULLIKEN ATOMIC CHARGES
-----------------------
   0 C :   -0.437925
   1 C :    0.083200
   2 C :   -0.284002
   3 C :   -0.100848
   4 C :   -0.126505
   5 N :   -0.362674
   6 C :   -0.061178
   7 C :    0.048172
   8 C :   -0.116184
   9 H :    0.146758
  10 H :    0.139569
  11 H :    0.139433
  12 H :    0.123823
  13 H :    0.123451
  14 H :    0.126537
  15 H :    0.221521
  16 H :    0.142896
  17 H :    0.193956
Sum of atomic charges:    0.0000000

LOEWDIN ATOMIC CHARGES
----------------------
   0 C :   -0.270549
   1 C :   -0.173910
   2 C :   -0.120705
   3 C :   -0.177803
   4 C :   -0.248327
   5 N :    0.048280
   6 C :   -0.168913
   7 C :   -0.079670
   8 C :   -0.086902
   9 H :    0.134088
  10 H :    0.131432
  11 H :    0.131355
  12 H :    0.138302
  13 H :    0.148636
  14 H :    0.150661
  15 H :    0.173431
  16 H :    0.142783
  17 H :    0.127810

  Mayer bond orders larger than 0.1
B(  0-C ,  1-C ) :   0.8715 B(  0-C ,  9-H ) :   0.9284 B(  0-C , 10-H ) :   0.9526
B(  0-C , 11-H ) :   0.9345 B(  1-C ,  2-C ) :   1.7705 B(  1-C ,  6-C ) :   0.9150
B(  2-C ,  3-C ) :   0.9672 B(  2-C , 12-H ) :   0.9205 B(  3-C ,  4-C ) :   0.9832
B(  3-C , 13-H ) :   0.9146 B(  3-C , 14-H ) :   0.8926 B(  4-C ,  5-N ) :   0.9417
B(  4-C ,  6-C ) :   0.8917 B(  4-C ,  7-C ) :   1.1539 B(  4-C ,  8-C ) :  -0.1347
B(  5-N ,  6-C ) :   1.0083 B(  5-N , 15-H ) :   0.8687 B(  6-C , 16-H ) :   0.9050
B(  7-C ,  8-C ) :   2.5697 B(  8-C , 17-H ) :   0.8803

MP2 TOTAL ENERGY:     -364.094209687 Eh
FINAL SINGLE POINT ENERGY      -364.094209687157

DIPOLE MOMENT
-------------
                                X             Y             Z
Electronic contribution:     -0.19756      -5.12455       2.17659
Nuclear contribution   :     -0.23578       5.29026      -1.98804
                        -----------------------------------------
Total Dipole Moment    :     -0.43334       0.16571       0.18855
                        -----------------------------------------
Magnitude (a.u.)       :      0.50079
Magnitude (Debye)      :      1.27292

                             ****ORCA TERMINATED NORMALLY****
TOTAL RUN TIME: 0 days 0 hours 17 minutes 50 seconds 736 msec
