                         Program Version 3.0.3 - RELEASE   -
|  1> ! RI-MP2 RIJK def2-TZVP def2-TZVP/C def2-TZVP/JK TIGHTSCF
|  2> % maxcore 2000
|  3> % mp2 density relaxed end
|  4> *xyz 0 1
|  5>  C        0.0991393458     1.0970244499     0.8080004338
|  6>  C        0.0696775638    -0.0210676744    -0.2202670295
|  7>  O        1.0254063258    -0.2611682185    -0.9266083677
|  8>  C       -1.2008187885    -0.8448899434    -0.2817472762
|  9>  C       -1.3819980199    -1.8475131145    -1.4610420686
| 10>  C       -1.4420043414    -3.0029033695    -0.4549006749
| 11>  C       -0.1833010630    -3.0366760827     0.3692847936
| 12>  C       -1.2582767263    -2.0403641356     0.7203259158
| 13>  C       -1.9412024565    -1.9877456120     2.0563638380
| 14>  H        1.0979235775     1.5321751135     0.8596010647
| 15>  H       -0.6234467572     1.8740331149     0.5313962309
| 16>  H       -0.1993084998     0.7260782353     1.7947814116
| 17>  H       -2.0743560046    -0.1991995193    -0.1459908395
| 18>  H       -2.3210692314    -1.6833118209    -1.9935693591
| 19>  H       -0.5577671366    -1.8749597865    -2.1774870009
| 20>  H       -2.1039345940    -3.8584818976    -0.5202270240
| 21>  H       -0.1034092267    -3.8710045415     1.0594817216
| 22>  H        0.7618856084    -2.7149183853    -0.0590699022
| 23>  H       -1.3662193736    -1.4045501320     2.7867408617
| 24>  H       -2.9371973696    -1.5355092261     1.9809276494
| 25>  H       -2.0626674421    -2.9940944240     2.4709853114
| 26> *
| 27>
| 28>                          ****END OF INPUT****

CARTESIAN COORDINATES (ANGSTROEM)
---------------------------------
  C      0.099139    1.097024    0.808000
  C      0.069678   -0.021068   -0.220267
  O      1.025406   -0.261168   -0.926608
  C     -1.200819   -0.844890   -0.281747
  C     -1.381998   -1.847513   -1.461042
  C     -1.442004   -3.002903   -0.454901
  C     -0.183301   -3.036676    0.369285
  C     -1.258277   -2.040364    0.720326
  C     -1.941202   -1.987746    2.056364
  H      1.097924    1.532175    0.859601
  H     -0.623447    1.874033    0.531396
  H     -0.199308    0.726078    1.794781
  H     -2.074356   -0.199200   -0.145991
  H     -2.321069   -1.683312   -1.993569
  H     -0.557767   -1.874960   -2.177487
  H     -2.103935   -3.858482   -0.520227
  H     -0.103409   -3.871005    1.059482
  H      0.761886   -2.714918   -0.059070
  H     -1.366219   -1.404550    2.786741
  H     -2.937197   -1.535509    1.980928
  H     -2.062667   -2.994094    2.470985

 Total Charge           Charge          ....    0
 Multiplicity           Mult            ....    1
 Number of Electrons    NEL             ....   68
 Basis Dimension        Dim             ....  351

ORBITAL ENERGIES
----------------

  NO   OCC          E(Eh)            E(eV)
   0   2.0000     -20.538056      -558.8689
   1   2.0000     -11.323883      -308.1385
   2   2.0000     -11.247057      -306.0480
   3   2.0000     -11.240474      -305.8689
   4   2.0000     -11.232251      -305.6451
   5   2.0000     -11.231546      -305.6259
   6   2.0000     -11.227137      -305.5059
   7   2.0000     -11.224942      -305.4462
   8   2.0000     -11.223519      -305.4075
   9   2.0000      -1.381593       -37.5950
  10   2.0000      -1.196043       -32.5460
  11   2.0000      -1.028939       -27.9989
  12   2.0000      -0.997168       -27.1343
  13   2.0000      -0.971022       -26.4229
  14   2.0000      -0.890751       -24.2386
  15   2.0000      -0.797836       -21.7102
  16   2.0000      -0.759429       -20.6651
  17   2.0000      -0.702685       -19.1210
  18   2.0000      -0.669909       -18.2292
  19   2.0000      -0.648548       -17.6479
  20   2.0000      -0.625614       -17.0238
  21   2.0000      -0.613334       -16.6897
  22   2.0000      -0.586469       -15.9586
  23   2.0000      -0.570098       -15.5132
  24   2.0000      -0.565780       -15.3957
  25   2.0000      -0.557119       -15.1600
  26   2.0000      -0.534203       -14.5364
  27   2.0000      -0.529501       -14.4085
  28   2.0000      -0.498325       -13.5601
  29   2.0000      -0.472671       -12.8620
  30   2.0000      -0.456088       -12.4108
  31   2.0000      -0.419370       -11.4116
  32   2.0000      -0.404617       -11.0102
  33   2.0000      -0.363097        -9.8804
  34   0.0000       0.126472         3.4415
  35   0.0000       0.145214         3.9515
  36   0.0000       0.159016         4.3270
  37   0.0000       0.162600         4.4246
  38   0.0000       0.183251         4.9865

MULLIKEN ATOMIC CHARGES
-----------------------
   0 C :   -0.428545
   1 C :    0.213306
   2 O :   -0.305291
   3 C :   -0.072932
   4 C :   -0.212074
   5 C :   -0.126443
   6 C :   -0.290107
   7 C :    0.016468
   8 C :   -0.403634
   9 H :    0.152181
  10 H :    0.145150
  11 H :    0.140077
  12 H :    0.112320
  13 H :    0.118731
  14 H :    0.133392
  15 H :    0.127764
  16 H :    0.129187
  17 H :    0.154733
  18 H :    0.131039
  19 H :    0.130684
  20 H :    0.133991
Sum of atomic charges:   -0.0000000

LOEWDIN ATOMIC CHARGES
----------------------
   0 C :   -0.277457
   1 C :   -0.330873
   2 O :    0.144723
   3 C :   -0.157452
   4 C :   -0.183381
   5 C :   -0.164806
   6 C :   -0.184392
   7 C :   -0.202880
   8 C :   -0.277130
   9 H :    0.132067
  10 H :    0.137427
  11 H :    0.134219
  12 H :    0.158259
  13 H :    0.134774
  14 H :    0.137378
  15 H :    0.134386
  16 H :    0.140788
  17 H :    0.139187
  18 H :    0.125880
  19 H :    0.127023
  20 H :    0.132261

  Mayer bond orders larger than 0.1
B(  0-C ,  1-C ) :   0.9136 B(  0-C ,  9-H ) :   0.9401 B(  0-C , 10-H ) :   0.9159
B(  0-C , 11-H ) :   0.9177 B(  1-C ,  2-O ) :   1.9646 B(  1-C ,  3-C ) :   0.8745
B(  3-C ,  4-C ) :   0.9727 B(  3-C ,  7-C ) :   0.8944 B(  3-C , 12-H ) :   0.8969
B(  4-C ,  5-C ) :   0.9648 B(  4-C , 13-H ) :   0.9273 B(  4-C , 14-H ) :   0.9032
B(  5-C ,  6-C ) :   0.8721 B(  5-C ,  7-C ) :   0.8278 B(  5-C , 15-H ) :   0.9242
B(  6-C ,  7-C ) :   0.9161 B(  6-C , 16-H ) :   0.9350 B(  6-C , 17-H ) :   0.9016
B(  7-C ,  8-C ) :   0.8911 B(  8-C , 18-H ) :   0.9346 B(  8-C , 19-H ) :   0.9412
B(  8-C , 20-H ) :   0.9334

MP2 TOTAL ENERGY:     -386.405341933 Eh
FINAL SINGLE POINT ENERGY      -386.405341933225

DIPOLE MOMENT
-------------
                                X             Y             Z
Electronic contribution:      3.23551       0.50513      -4.55681
Nuclear contribution   :     -4.15608      -0.43509       5.23482
                        -----------------------------------------
Total Dipole Moment    :     -0.92057       0.07004       0.67801
                        -----------------------------------------
Magnitude (a.u.)       :      1.14545
Magnitude (Debye)      :      2.91150

                             ****ORCA TERMINATED NORMALLY****
TOTAL RUN TIME: 0 days 0 hours 23 minutes 24 seconds 913 msec
