                         Program Version 3.0.3 - RELEASE   -
|  1> ! RI-MP2 RIJK def2-TZVP def2-TZVP/C def2-TZVP/JK TIGHTSCF
|  2> % maxcore 2000
|  3> % mp2 density relaxed end
|  4> *xyz 0 1
|  5>  C        0.5500088396     1.4948861074    -0.4069661161
|  6>  C        0.1591378343     0.0952249013    -0.0159901330
|  7>  O        1.2150338503    -0.8543818327     0.2253967562
|  8>  C        0.3461252434    -0.5036951084     1.3160234223
|  9>  C        0.9817544164     0.2062652164     2.5011108914
| 10>  O       -0.0138218536     0.5625958801     3.4176382846
| 11>  C        2.0082891581    -0.7020096060     3.2138829491
| 12>  N        3.0143455178    -1.1726613328     2.4447816813
| 13>  O        1.8880766257    -0.9133542195     4.4104175883
| 14>  H        1.3684946167     1.8812197345     0.2033001471
| 15>  H        0.8696650580     1.5154883498    -1.4537930397
| 16>  H       -0.3086185263     2.1663245654    -0.3035922844
| 17>  H       -0.6496590055    -0.3274455848    -0.6145166978
| 18>  H       -0.3385429373    -1.2966502981     1.6198394812
| 19>  H        1.5297479902     1.0936854975     2.1508009091
| 20>  H        0.2828143785     0.1652494724     4.2572930485
| 21>  H        2.9415186761    -1.1055508803     1.4399475051
| 22>  H        3.6600482377    -1.8292947621     2.8532274669
| 23> *
| 24>
| 25>                          ****END OF INPUT****

CARTESIAN COORDINATES (ANGSTROEM)
---------------------------------
  C      0.550009    1.494886   -0.406966
  C      0.159138    0.095225   -0.015990
  O      1.215034   -0.854382    0.225397
  C      0.346125   -0.503695    1.316023
  C      0.981754    0.206265    2.501111
  O     -0.013822    0.562596    3.417638
  C      2.008289   -0.702010    3.213883
  N      3.014346   -1.172661    2.444782
  O      1.888077   -0.913354    4.410418
  H      1.368495    1.881220    0.203300
  H      0.869665    1.515488   -1.453793
  H     -0.308619    2.166325   -0.303592
  H     -0.649659   -0.327446   -0.614517
  H     -0.338543   -1.296650    1.619839
  H      1.529748    1.093685    2.150801
  H      0.282814    0.165249    4.257293
  H      2.941519   -1.105551    1.439948
  H      3.660048   -1.829295    2.853227

 Total Charge           Charge          ....    0
 Multiplicity           Mult            ....    1
 Number of Electrons    NEL             ....   70
 Basis Dimension        Dim             ....  333

ORBITAL ENERGIES
----------------

  NO   OCC          E(Eh)            E(eV)
   0   2.0000     -20.586132      -560.1771
   1   2.0000     -20.559229      -559.4451
   2   2.0000     -20.537658      -558.8581
   3   2.0000     -15.589990      -424.2252
   4   2.0000     -11.363633      -309.2202
   5   2.0000     -11.307350      -307.6886
   6   2.0000     -11.306935      -307.6773
   7   2.0000     -11.303553      -307.5853
   8   2.0000     -11.239806      -305.8507
   9   2.0000      -1.429810       -38.9071
  10   2.0000      -1.409784       -38.3622
  11   2.0000      -1.362118       -37.0651
  12   2.0000      -1.225511       -33.3478
  13   2.0000      -1.031917       -28.0799
  14   2.0000      -1.013333       -27.5742
  15   2.0000      -0.901185       -24.5225
  16   2.0000      -0.830656       -22.6033
  17   2.0000      -0.788796       -21.4642
  18   2.0000      -0.755938       -20.5701
  19   2.0000      -0.722868       -19.6702
  20   2.0000      -0.701939       -19.1007
  21   2.0000      -0.668613       -18.1939
  22   2.0000      -0.650479       -17.7004
  23   2.0000      -0.621810       -16.9203
  24   2.0000      -0.595282       -16.1984
  25   2.0000      -0.583506       -15.8780
  26   2.0000      -0.573241       -15.5987
  27   2.0000      -0.553885       -15.0720
  28   2.0000      -0.534028       -14.5316
  29   2.0000      -0.527157       -14.3447
  30   2.0000      -0.481029       -13.0895
  31   2.0000      -0.467595       -12.7239
  32   2.0000      -0.452022       -12.3002
  33   2.0000      -0.431353       -11.7377
  34   2.0000      -0.424091       -11.5401
  35   0.0000       0.134074         3.6483
  36   0.0000       0.148119         4.0305
  37   0.0000       0.156718         4.2645
  38   0.0000       0.166980         4.5438
  39   0.0000       0.181865         4.9488

MULLIKEN ATOMIC CHARGES
-----------------------
   0 C :   -0.386433
   1 C :    0.055072
   2 O :   -0.376788
   3 C :    0.051771
   4 C :    0.048865
   5 O :   -0.481656
   6 C :    0.273475
   7 N :   -0.464083
   8 O :   -0.382663
   9 H :    0.131895
  10 H :    0.144246
  11 H :    0.142644
  12 H :    0.121503
  13 H :    0.129904
  14 H :    0.103597
  15 H :    0.343130
  16 H :    0.284659
  17 H :    0.260862
Sum of atomic charges:   -0.0000000

LOEWDIN ATOMIC CHARGES
----------------------
   0 C :   -0.290952
   1 C :   -0.277559
   2 O :    0.136625
   3 C :   -0.243130
   4 C :   -0.321699
   5 O :    0.000541
   6 C :   -0.460011
   7 N :    0.007001
   8 O :    0.072065
   9 H :    0.125996
  10 H :    0.131994
  11 H :    0.136429
  12 H :    0.141741
  13 H :    0.145751
  14 H :    0.149603
  15 H :    0.188219
  16 H :    0.179825
  17 H :    0.177561

  Mayer bond orders larger than 0.1
B(  0-C ,  1-C ) :   0.8966 B(  0-C ,  9-H ) :   0.9438 B(  0-C , 10-H ) :   0.9303
B(  0-C , 11-H ) :   0.9234 B(  1-C ,  2-O ) :   0.8682 B(  1-C ,  3-C ) :   0.9525
B(  1-C , 12-H ) :   0.9189 B(  2-O ,  3-C ) :   0.8310 B(  3-C ,  4-C ) :   0.8545
B(  3-C , 13-H ) :   0.9040 B(  4-C ,  5-O ) :   1.1052 B(  4-C ,  6-C ) :   0.9281
B(  4-C , 14-H ) :   0.9341 B(  5-O , 15-H ) :   0.7878 B(  6-C ,  7-N ) :   1.2165
B(  6-C ,  8-O ) :   1.8629 B(  7-N , 16-H ) :   0.8411 B(  7-N , 17-H ) :   0.8555

MP2 TOTAL ENERGY:     -475.495859081 Eh
FINAL SINGLE POINT ENERGY      -475.495859081424

DIPOLE MOMENT
-------------
                                X             Y             Z
Electronic contribution:      1.19783      -3.80729       5.52697
Nuclear contribution   :     -0.85463       3.80431      -6.70981
                        -----------------------------------------
Total Dipole Moment    :      0.34320      -0.00298      -1.18285
                        -----------------------------------------
Magnitude (a.u.)       :      1.23163
Magnitude (Debye)      :      3.13057

                             ****ORCA TERMINATED NORMALLY****
TOTAL RUN TIME: 0 days 0 hours 16 minutes 30 seconds 774 msec
