                         Program Version 3.0.3 - RELEASE   -
|  1> ! RI-MP2 RIJK def2-TZVP def2-TZVP/C def2-TZVP/JK TIGHTSCF
|  2> % maxcore 2000
|  3> % mp2 density relaxed end
|  4> *xyz 0 1
|  5>  O       -0.1052796264    -0.0566076957     0.0009157926
|  6>  C       -0.0595160383     1.1414509974     0.0096147313
|  7>  N        1.1338976516     1.8848395016     0.0021795475
|  8>  C        1.1180668327     3.2731914603     0.0135754974
|  9>  C        2.2696300933     3.9580977757     0.0061650953
| 10>  C        3.5626310420     3.2550080752    -0.0147242518
| 11>  O        4.6272600474     3.8306422151    -0.0204124613
| 12>  N        3.5054612439     1.8308701865    -0.0246434813
| 13>  C        2.3722537234     1.2435532255    -0.0166053723
| 14>  H       -0.9456985504     1.8006875566     0.0251037615
| 15>  H        0.1337575339     3.7282390306     0.0284613794
| 16>  H        2.2785444619     5.0401380145     0.0150786808
| 17>  H        2.2921067650     0.1601954967    -0.0240904392
| 18> *
| 19>
| 20>                          ****END OF INPUT****

CARTESIAN COORDINATES (ANGSTROEM)
---------------------------------
  O     -0.105280   -0.056608    0.000916
  C     -0.059516    1.141451    0.009615
  N      1.133898    1.884840    0.002180
  C      1.118067    3.273191    0.013575
  C      2.269630    3.958098    0.006165
  C      3.562631    3.255008   -0.014724
  O      4.627260    3.830642   -0.020412
  N      3.505461    1.830870   -0.024643
  C      2.372254    1.243553   -0.016605
  H     -0.945699    1.800688    0.025104
  H      0.133758    3.728239    0.028461
  H      2.278544    5.040138    0.015079
  H      2.292107    0.160195   -0.024090

 Total Charge           Charge          ....    0
 Multiplicity           Mult            ....    1
 Number of Electrons    NEL             ....   64
 Basis Dimension        Dim             ....  303

ORBITAL ENERGIES
----------------

  NO   OCC          E(Eh)            E(eV)
   0   2.0000     -20.596722      -560.4653
   1   2.0000     -20.536384      -558.8234
   2   2.0000     -15.675696      -426.5574
   3   2.0000     -15.585223      -424.0955
   4   2.0000     -11.415692      -310.6368
   5   2.0000     -11.365809      -309.2794
   6   2.0000     -11.363583      -309.2188
   7   2.0000     -11.339863      -308.5734
   8   2.0000     -11.268935      -306.6433
   9   2.0000      -1.460248       -39.7354
  10   2.0000      -1.397257       -38.0213
  11   2.0000      -1.356846       -36.9217
  12   2.0000      -1.236694       -33.6521
  13   2.0000      -1.105407       -30.0796
  14   2.0000      -0.965727       -26.2788
  15   2.0000      -0.918863       -25.0035
  16   2.0000      -0.874577       -23.7984
  17   2.0000      -0.780181       -21.2298
  18   2.0000      -0.746751       -20.3201
  19   2.0000      -0.715142       -19.4600
  20   2.0000      -0.683567       -18.6008
  21   2.0000      -0.674010       -18.3408
  22   2.0000      -0.664541       -18.0831
  23   2.0000      -0.634072       -17.2540
  24   2.0000      -0.609944       -16.5974
  25   2.0000      -0.585715       -15.9381
  26   2.0000      -0.531223       -14.4553
  27   2.0000      -0.507370       -13.8062
  28   2.0000      -0.476102       -12.9554
  29   2.0000      -0.456983       -12.4351
  30   2.0000      -0.425129       -11.5683
  31   2.0000      -0.376113       -10.2346
  32   0.0000       0.064884         1.7656
  33   0.0000       0.088608         2.4111
  34   0.0000       0.119820         3.2605
  35   0.0000       0.135733         3.6935
  36   0.0000       0.156416         4.2563

MULLIKEN ATOMIC CHARGES
-----------------------
   0 O :   -0.267510
   1 C :    0.175186
   2 N :   -0.041107
   3 C :   -0.037606
   4 C :   -0.239537
   5 C :    0.232773
   6 O :   -0.281940
   7 N :   -0.191534
   8 C :    0.033176
   9 H :    0.108865
  10 H :    0.165479
  11 H :    0.159809
  12 H :    0.183945
Sum of atomic charges:   -0.0000000

LOEWDIN ATOMIC CHARGES
----------------------
   0 O :    0.141350
   1 C :   -0.333397
   2 N :    0.220530
   3 C :   -0.156042
   4 C :   -0.127789
   5 C :   -0.416482
   6 O :    0.139840
   7 N :    0.151512
   8 C :   -0.210462
   9 H :    0.125050
  10 H :    0.151532
  11 H :    0.161162
  12 H :    0.153197

  Mayer bond orders larger than 0.1
B(  0-O ,  1-C ) :   1.9580 B(  1-C ,  2-N ) :   0.9715 B(  1-C ,  9-H ) :   0.9187
B(  2-N ,  3-C ) :   1.0365 B(  2-N ,  8-C ) :   1.0130 B(  3-C ,  4-C ) :   1.6117
B(  3-C , 10-H ) :   0.8947 B(  4-C ,  5-C ) :   1.0406 B(  4-C , 11-H ) :   0.9106
B(  5-C ,  6-O ) :   1.9800 B(  5-C ,  7-N ) :   1.0360 B(  7-N ,  8-C ) :   1.7320
B(  8-C , 12-H ) :   0.9109

MP2 TOTAL ENERGY:     -452.061496641 Eh
FINAL SINGLE POINT ENERGY      -452.061496640818

DIPOLE MOMENT
-------------
                                X             Y             Z
Electronic contribution:      1.93982      -1.19377      -0.03303
Nuclear contribution   :     -4.09561       1.64959       0.05989
                        -----------------------------------------
Total Dipole Moment    :     -2.15579       0.45582       0.02686
                        -----------------------------------------
Magnitude (a.u.)       :      2.20362
Magnitude (Debye)      :      5.60115

                             ****ORCA TERMINATED NORMALLY****
TOTAL RUN TIME: 0 days 0 hours 13 minutes 0 seconds 989 msec
