                         Program Version 3.0.3 - RELEASE   -
|  1> ! RI-MP2 RIJK def2-TZVP def2-TZVP/C def2-TZVP/JK TIGHTSCF
|  2> % maxcore 2000
|  3> % mp2 density relaxed end
|  4> *xyz 0 1
|  5>  C       -0.0227819597     1.3833449796     0.0682379940
|  6>  O       -0.0188186014    -0.0337989539     0.0500472365
|  7>  C       -1.2809760185    -0.6054098907     0.0504933228
|  8>  C       -1.1405360013    -2.1126718026    -0.1328137897
|  9>  C       -2.5136369626    -2.7919072331    -0.0199490336
| 10>  C       -3.2239617677    -2.3544101844     1.2689917992
| 11>  C       -3.2303515935    -0.8275436287     1.3680185455
| 12>  O       -1.9153399281    -0.3003597413     1.2856944433
| 13>  H        1.0192310065     1.7029141692    -0.0003842649
| 14>  H       -0.5786439830     1.7898358066    -0.7906015650
| 15>  H       -0.4653848426     1.7732984794     0.9907254141
| 16>  H       -1.8994384523    -0.1751967219    -0.7672188023
| 17>  H       -0.6720065000    -2.3172344781    -1.1005109420
| 18>  H       -0.4636417532    -2.4752120924     0.6489007871
| 19>  H       -3.1305894817    -2.5126117568    -0.8852812422
| 20>  H       -2.4039799583    -3.8804990676    -0.0551884885
| 21>  H       -4.2520987882    -2.7328561275     1.2996809301
| 22>  H       -2.6980924832    -2.7611898934     2.1412143378
| 23>  H       -3.8599763363    -0.4027602179     0.5660066679
| 24>  H       -3.6357464548    -0.4867904845     2.3249465897
| 25> *
| 26>
| 27>                          ****END OF INPUT****

CARTESIAN COORDINATES (ANGSTROEM)
---------------------------------
  C     -0.022782    1.383345    0.068238
  O     -0.018819   -0.033799    0.050047
  C     -1.280976   -0.605410    0.050493
  C     -1.140536   -2.112672   -0.132814
  C     -2.513637   -2.791907   -0.019949
  C     -3.223962   -2.354410    1.268992
  C     -3.230352   -0.827544    1.368019
  O     -1.915340   -0.300360    1.285694
  H      1.019231    1.702914   -0.000384
  H     -0.578644    1.789836   -0.790602
  H     -0.465385    1.773298    0.990725
  H     -1.899438   -0.175197   -0.767219
  H     -0.672006   -2.317234   -1.100511
  H     -0.463642   -2.475212    0.648901
  H     -3.130589   -2.512612   -0.885281
  H     -2.403980   -3.880499   -0.055188
  H     -4.252099   -2.732856    1.299681
  H     -2.698092   -2.761190    2.141214
  H     -3.859976   -0.402760    0.566007
  H     -3.635746   -0.486790    2.324947

 Total Charge           Charge          ....    0
 Multiplicity           Mult            ....    1
 Number of Electrons    NEL             ....   64
 Basis Dimension        Dim             ....  320

ORBITAL ENERGIES
----------------

  NO   OCC          E(Eh)            E(eV)
   0   2.0000     -20.555230      -559.3362
   1   2.0000     -20.550492      -559.2073
   2   2.0000     -11.325370      -308.1790
   3   2.0000     -11.274352      -306.7907
   4   2.0000     -11.264180      -306.5139
   5   2.0000     -11.225436      -305.4596
   6   2.0000     -11.222292      -305.3741
   7   2.0000     -11.217188      -305.2352
   8   2.0000      -1.413125       -38.4531
   9   2.0000      -1.342684       -36.5363
  10   2.0000      -1.077228       -29.3129
  11   2.0000      -1.022777       -27.8312
  12   2.0000      -0.929941       -25.3050
  13   2.0000      -0.871690       -23.7199
  14   2.0000      -0.840850       -22.8807
  15   2.0000      -0.779888       -21.2218
  16   2.0000      -0.688973       -18.7479
  17   2.0000      -0.676906       -18.4196
  18   2.0000      -0.652023       -17.7425
  19   2.0000      -0.625774       -17.0282
  20   2.0000      -0.605638       -16.4803
  21   2.0000      -0.595638       -16.2081
  22   2.0000      -0.587345       -15.9825
  23   2.0000      -0.545535       -14.8448
  24   2.0000      -0.534527       -14.5452
  25   2.0000      -0.510452       -13.8901
  26   2.0000      -0.486248       -13.2315
  27   2.0000      -0.482360       -13.1257
  28   2.0000      -0.474715       -12.9176
  29   2.0000      -0.457507       -12.4494
  30   2.0000      -0.432972       -11.7818
  31   2.0000      -0.405752       -11.0411
  32   0.0000       0.138331         3.7642
  33   0.0000       0.154446         4.2027
  34   0.0000       0.169930         4.6240
  35   0.0000       0.171298         4.6612
  36   0.0000       0.196154         5.3376

MULLIKEN ATOMIC CHARGES
-----------------------
   0 C :   -0.219494
   1 O :   -0.285816
   2 C :    0.137296
   3 C :   -0.156243
   4 C :   -0.233907
   5 C :   -0.204117
   6 C :   -0.087275
   7 O :   -0.297387
   8 H :    0.137479
   9 H :    0.103051
  10 H :    0.140957
  11 H :    0.047322
  12 H :    0.124683
  13 H :    0.110799
  14 H :    0.108643
  15 H :    0.127548
  16 H :    0.116710
  17 H :    0.108621
  18 H :    0.092967
  19 H :    0.128162
Sum of atomic charges:    0.0000000

LOEWDIN ATOMIC CHARGES
----------------------
   0 C :   -0.346357
   1 O :    0.175248
   2 C :   -0.425452
   3 C :   -0.243321
   4 C :   -0.267083
   5 C :   -0.273335
   6 C :   -0.319280
   7 O :    0.170791
   8 H :    0.112600
   9 H :    0.101325
  10 H :    0.107483
  11 H :    0.119475
  12 H :    0.141656
  13 H :    0.145629
  14 H :    0.137209
  15 H :    0.136890
  16 H :    0.138011
  17 H :    0.139787
  18 H :    0.119470
  19 H :    0.129252

  Mayer bond orders larger than 0.1
B(  0-C ,  1-O ) :   0.8935 B(  0-C ,  8-H ) :   0.9385 B(  0-C ,  9-H ) :   0.9330
B(  0-C , 10-H ) :   0.9396 B(  1-O ,  2-C ) :   1.0713 B(  2-C ,  3-C ) :   0.9184
B(  2-C ,  7-O ) :   0.9354 B(  2-C , 11-H ) :   0.9510 B(  3-C ,  4-C ) :   0.9071
B(  3-C , 12-H ) :   0.9283 B(  3-C , 13-H ) :   0.9188 B(  4-C ,  5-C ) :   0.9213
B(  4-C , 14-H ) :   0.9357 B(  4-C , 15-H ) :   0.9314 B(  5-C ,  6-C ) :   0.9392
B(  5-C , 16-H ) :   0.9231 B(  5-C , 17-H ) :   0.9229 B(  6-C ,  7-O ) :   0.9231
B(  6-C , 18-H ) :   0.9384 B(  6-C , 19-H ) :   0.9308

MP2 TOTAL ENERGY:     -385.517040694 Eh
FINAL SINGLE POINT ENERGY      -385.517040693873

DIPOLE MOMENT
-------------
                                X             Y             Z
Electronic contribution:      2.45111       1.36356       1.13329
Nuclear contribution   :     -3.06087      -1.43976      -1.42127
                        -----------------------------------------
Total Dipole Moment    :     -0.60975      -0.07620      -0.28797
                        -----------------------------------------
Magnitude (a.u.)       :      0.67863
Magnitude (Debye)      :      1.72493

                             ****ORCA TERMINATED NORMALLY****
TOTAL RUN TIME: 0 days 0 hours 13 minutes 7 seconds 703 msec
