                         Program Version 3.0.3 - RELEASE   -
|  1> ! RI-MP2 RIJK def2-TZVP def2-TZVP/C def2-TZVP/JK TIGHTSCF
|  2> % maxcore 2000
|  3> % mp2 density relaxed end
|  4> *xyz 0 1
|  5>  C       -0.3743386059     1.4341981791     0.1415431428
|  6>  C        0.0806150191    -0.0085233826    -0.0437141119
|  7>  C       -1.0455740830    -1.0522050206     0.2580775759
|  8>  C       -0.3519624631    -1.4145848265     1.6005807948
|  9>  C        0.9049622275    -0.6138075958     1.1533403513
| 10>  C        2.0063936888    -1.4206258564     0.5006442376
| 11>  O        1.5222395271    -2.4285911857    -0.4042375233
| 12>  C        2.0068645895    -1.1976929584    -0.9560427554
| 13>  C        0.9109236796    -0.2208596066    -1.3346087547
| 14>  H        0.4778606256     2.1237649850     0.1529737622
| 15>  H       -1.0435113226     1.7421132043    -0.6707154247
| 16>  H       -0.9198074843     1.5613659854     1.0832452912
| 17>  H       -2.0559217037    -0.6391867058     0.3317053686
| 18>  H       -1.0509344675    -1.8835691213    -0.4478145224
| 19>  H       -0.8412197268    -0.9697187397     2.4705186376
| 20>  H       -0.1961424140    -2.4777369144     1.7921049764
| 21>  H        1.3213418460     0.0933081041     1.8776216498
| 22>  H        2.9007545242    -1.6991019008     1.0537919974
| 23>  H        2.9022465698    -1.2894516426    -1.5675525823
| 24>  H        0.2986629026    -0.5931317496    -2.1637378488
| 25>  H        1.3698522811     0.7192266790    -1.6667365224
| 26> *
| 27>
| 28>                          ****END OF INPUT****

CARTESIAN COORDINATES (ANGSTROEM)
---------------------------------
  C     -0.374339    1.434198    0.141543
  C      0.080615   -0.008523   -0.043714
  C     -1.045574   -1.052205    0.258078
  C     -0.351962   -1.414585    1.600581
  C      0.904962   -0.613808    1.153340
  C      2.006394   -1.420626    0.500644
  O      1.522240   -2.428591   -0.404238
  C      2.006865   -1.197693   -0.956043
  C      0.910924   -0.220860   -1.334609
  H      0.477861    2.123765    0.152974
  H     -1.043511    1.742113   -0.670715
  H     -0.919807    1.561366    1.083245
  H     -2.055922   -0.639187    0.331705
  H     -1.050934   -1.883569   -0.447815
  H     -0.841220   -0.969719    2.470519
  H     -0.196142   -2.477737    1.792105
  H      1.321342    0.093308    1.877622
  H      2.900755   -1.699102    1.053792
  H      2.902247   -1.289452   -1.567553
  H      0.298663   -0.593132   -2.163738
  H      1.369852    0.719227   -1.666737

 Total Charge           Charge          ....    0
 Multiplicity           Mult            ....    1
 Number of Electrons    NEL             ....   68
 Basis Dimension        Dim             ....  351

ORBITAL ENERGIES
----------------

  NO   OCC          E(Eh)            E(eV)
   0   2.0000     -20.559060      -559.4405
   1   2.0000     -11.279235      -306.9236
   2   2.0000     -11.277403      -306.8737
   3   2.0000     -11.232854      -305.6615
   4   2.0000     -11.225252      -305.4546
   5   2.0000     -11.223850      -305.4165
   6   2.0000     -11.216381      -305.2132
   7   2.0000     -11.215754      -305.1962
   8   2.0000     -11.210575      -305.0553
   9   2.0000      -1.405514       -38.2460
  10   2.0000      -1.143039       -31.1037
  11   2.0000      -1.020858       -27.7790
  12   2.0000      -0.978545       -26.6276
  13   2.0000      -0.941674       -25.6243
  14   2.0000      -0.851307       -23.1652
  15   2.0000      -0.842506       -22.9258
  16   2.0000      -0.780678       -21.2433
  17   2.0000      -0.713804       -19.4236
  18   2.0000      -0.702676       -19.1208
  19   2.0000      -0.632067       -17.1994
  20   2.0000      -0.617962       -16.8156
  21   2.0000      -0.604352       -16.4453
  22   2.0000      -0.586770       -15.9668
  23   2.0000      -0.569408       -15.4944
  24   2.0000      -0.548358       -14.9216
  25   2.0000      -0.524160       -14.2631
  26   2.0000      -0.516860       -14.0645
  27   2.0000      -0.500721       -13.6253
  28   2.0000      -0.478595       -13.0232
  29   2.0000      -0.469783       -12.7835
  30   2.0000      -0.429690       -11.6925
  31   2.0000      -0.425689       -11.5836
  32   2.0000      -0.405322       -11.0294
  33   2.0000      -0.402261       -10.9461
  34   0.0000       0.135471         3.6864
  35   0.0000       0.159672         4.3449
  36   0.0000       0.163933         4.4608
  37   0.0000       0.174722         4.7544
  38   0.0000       0.190486         5.1834

MULLIKEN ATOMIC CHARGES
-----------------------
   0 C :   -0.447876
   1 C :    0.155727
   2 C :   -0.254102
   3 C :   -0.258516
   4 C :   -0.000480
   5 C :   -0.070463
   6 O :   -0.334177
   7 C :    0.008028
   8 C :   -0.238984
   9 H :    0.126655
  10 H :    0.136018
  11 H :    0.133674
  12 H :    0.111078
  13 H :    0.111041
  14 H :    0.119218
  15 H :    0.116068
  16 H :    0.105980
  17 H :    0.127694
  18 H :    0.119439
  19 H :    0.123538
  20 H :    0.110440
Sum of atomic charges:   -0.0000000

LOEWDIN ATOMIC CHARGES
----------------------
   0 C :   -0.274763
   1 C :   -0.230191
   2 C :   -0.198271
   3 C :   -0.213405
   4 C :   -0.168024
   5 C :   -0.234692
   6 O :    0.168295
   7 C :   -0.254540
   8 C :   -0.199769
   9 H :    0.124017
  10 H :    0.127463
  11 H :    0.127602
  12 H :    0.124955
  13 H :    0.136196
  14 H :    0.130771
  15 H :    0.131222
  16 H :    0.145150
  17 H :    0.134185
  18 H :    0.132806
  19 H :    0.145220
  20 H :    0.145773

  Mayer bond orders larger than 0.1
B(  0-C ,  1-C ) :   0.8834 B(  0-C ,  9-H ) :   0.9379 B(  0-C , 10-H ) :   0.9428
B(  0-C , 11-H ) :   0.9354 B(  1-C ,  2-C ) :   0.9529 B(  1-C ,  4-C ) :   0.9050
B(  1-C ,  8-C ) :   0.9220 B(  2-C ,  3-C ) :   0.9947 B(  2-C , 12-H ) :   0.9281
B(  2-C , 13-H ) :   0.8894 B(  3-C ,  4-C ) :   0.9106 B(  3-C , 14-H ) :   0.9240
B(  3-C , 15-H ) :   0.9069 B(  4-C ,  5-C ) :   0.9202 B(  4-C , 16-H ) :   0.9036
B(  5-C ,  6-O ) :   0.8630 B(  5-C ,  7-C ) :   0.9554 B(  5-C , 17-H ) :   0.9258
B(  6-O ,  7-C ) :   0.9484 B(  7-C ,  8-C ) :   0.9308 B(  7-C , 18-H ) :   0.9363
B(  8-C , 19-H ) :   0.9021 B(  8-C , 20-H ) :   0.9135

MP2 TOTAL ENERGY:     -386.404753370 Eh
FINAL SINGLE POINT ENERGY      -386.404753369754

DIPOLE MOMENT
-------------
                                X             Y             Z
Electronic contribution:      4.19613      -4.89111      -0.96140
Nuclear contribution   :     -4.02171       5.58692       1.04321
                        -----------------------------------------
Total Dipole Moment    :      0.17441       0.69581       0.08182
                        -----------------------------------------
Magnitude (a.u.)       :      0.72199
Magnitude (Debye)      :      1.83514

                             ****ORCA TERMINATED NORMALLY****
TOTAL RUN TIME: 0 days 0 hours 20 minutes 11 seconds 294 msec
