                         Program Version 3.0.3 - RELEASE   -
|  1> ! RI-MP2 RIJK def2-TZVP def2-TZVP/C def2-TZVP/JK TIGHTSCF
|  2> % maxcore 2000
|  3> % mp2 density relaxed end
|  4> *xyz 0 1
|  5>  N        0.1956674483     1.4401901901     0.0113110845
|  6>  C       -0.0099975291     0.0475776397     0.0120761589
|  7>  C       -1.0943931338    -0.8132555798    -0.0151509931
|  8>  N       -2.4505728094    -0.9651667440    -0.0531798888
|  9>  N       -2.7759890585    -2.3022783134    -0.0564798599
| 10>  N       -1.7032146163    -3.0111775919    -0.0220630530
| 11>  C       -0.6235427324    -2.1537262781     0.0048343278
| 12>  C        0.7641806733    -2.1256139075     0.0446981412
| 13>  N        1.0913880904    -0.7991437135     0.0478507461
| 14>  H       -0.1620981629     1.8936682226    -0.8224286618
| 15>  H       -0.2088223451     1.9014745206     0.8190087349
| 16>  H       -3.1964223298    -0.2930723106    -0.0788767256
| 17>  H        1.5121680843    -2.8987518584     0.0699917532
| 18>  H        2.0285441009    -0.4299383559     0.0730117256
| 19> *
| 20>
| 21>                          ****END OF INPUT****

CARTESIAN COORDINATES (ANGSTROEM)
---------------------------------
  N      0.195667    1.440190    0.011311
  C     -0.009998    0.047578    0.012076
  C     -1.094393   -0.813256   -0.015151
  N     -2.450573   -0.965167   -0.053180
  N     -2.775989   -2.302278   -0.056480
  N     -1.703215   -3.011178   -0.022063
  C     -0.623543   -2.153726    0.004834
  C      0.764181   -2.125614    0.044698
  N      1.091388   -0.799144    0.047851
  H     -0.162098    1.893668   -0.822429
  H     -0.208822    1.901475    0.819009
  H     -3.196422   -0.293072   -0.078877
  H      1.512168   -2.898752    0.069992
  H      2.028544   -0.429938    0.073012

 Total Charge           Charge          ....    0
 Multiplicity           Mult            ....    1
 Number of Electrons    NEL             ....   64
 Basis Dimension        Dim             ....  309

ORBITAL ENERGIES
----------------

  NO   OCC          E(Eh)            E(eV)
   0   2.0000     -15.651748      -425.9057
   1   2.0000     -15.629230      -425.2930
   2   2.0000     -15.622042      -425.0974
   3   2.0000     -15.598128      -424.4466
   4   2.0000     -15.574010      -423.7904
   5   2.0000     -11.293500      -307.3118
   6   2.0000     -11.270055      -306.6738
   7   2.0000     -11.262156      -306.4588
   8   2.0000     -11.241579      -305.8989
   9   2.0000      -1.419941       -38.6386
  10   2.0000      -1.310755       -35.6675
  11   2.0000      -1.200368       -32.6637
  12   2.0000      -1.188055       -32.3286
  13   2.0000      -1.076012       -29.2798
  14   2.0000      -0.967286       -26.3212
  15   2.0000      -0.902583       -24.5605
  16   2.0000      -0.826020       -22.4772
  17   2.0000      -0.797409       -21.6986
  18   2.0000      -0.732977       -19.9453
  19   2.0000      -0.687236       -18.7006
  20   2.0000      -0.676009       -18.3951
  21   2.0000      -0.659980       -17.9590
  22   2.0000      -0.632464       -17.2102
  23   2.0000      -0.617128       -16.7929
  24   2.0000      -0.575300       -15.6547
  25   2.0000      -0.553121       -15.0512
  26   2.0000      -0.514544       -14.0015
  27   2.0000      -0.442785       -12.0488
  28   2.0000      -0.437846       -11.9144
  29   2.0000      -0.425636       -11.5821
  30   2.0000      -0.341332        -9.2881
  31   2.0000      -0.279807        -7.6139
  32   0.0000       0.111898         3.0449
  33   0.0000       0.112152         3.0518
  34   0.0000       0.140193         3.8149
  35   0.0000       0.157062         4.2739
  36   0.0000       0.183275         4.9872

MULLIKEN ATOMIC CHARGES
-----------------------
   0 N :   -0.550841
   1 C :    0.070228
   2 C :   -0.003175
   3 N :   -0.150200
   4 N :   -0.094811
   5 N :   -0.133669
   6 C :    0.012061
   7 C :   -0.144739
   8 N :   -0.175374
   9 H :    0.252090
  10 H :    0.252098
  11 H :    0.256232
  12 H :    0.159060
  13 H :    0.251041
Sum of atomic charges:   -0.0000000

LOEWDIN ATOMIC CHARGES
----------------------
   0 N :   -0.123965
   1 C :   -0.330448
   2 C :   -0.235899
   3 N :    0.106878
   4 N :   -0.039013
   5 N :    0.026227
   6 C :   -0.265190
   7 C :   -0.213552
   8 N :    0.225982
   9 H :    0.165684
  10 H :    0.165686
  11 H :    0.182369
  12 H :    0.136495
  13 H :    0.198748

  Mayer bond orders larger than 0.1
B(  0-N ,  1-C ) :   1.0947 B(  0-N ,  9-H ) :   0.8882 B(  0-N , 10-H ) :   0.8882
B(  1-C ,  2-C ) :   1.3210 B(  1-C ,  7-C ) :   0.1440 B(  1-C ,  8-N ) :   1.1672
B(  2-C ,  3-N ) :   1.1076 B(  2-C ,  6-C ) :   1.1211 B(  3-N ,  4-N ) :   0.9916
B(  3-N , 11-H ) :   0.8574 B(  4-N ,  5-N ) :   1.3728 B(  5-N ,  6-C ) :   1.3464
B(  6-C ,  7-C ) :   1.3308 B(  7-C ,  8-N ) :   1.1869 B(  7-C , 12-H ) :   0.9075
B(  8-N , 13-H ) :   0.8598

MP2 TOTAL ENERGY:     -428.317286727 Eh
FINAL SINGLE POINT ENERGY      -428.317286727485

DIPOLE MOMENT
-------------
                                X             Y             Z
Electronic contribution:     -2.59796      -3.44661      -0.05822
Nuclear contribution   :      3.41764       5.47347       0.07178
                        -----------------------------------------
Total Dipole Moment    :      0.81968       2.02686       0.01355
                        -----------------------------------------
Magnitude (a.u.)       :      2.18637
Magnitude (Debye)      :      5.55731

                             ****ORCA TERMINATED NORMALLY****
TOTAL RUN TIME: 0 days 0 hours 15 minutes 35 seconds 983 msec
