                         Program Version 3.0.3 - RELEASE   -
|  1> ! RI-MP2 RIJK def2-TZVP def2-TZVP/C def2-TZVP/JK TIGHTSCF
|  2> % maxcore 2000
|  3> % mp2 density relaxed end
|  4> *xyz 0 1
|  5>  O       -0.0683607050     1.3049114528     0.0058361835
|  6>  N        0.0388489822    -0.0994625508     0.0013203243
|  7>  C       -1.1118764140    -0.6600197437     0.0081445275
|  8>  C       -2.4507651110    -0.0712023374     0.0194440523
|  9>  C       -3.3784347790    -1.0384650894     0.0237364552
| 10>  C       -2.7777245077    -2.4213840132     0.0158379918
| 11>  C       -1.2683803191    -2.1505398286     0.0052772534
| 12>  C       -0.2896303592    -3.0183432209    -0.7549834480
| 13>  C       -0.2782983109    -3.0225252524     0.7457666927
| 14>  H        0.8550103516     1.5764853488    -0.0000943437
| 15>  H       -2.6240439661     0.9950037474     0.0234692622
| 16>  H       -4.4501799225    -0.8741913099     0.0320029817
| 17>  H       -3.0942308678    -2.9979502535     0.8953703507
| 18>  H       -3.1073198362    -2.9936832708    -0.8616630920
| 19>  H       -0.6857248094    -3.8872586497    -1.2709639330
| 20>  H        0.5147954366    -2.5017648210    -1.2668138601
| 21>  H        0.5337925607    -2.5087851408     1.2482650069
| 22>  H       -0.6665806033    -3.8943271268     1.2628154745
| 23> *
| 24>
| 25>                          ****END OF INPUT****

CARTESIAN COORDINATES (ANGSTROEM)
---------------------------------
  O     -0.068361    1.304911    0.005836
  N      0.038849   -0.099463    0.001320
  C     -1.111876   -0.660020    0.008145
  C     -2.450765   -0.071202    0.019444
  C     -3.378435   -1.038465    0.023736
  C     -2.777725   -2.421384    0.015838
  C     -1.268380   -2.150540    0.005277
  C     -0.289630   -3.018343   -0.754983
  C     -0.278298   -3.022525    0.745767
  H      0.855010    1.576485   -0.000094
  H     -2.624044    0.995004    0.023469
  H     -4.450180   -0.874191    0.032003
  H     -3.094231   -2.997950    0.895370
  H     -3.107320   -2.993683   -0.861663
  H     -0.685725   -3.887259   -1.270964
  H      0.514795   -2.501765   -1.266814
  H      0.533793   -2.508785    1.248265
  H     -0.666581   -3.894327    1.262815

 Total Charge           Charge          ....    0
 Multiplicity           Mult            ....    1
 Number of Electrons    NEL             ....   66
 Basis Dimension        Dim             ....  333

ORBITAL ENERGIES
----------------

  NO   OCC          E(Eh)            E(eV)
   0   2.0000     -20.579924      -560.0082
   1   2.0000     -15.597282      -424.4236
   2   2.0000     -11.273671      -306.7722
   3   2.0000     -11.254344      -306.2463
   4   2.0000     -11.245977      -306.0186
   5   2.0000     -11.241491      -305.8965
   6   2.0000     -11.234953      -305.7186
   7   2.0000     -11.230088      -305.5862
   8   2.0000     -11.229409      -305.5678
   9   2.0000      -1.404266       -38.2120
  10   2.0000      -1.198259       -32.6063
  11   2.0000      -1.117429       -30.4068
  12   2.0000      -1.094493       -29.7827
  13   2.0000      -0.947338       -25.7784
  14   2.0000      -0.876397       -23.8480
  15   2.0000      -0.826948       -22.5024
  16   2.0000      -0.772974       -21.0337
  17   2.0000      -0.710756       -19.3407
  18   2.0000      -0.687106       -18.6971
  19   2.0000      -0.670242       -18.2382
  20   2.0000      -0.640600       -17.4316
  21   2.0000      -0.604891       -16.4599
  22   2.0000      -0.596006       -16.2181
  23   2.0000      -0.591098       -16.0846
  24   2.0000      -0.578737       -15.7482
  25   2.0000      -0.531174       -14.4540
  26   2.0000      -0.519420       -14.1341
  27   2.0000      -0.495642       -13.4871
  28   2.0000      -0.454511       -12.3679
  29   2.0000      -0.434019       -11.8102
  30   2.0000      -0.418982       -11.4011
  31   2.0000      -0.399251       -10.8642
  32   2.0000      -0.329097        -8.9552
  33   0.0000       0.106392         2.8951
  34   0.0000       0.143280         3.8988
  35   0.0000       0.159067         4.3284
  36   0.0000       0.166673         4.5354
  37   0.0000       0.176310         4.7976

MULLIKEN ATOMIC CHARGES
-----------------------
   0 O :   -0.378508
   1 N :   -0.106952
   2 C :    0.071988
   3 C :   -0.199998
   4 C :   -0.166413
   5 C :   -0.136199
   6 C :    0.086878
   7 C :   -0.291794
   8 C :   -0.291771
   9 H :    0.334120
  10 H :    0.147902
  11 H :    0.135652
  12 H :    0.125365
  13 H :    0.125368
  14 H :    0.130127
  15 H :    0.142049
  16 H :    0.142055
  17 H :    0.130131
Sum of atomic charges:   -0.0000000

LOEWDIN ATOMIC CHARGES
----------------------
   0 O :   -0.079619
   1 N :    0.022233
   2 C :   -0.242514
   3 C :   -0.116424
   4 C :   -0.115219
   5 C :   -0.188340
   6 C :   -0.185115
   7 C :   -0.193710
   8 C :   -0.193721
   9 H :    0.167883
  10 H :    0.148037
  11 H :    0.138813
  12 H :    0.146906
  13 H :    0.146899
  14 H :    0.132648
  15 H :    0.139294
  16 H :    0.139297
  17 H :    0.132652

  Mayer bond orders larger than 0.1
B(  0-O ,  1-N ) :   0.7894 B(  0-O ,  9-H ) :   0.8460 B(  1-N ,  2-C ) :   1.7946
B(  2-C ,  3-C ) :   1.0056 B(  2-C ,  6-C ) :   0.9497 B(  3-C ,  4-C ) :   1.6982
B(  3-C , 10-H ) :   0.9226 B(  4-C ,  5-C ) :   0.9514 B(  4-C , 11-H ) :   0.9257
B(  5-C ,  6-C ) :   0.9286 B(  5-C , 12-H ) :   0.9044 B(  5-C , 13-H ) :   0.9044
B(  6-C ,  7-C ) :   0.8234 B(  6-C ,  8-C ) :   0.8234 B(  7-C ,  8-C ) :   0.9426
B(  7-C , 14-H ) :   0.9253 B(  7-C , 15-H ) :   0.9221 B(  8-C , 16-H ) :   0.9221
B(  8-C , 17-H ) :   0.9253

MP2 TOTAL ENERGY:     -401.209618540 Eh
FINAL SINGLE POINT ENERGY      -401.209618539638

DIPOLE MOMENT
-------------
                                X             Y             Z
Electronic contribution:      1.12627       5.61815       0.00731
Nuclear contribution   :     -1.48105      -5.94550      -0.00557
                        -----------------------------------------
Total Dipole Moment    :     -0.35478      -0.32734       0.00173
                        -----------------------------------------
Magnitude (a.u.)       :      0.48273
Magnitude (Debye)      :      1.22700

                             ****ORCA TERMINATED NORMALLY****
TOTAL RUN TIME: 0 days 0 hours 18 minutes 16 seconds 289 msec
