                         Program Version 3.0.3 - RELEASE   -
|  1> ! RI-MP2 RIJK def2-TZVP def2-TZVP/C def2-TZVP/JK TIGHTSCF
|  2> % maxcore 2000
|  3> % mp2 density relaxed end
|  4> *xyz 0 1
|  5>  C       -0.0166602255     1.6097867691     0.0862388171
|  6>  C        0.0059129906     0.0985035994    -0.0345356283
|  7>  C        1.2312871963    -0.5994787903    -0.6444029565
|  8>  O        2.0330938495    -0.2122207595     0.5725698187
|  9>  C        0.7357926581    -0.7609353954     1.0645870866
| 10>  C        0.1318701316    -1.3200753488     2.3055617576
| 11>  C       -0.5288936935    -2.4266880499     1.9203954023
| 12>  C       -0.3635645204    -2.7721734097     0.4244072046
| 13>  C        0.8865681567    -1.9308611857     0.1078916981
| 14>  H        0.9558024919     1.9831285042     0.4122825915
| 15>  H       -0.2640757573     2.0730254677    -0.8755643296
| 16>  H       -0.7763347938     1.9310361555     0.8071621523
| 17>  H       -0.9615441309    -0.3030661394    -0.3513169040
| 18>  H        1.7312120445    -0.4399889149    -1.6013412618
| 19>  H        0.1013760039    -0.8672652943     3.2881226043
| 20>  H       -1.1792946216    -3.0056344789     2.5681579009
| 21>  H       -0.2263370063    -3.8441813306     0.2532597728
| 22>  H       -1.2639166636    -2.4763790537    -0.1270818408
| 23>  H        1.7993861298    -2.4914283348     0.3198408243
| 24> *
| 25>
| 26>                          ****END OF INPUT****

CARTESIAN COORDINATES (ANGSTROEM)
---------------------------------
  C     -0.016660    1.609787    0.086239
  C      0.005913    0.098504   -0.034536
  C      1.231287   -0.599479   -0.644403
  O      2.033094   -0.212221    0.572570
  C      0.735793   -0.760935    1.064587
  C      0.131870   -1.320075    2.305562
  C     -0.528894   -2.426688    1.920395
  C     -0.363565   -2.772173    0.424407
  C      0.886568   -1.930861    0.107892
  H      0.955802    1.983129    0.412283
  H     -0.264076    2.073025   -0.875564
  H     -0.776335    1.931036    0.807162
  H     -0.961544   -0.303066   -0.351317
  H      1.731212   -0.439989   -1.601341
  H      0.101376   -0.867265    3.288123
  H     -1.179295   -3.005634    2.568158
  H     -0.226337   -3.844181    0.253260
  H     -1.263917   -2.476379   -0.127082
  H      1.799386   -2.491428    0.319841

 Total Charge           Charge          ....    0
 Multiplicity           Mult            ....    1
 Number of Electrons    NEL             ....   66
 Basis Dimension        Dim             ....  339

ORBITAL ENERGIES
----------------

  NO   OCC          E(Eh)            E(eV)
   0   2.0000     -20.547157      -559.1166
   1   2.0000     -11.303120      -307.5735
   2   2.0000     -11.293431      -307.3099
   3   2.0000     -11.246748      -306.0396
   4   2.0000     -11.243992      -305.9646
   5   2.0000     -11.240922      -305.8810
   6   2.0000     -11.238333      -305.8106
   7   2.0000     -11.229602      -305.5730
   8   2.0000     -11.210974      -305.0661
   9   2.0000      -1.384838       -37.6834
  10   2.0000      -1.144651       -31.1475
  11   2.0000      -1.052122       -28.6297
  12   2.0000      -0.992455       -27.0061
  13   2.0000      -0.949121       -25.8269
  14   2.0000      -0.872640       -23.7457
  15   2.0000      -0.837688       -22.7947
  16   2.0000      -0.756421       -20.5833
  17   2.0000      -0.706348       -19.2207
  18   2.0000      -0.685830       -18.6624
  19   2.0000      -0.639664       -17.4061
  20   2.0000      -0.634071       -17.2540
  21   2.0000      -0.583747       -15.8846
  22   2.0000      -0.572202       -15.5704
  23   2.0000      -0.549164       -14.9435
  24   2.0000      -0.540699       -14.7132
  25   2.0000      -0.525838       -14.3088
  26   2.0000      -0.513996       -13.9865
  27   2.0000      -0.483935       -13.1685
  28   2.0000      -0.467340       -12.7170
  29   2.0000      -0.452996       -12.3266
  30   2.0000      -0.419026       -11.4023
  31   2.0000      -0.399056       -10.8589
  32   2.0000      -0.351532        -9.5657
  33   0.0000       0.130012         3.5378
  34   0.0000       0.147209         4.0058
  35   0.0000       0.154445         4.2027
  36   0.0000       0.171840         4.6760
  37   0.0000       0.173024         4.7082

MULLIKEN ATOMIC CHARGES
-----------------------
   0 C :   -0.460017
   1 C :    0.001736
   2 C :   -0.021745
   3 O :   -0.315614
   4 C :    0.170630
   5 C :   -0.243282
   6 C :   -0.134252
   7 C :   -0.208865
   8 C :   -0.079029
   9 H :    0.161085
  10 H :    0.130447
  11 H :    0.130246
  12 H :    0.094869
  13 H :    0.134594
  14 H :    0.142907
  15 H :    0.132431
  16 H :    0.135842
  17 H :    0.126006
  18 H :    0.102012
Sum of atomic charges:    0.0000000

LOEWDIN ATOMIC CHARGES
----------------------
   0 C :   -0.298115
   1 C :   -0.183968
   2 C :   -0.177203
   3 O :    0.131411
   4 C :   -0.231487
   5 C :   -0.118737
   6 C :   -0.120491
   7 C :   -0.220024
   8 C :   -0.151616
   9 H :    0.133056
  10 H :    0.125361
  11 H :    0.125361
  12 H :    0.146795
  13 H :    0.124481
  14 H :    0.141818
  15 H :    0.136303
  16 H :    0.137581
  17 H :    0.143354
  18 H :    0.156119

  Mayer bond orders larger than 0.1
B(  0-C ,  1-C ) :   0.8874 B(  0-C ,  9-H ) :   0.9383 B(  0-C , 10-H ) :   0.9355
B(  0-C , 11-H ) :   0.9358 B(  1-C ,  2-C ) :   0.9188 B(  1-C ,  4-C ) :   0.8836
B(  1-C , 12-H ) :   0.9080 B(  2-C ,  3-O ) :   0.8431 B(  2-C ,  8-C ) :   0.9176
B(  2-C , 13-H ) :   0.8845 B(  3-O ,  4-C ) :   0.9220 B(  4-C ,  5-C ) :   0.9004
B(  4-C ,  8-C ) :   0.8644 B(  5-C ,  6-C ) :   1.7506 B(  5-C , 14-H ) :   0.9215
B(  6-C ,  7-C ) :   0.9368 B(  6-C , 15-H ) :   0.9247 B(  7-C ,  8-C ) :   0.9365
B(  7-C , 16-H ) :   0.9242 B(  7-C , 17-H ) :   0.8930 B(  8-C , 18-H ) :   0.9171

MP2 TOTAL ENERGY:     -385.117253626 Eh
FINAL SINGLE POINT ENERGY      -385.117253626453

DIPOLE MOMENT
-------------
                                X             Y             Z
Electronic contribution:      3.60292      -1.70599       1.32854
Nuclear contribution   :     -4.46757       1.33899      -1.48845
                        -----------------------------------------
Total Dipole Moment    :     -0.86465      -0.36700      -0.15991
                        -----------------------------------------
Magnitude (a.u.)       :      0.95283
Magnitude (Debye)      :      2.42190

                             ****ORCA TERMINATED NORMALLY****
TOTAL RUN TIME: 0 days 0 hours 19 minutes 37 seconds 831 msec
