                         Program Version 3.0.3 - RELEASE   -
|  1> ! RI-MP2 RIJK def2-TZVP def2-TZVP/C def2-TZVP/JK TIGHTSCF
|  2> % maxcore 2000
|  3> % mp2 density relaxed end
|  4> *xyz 0 1
|  5>  C       -0.3843331480     1.2330893196    -0.2650720207
|  6>  O        0.2219953491    -0.0177417709     0.0523922378
|  7>  C        0.8589526570    -0.6023195793    -1.0365328208
|  8>  C        1.3498148798    -2.0115055709    -0.8888304606
|  9>  C        1.2760073888    -2.7649633575     0.4189659479
| 10>  C        0.0691246843    -1.7438175449    -1.6927972480
| 11>  O       -1.1587155709    -2.0582914710    -1.1165307546
| 12>  C        0.0986180385    -1.8880034125    -3.1248284694
| 13>  N        0.1687368921    -1.9874527172    -4.2755344019
| 14>  H        0.3699838134     1.9589880403    -0.5952452885
| 15>  H       -1.1422074427     1.1272200695    -1.0519412466
| 16>  H       -0.8558949732     1.5951314448     0.6501364403
| 17>  H        1.4105687885     0.0874663945    -1.6723089456
| 18>  H        2.2208469178    -2.2311740068    -1.4998577701
| 19>  H        0.3476038778    -2.5586274439     0.9519346218
| 20>  H        1.3307292169    -3.8423180343     0.2389414032
| 21>  H        2.1103141161    -2.4831458124     1.0684140044
| 22>  H       -1.3062445853    -1.3982426871    -0.4237429587
| 23> *
| 24>
| 25>                          ****END OF INPUT****

CARTESIAN COORDINATES (ANGSTROEM)
---------------------------------
  C     -0.384333    1.233089   -0.265072
  O      0.221995   -0.017742    0.052392
  C      0.858953   -0.602320   -1.036533
  C      1.349815   -2.011506   -0.888830
  C      1.276007   -2.764963    0.418966
  C      0.069125   -1.743818   -1.692797
  O     -1.158716   -2.058291   -1.116531
  C      0.098618   -1.888003   -3.124828
  N      0.168737   -1.987453   -4.275534
  H      0.369984    1.958988   -0.595245
  H     -1.142207    1.127220   -1.051941
  H     -0.855895    1.595131    0.650136
  H      1.410569    0.087466   -1.672309
  H      2.220847   -2.231174   -1.499858
  H      0.347604   -2.558627    0.951935
  H      1.330729   -3.842318    0.238941
  H      2.110314   -2.483146    1.068414
  H     -1.306245   -1.398243   -0.423743

 Total Charge           Charge          ....    0
 Multiplicity           Mult            ....    1
 Number of Electrons    NEL             ....   68
 Basis Dimension        Dim             ....  333

ORBITAL ENERGIES
----------------

  NO   OCC          E(Eh)            E(eV)
   0   2.0000     -20.602065      -560.6107
   1   2.0000     -20.587309      -560.2091
   2   2.0000     -15.571766      -423.7293
   3   2.0000     -11.337118      -308.4987
   4   2.0000     -11.320472      -308.0457
   5   2.0000     -11.302243      -307.5497
   6   2.0000     -11.274190      -306.7863
   7   2.0000     -11.266512      -306.5774
   8   2.0000     -11.235198      -305.7253
   9   2.0000      -1.432652       -38.9844
  10   2.0000      -1.394159       -37.9370
  11   2.0000      -1.218969       -33.1698
  12   2.0000      -1.160489       -31.5785
  13   2.0000      -0.993844       -27.0439
  14   2.0000      -0.970807       -26.4170
  15   2.0000      -0.891815       -24.2675
  16   2.0000      -0.814776       -22.1712
  17   2.0000      -0.760453       -20.6930
  18   2.0000      -0.732672       -19.9370
  19   2.0000      -0.680283       -18.5114
  20   2.0000      -0.670194       -18.2369
  21   2.0000      -0.641281       -17.4501
  22   2.0000      -0.618550       -16.8316
  23   2.0000      -0.588472       -16.0131
  24   2.0000      -0.576802       -15.6956
  25   2.0000      -0.558803       -15.2058
  26   2.0000      -0.556333       -15.1386
  27   2.0000      -0.543368       -14.7858
  28   2.0000      -0.523534       -14.2461
  29   2.0000      -0.508361       -13.8332
  30   2.0000      -0.488390       -13.2898
  31   2.0000      -0.475256       -12.9324
  32   2.0000      -0.431083       -11.7304
  33   2.0000      -0.388427       -10.5696
  34   0.0000       0.117578         3.1995
  35   0.0000       0.140806         3.8315
  36   0.0000       0.144745         3.9387
  37   0.0000       0.172833         4.7030
  38   0.0000       0.180087         4.9004

MULLIKEN ATOMIC CHARGES
-----------------------
   0 C :   -0.239913
   1 O :   -0.329291
   2 C :   -0.002436
   3 C :   -0.085734
   4 C :   -0.380433
   5 C :    0.253703
   6 O :   -0.440346
   7 C :   -0.189365
   8 N :   -0.058123
   9 H :    0.133320
  10 H :    0.141451
  11 H :    0.152327
  12 H :    0.133145
  13 H :    0.150403
  14 H :    0.131919
  15 H :    0.147512
  16 H :    0.140930
  17 H :    0.340930
Sum of atomic charges:   -0.0000000

LOEWDIN ATOMIC CHARGES
----------------------
   0 C :   -0.334494
   1 O :    0.168775
   2 C :   -0.257481
   3 C :   -0.178046
   4 C :   -0.278235
   5 C :   -0.325224
   6 O :    0.056827
   7 C :   -0.149685
   8 N :    0.069198
   9 H :    0.110282
  10 H :    0.110333
  11 H :    0.117978
  12 H :    0.145094
  13 H :    0.163059
  14 H :    0.129166
  15 H :    0.133063
  16 H :    0.131824
  17 H :    0.187564

  Mayer bond orders larger than 0.1
B(  0-C ,  1-O ) :   0.8624 B(  0-C ,  9-H ) :   0.9359 B(  0-C , 10-H ) :   0.9318
B(  0-C , 11-H ) :   0.9368 B(  1-O ,  2-C ) :   0.9593 B(  2-C ,  3-C ) :   0.8952
B(  2-C ,  5-C ) :   0.8373 B(  2-C , 12-H ) :   0.9189 B(  3-C ,  4-C ) :   0.8996
B(  3-C ,  5-C ) :   0.8433 B(  3-C , 13-H ) :   0.9046 B(  4-C , 14-H ) :   0.9261
B(  4-C , 15-H ) :   0.9366 B(  4-C , 16-H ) :   0.9348 B(  5-C ,  6-O ) :   1.0875
B(  5-C ,  7-C ) :   0.9333 B(  6-O , 17-H ) :   0.8081 B(  7-C ,  8-N ) :   2.8437

MP2 TOTAL ENERGY:     -438.342703787 Eh
FINAL SINGLE POINT ENERGY      -438.342703786676

DIPOLE MOMENT
-------------
                                X             Y             Z
Electronic contribution:     -1.71823      -2.44847      -6.81562
Nuclear contribution   :      2.11800       3.51396       8.33484
                        -----------------------------------------
Total Dipole Moment    :      0.39978       1.06549       1.51922
                        -----------------------------------------
Magnitude (a.u.)       :      1.89819
Magnitude (Debye)      :      4.82481

                             ****ORCA TERMINATED NORMALLY****
TOTAL RUN TIME: 0 days 0 hours 16 minutes 39 seconds 835 msec
