                         Program Version 3.0.3 - RELEASE   -
|  1> ! RI-MP2 RIJK def2-TZVP def2-TZVP/C def2-TZVP/JK TIGHTSCF
|  2> % maxcore 2000
|  3> % mp2 density relaxed end
|  4> *xyz 0 1
|  5>  C        0.0165053148     1.5451732481    -0.0727374336
|  6>  N       -0.0070527475     0.0978457894     0.0451494761
|  7>  C       -1.2338405072    -0.5635117123     0.5286163935
|  8>  C       -1.4997352439    -0.1616282593     2.0170777385
|  9>  C       -0.0556013747    -0.1441909822     2.5196117715
| 10>  C       -0.8675088531    -1.4156651638     2.5703281362
| 11>  C       -0.3605505519    -1.7281430366     1.1243110471
| 12>  C       -0.1192417479    -3.0570838157     0.4769655899
| 13>  C        0.6685690657    -0.5405580080     1.1906308616
| 14>  H        1.0330069949     1.8758553522    -0.3119311288
| 15>  H       -0.6387851522     1.8556814153    -0.8937241648
| 16>  H       -0.3087210887     2.0658135886     0.8437529074
| 17>  H       -2.0687367865    -0.6758177219    -0.1644982288
| 18>  H       -2.2809051950     0.4515282769     2.4454929790
| 19>  H        0.2775081032     0.4824226656     3.3357738635
| 20>  H       -1.1493079008    -2.0464619139     3.4020251107
| 21>  H       -1.0369131016    -3.6557614132     0.4437525352
| 22>  H        0.2358606630    -2.9226526700    -0.5500295967
| 23>  H        0.6343712440    -3.6351060250     1.0243212406
| 24>  H        1.7555546355    -0.6296816339     1.1663004720
| 25> *
| 26>
| 27>                          ****END OF INPUT****

CARTESIAN COORDINATES (ANGSTROEM)
---------------------------------
  C      0.016505    1.545173   -0.072737
  N     -0.007053    0.097846    0.045149
  C     -1.233841   -0.563512    0.528616
  C     -1.499735   -0.161628    2.017078
  C     -0.055601   -0.144191    2.519612
  C     -0.867509   -1.415665    2.570328
  C     -0.360551   -1.728143    1.124311
  C     -0.119242   -3.057084    0.476966
  C      0.668569   -0.540558    1.190631
  H      1.033007    1.875855   -0.311931
  H     -0.638785    1.855681   -0.893724
  H     -0.308721    2.065814    0.843753
  H     -2.068737   -0.675818   -0.164498
  H     -2.280905    0.451528    2.445493
  H      0.277508    0.482423    3.335774
  H     -1.149308   -2.046462    3.402025
  H     -1.036913   -3.655761    0.443753
  H      0.235861   -2.922653   -0.550030
  H      0.634371   -3.635106    1.024321
  H      1.755555   -0.629682    1.166300

 Total Charge           Charge          ....    0
 Multiplicity           Mult            ....    1
 Number of Electrons    NEL             ....   66
 Basis Dimension        Dim             ....  345

ORBITAL ENERGIES
----------------

  NO   OCC          E(Eh)            E(eV)
   0   2.0000     -15.539383      -422.8481
   1   2.0000     -11.253390      -306.2203
   2   2.0000     -11.253381      -306.2201
   3   2.0000     -11.237445      -305.7864
   4   2.0000     -11.233458      -305.6779
   5   2.0000     -11.228653      -305.5472
   6   2.0000     -11.227685      -305.5208
   7   2.0000     -11.227427      -305.5138
   8   2.0000     -11.215234      -305.1820
   9   2.0000      -1.290027       -35.1034
  10   2.0000      -1.149178       -31.2707
  11   2.0000      -1.011996       -27.5378
  12   2.0000      -0.949764       -25.8444
  13   2.0000      -0.936038       -25.4709
  14   2.0000      -0.844633       -22.9836
  15   2.0000      -0.800493       -21.7825
  16   2.0000      -0.748356       -20.3638
  17   2.0000      -0.706334       -19.2203
  18   2.0000      -0.663368       -18.0512
  19   2.0000      -0.631552       -17.1854
  20   2.0000      -0.617789       -16.8109
  21   2.0000      -0.612183       -16.6583
  22   2.0000      -0.560337       -15.2476
  23   2.0000      -0.556263       -15.1367
  24   2.0000      -0.545579       -14.8460
  25   2.0000      -0.537835       -14.6352
  26   2.0000      -0.498874       -13.5751
  27   2.0000      -0.473043       -12.8721
  28   2.0000      -0.426801       -11.6138
  29   2.0000      -0.423516       -11.5245
  30   2.0000      -0.384867       -10.4728
  31   2.0000      -0.359255        -9.7758
  32   2.0000      -0.355898        -9.6845
  33   0.0000       0.144772         3.9394
  34   0.0000       0.146698         3.9919
  35   0.0000       0.176764         4.8100
  36   0.0000       0.180130         4.9016
  37   0.0000       0.195717         5.3257

MULLIKEN ATOMIC CHARGES
-----------------------
   0 C :   -0.332059
   1 N :   -0.157804
   2 C :   -0.015139
   3 C :   -0.236948
   4 C :   -0.236957
   5 C :   -0.180859
   6 C :    0.148521
   7 C :   -0.428339
   8 C :   -0.015112
   9 H :    0.134266
  10 H :    0.134266
  11 H :    0.112382
  12 H :    0.123953
  13 H :    0.135455
  14 H :    0.135455
  15 H :    0.135872
  16 H :    0.133497
  17 H :    0.152104
  18 H :    0.133493
  19 H :    0.123954
Sum of atomic charges:   -0.0000000

LOEWDIN ATOMIC CHARGES
----------------------
   0 C :   -0.330262
   1 N :    0.112930
   2 C :   -0.164913
   3 C :   -0.148698
   4 C :   -0.148698
   5 C :   -0.122335
   6 C :   -0.158869
   7 C :   -0.276646
   8 C :   -0.164910
   9 H :    0.117899
  10 H :    0.117899
  11 H :    0.107193
  12 H :    0.132201
  13 H :    0.134288
  14 H :    0.134288
  15 H :    0.131852
  16 H :    0.129155
  17 H :    0.136271
  18 H :    0.129154
  19 H :    0.132202

  Mayer bond orders larger than 0.1
B(  0-C ,  1-N ) :   0.8937 B(  0-C ,  9-H ) :   0.9386 B(  0-C , 10-H ) :   0.9386
B(  0-C , 11-H ) :   0.9204 B(  1-N ,  2-C ) :   1.0042 B(  1-N ,  8-C ) :   1.0042
B(  2-C ,  3-C ) :   0.8929 B(  2-C ,  6-C ) :   0.9109 B(  2-C , 12-H ) :   0.9068
B(  3-C ,  4-C ) :   0.9324 B(  3-C ,  5-C ) :   0.8480 B(  3-C , 13-H ) :   0.9355
B(  4-C ,  5-C ) :   0.8480 B(  4-C ,  8-C ) :   0.8929 B(  4-C , 14-H ) :   0.9355
B(  5-C ,  6-C ) :   0.9022 B(  5-C , 15-H ) :   0.9200 B(  6-C ,  7-C ) :   0.8125
B(  6-C ,  8-C ) :   0.9109 B(  7-C , 16-H ) :   0.9415 B(  7-C , 17-H ) :   0.9551
B(  7-C , 18-H ) :   0.9415 B(  8-C , 19-H ) :   0.9068

MP2 TOTAL ENERGY:     -365.267829062 Eh
FINAL SINGLE POINT ENERGY      -365.267829061987

DIPOLE MOMENT
-------------
                                X             Y             Z
Electronic contribution:     -0.61737      -0.20725       1.78128
Nuclear contribution   :      0.51742       0.26662      -1.49612
                        -----------------------------------------
Total Dipole Moment    :     -0.09995       0.05937       0.28515
                        -----------------------------------------
Magnitude (a.u.)       :      0.30794
Magnitude (Debye)      :      0.78272

                             ****ORCA TERMINATED NORMALLY****
TOTAL RUN TIME: 0 days 0 hours 19 minutes 36 seconds 587 msec
