                         Program Version 3.0.3 - RELEASE   -
|  1> ! RI-MP2 RIJK def2-TZVP def2-TZVP/C def2-TZVP/JK TIGHTSCF
|  2> % maxcore 2000
|  3> % mp2 density relaxed end
|  4> *xyz 0 1
|  5>  O        0.2191799520     1.1257600236     0.2065229409
|  6>  C       -0.0927059508    -0.2123568074     0.2777352239
|  7>  C       -0.8398601239    -0.8106224462     1.4072841387
|  8>  C       -1.5478995712    -0.7379559926     0.0425844910
|  9>  C       -2.5464181073     0.3384942460    -0.0855299471
| 10>  O       -2.4797356558     1.4169755378     0.4792889698
| 11>  C       -1.7966262403    -1.9583649633    -0.7953123860
| 12>  C       -1.1547186433    -3.2940836123    -0.5176947801
| 13>  C       -2.6308101292    -3.1120622311    -0.2808523398
| 14>  H       -0.5612489191     1.6209791061     0.5092141953
| 15>  H        0.6684323567    -0.8168280572    -0.2051844581
| 16>  H       -0.5626118093    -1.7935940927     1.7716739279
| 17>  H       -1.2277951942    -0.1307860407     2.1590714203
| 18>  H       -3.3854742708     0.1256767380    -0.7804944148
| 19>  H       -1.9246280149    -1.7294687694    -1.8509587765
| 20>  H       -0.8369283690    -3.8828217448    -1.3707364659
| 21>  H       -0.5105140355    -3.3983347734     0.3482381129
| 22>  H       -2.9680985367    -3.0610487846     0.7489609877
| 23>  H       -3.3298852375    -3.5884693859    -0.9586599100
| 24> *
| 25>
| 26>                          ****END OF INPUT****

CARTESIAN COORDINATES (ANGSTROEM)
---------------------------------
  O      0.219180    1.125760    0.206523
  C     -0.092706   -0.212357    0.277735
  C     -0.839860   -0.810622    1.407284
  C     -1.547900   -0.737956    0.042584
  C     -2.546418    0.338494   -0.085530
  O     -2.479736    1.416976    0.479289
  C     -1.796626   -1.958365   -0.795312
  C     -1.154719   -3.294084   -0.517695
  C     -2.630810   -3.112062   -0.280852
  H     -0.561249    1.620979    0.509214
  H      0.668432   -0.816828   -0.205184
  H     -0.562612   -1.793594    1.771674
  H     -1.227795   -0.130786    2.159071
  H     -3.385474    0.125677   -0.780494
  H     -1.924628   -1.729469   -1.850959
  H     -0.836928   -3.882822   -1.370736
  H     -0.510514   -3.398335    0.348238
  H     -2.968099   -3.061049    0.748961
  H     -3.329885   -3.588469   -0.958660

 Total Charge           Charge          ....    0
 Multiplicity           Mult            ....    1
 Number of Electrons    NEL             ....   68
 Basis Dimension        Dim             ....  339

ORBITAL ENERGIES
----------------

  NO   OCC          E(Eh)            E(eV)
   0   2.0000     -20.560670      -559.4843
   1   2.0000     -20.557441      -559.3964
   2   2.0000     -11.342426      -308.6431
   3   2.0000     -11.304875      -307.6213
   4   2.0000     -11.256485      -306.3045
   5   2.0000     -11.253167      -306.2142
   6   2.0000     -11.247187      -306.0515
   7   2.0000     -11.242535      -305.9249
   8   2.0000     -11.239519      -305.8428
   9   2.0000      -1.404771       -38.2258
  10   2.0000      -1.371840       -37.3297
  11   2.0000      -1.180005       -32.1096
  12   2.0000      -1.122219       -30.5371
  13   2.0000      -0.952211       -25.9110
  14   2.0000      -0.848570       -23.0908
  15   2.0000      -0.835820       -22.7438
  16   2.0000      -0.830104       -22.5883
  17   2.0000      -0.770749       -20.9731
  18   2.0000      -0.716918       -19.5083
  19   2.0000      -0.689273       -18.7561
  20   2.0000      -0.669068       -18.2063
  21   2.0000      -0.645903       -17.5759
  22   2.0000      -0.614955       -16.7338
  23   2.0000      -0.609416       -16.5831
  24   2.0000      -0.580796       -15.8043
  25   2.0000      -0.557084       -15.1590
  26   2.0000      -0.535064       -14.5598
  27   2.0000      -0.531229       -14.4555
  28   2.0000      -0.526850       -14.3363
  29   2.0000      -0.463635       -12.6162
  30   2.0000      -0.453380       -12.3371
  31   2.0000      -0.437103       -11.8942
  32   2.0000      -0.418002       -11.3744
  33   2.0000      -0.369297       -10.0491
  34   0.0000       0.109141         2.9699
  35   0.0000       0.142279         3.8716
  36   0.0000       0.148412         4.0385
  37   0.0000       0.157792         4.2937
  38   0.0000       0.176079         4.7914

MULLIKEN ATOMIC CHARGES
-----------------------
   0 O :   -0.440613
   1 C :    0.030311
   2 C :   -0.269688
   3 C :    0.078574
   4 C :    0.084828
   5 O :   -0.347405
   6 C :   -0.154324
   7 C :   -0.275191
   8 C :   -0.263421
   9 H :    0.343762
  10 H :    0.136518
  11 H :    0.136185
  12 H :    0.152832
  13 H :    0.108750
  14 H :    0.135188
  15 H :    0.138173
  16 H :    0.131590
  17 H :    0.136934
  18 H :    0.136997
Sum of atomic charges:   -0.0000000

LOEWDIN ATOMIC CHARGES
----------------------
   0 O :    0.023227
   1 C :   -0.280833
   2 C :   -0.172701
   3 C :   -0.216935
   4 C :   -0.249767
   5 O :    0.096162
   6 C :   -0.196061
   7 C :   -0.221093
   8 C :   -0.218083
   9 H :    0.183934
  10 H :    0.149857
  11 H :    0.138080
  12 H :    0.147309
  13 H :    0.126315
  14 H :    0.156536
  15 H :    0.133932
  16 H :    0.131672
  17 H :    0.136318
  18 H :    0.132131

  Mayer bond orders larger than 0.1
B(  0-O ,  1-C ) :   1.0587 B(  0-O ,  9-H ) :   0.7894 B(  1-C ,  2-C ) :   0.9298
B(  1-C ,  3-C ) :   0.7687 B(  1-C , 10-H ) :   0.9444 B(  2-C ,  3-C ) :   0.7878
B(  2-C , 11-H ) :   0.9132 B(  2-C , 12-H ) :   0.9079 B(  3-C ,  4-C ) :   0.9321
B(  3-C ,  6-C ) :   0.8812 B(  4-C ,  5-O ) :   1.8138 B(  4-C , 13-H ) :   0.9630
B(  6-C ,  7-C ) :   0.8916 B(  6-C ,  8-C ) :   0.8669 B(  6-C , 14-H ) :   0.9231
B(  7-C ,  8-C ) :   0.8988 B(  7-C , 15-H ) :   0.9315 B(  7-C , 16-H ) :   0.9335
B(  8-C , 17-H ) :   0.9288 B(  8-C , 18-H ) :   0.9298

MP2 TOTAL ENERGY:     -422.296972487 Eh
FINAL SINGLE POINT ENERGY      -422.296972487196

DIPOLE MOMENT
-------------
                                X             Y             Z
Electronic contribution:      0.15109       7.34438       0.36909
Nuclear contribution   :     -0.46217      -8.60043      -0.53134
                        -----------------------------------------
Total Dipole Moment    :     -0.31108      -1.25606      -0.16225
                        -----------------------------------------
Magnitude (a.u.)       :      1.30414
Magnitude (Debye)      :      3.31486

                             ****ORCA TERMINATED NORMALLY****
TOTAL RUN TIME: 0 days 0 hours 19 minutes 4 seconds 757 msec
