                         Program Version 3.0.3 - RELEASE   -
|  1> ! RI-MP2 RIJK def2-TZVP def2-TZVP/C def2-TZVP/JK TIGHTSCF
|  2> % maxcore 2000
|  3> % mp2 density relaxed end
|  4> *xyz 0 1
|  5>  C       -0.7691859976     1.2379277094    -0.3490522209
|  6>  C       -0.3995099593    -0.2162283477    -0.5461196540
|  7>  C        0.5410038684    -0.8065035950    -1.5800655218
|  8>  C        1.8218965432     0.0051185908    -1.7609635283
|  9>  C        1.8659344218     1.3113693645    -2.5276778200
| 10>  O        1.9803880305     0.1382718658    -0.3148262584
| 11>  C        0.9127384877    -0.8002368052    -0.0916077976
| 12>  C        1.0909968789    -1.8375490595     0.8624806319
| 13>  C        1.2316027927    -2.7109992193     1.6782737027
| 14>  H       -1.3545180807     1.6215846822    -1.1913395628
| 15>  H       -1.3748425343     1.3485601616     0.5562080486
| 16>  H        0.1228037044     1.8549568421    -0.2307427546
| 17>  H       -1.2161149503    -0.9125404023    -0.3636935791
| 18>  H        0.2551955459    -1.6497199406    -2.1949918299
| 19>  H        2.6187870120    -0.6579873875    -2.1253506210
| 20>  H        2.8192060387     1.8180971432    -2.3448449092
| 21>  H        1.7956412788     1.1073304555    -3.6016724921
| 22>  H        1.0555078349     1.9869071053    -2.2517673243
| 23>  H        1.3611695345    -3.4813708630     2.3973804309
| 24> *
| 25>
| 26>                          ****END OF INPUT****

CARTESIAN COORDINATES (ANGSTROEM)
---------------------------------
  C     -0.769186    1.237928   -0.349052
  C     -0.399510   -0.216228   -0.546120
  C      0.541004   -0.806504   -1.580066
  C      1.821897    0.005119   -1.760964
  C      1.865934    1.311369   -2.527678
  O      1.980388    0.138272   -0.314826
  C      0.912738   -0.800237   -0.091608
  C      1.090997   -1.837549    0.862481
  C      1.231603   -2.710999    1.678274
  H     -1.354518    1.621585   -1.191340
  H     -1.374843    1.348560    0.556208
  H      0.122804    1.854957   -0.230743
  H     -1.216115   -0.912540   -0.363694
  H      0.255196   -1.649720   -2.194992
  H      2.618787   -0.657987   -2.125351
  H      2.819206    1.818097   -2.344845
  H      1.795641    1.107330   -3.601672
  H      1.055508    1.986907   -2.251767
  H      1.361170   -3.481371    2.397380

 Total Charge           Charge          ....    0
 Multiplicity           Mult            ....    1
 Number of Electrons    NEL             ....   66
 Basis Dimension        Dim             ....  339

ORBITAL ENERGIES
----------------

  NO   OCC          E(Eh)            E(eV)
   0   2.0000     -20.559181      -559.4437
   1   2.0000     -11.311613      -307.8046
   2   2.0000     -11.294605      -307.3418
   3   2.0000     -11.252048      -306.1838
   4   2.0000     -11.247823      -306.0688
   5   2.0000     -11.238491      -305.8149
   6   2.0000     -11.229716      -305.5761
   7   2.0000     -11.221051      -305.3403
   8   2.0000     -11.220186      -305.3168
   9   2.0000      -1.397141       -38.0181
  10   2.0000      -1.135522       -30.8991
  11   2.0000      -1.046637       -28.4804
  12   2.0000      -1.017904       -27.6986
  13   2.0000      -0.974442       -26.5159
  14   2.0000      -0.892223       -24.2786
  15   2.0000      -0.824385       -22.4327
  16   2.0000      -0.757928       -20.6243
  17   2.0000      -0.727935       -19.8081
  18   2.0000      -0.703546       -19.1445
  19   2.0000      -0.642303       -17.4780
  20   2.0000      -0.631657       -17.1883
  21   2.0000      -0.611080       -16.6283
  22   2.0000      -0.578104       -15.7310
  23   2.0000      -0.563366       -15.3300
  24   2.0000      -0.553349       -15.0574
  25   2.0000      -0.528437       -14.3795
  26   2.0000      -0.507243       -13.8028
  27   2.0000      -0.496735       -13.5168
  28   2.0000      -0.474246       -12.9049
  29   2.0000      -0.446272       -12.1437
  30   2.0000      -0.415817       -11.3149
  31   2.0000      -0.389945       -10.6109
  32   2.0000      -0.345930        -9.4132
  33   0.0000       0.133812         3.6412
  34   0.0000       0.150478         4.0947
  35   0.0000       0.156513         4.2589
  36   0.0000       0.165453         4.5022
  37   0.0000       0.166786         4.5385

MULLIKEN ATOMIC CHARGES
-----------------------
   0 C :   -0.419914
   1 C :   -0.111155
   2 C :   -0.139235
   3 C :    0.082309
   4 C :   -0.394241
   5 O :   -0.331183
   6 C :   -0.019687
   7 C :   -0.002080
   8 C :   -0.070182
   9 H :    0.134009
  10 H :    0.138495
  11 H :    0.161125
  12 H :    0.124727
  13 H :    0.145202
  14 H :    0.097323
  15 H :    0.141951
  16 H :    0.131241
  17 H :    0.135147
  18 H :    0.196147
Sum of atomic charges:    0.0000000

LOEWDIN ATOMIC CHARGES
----------------------
   0 C :   -0.291256
   1 C :   -0.179266
   2 C :   -0.124322
   3 C :   -0.273497
   4 C :   -0.291605
   5 O :    0.195369
   6 C :   -0.250819
   7 C :   -0.066708
   8 C :   -0.073316
   9 H :    0.125419
  10 H :    0.128720
  11 H :    0.131433
  12 H :    0.165856
  13 H :    0.141642
  14 H :    0.146435
  15 H :    0.131326
  16 H :    0.130879
  17 H :    0.125504
  18 H :    0.128205

  Mayer bond orders larger than 0.1
B(  0-C ,  1-C ) :   0.8833 B(  0-C ,  9-H ) :   0.9340 B(  0-C , 10-H ) :   0.9330
B(  0-C , 11-H ) :   0.9370 B(  1-C ,  2-C ) :   0.9044 B(  1-C ,  6-C ) :   0.8524
B(  1-C , 12-H ) :   0.9212 B(  2-C ,  3-C ) :   0.9228 B(  2-C ,  6-C ) :   0.7989
B(  2-C , 13-H ) :   0.9077 B(  3-C ,  4-C ) :   0.9212 B(  3-C ,  5-O ) :   0.8885
B(  3-C , 14-H ) :   0.9124 B(  4-C , 15-H ) :   0.9317 B(  4-C , 16-H ) :   0.9279
B(  4-C , 17-H ) :   0.9372 B(  5-O ,  6-C ) :   0.9744 B(  6-C ,  7-C ) :   1.2303
B(  6-C ,  8-C ) :  -0.1771 B(  7-C ,  8-C ) :   2.6044 B(  8-C , 18-H ) :   0.8689

MP2 TOTAL ENERGY:     -385.129147280 Eh
FINAL SINGLE POINT ENERGY      -385.129147279914

DIPOLE MOMENT
-------------
                                X             Y             Z
Electronic contribution:      2.53637      -6.16231       4.82606
Nuclear contribution   :     -2.98853       5.97102      -5.40017
                        -----------------------------------------
Total Dipole Moment    :     -0.45216      -0.19129      -0.57411
                        -----------------------------------------
Magnitude (a.u.)       :      0.75541
Magnitude (Debye)      :      1.92011

                             ****ORCA TERMINATED NORMALLY****
TOTAL RUN TIME: 0 days 0 hours 19 minutes 31 seconds 838 msec
