                         Program Version 3.0.3 - RELEASE   -
|  1> ! RI-MP2 RIJK def2-TZVP def2-TZVP/C def2-TZVP/JK TIGHTSCF
|  2> % maxcore 2000
|  3> % mp2 density relaxed end
|  4> *xyz 0 1
|  5>  C        0.0516144080     1.6396289619     0.4103745777
|  6>  C        0.0096120373     0.1676273459     0.1501291984
|  7>  C       -0.4421119617    -0.4505112318    -0.9429281964
|  8>  C       -0.2734162612    -1.9509967697    -0.8809905681
|  9>  C        0.0845738471    -2.1959295320     0.6120304294
| 10>  C        0.5692345464    -0.8291366410     1.1465072509
| 11>  N       -1.4484650725    -2.6881735427    -1.3288308364
| 12>  C       -1.4139541538    -3.6662145334    -2.2723703770
| 13>  O       -0.4199321536    -4.0556864233    -2.8488894229
| 14>  H        1.0825920757     1.9836493117     0.5633496266
| 15>  H       -0.3775136696     2.2114036134    -0.4166209007
| 16>  H       -0.4975159551     1.8937750781     1.3260645378
| 17>  H       -0.8475675262     0.0411405778    -1.8210491001
| 18>  H        0.5294450266    -2.2892808536    -1.5448229646
| 19>  H       -0.8246729867    -2.5002985342     1.1416056184
| 20>  H        0.8150154216    -2.9981309720     0.7388111816
| 21>  H        1.6664818306    -0.7671497117     1.1639746288
| 22>  H        0.2384827371    -0.6297647029     2.1730491368
| 23>  H       -2.3411875642    -2.4474411614    -0.9254314154
| 24>  H       -2.4234738458    -4.0825661391    -2.4648907747
| 25> *
| 26>
| 27>                          ****END OF INPUT****

CARTESIAN COORDINATES (ANGSTROEM)
---------------------------------
  C      0.051614    1.639629    0.410375
  C      0.009612    0.167627    0.150129
  C     -0.442112   -0.450511   -0.942928
  C     -0.273416   -1.950997   -0.880991
  C      0.084574   -2.195930    0.612030
  C      0.569235   -0.829137    1.146507
  N     -1.448465   -2.688174   -1.328831
  C     -1.413954   -3.666215   -2.272370
  O     -0.419932   -4.055686   -2.848889
  H      1.082592    1.983649    0.563350
  H     -0.377514    2.211404   -0.416621
  H     -0.497516    1.893775    1.326065
  H     -0.847568    0.041141   -1.821049
  H      0.529445   -2.289281   -1.544823
  H     -0.824673   -2.500299    1.141606
  H      0.815015   -2.998131    0.738811
  H      1.666482   -0.767150    1.163975
  H      0.238483   -0.629765    2.173049
  H     -2.341188   -2.447441   -0.925431
  H     -2.423474   -4.082566   -2.464891

 Total Charge           Charge          ....    0
 Multiplicity           Mult            ....    1
 Number of Electrons    NEL             ....   68
 Basis Dimension        Dim             ....  345

ORBITAL ENERGIES
----------------

  NO   OCC          E(Eh)            E(eV)
   0   2.0000     -20.517016      -558.2964
   1   2.0000     -15.584394      -424.0729
   2   2.0000     -11.344878      -308.7098
   3   2.0000     -11.269022      -306.6457
   4   2.0000     -11.240897      -305.8804
   5   2.0000     -11.231401      -305.6220
   6   2.0000     -11.229580      -305.5724
   7   2.0000     -11.227464      -305.5148
   8   2.0000     -11.220434      -305.3235
   9   2.0000      -1.377636       -37.4874
  10   2.0000      -1.236410       -33.6444
  11   2.0000      -1.135509       -30.8988
  12   2.0000      -1.016519       -27.6609
  13   2.0000      -0.968836       -26.3634
  14   2.0000      -0.916887       -24.9498
  15   2.0000      -0.832749       -22.6603
  16   2.0000      -0.793133       -21.5823
  17   2.0000      -0.732662       -19.9367
  18   2.0000      -0.713469       -19.4145
  19   2.0000      -0.659673       -17.9506
  20   2.0000      -0.644405       -17.5351
  21   2.0000      -0.614912       -16.7326
  22   2.0000      -0.591460       -16.0945
  23   2.0000      -0.577610       -15.7176
  24   2.0000      -0.573274       -15.5996
  25   2.0000      -0.558519       -15.1981
  26   2.0000      -0.529417       -14.4062
  27   2.0000      -0.508675       -13.8418
  28   2.0000      -0.499254       -13.5854
  29   2.0000      -0.490686       -13.3522
  30   2.0000      -0.478758       -13.0277
  31   2.0000      -0.428827       -11.6690
  32   2.0000      -0.389819       -10.6075
  33   2.0000      -0.345299        -9.3961
  34   0.0000       0.127428         3.4675
  35   0.0000       0.136198         3.7061
  36   0.0000       0.155428         4.2294
  37   0.0000       0.160508         4.3677
  38   0.0000       0.176865         4.8127

MULLIKEN ATOMIC CHARGES
-----------------------
   0 C :   -0.426537
   1 C :    0.057422
   2 C :   -0.289330
   3 C :    0.125028
   4 C :   -0.259369
   5 C :   -0.180329
   6 N :   -0.338134
   7 C :    0.191344
   8 O :   -0.368674
   9 H :    0.141550
  10 H :    0.139511
  11 H :    0.139662
  12 H :    0.127423
  13 H :    0.146377
  14 H :    0.103955
  15 H :    0.137574
  16 H :    0.120557
  17 H :    0.122146
  18 H :    0.233289
  19 H :    0.076535
Sum of atomic charges:    0.0000000

LOEWDIN ATOMIC CHARGES
----------------------
   0 C :   -0.272629
   1 C :   -0.185772
   2 C :   -0.133174
   3 C :   -0.245871
   4 C :   -0.213125
   5 C :   -0.213674
   6 N :    0.106184
   7 C :   -0.440006
   8 O :    0.050202
   9 H :    0.133121
  10 H :    0.130890
  11 H :    0.131922
  12 H :    0.140632
  13 H :    0.164043
  14 H :    0.137282
  15 H :    0.136155
  16 H :    0.143711
  17 H :    0.137245
  18 H :    0.184562
  19 H :    0.108301

  Mayer bond orders larger than 0.1
B(  0-C ,  1-C ) :   0.8898 B(  0-C ,  9-H ) :   0.9245 B(  0-C , 10-H ) :   0.9478
B(  0-C , 11-H ) :   0.9360 B(  1-C ,  2-C ) :   1.7510 B(  1-C ,  5-C ) :   0.9159
B(  2-C ,  3-C ) :   0.9313 B(  2-C , 12-H ) :   0.9285 B(  3-C ,  4-C ) :   0.9267
B(  3-C ,  6-N ) :   0.7707 B(  3-C , 13-H ) :   0.9087 B(  4-C ,  5-C ) :   0.9465
B(  4-C , 14-H ) :   0.9330 B(  4-C , 15-H ) :   0.9331 B(  5-C , 16-H ) :   0.9021
B(  5-C , 17-H ) :   0.9285 B(  6-N ,  7-C ) :   1.1702 B(  6-N , 18-H ) :   0.8700
B(  7-C ,  8-O ) :   1.8807 B(  7-C , 19-H ) :   0.9296

MP2 TOTAL ENERGY:     -402.498904401 Eh
FINAL SINGLE POINT ENERGY      -402.498904400651

DIPOLE MOMENT
-------------
                                X             Y             Z
Electronic contribution:     -1.74482      -6.44081      -5.86028
Nuclear contribution   :      1.07273       7.43077       6.96043
                        -----------------------------------------
Total Dipole Moment    :     -0.67209       0.98996       1.10015
                        -----------------------------------------
Magnitude (a.u.)       :      1.62544
Magnitude (Debye)      :      4.13154

                             ****ORCA TERMINATED NORMALLY****
TOTAL RUN TIME: 0 days 0 hours 16 minutes 29 seconds 453 msec
