                         Program Version 3.0.3 - RELEASE   -
|  1> ! RI-MP2 RIJK def2-TZVP def2-TZVP/C def2-TZVP/JK TIGHTSCF
|  2> % maxcore 2000
|  3> % mp2 density relaxed end
|  4> *xyz 0 1
|  5>  C        0.0270376065     1.4258235174    -0.1347588488
|  6>  N       -0.0294937851    -0.0269882162    -0.0907068616
|  7>  C       -1.2418235507    -0.6582609940     0.1034967224
|  8>  O       -2.2698023960    -0.0501216580     0.3439602212
|  9>  C       -1.1999431853    -2.1292613899     0.0284665360
| 10>  C       -2.2136126590    -3.0317321593    -0.1965807276
| 11>  N       -1.7361593580    -4.3158221394    -0.2080345211
| 12>  C       -0.4447097966    -4.2067863173     0.0203211346
| 13>  N       -0.0594161431    -2.9086679162     0.1526840657
| 14>  H        1.0475014809     1.7572143622     0.0726335188
| 15>  H       -0.2907719860     1.8303032038    -1.1041993434
| 16>  H       -0.6451524290     1.8183612046     0.6285629693
| 17>  H        0.6561131577    -0.5201429988    -0.6418488264
| 18>  H       -3.2545630703    -2.8047310590    -0.3648013532
| 19>  H        0.2546802769    -5.0258237108     0.1018580270
| 20>  H        0.8442989669    -2.5840851591     0.4549938072
| 21> *
| 22>
| 23>                          ****END OF INPUT****

CARTESIAN COORDINATES (ANGSTROEM)
---------------------------------
  C      0.027038    1.425824   -0.134759
  N     -0.029494   -0.026988   -0.090707
  C     -1.241824   -0.658261    0.103497
  O     -2.269802   -0.050122    0.343960
  C     -1.199943   -2.129261    0.028467
  C     -2.213613   -3.031732   -0.196581
  N     -1.736159   -4.315822   -0.208035
  C     -0.444710   -4.206786    0.020321
  N     -0.059416   -2.908668    0.152684
  H      1.047501    1.757214    0.072634
  H     -0.290772    1.830303   -1.104199
  H     -0.645152    1.818361    0.628563
  H      0.656113   -0.520143   -0.641849
  H     -3.254563   -2.804731   -0.364801
  H      0.254680   -5.025824    0.101858
  H      0.844299   -2.584085    0.454994

 Total Charge           Charge          ....    0
 Multiplicity           Mult            ....    1
 Number of Electrons    NEL             ....   66
 Basis Dimension        Dim             ....  321

ORBITAL ENERGIES
----------------

  NO   OCC          E(Eh)            E(eV)
   0   2.0000     -20.523719      -558.4788
   1   2.0000     -15.638013      -425.5320
   2   2.0000     -15.593585      -424.3230
   3   2.0000     -15.558857      -423.3780
   4   2.0000     -11.363122      -309.2063
   5   2.0000     -11.316172      -307.9287
   6   2.0000     -11.272888      -306.7509
   7   2.0000     -11.264839      -306.5319
   8   2.0000     -11.263491      -306.4952
   9   2.0000      -1.390595       -37.8400
  10   2.0000      -1.355969       -36.8978
  11   2.0000      -1.236796       -33.6549
  12   2.0000      -1.183535       -32.2056
  13   2.0000      -1.041243       -28.3337
  14   2.0000      -0.959046       -26.0970
  15   2.0000      -0.860218       -23.4077
  16   2.0000      -0.830170       -22.5901
  17   2.0000      -0.800308       -21.7775
  18   2.0000      -0.776189       -21.1212
  19   2.0000      -0.681919       -18.5560
  20   2.0000      -0.655979       -17.8501
  21   2.0000      -0.637368       -17.3437
  22   2.0000      -0.617525       -16.8037
  23   2.0000      -0.611445       -16.6383
  24   2.0000      -0.594002       -16.1636
  25   2.0000      -0.585175       -15.9234
  26   2.0000      -0.553872       -15.0716
  27   2.0000      -0.538492       -14.6531
  28   2.0000      -0.455854       -12.4044
  29   2.0000      -0.439104       -11.9486
  30   2.0000      -0.417920       -11.3722
  31   2.0000      -0.405816       -11.0428
  32   2.0000      -0.334781        -9.1099
  33   0.0000       0.106205         2.8900
  34   0.0000       0.109609         2.9826
  35   0.0000       0.145594         3.9618
  36   0.0000       0.168783         4.5928
  37   0.0000       0.178168         4.8482

MULLIKEN ATOMIC CHARGES
-----------------------
   0 C :   -0.291590
   1 N :   -0.353325
   2 C :    0.252501
   3 O :   -0.352526
   4 C :    0.155357
   5 C :   -0.131569
   6 N :   -0.275417
   7 C :    0.059337
   8 N :   -0.311309
   9 H :    0.137438
  10 H :    0.140797
  11 H :    0.168805
  12 H :    0.234801
  13 H :    0.155574
  14 H :    0.154101
  15 H :    0.257025
Sum of atomic charges:    0.0000000

LOEWDIN ATOMIC CHARGES
----------------------
   0 C :   -0.313751
   1 N :    0.058356
   2 C :   -0.435151
   3 O :    0.104120
   4 C :   -0.207846
   5 C :   -0.201101
   6 N :    0.094471
   7 C :   -0.306629
   8 N :    0.194034
   9 H :    0.116647
  10 H :    0.115418
  11 H :    0.132021
  12 H :    0.179795
  13 H :    0.143536
  14 H :    0.132050
  15 H :    0.194029

  Mayer bond orders larger than 0.1
B(  0-C ,  1-N ) :   0.8767 B(  0-C ,  9-H ) :   0.9327 B(  0-C , 10-H ) :   0.9384
B(  0-C , 11-H ) :   0.9315 B(  1-N ,  2-C ) :   1.1588 B(  1-N , 12-H ) :   0.8703
B(  2-C ,  3-O ) :   1.9684 B(  2-C ,  4-C ) :   0.8795 B(  4-C ,  5-C ) :   1.4785
B(  4-C ,  8-N ) :   1.0480 B(  5-C ,  6-N ) :   1.3055 B(  5-C , 13-H ) :   0.9294
B(  6-N ,  7-C ) :   1.5299 B(  7-C ,  8-N ) :   1.1772 B(  7-C , 14-H ) :   0.9249
B(  8-N , 15-H ) :   0.8595

MP2 TOTAL ENERGY:     -433.409001401 Eh
FINAL SINGLE POINT ENERGY      -433.409001400827

DIPOLE MOMENT
-------------
                                X             Y             Z
Electronic contribution:     -2.95477      -5.44137       0.62644
Nuclear contribution   :      5.20426       5.91177      -0.81936
                        -----------------------------------------
Total Dipole Moment    :      2.24949       0.47040      -0.19292
                        -----------------------------------------
Magnitude (a.u.)       :      2.30623
Magnitude (Debye)      :      5.86197

                             ****ORCA TERMINATED NORMALLY****
TOTAL RUN TIME: 0 days 0 hours 15 minutes 0 seconds 168 msec
