                         Program Version 3.0.3 - RELEASE   -
|  1> ! RI-MP2 RIJK def2-TZVP def2-TZVP/C def2-TZVP/JK TIGHTSCF
|  2> % maxcore 2000
|  3> % mp2 density relaxed end
|  4> *xyz 0 1
|  5>  C        0.0383854834     1.4733592062    -0.0111809938
|  6>  C        1.2732601972     0.6561765082     0.0411758053
|  7>  C        1.9544661339     0.3624117403     1.4015511620
|  8>  C        0.8408059542    -0.3708957266     2.0979653211
|  9>  C       -0.2120927335    -0.5313769015     1.2435499689
| 10>  N       -1.1314615258    -1.2128768751     1.9447119794
| 11>  N       -0.6535294124    -1.4628465583     3.2065050704
| 12>  N        0.5445616261    -0.9433633045     3.2887561931
| 13>  N       -0.0855592907    -0.0127157494    -0.0591704606
| 14>  H       -0.2967250956     1.9657323727     0.8977558041
| 15>  H       -0.2352719745     1.9700766825    -0.9368023456
| 16>  H        1.8754149820     0.5762903083    -0.8570864698
| 17>  H        2.8474972272    -0.2553299687     1.2569822848
| 18>  H        2.2722122473     1.2797327352     1.9082493586
| 19>  H       -2.0485388889    -1.5416971293     1.6905476320
| 20> *
| 21>
| 22>                          ****END OF INPUT****

CARTESIAN COORDINATES (ANGSTROEM)
---------------------------------
  C      0.038385    1.473359   -0.011181
  C      1.273260    0.656177    0.041176
  C      1.954466    0.362412    1.401551
  C      0.840806   -0.370896    2.097965
  C     -0.212093   -0.531377    1.243550
  N     -1.131462   -1.212877    1.944712
  N     -0.653529   -1.462847    3.206505
  N      0.544562   -0.943363    3.288756
  N     -0.085559   -0.012716   -0.059170
  H     -0.296725    1.965732    0.897756
  H     -0.235272    1.970077   -0.936802
  H      1.875415    0.576290   -0.857086
  H      2.847497   -0.255330    1.256982
  H      2.272212    1.279733    1.908249
  H     -2.048539   -1.541697    1.690548

 Total Charge           Charge          ....    0
 Multiplicity           Mult            ....    1
 Number of Electrons    NEL             ....   64
 Basis Dimension        Dim             ....  315

ORBITAL ENERGIES
----------------

  NO   OCC          E(Eh)            E(eV)
   0   2.0000     -15.653768      -425.9607
   1   2.0000     -15.632185      -425.3734
   2   2.0000     -15.599834      -424.4931
   3   2.0000     -15.599716      -424.4899
   4   2.0000     -11.304931      -307.6228
   5   2.0000     -11.292012      -307.2713
   6   2.0000     -11.284687      -307.0719
   7   2.0000     -11.257765      -306.3394
   8   2.0000     -11.243304      -305.9458
   9   2.0000      -1.426824       -38.8259
  10   2.0000      -1.313548       -35.7434
  11   2.0000      -1.200717       -32.6732
  12   2.0000      -1.087773       -29.5998
  13   2.0000      -1.018697       -27.7202
  14   2.0000      -0.928760       -25.2728
  15   2.0000      -0.859369       -23.3846
  16   2.0000      -0.830734       -22.6054
  17   2.0000      -0.799347       -21.7513
  18   2.0000      -0.735041       -20.0015
  19   2.0000      -0.681510       -18.5448
  20   2.0000      -0.655892       -17.8477
  21   2.0000      -0.633339       -17.2340
  22   2.0000      -0.592411       -16.1203
  23   2.0000      -0.575193       -15.6518
  24   2.0000      -0.543027       -14.7765
  25   2.0000      -0.530104       -14.4249
  26   2.0000      -0.509440       -13.8626
  27   2.0000      -0.485697       -13.2165
  28   2.0000      -0.451330       -12.2813
  29   2.0000      -0.417334       -11.3562
  30   2.0000      -0.411355       -11.1935
  31   2.0000      -0.325835        -8.8664
  32   0.0000       0.134893         3.6706
  33   0.0000       0.137702         3.7471
  34   0.0000       0.146954         3.9988
  35   0.0000       0.161218         4.3870
  36   0.0000       0.174736         4.7548

MULLIKEN ATOMIC CHARGES
-----------------------
   0 C :   -0.148484
   1 C :   -0.074694
   2 C :   -0.170606
   3 C :   -0.090001
   4 C :    0.083872
   5 N :   -0.095895
   6 N :   -0.122553
   7 N :   -0.132493
   8 N :   -0.225632
   9 H :    0.145166
  10 H :    0.139042
  11 H :    0.142824
  12 H :    0.140649
  13 H :    0.140770
  14 H :    0.268035
Sum of atomic charges:   -0.0000000

LOEWDIN ATOMIC CHARGES
----------------------
   0 C :   -0.215906
   1 C :   -0.185212
   2 C :   -0.190478
   3 C :   -0.266896
   4 C :   -0.309781
   5 N :    0.147672
   6 N :   -0.045795
   7 N :    0.019086
   8 N :    0.148473
   9 H :    0.134897
  10 H :    0.130569
  11 H :    0.142728
  12 H :    0.148344
  13 H :    0.149900
  14 H :    0.192400

  Mayer bond orders larger than 0.1
B(  0-C ,  1-C ) :   0.9433 B(  0-C ,  8-N ) :   0.8195 B(  0-C ,  9-H ) :   0.9119
B(  0-C , 10-H ) :   0.9261 B(  1-C ,  2-C ) :   0.9392 B(  1-C ,  8-N ) :   0.8676
B(  1-C , 11-H ) :   0.9148 B(  2-C ,  3-C ) :   0.9953 B(  2-C , 12-H ) :   0.9159
B(  2-C , 13-H ) :   0.9103 B(  3-C ,  4-C ) :   1.3527 B(  3-C ,  7-N ) :   1.4436
B(  4-C ,  5-N ) :   1.1990 B(  4-C ,  6-N ) :   0.1314 B(  4-C ,  8-N ) :   1.0883
B(  5-N ,  6-N ) :   1.0023 B(  5-N , 14-H ) :   0.8531 B(  6-N ,  7-N ) :   1.2844

MP2 TOTAL ENERGY:     -412.245027137 Eh
FINAL SINGLE POINT ENERGY      -412.245027137253

DIPOLE MOMENT
-------------
                                X             Y             Z
Electronic contribution:     -2.79477      -4.11974       3.11930
Nuclear contribution   :      2.62327       5.01186      -4.50806
                        -----------------------------------------
Total Dipole Moment    :     -0.17149       0.89212      -1.38876
                        -----------------------------------------
Magnitude (a.u.)       :      1.65950
Magnitude (Debye)      :      4.21810

                             ****ORCA TERMINATED NORMALLY****
TOTAL RUN TIME: 0 days 0 hours 16 minutes 52 seconds 26 msec
