                         Program Version 3.0.3 - RELEASE   -
|  1> ! RI-MP2 RIJK def2-TZVP def2-TZVP/C def2-TZVP/JK TIGHTSCF
|  2> % maxcore 2000
|  3> % mp2 density relaxed end
|  4> *xyz 0 1
|  5>  O        0.0222045717    -0.0846687013     0.5055500498
|  6>  C       -0.0401206050     1.0678331460     0.1352925689
|  7>  C       -1.3967714803     1.7310503577    -0.1337300380
|  8>  N       -1.6143597665     2.0023254281    -1.5539303502
|  9>  C       -1.0532895023     3.2323068746    -2.1005507897
| 10>  C        0.3442051501     3.6717384162    -1.5795313715
| 11>  N        1.3302660972     2.6204250505    -1.3845472021
| 12>  C        1.2375456601     1.8783454736    -0.1317102685
| 13>  H       -2.1656536042     1.0457507140     0.2367000981
| 14>  H       -1.4870870796     2.6731623758     0.4199660908
| 15>  H       -1.3469862512     1.1971839261    -2.1057780825
| 16>  H       -1.0082936414     3.1028502868    -3.1878678536
| 17>  H       -1.7518251403     4.0624085934    -1.9194301479
| 18>  H        0.7412849130     4.4170936146    -2.2813202730
| 19>  H        0.2350879790     4.1892829683    -0.6188169203
| 20>  H        1.3596083950     1.9872568105    -2.1762391412
| 21>  H        1.3460572991     2.5995245176     0.6925826472
| 22>  H        2.0765527054     1.1806382976    -0.0597996363
| 23> *
| 24>
| 25>                          ****END OF INPUT****

CARTESIAN COORDINATES (ANGSTROEM)
---------------------------------
  O      0.022205   -0.084669    0.505550
  C     -0.040121    1.067833    0.135293
  C     -1.396771    1.731050   -0.133730
  N     -1.614360    2.002325   -1.553930
  C     -1.053290    3.232307   -2.100551
  C      0.344205    3.671738   -1.579531
  N      1.330266    2.620425   -1.384547
  C      1.237546    1.878345   -0.131710
  H     -2.165654    1.045751    0.236700
  H     -1.487087    2.673162    0.419966
  H     -1.346986    1.197184   -2.105778
  H     -1.008294    3.102850   -3.187868
  H     -1.751825    4.062409   -1.919430
  H      0.741285    4.417094   -2.281320
  H      0.235088    4.189283   -0.618817
  H      1.359608    1.987257   -2.176239
  H      1.346057    2.599525    0.692583
  H      2.076553    1.180638   -0.059800

 Total Charge           Charge          ....    0
 Multiplicity           Mult            ....    1
 Number of Electrons    NEL             ....   62
 Basis Dimension        Dim             ....  308

ORBITAL ENERGIES
----------------

  NO   OCC          E(Eh)            E(eV)
   0   2.0000     -20.550085      -559.1962
   1   2.0000     -15.559609      -423.3985
   2   2.0000     -15.558929      -423.3800
   3   2.0000     -11.325332      -308.1780
   4   2.0000     -11.267293      -306.5986
   5   2.0000     -11.266351      -306.5730
   6   2.0000     -11.261784      -306.4487
   7   2.0000     -11.261008      -306.4276
   8   2.0000      -1.390875       -37.8476
   9   2.0000      -1.238887       -33.7118
  10   2.0000      -1.200079       -32.6558
  11   2.0000      -1.032056       -28.0837
  12   2.0000      -0.944422       -25.6990
  13   2.0000      -0.934545       -25.4303
  14   2.0000      -0.817540       -22.2464
  15   2.0000      -0.762443       -20.7471
  16   2.0000      -0.691438       -18.8150
  17   2.0000      -0.688487       -18.7347
  18   2.0000      -0.649644       -17.6777
  19   2.0000      -0.640909       -17.4400
  20   2.0000      -0.597431       -16.2569
  21   2.0000      -0.590240       -16.0612
  22   2.0000      -0.584597       -15.9077
  23   2.0000      -0.563496       -15.3335
  24   2.0000      -0.546497       -14.8709
  25   2.0000      -0.513964       -13.9857
  26   2.0000      -0.499369       -13.5885
  27   2.0000      -0.490899       -13.3580
  28   2.0000      -0.463476       -12.6118
  29   2.0000      -0.372580       -10.1384
  30   2.0000      -0.367066        -9.9884
  31   0.0000       0.116407         3.1676
  32   0.0000       0.138557         3.7703
  33   0.0000       0.145439         3.9576
  34   0.0000       0.163194         4.4407
  35   0.0000       0.177416         4.8277

MULLIKEN ATOMIC CHARGES
-----------------------
   0 O :   -0.276570
   1 C :    0.093726
   2 C :   -0.082313
   3 N :   -0.339228
   4 C :   -0.207296
   5 C :   -0.145945
   6 N :   -0.335476
   7 C :   -0.164077
   8 H :    0.144764
   9 H :    0.121003
  10 H :    0.210279
  11 H :    0.132657
  12 H :    0.117465
  13 H :    0.132032
  14 H :    0.117706
  15 H :    0.200504
  16 H :    0.131534
  17 H :    0.149236
Sum of atomic charges:    0.0000000

LOEWDIN ATOMIC CHARGES
----------------------
   0 O :    0.145588
   1 C :   -0.341556
   2 C :   -0.275319
   3 N :   -0.012851
   4 C :   -0.329489
   5 C :   -0.324957
   6 N :   -0.013489
   7 C :   -0.288397
   8 H :    0.141161
   9 H :    0.141869
  10 H :    0.169290
  11 H :    0.131626
  12 H :    0.132618
  13 H :    0.134368
  14 H :    0.132129
  15 H :    0.168200
  16 H :    0.145407
  17 H :    0.143803

  Mayer bond orders larger than 0.1
B(  0-O ,  1-C ) :   1.9996 B(  1-C ,  2-C ) :   0.9138 B(  1-C ,  7-C ) :   0.8852
B(  2-C ,  3-N ) :   0.9002 B(  2-C ,  8-H ) :   0.9201 B(  2-C ,  9-H ) :   0.9183
B(  3-N ,  4-C ) :   0.9753 B(  3-N , 10-H ) :   0.8867 B(  4-C ,  5-C ) :   0.8894
B(  4-C , 11-H ) :   0.9394 B(  4-C , 12-H ) :   0.9382 B(  5-C ,  6-N ) :   0.9526
B(  5-C , 13-H ) :   0.9205 B(  5-C , 14-H ) :   0.9352 B(  6-N ,  7-C ) :   0.9496
B(  6-N , 15-H ) :   0.8855 B(  7-C , 16-H ) :   0.9206 B(  7-C , 17-H ) :   0.9313

MP2 TOTAL ENERGY:     -380.481628927 Eh
FINAL SINGLE POINT ENERGY      -380.481628926661

DIPOLE MOMENT
-------------
                                X             Y             Z
Electronic contribution:      0.49886      -5.14740       2.40928
Nuclear contribution   :     -0.51458       5.95699      -2.91754
                        -----------------------------------------
Total Dipole Moment    :     -0.01572       0.80959      -0.50826
                        -----------------------------------------
Magnitude (a.u.)       :      0.95604
Magnitude (Debye)      :      2.43006

                             ****ORCA TERMINATED NORMALLY****
TOTAL RUN TIME: 0 days 0 hours 14 minutes 10 seconds 496 msec
