                         Program Version 3.0.3 - RELEASE   -
|  1> ! RI-MP2 RIJK def2-TZVP def2-TZVP/C def2-TZVP/JK TIGHTSCF
|  2> % maxcore 2000
|  3> % mp2 density relaxed end
|  4> *xyz 0 1
|  5>  C        0.1507523430     1.5250932817     0.0790940622
|  6>  C        0.1185326725    -0.0047162119     0.0279382496
|  7>  C        0.6693447611    -0.5738644782    -1.2835781309
|  8>  C        0.6360565460    -2.1049981856    -1.3399259547
|  9>  C        1.2361454796    -2.6416053916    -2.6287778504
| 10>  O        2.6497411529    -2.3311801766    -2.7650219032
| 11>  C        3.0184665938    -3.7228365419    -2.7173190057
| 12>  C        1.5358763550    -4.1585295363    -2.7028741551
| 13>  O        1.0729169795    -4.8806375907    -1.5871786877
| 14>  H        1.1736116161     1.9026605699    -0.0298517493
| 15>  H       -0.4479048113     1.9609897281    -0.7286950164
| 16>  H       -0.2446649555     1.9032667423     1.0272046554
| 17>  H        0.6957333452    -0.4122613205     0.8684370953
| 18>  H       -0.9123042258    -0.3554317089     0.1722076592
| 19>  H        0.0957055926    -0.1637730002    -2.1271545443
| 20>  H        1.7039987586    -0.2385440246    -1.4260901459
| 21>  H        1.1791082709    -2.5279235521    -0.4878845589
| 22>  H       -0.3968058588    -2.4687986905    -1.2612888340
| 23>  H        0.6814412554    -2.2532224566    -3.4942800538
| 24>  H        3.6164755469    -4.0213919470    -3.5871754413
| 25>  H        3.5551483529    -3.9833550472    -1.7954613528
| 26>  H        1.2051116970    -4.6203757724    -3.6413044820
| 27>  H        1.2678898425    -5.8125741192    -1.7233640552
| 28> *
| 29>
| 30>                          ****END OF INPUT****

CARTESIAN COORDINATES (ANGSTROEM)
---------------------------------
  C      0.150752    1.525093    0.079094
  C      0.118533   -0.004716    0.027938
  C      0.669345   -0.573864   -1.283578
  C      0.636057   -2.104998   -1.339926
  C      1.236145   -2.641605   -2.628778
  O      2.649741   -2.331180   -2.765022
  C      3.018467   -3.722837   -2.717319
  C      1.535876   -4.158530   -2.702874
  O      1.072917   -4.880638   -1.587179
  H      1.173612    1.902661   -0.029852
  H     -0.447905    1.960990   -0.728695
  H     -0.244665    1.903267    1.027205
  H      0.695733   -0.412261    0.868437
  H     -0.912304   -0.355432    0.172208
  H      0.095706   -0.163773   -2.127155
  H      1.703999   -0.238544   -1.426090
  H      1.179108   -2.527924   -0.487885
  H     -0.396806   -2.468799   -1.261289
  H      0.681441   -2.253222   -3.494280
  H      3.616476   -4.021392   -3.587175
  H      3.555148   -3.983355   -1.795461
  H      1.205112   -4.620376   -3.641304
  H      1.267890   -5.812574   -1.723364

 Total Charge           Charge          ....    0
 Multiplicity           Mult            ....    1
 Number of Electrons    NEL             ....   72
 Basis Dimension        Dim             ....  363

ORBITAL ENERGIES
----------------

  NO   OCC          E(Eh)            E(eV)
   0   2.0000     -20.568723      -559.7034
   1   2.0000     -20.543885      -559.0275
   2   2.0000     -11.288408      -307.1732
   3   2.0000     -11.277611      -306.8794
   4   2.0000     -11.275220      -306.8143
   5   2.0000     -11.211619      -305.0837
   6   2.0000     -11.211212      -305.0726
   7   2.0000     -11.208413      -304.9964
   8   2.0000     -11.205732      -304.9235
   9   2.0000      -1.390016       -37.8243
  10   2.0000      -1.359373       -36.9904
  11   2.0000      -1.072321       -29.1793
  12   2.0000      -1.012656       -27.5558
  13   2.0000      -0.983422       -26.7603
  14   2.0000      -0.917619       -24.9697
  15   2.0000      -0.846336       -23.0300
  16   2.0000      -0.785970       -21.3873
  17   2.0000      -0.756362       -20.5816
  18   2.0000      -0.715252       -19.4630
  19   2.0000      -0.680626       -18.5208
  20   2.0000      -0.650945       -17.7131
  21   2.0000      -0.628415       -17.1000
  22   2.0000      -0.602182       -16.3862
  23   2.0000      -0.580581       -15.7984
  24   2.0000      -0.573181       -15.5970
  25   2.0000      -0.554655       -15.0929
  26   2.0000      -0.539087       -14.6693
  27   2.0000      -0.533333       -14.5127
  28   2.0000      -0.507460       -13.8087
  29   2.0000      -0.489761       -13.3271
  30   2.0000      -0.484698       -13.1893
  31   2.0000      -0.463121       -12.6022
  32   2.0000      -0.457656       -12.4535
  33   2.0000      -0.441238       -12.0067
  34   2.0000      -0.423036       -11.5114
  35   2.0000      -0.407835       -11.0978
  36   0.0000       0.126858         3.4520
  37   0.0000       0.145062         3.9473
  38   0.0000       0.162251         4.4151
  39   0.0000       0.172306         4.6887
  40   0.0000       0.175676         4.7804

MULLIKEN ATOMIC CHARGES
-----------------------
   0 C :   -0.382088
   1 C :   -0.179146
   2 C :   -0.241530
   3 C :   -0.244951
   4 C :    0.130240
   5 O :   -0.339967
   6 C :   -0.026134
   7 C :    0.001317
   8 O :   -0.451209
   9 H :    0.122778
  10 H :    0.119493
  11 H :    0.130745
  12 H :    0.105935
  13 H :    0.100870
  14 H :    0.097633
  15 H :    0.129793
  16 H :    0.123115
  17 H :    0.113039
  18 H :    0.089318
  19 H :    0.096609
  20 H :    0.089962
  21 H :    0.096318
  22 H :    0.317859
Sum of atomic charges:   -0.0000000

LOEWDIN ATOMIC CHARGES
----------------------
   0 C :   -0.322669
   1 C :   -0.297970
   2 C :   -0.268938
   3 C :   -0.249192
   4 C :   -0.261311
   5 O :    0.129570
   6 C :   -0.267419
   7 C :   -0.320731
   8 O :   -0.009803
   9 H :    0.120397
  10 H :    0.119280
  11 H :    0.119212
  12 H :    0.134472
  13 H :    0.133022
  14 H :    0.135279
  15 H :    0.142212
  16 H :    0.145619
  17 H :    0.145172
  18 H :    0.136067
  19 H :    0.114595
  20 H :    0.118622
  21 H :    0.127225
  22 H :    0.177290

  Mayer bond orders larger than 0.1
B(  0-C ,  1-C ) :   0.9225 B(  0-C ,  9-H ) :   0.9396 B(  0-C , 10-H ) :   0.9398
B(  0-C , 11-H ) :   0.9435 B(  1-C ,  2-C ) :   0.9331 B(  1-C , 12-H ) :   0.9343
B(  1-C , 13-H ) :   0.9337 B(  2-C ,  3-C ) :   0.9270 B(  2-C , 14-H ) :   0.9268
B(  2-C , 15-H ) :   0.9272 B(  3-C ,  4-C ) :   0.9526 B(  3-C , 16-H ) :   0.9200
B(  3-C , 17-H ) :   0.9215 B(  4-C ,  5-O ) :   0.9175 B(  4-C ,  7-C ) :   0.9123
B(  4-C , 18-H ) :   0.9130 B(  5-O ,  6-C ) :   0.9641 B(  6-C ,  7-C ) :   0.9718
B(  6-C , 19-H ) :   0.9124 B(  6-C , 20-H ) :   0.8993 B(  7-C ,  8-O ) :   1.0661
B(  7-C , 21-H ) :   0.9451 B(  8-O , 22-H ) :   0.8433

MP2 TOTAL ENERGY:     -424.703759880 Eh
FINAL SINGLE POINT ENERGY      -424.703759879788

DIPOLE MOMENT
-------------
                                X             Y             Z
Electronic contribution:      3.76638      -9.03653      -4.86252
Nuclear contribution   :     -3.89684       8.11044       4.55951
                        -----------------------------------------
Total Dipole Moment    :     -0.13046      -0.92609      -0.30302
                        -----------------------------------------
Magnitude (a.u.)       :      0.98310
Magnitude (Debye)      :      2.49883

                             ****ORCA TERMINATED NORMALLY****
TOTAL RUN TIME: 0 days 0 hours 16 minutes 32 seconds 332 msec
