                         Program Version 3.0.3 - RELEASE   -
|  1> ! RI-MP2 RIJK def2-TZVP def2-TZVP/C def2-TZVP/JK TIGHTSCF
|  2> % maxcore 2000
|  3> % mp2 density relaxed end
|  4> *xyz 0 1
|  5>  C       -0.1825540431     1.6878545737     0.1028530036
|  6>  C       -0.1057741108     0.1578334668     0.1220427827
|  7>  C        0.5179497480    -0.4515757994     1.3939916216
|  8>  C       -0.3275443703    -0.1581845797     2.6418700196
|  9>  C        0.7289131451    -1.9658729147     1.1835231707
| 10>  C        1.4370227165    -2.7581333133     2.2987323438
| 11>  C        1.4067346628    -4.2620613185     1.9908080847
| 12>  C        2.8754551559    -2.2821015308     2.5114733241
| 13>  O        3.4335122069    -3.0101801307     3.5980979996
| 14>  H        0.8077692642     2.1357590462     0.2445362510
| 15>  H       -0.5726155711     2.0458330397    -0.8552909698
| 16>  H       -0.8379867245     2.0783350548     0.8871642818
| 17>  H       -1.1124876982    -0.2613048569    -0.0163829100
| 18>  H        0.4794981667    -0.1755956136    -0.7446707243
| 19>  H        1.5000239542     0.0241833796     1.5301169738
| 20>  H       -1.3167910091    -0.6253613150     2.5586807104
| 21>  H        0.1431097608    -0.5408119136     3.5519877595
| 22>  H       -0.4779068251     0.9156446823     2.7841414422
| 23>  H       -0.2545658003    -2.4268051281     1.0147219687
| 24>  H        1.2879344667    -2.1138473583     0.2481615961
| 25>  H        0.9085541107    -2.6006512214     3.2475093686
| 26>  H        1.8939386751    -4.4733494122     1.0307048829
| 27>  H        1.9300566711    -4.8260440966     2.7655084021
| 28>  H        0.3770185640    -4.6286822477     1.9279678024
| 29>  H        3.4532824899    -2.4452050678     1.5851548812
| 30>  H        2.8931848783    -1.2026644996     2.7228531725
| 31>  H        4.3411372555    -2.7183102854     3.7203429207
| 32> *
| 33>
| 34>                          ****END OF INPUT****

CARTESIAN COORDINATES (ANGSTROEM)
---------------------------------
  C     -0.182554    1.687855    0.102853
  C     -0.105774    0.157833    0.122043
  C      0.517950   -0.451576    1.393992
  C     -0.327544   -0.158185    2.641870
  C      0.728913   -1.965873    1.183523
  C      1.437023   -2.758133    2.298732
  C      1.406735   -4.262061    1.990808
  C      2.875455   -2.282102    2.511473
  O      3.433512   -3.010180    3.598098
  H      0.807769    2.135759    0.244536
  H     -0.572616    2.045833   -0.855291
  H     -0.837987    2.078335    0.887164
  H     -1.112488   -0.261305   -0.016383
  H      0.479498   -0.175596   -0.744671
  H      1.500024    0.024183    1.530117
  H     -1.316791   -0.625361    2.558681
  H      0.143110   -0.540812    3.551988
  H     -0.477907    0.915645    2.784141
  H     -0.254566   -2.426805    1.014722
  H      1.287934   -2.113847    0.248162
  H      0.908554   -2.600651    3.247509
  H      1.893939   -4.473349    1.030705
  H      1.930057   -4.826044    2.765508
  H      0.377019   -4.628682    1.927968
  H      3.453282   -2.445205    1.585155
  H      2.893185   -1.202664    2.722853
  H      4.341137   -2.718310    3.720343

 Total Charge           Charge          ....    0
 Multiplicity           Mult            ....    1
 Number of Electrons    NEL             ....   74
 Basis Dimension        Dim             ....  387

ORBITAL ENERGIES
----------------

  NO   OCC          E(Eh)            E(eV)
   0   2.0000     -20.551597      -559.2374
   1   2.0000     -11.269389      -306.6557
   2   2.0000     -11.223433      -305.4051
   3   2.0000     -11.219679      -305.3030
   4   2.0000     -11.216179      -305.2077
   5   2.0000     -11.214451      -305.1607
   6   2.0000     -11.210970      -305.0660
   7   2.0000     -11.208525      -304.9995
   8   2.0000     -11.201445      -304.8068
   9   2.0000      -1.355775       -36.8925
  10   2.0000      -1.102664       -30.0050
  11   2.0000      -1.052337       -28.6355
  12   2.0000      -0.981001       -26.6944
  13   2.0000      -0.919775       -25.0283
  14   2.0000      -0.912680       -24.8353
  15   2.0000      -0.854547       -23.2534
  16   2.0000      -0.776807       -21.1380
  17   2.0000      -0.751223       -20.4418
  18   2.0000      -0.693140       -18.8613
  19   2.0000      -0.649902       -17.6847
  20   2.0000      -0.631952       -17.1963
  21   2.0000      -0.607071       -16.5193
  22   2.0000      -0.596394       -16.2287
  23   2.0000      -0.577591       -15.7170
  24   2.0000      -0.559732       -15.2311
  25   2.0000      -0.541434       -14.7332
  26   2.0000      -0.532817       -14.4987
  27   2.0000      -0.528067       -14.3694
  28   2.0000      -0.514641       -14.0041
  29   2.0000      -0.503942       -13.7130
  30   2.0000      -0.492776       -13.4091
  31   2.0000      -0.474922       -12.9233
  32   2.0000      -0.465484       -12.6665
  33   2.0000      -0.449066       -12.2197
  34   2.0000      -0.446999       -12.1634
  35   2.0000      -0.435438       -11.8489
  36   2.0000      -0.428262       -11.6536
  37   0.0000       0.132505         3.6056
  38   0.0000       0.144428         3.9301
  39   0.0000       0.156884         4.2690
  40   0.0000       0.162258         4.4153
  41   0.0000       0.174781         4.7560

MULLIKEN ATOMIC CHARGES
-----------------------
   0 C :   -0.406090
   1 C :   -0.182368
   2 C :   -0.037830
   3 C :   -0.436092
   4 C :   -0.273642
   5 C :    0.002274
   6 C :   -0.401502
   7 C :   -0.088098
   8 O :   -0.470999
   9 H :    0.121184
  10 H :    0.135021
  11 H :    0.127344
  12 H :    0.104437
  13 H :    0.108375
  14 H :    0.077491
  15 H :    0.122867
  16 H :    0.139849
  17 H :    0.134537
  18 H :    0.116110
  19 H :    0.112920
  20 H :    0.090567
  21 H :    0.111444
  22 H :    0.157175
  23 H :    0.126346
  24 H :    0.090462
  25 H :    0.104096
  26 H :    0.314125
Sum of atomic charges:    0.0000000

LOEWDIN ATOMIC CHARGES
----------------------
   0 C :   -0.321128
   1 C :   -0.274725
   2 C :   -0.287008
   3 C :   -0.293731
   4 C :   -0.226461
   5 C :   -0.289237
   6 C :   -0.293617
   7 C :   -0.329702
   8 O :   -0.048585
   9 H :    0.120165
  10 H :    0.121225
  11 H :    0.118315
  12 H :    0.136792
  13 H :    0.136875
  14 H :    0.147071
  15 H :    0.124839
  16 H :    0.122462
  17 H :    0.121694
  18 H :    0.144953
  19 H :    0.141665
  20 H :    0.153151
  21 H :    0.121508
  22 H :    0.127961
  23 H :    0.121230
  24 H :    0.117156
  25 H :    0.115903
  26 H :    0.171227

  Mayer bond orders larger than 0.1
B(  0-C ,  1-C ) :   0.9168 B(  0-C ,  9-H ) :   0.9384 B(  0-C , 10-H ) :   0.9430
B(  0-C , 11-H ) :   0.9430 B(  1-C ,  2-C ) :   0.9249 B(  1-C , 12-H ) :   0.9268
B(  1-C , 13-H ) :   0.9349 B(  2-C ,  3-C ) :   0.9008 B(  2-C ,  4-C ) :   0.9182
B(  2-C , 14-H ) :   0.9328 B(  3-C , 15-H ) :   0.9299 B(  3-C , 16-H ) :   0.9400
B(  3-C , 17-H ) :   0.9412 B(  4-C ,  5-C ) :   0.9061 B(  4-C , 18-H ) :   0.9260
B(  4-C , 19-H ) :   0.9269 B(  5-C ,  6-C ) :   0.9165 B(  5-C ,  7-C ) :   0.9159
B(  5-C , 20-H ) :   0.9296 B(  6-C , 21-H ) :   0.9322 B(  6-C , 22-H ) :   0.9382
B(  6-C , 23-H ) :   0.9406 B(  7-C ,  8-O ) :   0.9999 B(  7-C , 24-H ) :   0.9202
B(  7-C , 25-H ) :   0.9340 B(  8-O , 26-H ) :   0.8491

MP2 TOTAL ENERGY:     -390.029116008 Eh
FINAL SINGLE POINT ENERGY      -390.029116008114

DIPOLE MOMENT
-------------
                                X             Y             Z
Electronic contribution:      4.82405      -3.77407       3.45831
Nuclear contribution   :     -4.50951       4.21286      -3.73647
                        -----------------------------------------
Total Dipole Moment    :      0.31454       0.43880      -0.27816
                        -----------------------------------------
Magnitude (a.u.)       :      0.60733
Magnitude (Debye)      :      1.54371

                             ****ORCA TERMINATED NORMALLY****
TOTAL RUN TIME: 0 days 0 hours 20 minutes 40 seconds 492 msec
