                         Program Version 3.0.3 - RELEASE   -
|  1> ! RI-MP2 RIJK def2-TZVP def2-TZVP/C def2-TZVP/JK TIGHTSCF
|  2> % maxcore 2000
|  3> % mp2 density relaxed end
|  4> *xyz 0 1
|  5>  C       -0.1776368922     1.4309375844    -0.1723076086
|  6>  N       -0.0853869504     0.0954998684     0.4158890798
|  7>  C       -1.1670481446    -0.7592525170     0.2640501367
|  8>  C       -1.2858930710    -2.0889462177     0.0040422762
|  9>  C       -2.6986468301    -2.4014700065     0.0785840899
| 10>  C       -3.3592867620    -3.7255348323    -0.1349718800
| 11>  C       -3.3068936087    -1.2293459369     0.3720406802
| 12>  O       -4.5962662901    -0.9188886708     0.6211266408
| 13>  O       -2.3927927829    -0.2087103698     0.5025116210
| 14>  H        0.7316700837     1.9848724667     0.0726070123
| 15>  H       -0.3052020613     1.4243988544    -1.2661135603
| 16>  H       -1.0254428219     1.9597788826     0.2674305209
| 17>  H        0.7739706651    -0.3774678533     0.1726413573
| 18>  H       -0.4832347606    -2.7721140679    -0.2269302503
| 19>  H       -3.0489528451    -4.4598149743     0.6180393024
| 20>  H       -4.4461042905    -3.6256038705    -0.0755927477
| 21>  H       -3.1093005999    -4.1471618183    -1.1158056706
| 22>  H       -4.8837476276    -0.2209788011     0.0192881101
| 23> *
| 24>
| 25>                          ****END OF INPUT****

CARTESIAN COORDINATES (ANGSTROEM)
---------------------------------
  C     -0.177637    1.430938   -0.172308
  N     -0.085387    0.095500    0.415889
  C     -1.167048   -0.759253    0.264050
  C     -1.285893   -2.088946    0.004042
  C     -2.698647   -2.401470    0.078584
  C     -3.359287   -3.725535   -0.134972
  C     -3.306894   -1.229346    0.372041
  O     -4.596266   -0.918889    0.621127
  O     -2.392793   -0.208710    0.502512
  H      0.731670    1.984872    0.072607
  H     -0.305202    1.424399   -1.266114
  H     -1.025443    1.959779    0.267431
  H      0.773971   -0.377468    0.172641
  H     -0.483235   -2.772114   -0.226930
  H     -3.048953   -4.459815    0.618039
  H     -4.446104   -3.625604   -0.075593
  H     -3.109301   -4.147162   -1.115806
  H     -4.883748   -0.220979    0.019288

 Total Charge           Charge          ....    0
 Multiplicity           Mult            ....    1
 Number of Electrons    NEL             ....   68
 Basis Dimension        Dim             ....  333

ORBITAL ENERGIES
----------------

  NO   OCC          E(Eh)            E(eV)
   0   2.0000     -20.612201      -560.8865
   1   2.0000     -20.590498      -560.2959
   2   2.0000     -15.571736      -423.7285
   3   2.0000     -11.323373      -308.1246
   4   2.0000     -11.318811      -308.0005
   5   2.0000     -11.257899      -306.3430
   6   2.0000     -11.221155      -305.3432
   7   2.0000     -11.218451      -305.2696
   8   2.0000     -11.206367      -304.9407
   9   2.0000      -1.469213       -39.9793
  10   2.0000      -1.390993       -37.8508
  11   2.0000      -1.228752       -33.4360
  12   2.0000      -1.089966       -29.6595
  13   2.0000      -0.994014       -27.0485
  14   2.0000      -0.938635       -25.5416
  15   2.0000      -0.906324       -24.6623
  16   2.0000      -0.809266       -22.0212
  17   2.0000      -0.771608       -20.9965
  18   2.0000      -0.721430       -19.6311
  19   2.0000      -0.689907       -18.7733
  20   2.0000      -0.657091       -17.8803
  21   2.0000      -0.635997       -17.3064
  22   2.0000      -0.612582       -16.6692
  23   2.0000      -0.597429       -16.2569
  24   2.0000      -0.577869       -15.7246
  25   2.0000      -0.561517       -15.2796
  26   2.0000      -0.556569       -15.1450
  27   2.0000      -0.550026       -14.9670
  28   2.0000      -0.534302       -14.5391
  29   2.0000      -0.519904       -14.1473
  30   2.0000      -0.501422       -13.6444
  31   2.0000      -0.439005       -11.9459
  32   2.0000      -0.374386       -10.1876
  33   2.0000      -0.269240        -7.3264
  34   0.0000       0.132278         3.5995
  35   0.0000       0.140689         3.8283
  36   0.0000       0.158885         4.3235
  37   0.0000       0.167117         4.5475
  38   0.0000       0.191334         5.2065

MULLIKEN ATOMIC CHARGES
-----------------------
   0 C :   -0.278225
   1 N :   -0.326763
   2 C :    0.283625
   3 C :   -0.326019
   4 C :    0.025705
   5 C :   -0.439553
   6 C :    0.199255
   7 O :   -0.436319
   8 O :   -0.235578
   9 H :    0.137254
  10 H :    0.117645
  11 H :    0.150167
  12 H :    0.226026
  13 H :    0.129869
  14 H :    0.140605
  15 H :    0.152896
  16 H :    0.136037
  17 H :    0.343372
Sum of atomic charges:    0.0000000

LOEWDIN ATOMIC CHARGES
----------------------
   0 C :   -0.328050
   1 N :    0.027026
   2 C :   -0.335016
   3 C :   -0.171753
   4 C :   -0.207553
   5 C :   -0.272160
   6 C :   -0.379329
   7 O :    0.066203
   8 O :    0.340782
   9 H :    0.116975
  10 H :    0.104123
  11 H :    0.121461
  12 H :    0.186390
  13 H :    0.140414
  14 H :    0.129857
  15 H :    0.134688
  16 H :    0.128566
  17 H :    0.197378

  Mayer bond orders larger than 0.1
B(  0-C ,  1-N ) :   0.8962 B(  0-C ,  9-H ) :   0.9370 B(  0-C , 10-H ) :   0.9266
B(  0-C , 11-H ) :   0.9375 B(  1-N ,  2-C ) :   1.1297 B(  1-N , 12-H ) :   0.8785
B(  2-C ,  3-C ) :   1.5612 B(  2-C ,  8-O ) :   0.9984 B(  3-C ,  4-C ) :   1.1103
B(  3-C , 13-H ) :   0.9184 B(  4-C ,  5-C ) :   0.8449 B(  4-C ,  6-C ) :   1.5705
B(  5-C , 14-H ) :   0.9413 B(  5-C , 15-H ) :   0.9518 B(  5-C , 16-H ) :   0.9356
B(  6-C ,  7-O ) :   1.1618 B(  6-C ,  8-O ) :   1.0361 B(  7-O , 17-H ) :   0.8211

MP2 TOTAL ENERGY:     -438.378511810 Eh
FINAL SINGLE POINT ENERGY      -438.378511810008

DIPOLE MOMENT
-------------
                                X             Y             Z
Electronic contribution:     -2.83547       1.14699       2.40940
Nuclear contribution   :      3.28262      -0.78838      -3.23436
                        -----------------------------------------
Total Dipole Moment    :      0.44715       0.35860      -0.82496
                        -----------------------------------------
Magnitude (a.u.)       :      1.00454
Magnitude (Debye)      :      2.55334

                             ****ORCA TERMINATED NORMALLY****
TOTAL RUN TIME: 0 days 0 hours 16 minutes 0 seconds 15 msec
