                         Program Version 3.0.3 - RELEASE   -
|  1> ! RI-MP2 RIJK def2-TZVP def2-TZVP/C def2-TZVP/JK TIGHTSCF
|  2> % maxcore 2000
|  3> % mp2 density relaxed end
|  4> *xyz 0 1
|  5>  C       -0.0993475053     1.5191732822    -0.0852616951
|  6>  C       -0.0144977020     0.0207491524     0.0604474247
|  7>  N        1.2741772436    -0.6109208684    -0.1926923949
|  8>  C        0.7411466545    -0.6369182883     1.1855161699
|  9>  C        1.4089224896     0.0186923556     2.3347908759
| 10>  C        1.2235464788    -0.6769014969     3.4612337390
| 11>  C        0.4178921178    -1.9341105716     3.2407299239
| 12>  C        0.1971332790    -1.9362057827     1.7236753430
| 13>  O       -0.2819189953    -2.8187336183     1.0528446417
| 14>  H        0.8377363284     1.9963112554     0.2110314247
| 15>  H       -0.2954108022     1.7863955243    -1.1291536661
| 16>  H       -0.9111798505     1.9266880382     0.5259077591
| 17>  H       -0.8968070092    -0.5351081775    -0.2555551237
| 18>  H        1.1252818031    -1.5396383147    -0.5901071265
| 19>  H        1.9639342492     0.9435069816     2.2461126619
| 20>  H        1.6009569783    -0.3924419518     4.4360635706
| 21>  H        0.9265181991    -2.8524725447     3.5574638884
| 22>  H       -0.5509482468    -1.9266025249     3.7578254836
| 23> *
| 24>
| 25>                          ****END OF INPUT****

CARTESIAN COORDINATES (ANGSTROEM)
---------------------------------
  C     -0.099348    1.519173   -0.085262
  C     -0.014498    0.020749    0.060447
  N      1.274177   -0.610921   -0.192692
  C      0.741147   -0.636918    1.185516
  C      1.408922    0.018692    2.334791
  C      1.223546   -0.676901    3.461234
  C      0.417892   -1.934111    3.240730
  C      0.197133   -1.936206    1.723675
  O     -0.281919   -2.818734    1.052845
  H      0.837736    1.996311    0.211031
  H     -0.295411    1.786396   -1.129154
  H     -0.911180    1.926688    0.525908
  H     -0.896807   -0.535108   -0.255555
  H      1.125282   -1.539638   -0.590107
  H      1.963934    0.943507    2.246113
  H      1.600957   -0.392442    4.436064
  H      0.926518   -2.852473    3.557464
  H     -0.550948   -1.926603    3.757825

 Total Charge           Charge          ....    0
 Multiplicity           Mult            ....    1
 Number of Electrons    NEL             ....   66
 Basis Dimension        Dim             ....  333

ORBITAL ENERGIES
----------------

  NO   OCC          E(Eh)            E(eV)
   0   2.0000     -20.554167      -559.3073
   1   2.0000     -15.569545      -423.6689
   2   2.0000     -11.338164      -308.5271
   3   2.0000     -11.276146      -306.8395
   4   2.0000     -11.275069      -306.8102
   5   2.0000     -11.250552      -306.1431
   6   2.0000     -11.248166      -306.0781
   7   2.0000     -11.245271      -305.9994
   8   2.0000     -11.226709      -305.4943
   9   2.0000      -1.398827       -38.0640
  10   2.0000      -1.278500       -34.7897
  11   2.0000      -1.136684       -30.9307
  12   2.0000      -1.000033       -27.2123
  13   2.0000      -0.970821       -26.4174
  14   2.0000      -0.923828       -25.1386
  15   2.0000      -0.824841       -22.4451
  16   2.0000      -0.783923       -21.3316
  17   2.0000      -0.731884       -19.9156
  18   2.0000      -0.695006       -18.9121
  19   2.0000      -0.672065       -18.2878
  20   2.0000      -0.624193       -16.9851
  21   2.0000      -0.599676       -16.3180
  22   2.0000      -0.592849       -16.1323
  23   2.0000      -0.586718       -15.9654
  24   2.0000      -0.572867       -15.5885
  25   2.0000      -0.542219       -14.7545
  26   2.0000      -0.537512       -14.6264
  27   2.0000      -0.518643       -14.1130
  28   2.0000      -0.490356       -13.3433
  29   2.0000      -0.479015       -13.0347
  30   2.0000      -0.421763       -11.4768
  31   2.0000      -0.406165       -11.0523
  32   2.0000      -0.349479        -9.5098
  33   0.0000       0.121139         3.2964
  34   0.0000       0.134389         3.6569
  35   0.0000       0.143721         3.9108
  36   0.0000       0.154280         4.1982
  37   0.0000       0.162830         4.4308

MULLIKEN ATOMIC CHARGES
-----------------------
   0 C :   -0.383372
   1 C :   -0.053617
   2 N :   -0.398710
   3 C :    0.185780
   4 C :   -0.196941
   5 C :   -0.192935
   6 C :   -0.144590
   7 C :    0.133893
   8 O :   -0.293838
   9 H :    0.136127
  10 H :    0.138833
  11 H :    0.130223
  12 H :    0.138142
  13 H :    0.232477
  14 H :    0.143178
  15 H :    0.138668
  16 H :    0.144558
  17 H :    0.142121
Sum of atomic charges:    0.0000000

LOEWDIN ATOMIC CHARGES
----------------------
   0 C :   -0.288575
   1 C :   -0.247279
   2 N :    0.049648
   3 C :   -0.244107
   4 C :   -0.111297
   5 C :   -0.142209
   6 C :   -0.203799
   7 C :   -0.269544
   8 O :    0.147743
   9 H :    0.130139
  10 H :    0.130147
  11 H :    0.128700
  12 H :    0.146356
  13 H :    0.177419
  14 H :    0.145259
  15 H :    0.139079
  16 H :    0.154972
  17 H :    0.157347

  Mayer bond orders larger than 0.1
B(  0-C ,  1-C ) :   0.8961 B(  0-C ,  9-H ) :   0.9427 B(  0-C , 10-H ) :   0.9324
B(  0-C , 11-H ) :   0.9327 B(  1-C ,  2-N ) :   0.9551 B(  1-C ,  3-C ) :   0.8496
B(  1-C , 12-H ) :   0.9067 B(  2-N ,  3-C ) :   0.8523 B(  2-N , 13-H ) :   0.8623
B(  3-C ,  4-C ) :   0.9007 B(  3-C ,  6-C ) :  -0.1102 B(  3-C ,  7-C ) :   0.9130
B(  4-C ,  5-C ) :   1.7644 B(  4-C , 14-H ) :   0.9169 B(  5-C ,  6-C ) :   0.9117
B(  5-C , 15-H ) :   0.9244 B(  6-C ,  7-C ) :   0.9529 B(  6-C , 16-H ) :   0.9026
B(  6-C , 17-H ) :   0.8891 B(  7-C ,  8-O ) :   1.9877

MP2 TOTAL ENERGY:     -401.260846910 Eh
FINAL SINGLE POINT ENERGY      -401.260846910441

DIPOLE MOMENT
-------------
                                X             Y             Z
Electronic contribution:      0.65100      -5.54996       0.36690
Nuclear contribution   :     -0.81034       6.11951       0.28875
                        -----------------------------------------
Total Dipole Moment    :     -0.15935       0.56955       0.65565
                        -----------------------------------------
Magnitude (a.u.)       :      0.88298
Magnitude (Debye)      :      2.24436

                             ****ORCA TERMINATED NORMALLY****
TOTAL RUN TIME: 0 days 0 hours 17 minutes 56 seconds 865 msec
