                         Program Version 3.0.3 - RELEASE   -
|  1> ! RI-MP2 RIJK def2-TZVP def2-TZVP/C def2-TZVP/JK TIGHTSCF
|  2> % maxcore 2000
|  3> % mp2 density relaxed end
|  4> *xyz 0 1
|  5>  O       -0.4197370376     0.2162125344     0.2812335560
|  6>  C       -0.0145989468     1.3435662762     0.1637842356
|  7>  C        1.4059818793     1.7126675290    -0.2253290862
|  8>  C        1.4372393429     2.7205265480    -1.3512873890
|  9>  C        0.9888762935     2.3396663106    -2.7554434949
| 10>  C        1.3899081201     3.5558911790    -3.6243707525
| 11>  C        2.6066851054     4.1929677805    -2.9078239551
| 12>  C        2.3949363019     3.8315163724    -1.4527116368
| 13>  O        1.0520310230     4.0640554410    -0.9938906943
| 14>  H       -0.6761898908     2.2192668633     0.3466321166
| 15>  H        1.8791218207     2.1601663802     0.6584717549
| 16>  H        1.9464311771     0.7985592171    -0.4887167769
| 17>  H        1.5251336288     1.4321143206    -3.0596497438
| 18>  H       -0.0816351199     2.1173475866    -2.8121702575
| 19>  H        1.6110393284     3.2769041771    -4.6569035581
| 20>  H        0.5667040786     4.2725681787    -3.6453912555
| 21>  H        3.5526778705     3.7515411249    -3.2456114707
| 22>  H        2.6719438848     5.2729340554    -3.0711090397
| 23>  H        3.1733614001     3.9999755649    -0.7116777021
| 24> *
| 25>
| 26>                          ****END OF INPUT****

CARTESIAN COORDINATES (ANGSTROEM)
---------------------------------
  O     -0.419737    0.216213    0.281234
  C     -0.014599    1.343566    0.163784
  C      1.405982    1.712668   -0.225329
  C      1.437239    2.720527   -1.351287
  C      0.988876    2.339666   -2.755443
  C      1.389908    3.555891   -3.624371
  C      2.606685    4.192968   -2.907824
  C      2.394936    3.831516   -1.452712
  O      1.052031    4.064055   -0.993891
  H     -0.676190    2.219267    0.346632
  H      1.879122    2.160166    0.658472
  H      1.946431    0.798559   -0.488717
  H      1.525134    1.432114   -3.059650
  H     -0.081635    2.117348   -2.812170
  H      1.611039    3.276904   -4.656904
  H      0.566704    4.272568   -3.645391
  H      3.552678    3.751541   -3.245611
  H      2.671944    5.272934   -3.071109
  H      3.173361    3.999976   -0.711678

 Total Charge           Charge          ....    0
 Multiplicity           Mult            ....    1
 Number of Electrons    NEL             ....   68
 Basis Dimension        Dim             ....  339

ORBITAL ENERGIES
----------------

  NO   OCC          E(Eh)            E(eV)
   0   2.0000     -20.572216      -559.7984
   1   2.0000     -20.558893      -559.4359
   2   2.0000     -11.333408      -308.3977
   3   2.0000     -11.301036      -307.5168
   4   2.0000     -11.291684      -307.2623
   5   2.0000     -11.250609      -306.1446
   6   2.0000     -11.237581      -305.7901
   7   2.0000     -11.237222      -305.7803
   8   2.0000     -11.232131      -305.6418
   9   2.0000      -1.419908       -38.6377
  10   2.0000      -1.397444       -38.0264
  11   2.0000      -1.101248       -29.9665
  12   2.0000      -1.056238       -28.7417
  13   2.0000      -0.975955       -26.5571
  14   2.0000      -0.915612       -24.9151
  15   2.0000      -0.813295       -22.1309
  16   2.0000      -0.795792       -21.6546
  17   2.0000      -0.772476       -21.0201
  18   2.0000      -0.712732       -19.3944
  19   2.0000      -0.657719       -17.8974
  20   2.0000      -0.651765       -17.7354
  21   2.0000      -0.632457       -17.2100
  22   2.0000      -0.626060       -17.0360
  23   2.0000      -0.605129       -16.4664
  24   2.0000      -0.568470       -15.4689
  25   2.0000      -0.540676       -14.7125
  26   2.0000      -0.532174       -14.4812
  27   2.0000      -0.514066       -13.9884
  28   2.0000      -0.504583       -13.7304
  29   2.0000      -0.493623       -13.4322
  30   2.0000      -0.487502       -13.2656
  31   2.0000      -0.451925       -12.2975
  32   2.0000      -0.436334       -11.8732
  33   2.0000      -0.404403       -11.0044
  34   0.0000       0.124618         3.3910
  35   0.0000       0.139326         3.7913
  36   0.0000       0.152154         4.1403
  37   0.0000       0.161210         4.3868
  38   0.0000       0.169329         4.6077

MULLIKEN ATOMIC CHARGES
-----------------------
   0 O :   -0.262800
   1 C :    0.079964
   2 C :   -0.155822
   3 C :    0.126315
   4 C :   -0.246159
   5 C :   -0.220212
   6 C :   -0.195590
   7 C :   -0.012928
   8 O :   -0.341659
   9 H :    0.101175
  10 H :    0.138070
  11 H :    0.122435
  12 H :    0.120294
  13 H :    0.133546
  14 H :    0.129165
  15 H :    0.121674
  16 H :    0.113379
  17 H :    0.126121
  18 H :    0.123030
Sum of atomic charges:    0.0000000

LOEWDIN ATOMIC CHARGES
----------------------
   0 O :    0.132541
   1 C :   -0.284719
   2 C :   -0.220623
   3 C :   -0.299958
   4 C :   -0.208516
   5 C :   -0.240918
   6 C :   -0.236441
   7 C :   -0.238659
   8 O :    0.180249
   9 H :    0.117001
  10 H :    0.162648
  11 H :    0.153126
  12 H :    0.146499
  13 H :    0.143216
  14 H :    0.133571
  15 H :    0.141426
  16 H :    0.143335
  17 H :    0.140135
  18 H :    0.136089

  Mayer bond orders larger than 0.1
B(  0-O ,  1-C ) :   1.9935 B(  1-C ,  2-C ) :   0.8796 B(  1-C ,  9-H ) :   0.9384
B(  2-C ,  3-C ) :   0.8754 B(  2-C , 10-H ) :   0.9176 B(  2-C , 11-H ) :   0.8999
B(  3-C ,  4-C ) :   0.9469 B(  3-C ,  7-C ) :   0.9128 B(  3-C ,  8-O ) :   0.8518
B(  4-C ,  5-C ) :   0.9428 B(  4-C , 12-H ) :   0.9232 B(  4-C , 13-H ) :   0.9186
B(  5-C ,  6-C ) :   0.9533 B(  5-C , 14-H ) :   0.9370 B(  5-C , 15-H ) :   0.9251
B(  6-C ,  7-C ) :   0.9337 B(  6-C , 16-H ) :   0.9138 B(  6-C , 17-H ) :   0.9210
B(  7-C ,  8-O ) :   0.9263 B(  7-C , 18-H ) :   0.9200

MP2 TOTAL ENERGY:     -422.329139566 Eh
FINAL SINGLE POINT ENERGY      -422.329139566185

DIPOLE MOMENT
-------------
                                X             Y             Z
Electronic contribution:     -3.06730      -2.11736       5.56464
Nuclear contribution   :      4.06014       2.59197      -6.12191
                        -----------------------------------------
Total Dipole Moment    :      0.99285       0.47461      -0.55728
                        -----------------------------------------
Magnitude (a.u.)       :      1.23351
Magnitude (Debye)      :      3.13534

                             ****ORCA TERMINATED NORMALLY****
TOTAL RUN TIME: 0 days 0 hours 18 minutes 27 seconds 883 msec
