                         Program Version 3.0.3 - RELEASE   -
|  1> ! RI-MP2 RIJK def2-TZVP def2-TZVP/C def2-TZVP/JK TIGHTSCF
|  2> % maxcore 2000
|  3> % mp2 density relaxed end
|  4> *xyz 0 1
|  5>  C       -0.2098664606     1.6065983928     0.1240594238
|  6>  C        0.0955136213     0.1194402711     0.0128055093
|  7>  O        0.9701208948    -0.1260810007    -1.1062119776
|  8>  C        2.0849099839    -0.8433233705    -0.7654347173
|  9>  N        2.9836590813    -1.1938225239    -1.5773634964
| 10>  C        2.0789274819    -1.1463730674     0.7164286035
| 11>  C        0.8345176758    -0.4668167203     1.2009845251
| 12>  N        0.3881404118    -0.3389682691     2.3824174193
| 13>  O        1.2315128826    -0.9626026623     3.3112124120
| 14>  H        0.7097055666     2.1773198688     0.2802563617
| 15>  H       -0.6962123037     1.9638534383    -0.7872780527
| 16>  H       -0.8747634013     1.7772108022     0.9745712057
| 17>  H       -0.8322796628    -0.4380120119    -0.1708520963
| 18>  H        2.7595403870    -0.8727158681    -2.5208019215
| 19>  H        2.0572325189    -2.2257068158     0.9007045774
| 20>  H        2.9789267138    -0.7681119818     1.2097129139
| 21>  H        0.7880509988    -0.7848115416     4.1479725902
| 22> *
| 23>
| 24>                          ****END OF INPUT****

CARTESIAN COORDINATES (ANGSTROEM)
---------------------------------
  C     -0.209866    1.606598    0.124059
  C      0.095514    0.119440    0.012806
  O      0.970121   -0.126081   -1.106212
  C      2.084910   -0.843323   -0.765435
  N      2.983659   -1.193823   -1.577363
  C      2.078927   -1.146373    0.716429
  C      0.834518   -0.466817    1.200985
  N      0.388140   -0.338968    2.382417
  O      1.231513   -0.962603    3.311212
  H      0.709706    2.177320    0.280256
  H     -0.696212    1.963853   -0.787278
  H     -0.874763    1.777211    0.974571
  H     -0.832280   -0.438012   -0.170852
  H      2.759540   -0.872716   -2.520802
  H      2.057233   -2.225707    0.900705
  H      2.978927   -0.768112    1.209713
  H      0.788051   -0.784812    4.147973

 Total Charge           Charge          ....    0
 Multiplicity           Mult            ....    1
 Number of Electrons    NEL             ....   68
 Basis Dimension        Dim             ....  327

ORBITAL ENERGIES
----------------

  NO   OCC          E(Eh)            E(eV)
   0   2.0000     -20.608062      -560.7739
   1   2.0000     -20.601610      -560.5983
   2   2.0000     -15.633425      -425.4071
   3   2.0000     -15.535156      -422.7331
   4   2.0000     -11.345541      -308.7279
   5   2.0000     -11.317014      -307.9516
   6   2.0000     -11.297243      -307.4136
   7   2.0000     -11.259850      -306.3961
   8   2.0000     -11.234867      -305.7163
   9   2.0000      -1.442226       -39.2450
  10   2.0000      -1.434027       -39.0218
  11   2.0000      -1.203101       -32.7380
  12   2.0000      -1.186332       -32.2817
  13   2.0000      -1.039707       -28.2919
  14   2.0000      -1.038050       -28.2468
  15   2.0000      -0.893975       -24.3263
  16   2.0000      -0.805736       -21.9252
  17   2.0000      -0.767550       -20.8861
  18   2.0000      -0.709798       -19.3146
  19   2.0000      -0.704699       -19.1758
  20   2.0000      -0.691429       -18.8147
  21   2.0000      -0.653578       -17.7848
  22   2.0000      -0.616106       -16.7651
  23   2.0000      -0.614972       -16.7342
  24   2.0000      -0.602087       -16.3836
  25   2.0000      -0.579232       -15.7617
  26   2.0000      -0.558026       -15.1847
  27   2.0000      -0.535672       -14.5764
  28   2.0000      -0.527152       -14.3445
  29   2.0000      -0.515639       -14.0313
  30   2.0000      -0.457601       -12.4520
  31   2.0000      -0.435513       -11.8509
  32   2.0000      -0.401742       -10.9320
  33   2.0000      -0.399141       -10.8612
  34   0.0000       0.117892         3.2080
  35   0.0000       0.133801         3.6409
  36   0.0000       0.150611         4.0983
  37   0.0000       0.162269         4.4156
  38   0.0000       0.172152         4.6845

MULLIKEN ATOMIC CHARGES
-----------------------
   0 C :   -0.383882
   1 C :    0.115676
   2 O :   -0.252696
   3 C :    0.087869
   4 N :   -0.371621
   5 C :   -0.103680
   6 C :   -0.055982
   7 N :   -0.098020
   8 O :   -0.360803
   9 H :    0.131958
  10 H :    0.144879
  11 H :    0.144056
  12 H :    0.118913
  13 H :    0.224570
  14 H :    0.158999
  15 H :    0.160106
  16 H :    0.339658
Sum of atomic charges:    0.0000000

LOEWDIN ATOMIC CHARGES
----------------------
   0 C :   -0.280685
   1 C :   -0.267000
   2 O :    0.256583
   3 C :   -0.400134
   4 N :   -0.059141
   5 C :   -0.183488
   6 C :   -0.262968
   7 N :    0.032765
   8 O :   -0.062624
   9 H :    0.129432
  10 H :    0.128711
  11 H :    0.134618
  12 H :    0.152555
  13 H :    0.169259
  14 H :    0.170077
  15 H :    0.169070
  16 H :    0.172971

  Mayer bond orders larger than 0.1
B(  0-C ,  1-C ) :   0.9281 B(  0-C ,  9-H ) :   0.9281 B(  0-C , 10-H ) :   0.9341
B(  0-C , 11-H ) :   0.9249 B(  1-C ,  2-O ) :   0.8998 B(  1-C ,  6-C ) :   0.9249
B(  1-C , 12-H ) :   0.9112 B(  2-O ,  3-C ) :   1.0845 B(  3-C ,  4-N ) :   2.0617
B(  3-C ,  5-C ) :   0.9244 B(  4-N , 13-H ) :   0.8536 B(  5-C ,  6-C ) :   0.9789
B(  5-C , 14-H ) :   0.8869 B(  5-C , 15-H ) :   0.8889 B(  6-C ,  7-N ) :   1.8514
B(  7-N ,  8-O ) :   0.8181 B(  8-O , 16-H ) :   0.8426

MP2 TOTAL ENERGY:     -454.387360108 Eh
FINAL SINGLE POINT ENERGY      -454.387360108264

DIPOLE MOMENT
-------------
                                X             Y             Z
Electronic contribution:      1.38697      -3.11986       0.70625
Nuclear contribution   :     -2.20432       3.51093      -0.07097
                        -----------------------------------------
Total Dipole Moment    :     -0.81735       0.39108       0.63529
                        -----------------------------------------
Magnitude (a.u.)       :      1.10661
Magnitude (Debye)      :      2.81278

                             ****ORCA TERMINATED NORMALLY****
TOTAL RUN TIME: 0 days 0 hours 15 minutes 32 seconds 720 msec
