                         Program Version 3.0.3 - RELEASE   -
|  1> ! RI-MP2 RIJK def2-TZVP def2-TZVP/C def2-TZVP/JK TIGHTSCF
|  2> % maxcore 2000
|  3> % mp2 density relaxed end
|  4> *xyz 0 1
|  5>  C       -0.1429358297     1.5521490118    -0.1093639992
|  6>  C       -0.0329964884     0.0290090432    -0.0383639934
|  7>  C       -1.4111692318    -0.5828949256     0.2551290115
|  8>  O       -1.4128444959    -0.8697020023     1.6806642927
|  9>  C       -0.1083826383    -0.7135978627     2.2792298182
| 10>  C        0.7907751715    -0.6844384051     1.0771268883
| 11>  C        2.0939646275    -0.1305235236     0.4343152558
| 12>  C        1.1952645869    -0.6608502574    -0.7529149243
| 13>  C        0.9559412492    -1.9123668004     0.1202231137
| 14>  H        0.8151764188     2.0632027920    -0.2177516072
| 15>  H       -0.7536923356     1.8299317324    -0.9763458320
| 16>  H       -0.6446566973     1.9563859341     0.7773439428
| 17>  H       -2.2209378719     0.1279097147     0.0612008776
| 18>  H       -1.6396803704    -1.5028905874    -0.2926362672
| 19>  H       -0.0632573433     0.2175513157     2.8628712678
| 20>  H        0.0537284852    -1.5592403666     2.9557912929
| 21>  H        2.2845675194     0.9392058561     0.5022263302
| 22>  H        3.0069785780    -0.7008147692     0.6220031399
| 23>  H        1.4517804124    -0.6330009851    -1.8141651385
| 24>  H        1.8312215480    -2.5380528129     0.3110467907
| 25>  H        0.0811116658    -2.5249646618    -0.0889733702
| 26> *
| 27>
| 28>                          ****END OF INPUT****

CARTESIAN COORDINATES (ANGSTROEM)
---------------------------------
  C     -0.142936    1.552149   -0.109364
  C     -0.032996    0.029009   -0.038364
  C     -1.411169   -0.582895    0.255129
  O     -1.412844   -0.869702    1.680664
  C     -0.108383   -0.713598    2.279230
  C      0.790775   -0.684438    1.077127
  C      2.093965   -0.130524    0.434315
  C      1.195265   -0.660850   -0.752915
  C      0.955941   -1.912367    0.120223
  H      0.815176    2.063203   -0.217752
  H     -0.753692    1.829932   -0.976346
  H     -0.644657    1.956386    0.777344
  H     -2.220938    0.127910    0.061201
  H     -1.639680   -1.502891   -0.292636
  H     -0.063257    0.217551    2.862871
  H      0.053728   -1.559240    2.955791
  H      2.284568    0.939206    0.502226
  H      3.006979   -0.700815    0.622003
  H      1.451780   -0.633001   -1.814165
  H      1.831222   -2.538053    0.311047
  H      0.081112   -2.524965   -0.088973

 Total Charge           Charge          ....    0
 Multiplicity           Mult            ....    1
 Number of Electrons    NEL             ....   68
 Basis Dimension        Dim             ....  351

ORBITAL ENERGIES
----------------

  NO   OCC          E(Eh)            E(eV)
   0   2.0000     -20.541948      -558.9748
   1   2.0000     -11.272048      -306.7280
   2   2.0000     -11.267888      -306.6148
   3   2.0000     -11.253296      -306.2177
   4   2.0000     -11.245951      -306.0179
   5   2.0000     -11.239907      -305.8534
   6   2.0000     -11.236998      -305.7743
   7   2.0000     -11.225725      -305.4675
   8   2.0000     -11.215729      -305.1955
   9   2.0000      -1.355522       -36.8856
  10   2.0000      -1.212246       -32.9869
  11   2.0000      -1.020655       -27.7734
  12   2.0000      -0.969876       -26.3917
  13   2.0000      -0.930128       -25.3101
  14   2.0000      -0.887383       -24.1469
  15   2.0000      -0.837557       -22.7911
  16   2.0000      -0.792836       -21.5742
  17   2.0000      -0.697871       -18.9900
  18   2.0000      -0.671120       -18.2621
  19   2.0000      -0.666044       -18.1240
  20   2.0000      -0.637528       -17.3480
  21   2.0000      -0.606954       -16.5161
  22   2.0000      -0.564587       -15.3632
  23   2.0000      -0.562775       -15.3139
  24   2.0000      -0.559505       -15.2249
  25   2.0000      -0.546395       -14.8682
  26   2.0000      -0.524799       -14.2805
  27   2.0000      -0.491694       -13.3797
  28   2.0000      -0.461210       -12.5502
  29   2.0000      -0.452191       -12.3047
  30   2.0000      -0.437568       -11.9068
  31   2.0000      -0.434755       -11.8303
  32   2.0000      -0.406790       -11.0693
  33   2.0000      -0.382938       -10.4203
  34   0.0000       0.142046         3.8653
  35   0.0000       0.159838         4.3494
  36   0.0000       0.165807         4.5118
  37   0.0000       0.174676         4.7532
  38   0.0000       0.188550         5.1307

MULLIKEN ATOMIC CHARGES
-----------------------
   0 C :   -0.467370
   1 C :    0.038513
   2 C :   -0.049320
   3 O :   -0.316287
   4 C :   -0.039595
   5 C :   -0.069602
   6 C :   -0.178385
   7 C :   -0.116659
   8 C :   -0.220344
   9 H :    0.125318
  10 H :    0.141489
  11 H :    0.147563
  12 H :    0.106060
  13 H :    0.094003
  14 H :    0.095534
  15 H :    0.106897
  16 H :    0.119194
  17 H :    0.115146
  18 H :    0.132386
  19 H :    0.114283
  20 H :    0.121176
Sum of atomic charges:    0.0000000

LOEWDIN ATOMIC CHARGES
----------------------
   0 C :   -0.272280
   1 C :   -0.198724
   2 C :   -0.250808
   3 O :    0.124647
   4 C :   -0.269172
   5 C :   -0.188184
   6 C :   -0.166665
   7 C :   -0.139047
   8 C :   -0.165712
   9 H :    0.122880
  10 H :    0.130130
  11 H :    0.131126
  12 H :    0.127290
  13 H :    0.120590
  14 H :    0.124579
  15 H :    0.128433
  16 H :    0.126041
  17 H :    0.129474
  18 H :    0.123576
  19 H :    0.130060
  20 H :    0.131767

  Mayer bond orders larger than 0.1
B(  0-C ,  1-C ) :   0.9097 B(  0-C ,  9-H ) :   0.9326 B(  0-C , 10-H ) :   0.9407
B(  0-C , 11-H ) :   0.9329 B(  1-C ,  2-C ) :   0.9662 B(  1-C ,  5-C ) :   0.7822
B(  1-C ,  7-C ) :   0.8739 B(  2-C ,  3-O ) :   0.9545 B(  2-C , 12-H ) :   0.9152
B(  2-C , 13-H ) :   0.9061 B(  3-O ,  4-C ) :   0.9697 B(  4-C ,  5-C ) :   0.9435
B(  4-C , 14-H ) :   0.9255 B(  4-C , 15-H ) :   0.9037 B(  5-C ,  6-C ) :   0.8577
B(  5-C ,  8-C ) :   0.8962 B(  6-C ,  7-C ) :   0.9211 B(  6-C , 16-H ) :   0.9276
B(  6-C , 17-H ) :   0.9277 B(  7-C ,  8-C ) :   0.9126 B(  7-C , 18-H ) :   0.8894
B(  8-C , 19-H ) :   0.9306 B(  8-C , 20-H ) :   0.9194

MP2 TOTAL ENERGY:     -386.346596907 Eh
FINAL SINGLE POINT ENERGY      -386.346596907077

DIPOLE MOMENT
-------------
                                X             Y             Z
Electronic contribution:     -1.39106      -2.45977       1.64148
Nuclear contribution   :      1.94687       2.66572      -1.99476
                        -----------------------------------------
Total Dipole Moment    :      0.55581       0.20596      -0.35328
                        -----------------------------------------
Magnitude (a.u.)       :      0.69004
Magnitude (Debye)      :      1.75393

                             ****ORCA TERMINATED NORMALLY****
TOTAL RUN TIME: 0 days 0 hours 21 minutes 1 seconds 413 msec
