                         Program Version 3.0.3 - RELEASE   -
|  1> ! RI-MP2 RIJK def2-TZVP def2-TZVP/C def2-TZVP/JK TIGHTSCF
|  2> % maxcore 2000
|  3> % mp2 density relaxed end
|  4> *xyz 0 1
|  5>  C       -0.1197610403     1.6377248726    -0.0371190989
|  6>  C       -0.1209023505     0.1059983523    -0.0228295800
|  7>  C        0.7293936066    -0.5173894023    -1.1368492142
|  8>  C        2.2457512658    -0.2653747550    -1.0441185869
|  9>  C        2.9211660746    -1.5903476232    -1.4354189640
| 10>  O        4.0884021432    -1.7560676903    -1.6433703670
| 11>  N        1.9447812523    -2.6467188647    -1.5255247497
| 12>  C        1.3030208505    -2.8773639550    -0.1981078901
| 13>  C        0.6315816688    -2.0431962346    -1.2155520024
| 14>  H        0.8881864979     2.0404017348     0.1082818406
| 15>  H       -0.4957842759     2.0236672161    -0.9911958482
| 16>  H       -0.7545152376     2.0398912331     0.7580176286
| 17>  H        0.2384950825    -0.2568334617     0.9488523644
| 18>  H       -1.1517821855    -0.2578344118    -0.1206854150
| 19>  H        0.3695806463    -0.1282547737    -2.0978880223
| 20>  H        2.6072420456     0.5378132802    -1.6886588047
| 21>  H        2.5689483747    -0.0157987895    -0.0260982698
| 22>  H        0.9903514617    -3.9030012675    -0.0318948372
| 23>  H        1.7509153330    -2.3960791618     0.6678266536
| 24>  H       -0.2051419438    -2.4666935980    -1.7635209869
| 25> *
| 26>
| 27>                          ****END OF INPUT****

CARTESIAN COORDINATES (ANGSTROEM)
---------------------------------
  C     -0.119761    1.637725   -0.037119
  C     -0.120902    0.105998   -0.022830
  C      0.729394   -0.517389   -1.136849
  C      2.245751   -0.265375   -1.044119
  C      2.921166   -1.590348   -1.435419
  O      4.088402   -1.756068   -1.643370
  N      1.944781   -2.646719   -1.525525
  C      1.303021   -2.877364   -0.198108
  C      0.631582   -2.043196   -1.215552
  H      0.888186    2.040402    0.108282
  H     -0.495784    2.023667   -0.991196
  H     -0.754515    2.039891    0.758018
  H      0.238495   -0.256833    0.948852
  H     -1.151782   -0.257834   -0.120685
  H      0.369581   -0.128255   -2.097888
  H      2.607242    0.537813   -1.688659
  H      2.568948   -0.015799   -0.026098
  H      0.990351   -3.903001   -0.031895
  H      1.750915   -2.396079    0.667827
  H     -0.205142   -2.466694   -1.763521

 Total Charge           Charge          ....    0
 Multiplicity           Mult            ....    1
 Number of Electrons    NEL             ....   68
 Basis Dimension        Dim             ....  345

ORBITAL ENERGIES
----------------

  NO   OCC          E(Eh)            E(eV)
   0   2.0000     -20.541240      -558.9556
   1   2.0000     -15.578200      -423.9044
   2   2.0000     -11.352367      -308.9136
   3   2.0000     -11.281233      -306.9780
   4   2.0000     -11.277520      -306.8769
   5   2.0000     -11.253432      -306.2215
   6   2.0000     -11.246475      -306.0321
   7   2.0000     -11.239957      -305.8548
   8   2.0000     -11.228389      -305.5400
   9   2.0000      -1.400629       -38.1131
  10   2.0000      -1.296033       -35.2669
  11   2.0000      -1.101409       -29.9709
  12   2.0000      -1.021001       -27.7829
  13   2.0000      -0.972451       -26.4617
  14   2.0000      -0.903964       -24.5981
  15   2.0000      -0.854062       -23.2402
  16   2.0000      -0.784194       -21.3390
  17   2.0000      -0.750812       -20.4306
  18   2.0000      -0.704173       -19.1615
  19   2.0000      -0.655663       -17.8415
  20   2.0000      -0.645225       -17.5575
  21   2.0000      -0.620555       -16.8862
  22   2.0000      -0.600461       -16.3394
  23   2.0000      -0.584326       -15.9003
  24   2.0000      -0.573863       -15.6156
  25   2.0000      -0.552432       -15.0324
  26   2.0000      -0.537001       -14.6125
  27   2.0000      -0.513143       -13.9633
  28   2.0000      -0.507155       -13.8004
  29   2.0000      -0.482666       -13.1340
  30   2.0000      -0.479454       -13.0466
  31   2.0000      -0.459136       -12.4937
  32   2.0000      -0.416634       -11.3372
  33   2.0000      -0.398474       -10.8430
  34   0.0000       0.122886         3.3439
  35   0.0000       0.140221         3.8156
  36   0.0000       0.143179         3.8961
  37   0.0000       0.153991         4.1903
  38   0.0000       0.159270         4.3340

MULLIKEN ATOMIC CHARGES
-----------------------
   0 C :   -0.387183
   1 C :   -0.236775
   2 C :   -0.056995
   3 C :   -0.314088
   4 C :    0.194375
   5 O :   -0.248492
   6 N :   -0.183444
   7 C :   -0.196582
   8 C :   -0.015646
   9 H :    0.131121
  10 H :    0.126484
  11 H :    0.139116
  12 H :    0.108243
  13 H :    0.117992
  14 H :    0.106588
  15 H :    0.155119
  16 H :    0.146038
  17 H :    0.143182
  18 H :    0.134034
  19 H :    0.136913
Sum of atomic charges:    0.0000000

LOEWDIN ATOMIC CHARGES
----------------------
   0 C :   -0.314931
   1 C :   -0.270835
   2 C :   -0.235681
   3 C :   -0.204331
   4 C :   -0.384325
   5 O :    0.161924
   6 N :    0.150172
   7 C :   -0.209361
   8 C :   -0.216932
   9 H :    0.121653
  10 H :    0.122459
  11 H :    0.122995
  12 H :    0.137267
  13 H :    0.140385
  14 H :    0.160525
  15 H :    0.152749
  16 H :    0.156770
  17 H :    0.132355
  18 H :    0.132296
  19 H :    0.144846

  Mayer bond orders larger than 0.1
B(  0-C ,  1-C ) :   0.9194 B(  0-C ,  9-H ) :   0.9382 B(  0-C , 10-H ) :   0.9371
B(  0-C , 11-H ) :   0.9406 B(  1-C ,  2-C ) :   0.9099 B(  1-C , 12-H ) :   0.9267
B(  1-C , 13-H ) :   0.9371 B(  2-C ,  3-C ) :   0.9172 B(  2-C ,  8-C ) :   0.9124
B(  2-C , 14-H ) :   0.9151 B(  3-C ,  4-C ) :   0.9049 B(  3-C , 15-H ) :   0.9084
B(  3-C , 16-H ) :   0.9074 B(  4-C ,  5-O ) :   2.0875 B(  4-C ,  6-N ) :   1.0065
B(  6-N ,  7-C ) :   0.8529 B(  6-N ,  8-C ) :   0.8607 B(  7-C ,  8-C ) :   0.9522
B(  7-C , 17-H ) :   0.9229 B(  7-C , 18-H ) :   0.9084 B(  8-C , 19-H ) :   0.9099

MP2 TOTAL ENERGY:     -402.469261914 Eh
FINAL SINGLE POINT ENERGY      -402.469261914385

DIPOLE MOMENT
-------------
                                X             Y             Z
Electronic contribution:      7.87381      -7.77493      -4.61974
Nuclear contribution   :     -9.29486       8.47068       5.33262
                        -----------------------------------------
Total Dipole Moment    :     -1.42105       0.69575       0.71288
                        -----------------------------------------
Magnitude (a.u.)       :      1.73541
Magnitude (Debye)      :      4.41106

                             ****ORCA TERMINATED NORMALLY****
TOTAL RUN TIME: 0 days 0 hours 32 minutes 59 seconds 455 msec
