                         Program Version 3.0.3 - RELEASE   -
|  1> ! RI-MP2 RIJK def2-TZVP def2-TZVP/C def2-TZVP/JK TIGHTSCF
|  2> % maxcore 2000
|  3> % mp2 density relaxed end
|  4> *xyz 0 1
|  5>  N       -0.0604664325     1.3104736059     0.3032123183
|  6>  C       -0.0088634470     0.1032644228    -0.0448300271
|  7>  N       -1.1187337254    -0.7041203260    -0.1465143291
|  8>  C       -1.1409568188    -2.0475646364    -0.5247171988
|  9>  O       -2.1687705521    -2.6670238095    -0.5826204150
| 10>  N        0.1219046375    -2.6041052422    -0.8271421939
| 11>  C        1.1358131364    -1.8491966122    -0.7293278776
| 12>  O        1.1774405962    -0.5447534737    -0.3643836662
| 13>  H        0.8636416185     1.7342552603     0.3174578011
| 14>  H       -2.0054171378    -0.2738104746     0.0769951025
| 15>  H        2.1386442050    -2.2075205443    -0.9457618041
| 16> *
| 17>
| 18>                          ****END OF INPUT****

CARTESIAN COORDINATES (ANGSTROEM)
---------------------------------
  N     -0.060466    1.310474    0.303212
  C     -0.008863    0.103264   -0.044830
  N     -1.118734   -0.704120   -0.146514
  C     -1.140957   -2.047565   -0.524717
  O     -2.168771   -2.667024   -0.582620
  N      0.121905   -2.604105   -0.827142
  C      1.135813   -1.849197   -0.729328
  O      1.177441   -0.544753   -0.364384
  H      0.863642    1.734255    0.317458
  H     -2.005417   -0.273810    0.076995
  H      2.138644   -2.207521   -0.945762

 Total Charge           Charge          ....    0
 Multiplicity           Mult            ....    1
 Number of Electrons    NEL             ....   58
 Basis Dimension        Dim             ....  266

ORBITAL ENERGIES
----------------

  NO   OCC          E(Eh)            E(eV)
   0   2.0000     -20.678424      -562.6885
   1   2.0000     -20.554230      -559.3090
   2   2.0000     -15.638166      -425.5361
   3   2.0000     -15.602436      -424.5639
   4   2.0000     -15.562925      -423.4887
   5   2.0000     -11.422528      -310.8228
   6   2.0000     -11.414707      -310.6100
   7   2.0000     -11.410008      -310.4821
   8   2.0000      -1.526609       -41.5412
   9   2.0000      -1.430904       -38.9369
  10   2.0000      -1.304900       -35.5081
  11   2.0000      -1.284730       -34.9593
  12   2.0000      -1.202880       -32.7320
  13   2.0000      -0.977554       -26.6006
  14   2.0000      -0.918758       -25.0007
  15   2.0000      -0.826425       -22.4882
  16   2.0000      -0.791890       -21.5484
  17   2.0000      -0.740441       -20.1484
  18   2.0000      -0.718066       -19.5396
  19   2.0000      -0.698824       -19.0160
  20   2.0000      -0.667191       -18.1552
  21   2.0000      -0.614352       -16.7174
  22   2.0000      -0.614034       -16.7087
  23   2.0000      -0.550980       -14.9929
  24   2.0000      -0.511188       -13.9101
  25   2.0000      -0.480871       -13.0852
  26   2.0000      -0.470301       -12.7975
  27   2.0000      -0.456294       -12.4164
  28   2.0000      -0.409129       -11.1330
  29   0.0000       0.080932         2.2023
  30   0.0000       0.132420         3.6033
  31   0.0000       0.152974         4.1626
  32   0.0000       0.155793         4.2394
  33   0.0000       0.163620         4.4523

MULLIKEN ATOMIC CHARGES
-----------------------
   0 N :   -0.386842
   1 C :    0.272653
   2 N :   -0.280869
   3 C :    0.300310
   4 O :   -0.276329
   5 N :   -0.236562
   6 C :    0.134802
   7 O :   -0.214322
   8 H :    0.242815
   9 H :    0.277588
  10 H :    0.166755
Sum of atomic charges:    0.0000000

LOEWDIN ATOMIC CHARGES
----------------------
   0 N :   -0.058099
   1 C :   -0.454223
   2 N :    0.174409
   3 C :   -0.490695
   4 O :    0.141193
   5 N :    0.128182
   6 C :   -0.280328
   7 O :    0.299151
   8 H :    0.177855
   9 H :    0.217490
  10 H :    0.145065

  Mayer bond orders larger than 0.1
B(  0-N ,  1-C ) :   1.9956 B(  0-N ,  8-H ) :   0.8492 B(  1-C ,  2-N ) :   1.0756
B(  1-C ,  7-O ) :   0.9728 B(  2-N ,  3-C ) :   1.0521 B(  2-N ,  9-H ) :   0.8427
B(  3-C ,  4-O ) :   2.0304 B(  3-C ,  5-N ) :   1.0238 B(  5-N ,  6-C ) :   1.7464
B(  6-C ,  7-O ) :   1.0409 B(  6-C , 10-H ) :   0.9221

MP2 TOTAL ENERGY:     -430.092584809 Eh
FINAL SINGLE POINT ENERGY      -430.092584808689

DIPOLE MOMENT
-------------
                                X             Y             Z
Electronic contribution:     -0.45790      -1.75589      -0.44514
Nuclear contribution   :      1.66948       2.42021       0.49468
                        -----------------------------------------
Total Dipole Moment    :      1.21158       0.66432       0.04954
                        -----------------------------------------
Magnitude (a.u.)       :      1.38265
Magnitude (Debye)      :      3.51441

                             ****ORCA TERMINATED NORMALLY****
TOTAL RUN TIME: 0 days 0 hours 7 minutes 49 seconds 383 msec
