                         Program Version 3.0.3 - RELEASE   -
|  1> ! RI-MP2 RIJK def2-TZVP def2-TZVP/C def2-TZVP/JK TIGHTSCF
|  2> % maxcore 2000
|  3> % mp2 density relaxed end
|  4> *xyz 0 1
|  5>  C        0.2522208507     1.4954773967    -0.2663941652
|  6>  C        0.0656027007     0.0024823762    -0.0470657664
|  7>  O        0.6736248537    -0.6981954487    -1.1386473383
|  8>  C        1.2076897514    -1.9565316859    -0.7090225939
|  9>  C        2.4430309516    -2.2241790406    -1.5614071035
| 10>  O        2.1295757488    -2.2034882569    -2.9412350753
| 11>  C        1.4436564733    -1.7955832446     0.7802974848
| 12>  N        2.2022407840    -0.5653357714     1.1006373735
| 13>  C        0.7288910060    -0.5710571155     1.1949559989
| 14>  H        1.3159269732     1.7425315291    -0.2350233064
| 15>  H       -0.1524728572     1.7901670419    -1.2384390171
| 16>  H       -0.2707397578     2.0649397597     0.5087501072
| 17>  H       -1.0091441922    -0.2424109814    -0.0021657201
| 18>  H        0.4663374523    -2.7555285969    -0.8741776264
| 19>  H        3.2089921537    -1.4797481971    -1.3026456939
| 20>  H        2.8395380347    -3.2213409907    -1.3399486315
| 21>  H        1.6699064209    -1.3689028836    -3.0905946071
| 22>  H        1.5293992533    -2.6701437333     1.4159733458
| 23>  H        2.5968714172    -0.6522354526     2.0339462307
| 24>  H        0.2440302517    -0.4733104642     2.1605436241
| 25> *
| 26>
| 27>                          ****END OF INPUT****

CARTESIAN COORDINATES (ANGSTROEM)
---------------------------------
  C      0.252221    1.495477   -0.266394
  C      0.065603    0.002482   -0.047066
  O      0.673625   -0.698195   -1.138647
  C      1.207690   -1.956532   -0.709023
  C      2.443031   -2.224179   -1.561407
  O      2.129576   -2.203488   -2.941235
  C      1.443656   -1.795583    0.780297
  N      2.202241   -0.565336    1.100637
  C      0.728891   -0.571057    1.194956
  H      1.315927    1.742532   -0.235023
  H     -0.152473    1.790167   -1.238439
  H     -0.270740    2.064940    0.508750
  H     -1.009144   -0.242411   -0.002166
  H      0.466337   -2.755529   -0.874178
  H      3.208992   -1.479748   -1.302646
  H      2.839538   -3.221341   -1.339949
  H      1.669906   -1.368903   -3.090595
  H      1.529399   -2.670144    1.415973
  H      2.596871   -0.652235    2.033946
  H      0.244030   -0.473310    2.160544

 Total Charge           Charge          ....    0
 Multiplicity           Mult            ....    1
 Number of Electrons    NEL             ....   70
 Basis Dimension        Dim             ....  345

ORBITAL ENERGIES
----------------

  NO   OCC          E(Eh)            E(eV)
   0   2.0000     -20.555893      -559.3543
   1   2.0000     -20.541338      -558.9582
   2   2.0000     -15.569814      -423.6762
   3   2.0000     -11.287600      -307.1512
   4   2.0000     -11.282206      -307.0044
   5   2.0000     -11.270282      -306.6800
   6   2.0000     -11.269115      -306.6482
   7   2.0000     -11.264877      -306.5329
   8   2.0000     -11.214326      -305.1573
   9   2.0000      -1.390996       -37.8509
  10   2.0000      -1.344589       -36.5881
  11   2.0000      -1.265696       -34.4413
  12   2.0000      -1.052566       -28.6418
  13   2.0000      -0.989452       -26.9244
  14   2.0000      -0.929372       -25.2895
  15   2.0000      -0.873402       -23.7665
  16   2.0000      -0.798432       -21.7264
  17   2.0000      -0.776863       -21.1395
  18   2.0000      -0.742183       -20.1958
  19   2.0000      -0.690052       -18.7773
  20   2.0000      -0.648597       -17.6492
  21   2.0000      -0.643179       -17.5018
  22   2.0000      -0.615187       -16.7401
  23   2.0000      -0.584432       -15.9032
  24   2.0000      -0.572337       -15.5741
  25   2.0000      -0.558198       -15.1893
  26   2.0000      -0.529781       -14.4161
  27   2.0000      -0.525122       -14.2893
  28   2.0000      -0.510667       -13.8959
  29   2.0000      -0.489470       -13.3191
  30   2.0000      -0.477788       -13.0013
  31   2.0000      -0.469681       -12.7807
  32   2.0000      -0.448318       -12.1994
  33   2.0000      -0.422322       -11.4920
  34   2.0000      -0.380879       -10.3642
  35   0.0000       0.126486         3.4419
  36   0.0000       0.150060         4.0833
  37   0.0000       0.158578         4.3151
  38   0.0000       0.169269         4.6060
  39   0.0000       0.188897         5.1402

MULLIKEN ATOMIC CHARGES
-----------------------
   0 C :   -0.420742
   1 C :    0.121320
   2 O :   -0.350943
   3 C :    0.100436
   4 C :   -0.040245
   5 O :   -0.483063
   6 C :   -0.080441
   7 N :   -0.409563
   8 C :   -0.054398
   9 H :    0.150734
  10 H :    0.139606
  11 H :    0.119652
  12 H :    0.076539
  13 H :    0.078675
  14 H :    0.121092
  15 H :    0.097889
  16 H :    0.328207
  17 H :    0.145295
  18 H :    0.218264
  19 H :    0.141686
Sum of atomic charges:    0.0000000

LOEWDIN ATOMIC CHARGES
----------------------
   0 C :   -0.289498
   1 C :   -0.312396
   2 O :    0.185995
   3 C :   -0.301998
   4 C :   -0.326233
   5 O :   -0.047984
   6 C :   -0.231648
   7 N :    0.011891
   8 C :   -0.235010
   9 H :    0.131505
  10 H :    0.127265
  11 H :    0.125322
  12 H :    0.140304
  13 H :    0.142617
  14 H :    0.124949
  15 H :    0.128666
  16 H :    0.177958
  17 H :    0.139466
  18 H :    0.170183
  19 H :    0.138647

  Mayer bond orders larger than 0.1
B(  0-C ,  1-C ) :   0.8977 B(  0-C ,  9-H ) :   0.9414 B(  0-C , 10-H ) :   0.9375
B(  0-C , 11-H ) :   0.9308 B(  1-C ,  2-O ) :   0.9437 B(  1-C ,  8-C ) :   0.9394
B(  1-C , 12-H ) :   0.9281 B(  2-O ,  3-C ) :   0.9022 B(  3-C ,  4-C ) :   0.9215
B(  3-C ,  6-C ) :   0.9275 B(  3-C , 13-H ) :   0.9237 B(  4-C ,  5-O ) :   0.9265
B(  4-C , 14-H ) :   0.9282 B(  4-C , 15-H ) :   0.9234 B(  5-O , 16-H ) :   0.8327
B(  6-C ,  7-N ) :   0.9178 B(  6-C ,  8-C ) :   0.8976 B(  6-C , 17-H ) :   0.9113
B(  7-N ,  8-C ) :   0.9227 B(  7-N , 18-H ) :   0.8646 B(  8-C , 19-H ) :   0.9102

MP2 TOTAL ENERGY:     -439.551415991 Eh
FINAL SINGLE POINT ENERGY      -439.551415990865

DIPOLE MOMENT
-------------
                                X             Y             Z
Electronic contribution:      0.76492      -2.87472      -1.32928
Nuclear contribution   :     -1.26427       2.94353       2.84534
                        -----------------------------------------
Total Dipole Moment    :     -0.49935       0.06881       1.51606
                        -----------------------------------------
Magnitude (a.u.)       :      1.59766
Magnitude (Debye)      :      4.06094

                             ****ORCA TERMINATED NORMALLY****
TOTAL RUN TIME: 0 days 0 hours 30 minutes 13 seconds 215 msec
