                         Program Version 3.0.3 - RELEASE   -
|  1> ! RI-MP2 RIJK def2-TZVP def2-TZVP/C def2-TZVP/JK TIGHTSCF
|  2> % maxcore 2000
|  3> % mp2 density relaxed end
|  4> *xyz 0 1
|  5>  C       -0.2793503700     1.5901565462    -0.0163425256
|  6>  C        0.0294507169     0.1021327742     0.0137405880
|  7>  C        1.1410353567    -0.5330111862    -0.8752571414
|  8>  C        2.3559568949     0.3878364602    -1.0417011274
|  9>  C        3.0323843399     0.2574521572     0.3099386119
| 10>  C        2.1750864597     0.0554895922     1.5614163068
| 11>  C        2.8041436611    -1.1205867425     0.8290565176
| 12>  N        1.4747324915    -1.5153784844     0.2677895889
| 13>  C        0.8012566556    -0.5185727282     1.1903155069
| 14>  H        0.5952465150     2.1963701218     0.2381513341
| 15>  H       -0.6348593311     1.9083335288    -1.0027822452
| 16>  H       -1.0653953864     1.8314199714     0.7078227221
| 17>  H       -0.8935482437    -0.4712127518    -0.1244152583
| 18>  H        0.8233755248    -1.0197719824    -1.7989921160
| 19>  H        3.0291847949     0.0260844597    -1.8280483546
| 20>  H        2.0661272064     1.4097724564    -1.3034869234
| 21>  H        3.9963672292     0.7232805391     0.4859575350
| 22>  H        2.4546504084     0.5070661515     2.5061439558
| 23>  H        3.5519501178    -1.8518302655     1.1100176966
| 24>  H        0.2505312185    -0.9345000378     2.0395793482
| 25> *
| 26>
| 27>                          ****END OF INPUT****

CARTESIAN COORDINATES (ANGSTROEM)
---------------------------------
  C     -0.279350    1.590157   -0.016343
  C      0.029451    0.102133    0.013741
  C      1.141035   -0.533011   -0.875257
  C      2.355957    0.387836   -1.041701
  C      3.032384    0.257452    0.309939
  C      2.175086    0.055490    1.561416
  C      2.804144   -1.120587    0.829057
  N      1.474732   -1.515378    0.267790
  C      0.801257   -0.518573    1.190316
  H      0.595247    2.196370    0.238151
  H     -0.634859    1.908334   -1.002782
  H     -1.065395    1.831420    0.707823
  H     -0.893548   -0.471213   -0.124415
  H      0.823376   -1.019772   -1.798992
  H      3.029185    0.026084   -1.828048
  H      2.066127    1.409772   -1.303487
  H      3.996367    0.723281    0.485958
  H      2.454650    0.507066    2.506144
  H      3.551950   -1.851830    1.110018
  H      0.250531   -0.934500    2.039579

 Total Charge           Charge          ....    0
 Multiplicity           Mult            ....    1
 Number of Electrons    NEL             ....   66
 Basis Dimension        Dim             ....  345

ORBITAL ENERGIES
----------------

  NO   OCC          E(Eh)            E(eV)
   0   2.0000     -15.541853      -422.9153
   1   2.0000     -11.254657      -306.2548
   2   2.0000     -11.251295      -306.1633
   3   2.0000     -11.250585      -306.1440
   4   2.0000     -11.235282      -305.7276
   5   2.0000     -11.234390      -305.7033
   6   2.0000     -11.224722      -305.4402
   7   2.0000     -11.222715      -305.3856
   8   2.0000     -11.215210      -305.1814
   9   2.0000      -1.290632       -35.1199
  10   2.0000      -1.094602       -29.7856
  11   2.0000      -1.036050       -28.1924
  12   2.0000      -1.003579       -27.3088
  13   2.0000      -0.912337       -24.8259
  14   2.0000      -0.844141       -22.9702
  15   2.0000      -0.798719       -21.7342
  16   2.0000      -0.762684       -20.7537
  17   2.0000      -0.706707       -19.2305
  18   2.0000      -0.676545       -18.4097
  19   2.0000      -0.641575       -17.4582
  20   2.0000      -0.619245       -16.8505
  21   2.0000      -0.588684       -16.0189
  22   2.0000      -0.566795       -15.4233
  23   2.0000      -0.557358       -15.1665
  24   2.0000      -0.542562       -14.7639
  25   2.0000      -0.521288       -14.1850
  26   2.0000      -0.495578       -13.4854
  27   2.0000      -0.470615       -12.8061
  28   2.0000      -0.452644       -12.3171
  29   2.0000      -0.435878       -11.8608
  30   2.0000      -0.404717       -11.0129
  31   2.0000      -0.374678       -10.1955
  32   2.0000      -0.354717        -9.6523
  33   0.0000       0.136766         3.7216
  34   0.0000       0.158427         4.3110
  35   0.0000       0.168746         4.5918
  36   0.0000       0.169385         4.6092
  37   0.0000       0.193427         5.2634

MULLIKEN ATOMIC CHARGES
-----------------------
   0 C :   -0.445262
   1 C :   -0.112096
   2 C :    0.053949
   3 C :   -0.243793
   4 C :   -0.149483
   5 C :   -0.225402
   6 C :   -0.074980
   7 N :   -0.208932
   8 C :    0.037182
   9 H :    0.139972
  10 H :    0.134980
  11 H :    0.135912
  12 H :    0.101684
  13 H :    0.116902
  14 H :    0.116958
  15 H :    0.124717
  16 H :    0.123420
  17 H :    0.126779
  18 H :    0.131805
  19 H :    0.115686
Sum of atomic charges:    0.0000000

LOEWDIN ATOMIC CHARGES
----------------------
   0 C :   -0.299005
   1 C :   -0.228326
   2 C :   -0.189156
   3 C :   -0.219613
   4 C :   -0.189531
   5 C :   -0.149522
   6 C :   -0.187485
   7 N :    0.144999
   8 C :   -0.184401
   9 H :    0.125375
  10 H :    0.125492
  11 H :    0.126860
  12 H :    0.155797
  13 H :    0.133378
  14 H :    0.141805
  15 H :    0.141266
  16 H :    0.151561
  17 H :    0.135136
  18 H :    0.130246
  19 H :    0.135123

  Mayer bond orders larger than 0.1
B(  0-C ,  1-C ) :   0.8890 B(  0-C ,  9-H ) :   0.9395 B(  0-C , 10-H ) :   0.9363
B(  0-C , 11-H ) :   0.9355 B(  1-C ,  2-C ) :   0.9460 B(  1-C ,  8-C ) :   0.9580
B(  1-C , 12-H ) :   0.9144 B(  2-C ,  3-C ) :   0.9317 B(  2-C ,  7-N ) :   0.9258
B(  2-C , 13-H ) :   0.9118 B(  3-C ,  4-C ) :   0.9616 B(  3-C , 14-H ) :   0.9151
B(  3-C , 15-H ) :   0.9185 B(  4-C ,  5-C ) :   0.8781 B(  4-C ,  6-C ) :   0.8810
B(  4-C , 16-H ) :   0.9316 B(  5-C ,  6-C ) :   0.8571 B(  5-C ,  8-C ) :   0.9321
B(  5-C , 17-H ) :   0.9195 B(  6-C ,  7-N ) :   0.9653 B(  6-C , 18-H ) :   0.9222
B(  7-N ,  8-C ) :   0.9786 B(  8-C , 19-H ) :   0.8942

MP2 TOTAL ENERGY:     -365.302446257 Eh
FINAL SINGLE POINT ENERGY      -365.302446256507

DIPOLE MOMENT
-------------
                                X             Y             Z
Electronic contribution:      2.17644      -4.60079       1.48584
Nuclear contribution   :     -2.01409       5.26031      -1.45761
                        -----------------------------------------
Total Dipole Moment    :      0.16235       0.65952       0.02823
                        -----------------------------------------
Magnitude (a.u.)       :      0.67980
Magnitude (Debye)      :      1.72791

                             ****ORCA TERMINATED NORMALLY****
TOTAL RUN TIME: 0 days 0 hours 22 minutes 5 seconds 89 msec
