                         Program Version 3.0.3 - RELEASE   -
|  1> ! RI-MP2 RIJK def2-TZVP def2-TZVP/C def2-TZVP/JK TIGHTSCF
|  2> % maxcore 2000
|  3> % mp2 density relaxed end
|  4> *xyz 0 1
|  5>  O        0.0136385459     1.4328515033     0.0078783582
|  6>  C       -0.0232685500     0.0306422684     0.0020759193
|  7>  C       -1.4408745447    -0.4598329685     0.0124511133
|  8>  N       -2.4508206779     0.3511579809     0.0230566451
|  9>  C       -3.7053586644    -0.2025422691     0.0320052639
| 10>  N       -3.9961358393    -1.4692389953     0.0310648358
| 11>  N       -2.9328211782    -2.2934206344     0.0199431392
| 12>  C       -1.5984488451    -1.9287551373     0.0095344535
| 13>  O       -0.6898959921    -2.7414086035    -0.0003633398
| 14>  H        0.9369953503     1.7006501848    -0.0044918564
| 15>  H        0.4688052701    -0.4123244974    -0.8810080453
| 16>  H        0.4842945228    -0.4199778805     0.8724409954
| 17>  H       -4.5444913209     0.4824853553     0.0408315345
| 18>  H       -3.1465131665    -3.2830423966     0.0190748334
| 19> *
| 20>
| 21>                          ****END OF INPUT****

CARTESIAN COORDINATES (ANGSTROEM)
---------------------------------
  O      0.013639    1.432852    0.007878
  C     -0.023269    0.030642    0.002076
  C     -1.440875   -0.459833    0.012451
  N     -2.450821    0.351158    0.023057
  C     -3.705359   -0.202542    0.032005
  N     -3.996136   -1.469239    0.031065
  N     -2.932821   -2.293421    0.019943
  C     -1.598449   -1.928755    0.009534
  O     -0.689896   -2.741409   -0.000363
  H      0.936995    1.700650   -0.004492
  H      0.468805   -0.412324   -0.881008
  H      0.484295   -0.419978    0.872441
  H     -4.544491    0.482485    0.040832
  H     -3.146513   -3.283042    0.019075

 Total Charge           Charge          ....    0
 Multiplicity           Mult            ....    1
 Number of Electrons    NEL             ....   66
 Basis Dimension        Dim             ....  309

ORBITAL ENERGIES
----------------

  NO   OCC          E(Eh)            E(eV)
   0   2.0000     -20.574926      -559.8722
   1   2.0000     -20.543219      -559.0094
   2   2.0000     -15.660195      -426.1356
   3   2.0000     -15.638312      -425.5401
   4   2.0000     -15.605665      -424.6517
   5   2.0000     -11.380824      -309.6880
   6   2.0000     -11.327737      -308.2434
   7   2.0000     -11.319862      -308.0291
   8   2.0000     -11.306012      -307.6522
   9   2.0000      -1.426881       -38.8274
  10   2.0000      -1.385605       -37.7042
  11   2.0000      -1.370163       -37.2840
  12   2.0000      -1.268703       -34.5232
  13   2.0000      -1.142038       -31.0764
  14   2.0000      -1.022148       -27.8141
  15   2.0000      -0.927369       -25.2350
  16   2.0000      -0.890956       -24.2442
  17   2.0000      -0.783098       -21.3092
  18   2.0000      -0.760402       -20.6916
  19   2.0000      -0.710139       -19.3239
  20   2.0000      -0.673096       -18.3159
  21   2.0000      -0.660835       -17.9822
  22   2.0000      -0.643907       -17.5216
  23   2.0000      -0.637277       -17.3412
  24   2.0000      -0.615255       -16.7419
  25   2.0000      -0.539944       -14.6926
  26   2.0000      -0.539203       -14.6725
  27   2.0000      -0.525790       -14.3075
  28   2.0000      -0.505587       -13.7577
  29   2.0000      -0.498758       -13.5719
  30   2.0000      -0.459902       -12.5146
  31   2.0000      -0.418115       -11.3775
  32   2.0000      -0.359332        -9.7779
  33   0.0000       0.054966         1.4957
  34   0.0000       0.123216         3.3529
  35   0.0000       0.130750         3.5579
  36   0.0000       0.144693         3.9373
  37   0.0000       0.169011         4.5990

MULLIKEN ATOMIC CHARGES
-----------------------
   0 O :   -0.435300
   1 C :   -0.061989
   2 C :    0.097000
   3 N :   -0.197951
   4 C :    0.031314
   5 N :   -0.155671
   6 N :   -0.102589
   7 C :    0.170106
   8 O :   -0.351602
   9 H :    0.322807
  10 H :    0.130651
  11 H :    0.130713
  12 H :    0.154491
  13 H :    0.268020
Sum of atomic charges:   -0.0000000

LOEWDIN ATOMIC CHARGES
----------------------
   0 O :   -0.016703
   1 C :   -0.316843
   2 C :   -0.182078
   3 N :    0.176580
   4 C :   -0.313098
   5 N :    0.061401
   6 N :    0.143176
   7 C :   -0.437616
   8 O :    0.081970
   9 H :    0.179378
  10 H :    0.140675
  11 H :    0.140673
  12 H :    0.141655
  13 H :    0.200830

  Mayer bond orders larger than 0.1
B(  0-O ,  1-C ) :   1.0640 B(  0-O ,  9-H ) :   0.8442 B(  1-C ,  2-C ) :   0.9279
B(  1-C , 10-H ) :   0.9199 B(  1-C , 11-H ) :   0.9201 B(  2-C ,  3-N ) :   1.5871
B(  2-C ,  7-C ) :   0.9574 B(  3-N ,  4-C ) :   1.1857 B(  4-C ,  5-N ) :   1.6046
B(  4-C , 12-H ) :   0.9315 B(  5-N ,  6-N ) :   0.9825 B(  6-N ,  7-C ) :   1.1490
B(  6-N , 13-H ) :   0.8575 B(  7-C ,  8-O ) :   1.9480

MP2 TOTAL ENERGY:     -469.267808450 Eh
FINAL SINGLE POINT ENERGY      -469.267808450178

DIPOLE MOMENT
-------------
                                X             Y             Z
Electronic contribution:     -2.93589      -1.96098       0.02035
Nuclear contribution   :      3.04327       1.92900      -0.02553
                        -----------------------------------------
Total Dipole Moment    :      0.10738      -0.03198      -0.00518
                        -----------------------------------------
Magnitude (a.u.)       :      0.11216
Magnitude (Debye)      :      0.28510

                             ****ORCA TERMINATED NORMALLY****
TOTAL RUN TIME: 0 days 0 hours 15 minutes 44 seconds 177 msec
