                         Program Version 3.0.3 - RELEASE   -
|  1> ! RI-MP2 RIJK def2-TZVP def2-TZVP/C def2-TZVP/JK TIGHTSCF
|  2> % maxcore 2000
|  3> % mp2 density relaxed end
|  4> *xyz 0 1
|  5>  C       -0.0803462215     1.3146014330    -0.3517121571
|  6>  C        1.2559500676     0.8891072277     0.1411374494
|  7>  N        0.1614969198    -0.0742848805    -0.0066118372
|  8>  C       -0.3771520540    -0.6137145591     1.2167039003
|  9>  C       -1.5331447498    -0.1590245609     2.0847621946
| 10>  C       -2.8424551653     0.1746373488     1.3048505475
| 11>  O       -2.6180828308     0.0572388536    -0.1064827811
| 12>  C       -2.8466439937    -1.1311429409     0.6589957199
| 13>  C       -1.5415335507    -1.5468897256     1.3923912562
| 14>  H       -0.6879499197     1.9072712685     0.3279523364
| 15>  H       -0.2558866400     1.5117197165    -1.4050043429
| 16>  H        2.0928597601     0.7559233967    -0.5391676570
| 17>  H        1.5311645708     1.2002417210     1.1482519853
| 18>  H        0.4358552902    -0.9605820838     1.8552098850
| 19>  H       -1.4303487396     0.0502205166     3.1429230260
| 20>  H       -3.6435973095     0.8229743821     1.6383001311
| 21>  H       -3.6519373595    -1.7858323051     0.3491655268
| 22>  H       -1.4299166144    -2.5179675388     1.8593458568
| 23> *
| 24>
| 25>                          ****END OF INPUT****

CARTESIAN COORDINATES (ANGSTROEM)
---------------------------------
  C     -0.080346    1.314601   -0.351712
  C      1.255950    0.889107    0.141137
  N      0.161497   -0.074285   -0.006612
  C     -0.377152   -0.613715    1.216704
  C     -1.533145   -0.159025    2.084762
  C     -2.842455    0.174637    1.304851
  O     -2.618083    0.057239   -0.106483
  C     -2.846644   -1.131143    0.658996
  C     -1.541534   -1.546890    1.392391
  H     -0.687950    1.907271    0.327952
  H     -0.255887    1.511720   -1.405004
  H      2.092860    0.755923   -0.539168
  H      1.531165    1.200242    1.148252
  H      0.435855   -0.960582    1.855210
  H     -1.430349    0.050221    3.142923
  H     -3.643597    0.822974    1.638300
  H     -3.651937   -1.785832    0.349166
  H     -1.429917   -2.517968    1.859346

 Total Charge           Charge          ....    0
 Multiplicity           Mult            ....    1
 Number of Electrons    NEL             ....   66
 Basis Dimension        Dim             ....  333

ORBITAL ENERGIES
----------------

  NO   OCC          E(Eh)            E(eV)
   0   2.0000     -20.566474      -559.6422
   1   2.0000     -15.551585      -423.1801
   2   2.0000     -11.291124      -307.2471
   3   2.0000     -11.289521      -307.2035
   4   2.0000     -11.275404      -306.8193
   5   2.0000     -11.245459      -306.0045
   6   2.0000     -11.243777      -305.9587
   7   2.0000     -11.243750      -305.9580
   8   2.0000     -11.241182      -305.8881
   9   2.0000      -1.419529       -38.6273
  10   2.0000      -1.267597       -34.4931
  11   2.0000      -1.155347       -31.4386
  12   2.0000      -0.968148       -26.3446
  13   2.0000      -0.894041       -24.3281
  14   2.0000      -0.886197       -24.1146
  15   2.0000      -0.835481       -22.7346
  16   2.0000      -0.758593       -20.6424
  17   2.0000      -0.752857       -20.4863
  18   2.0000      -0.726825       -19.7779
  19   2.0000      -0.678354       -18.4589
  20   2.0000      -0.649197       -17.6656
  21   2.0000      -0.635000       -17.2792
  22   2.0000      -0.575303       -15.6548
  23   2.0000      -0.554344       -15.0845
  24   2.0000      -0.536572       -14.6009
  25   2.0000      -0.515432       -14.0256
  26   2.0000      -0.490372       -13.3437
  27   2.0000      -0.474758       -12.9188
  28   2.0000      -0.472870       -12.8675
  29   2.0000      -0.459834       -12.5127
  30   2.0000      -0.413072       -11.2403
  31   2.0000      -0.353822        -9.6280
  32   2.0000      -0.348305        -9.4779
  33   0.0000       0.144040         3.9195
  34   0.0000       0.152529         4.1505
  35   0.0000       0.171825         4.6756
  36   0.0000       0.178493         4.8570
  37   0.0000       0.190672         5.1885

MULLIKEN ATOMIC CHARGES
-----------------------
   0 C :   -0.131836
   1 C :   -0.188481
   2 N :   -0.199160
   3 C :   -0.062461
   4 C :   -0.114538
   5 C :   -0.039791
   6 O :   -0.303564
   7 C :   -0.035689
   8 C :   -0.097634
   9 H :    0.115010
  10 H :    0.125225
  11 H :    0.128250
  12 H :    0.115982
  13 H :    0.113006
  14 H :    0.138421
  15 H :    0.146795
  16 H :    0.148234
  17 H :    0.142228
Sum of atomic charges:   -0.0000000

LOEWDIN ATOMIC CHARGES
----------------------
   0 C :   -0.263123
   1 C :   -0.265119
   2 N :    0.118526
   3 C :   -0.233382
   4 C :   -0.152325
   5 C :   -0.230677
   6 O :    0.195528
   7 C :   -0.222406
   8 C :   -0.140643
   9 H :    0.124208
  10 H :    0.124418
  11 H :    0.122220
  12 H :    0.120850
  13 H :    0.162436
  14 H :    0.136058
  15 H :    0.131784
  16 H :    0.132952
  17 H :    0.138694

  Mayer bond orders larger than 0.1
B(  0-C ,  1-C ) :   0.9478 B(  0-C ,  2-N ) :   0.8867 B(  0-C ,  9-H ) :   0.9272
B(  0-C , 10-H ) :   0.9284 B(  1-C ,  2-N ) :   0.8742 B(  1-C , 11-H ) :   0.9237
B(  1-C , 12-H ) :   0.9212 B(  2-N ,  3-C ) :   0.9522 B(  3-C ,  4-C ) :   0.8973
B(  3-C ,  8-C ) :   0.8658 B(  3-C , 13-H ) :   0.9381 B(  4-C ,  5-C ) :   0.8510
B(  4-C ,  8-C ) :   0.8351 B(  4-C , 14-H ) :   0.9093 B(  5-C ,  6-O ) :   0.8989
B(  5-C ,  7-C ) :   1.0032 B(  5-C , 15-H ) :   0.9257 B(  6-O ,  7-C ) :   0.9196
B(  7-C ,  8-C ) :   0.8599 B(  7-C , 16-H ) :   0.9225 B(  8-C , 17-H ) :   0.9088

MP2 TOTAL ENERGY:     -401.114666846 Eh
FINAL SINGLE POINT ENERGY      -401.114666845951

DIPOLE MOMENT
-------------
                                X             Y             Z
Electronic contribution:     -3.30252      -1.75008      -1.12674
Nuclear contribution   :      3.14361       1.74923       2.07874
                        -----------------------------------------
Total Dipole Moment    :     -0.15892      -0.00085       0.95201
                        -----------------------------------------
Magnitude (a.u.)       :      0.96518
Magnitude (Debye)      :      2.45329

                             ****ORCA TERMINATED NORMALLY****
TOTAL RUN TIME: 0 days 0 hours 17 minutes 26 seconds 668 msec
