                         Program Version 3.0.3 - RELEASE   -
|  1> ! RI-MP2 RIJK def2-TZVP def2-TZVP/C def2-TZVP/JK TIGHTSCF
|  2> % maxcore 2000
|  3> % mp2 density relaxed end
|  4> *xyz 0 1
|  5>  C       -0.0409614655     1.4686733892     0.0028803656
|  6>  C        1.4308993968     1.8812847090    -0.0343653508
|  7>  N        2.1865630891     1.4804969505     1.1657514939
|  8>  C        2.2706250760     0.6485333449    -0.0741665662
|  9>  C        1.3255832968    -0.4840834283    -0.0619807744
| 10>  C        1.2539389149    -1.8582571013    -0.0569840532
| 11>  C       -0.1294617972    -2.1924226690     0.0274470134
| 12>  C       -0.8526043324    -1.0164496567     0.0772374838
| 13>  N        0.0449912241     0.0126235535     0.0116556337
| 14>  H       -0.5468411695     1.8430003187     0.8988313656
| 15>  H       -0.5782015618     1.8288263877    -0.8826315799
| 16>  H        1.7036773211     2.7874135772    -0.5633561782
| 17>  H        3.0224289485     2.0596723375     1.2310183811
| 18>  H        3.2080565796     0.6011919683    -0.6152672209
| 19>  H        2.0846586046    -2.5456714400    -0.0938686895
| 20>  H       -0.5491127811    -3.1869682505     0.0471775731
| 21>  H       -1.9143802138    -0.8391872604     0.1390153429
| 22> *
| 23>
| 24>                          ****END OF INPUT****

CARTESIAN COORDINATES (ANGSTROEM)
---------------------------------
  C     -0.040961    1.468673    0.002880
  C      1.430899    1.881285   -0.034365
  N      2.186563    1.480497    1.165751
  C      2.270625    0.648533   -0.074167
  C      1.325583   -0.484083   -0.061981
  C      1.253939   -1.858257   -0.056984
  C     -0.129462   -2.192423    0.027447
  C     -0.852604   -1.016450    0.077237
  N      0.044991    0.012624    0.011656
  H     -0.546841    1.843000    0.898831
  H     -0.578202    1.828826   -0.882632
  H      1.703677    2.787414   -0.563356
  H      3.022429    2.059672    1.231018
  H      3.208057    0.601192   -0.615267
  H      2.084659   -2.545671   -0.093869
  H     -0.549113   -3.186968    0.047178
  H     -1.914380   -0.839187    0.139015

 Total Charge           Charge          ....    0
 Multiplicity           Mult            ....    1
 Number of Electrons    NEL             ....   64
 Basis Dimension        Dim             ....  327

ORBITAL ENERGIES
----------------

  NO   OCC          E(Eh)            E(eV)
   0   2.0000     -15.594584      -424.3502
   1   2.0000     -15.569505      -423.6678
   2   2.0000     -11.278839      -306.9128
   3   2.0000     -11.276021      -306.8361
   4   2.0000     -11.275288      -306.8162
   5   2.0000     -11.247236      -306.0529
   6   2.0000     -11.243693      -305.9564
   7   2.0000     -11.203942      -304.8748
   8   2.0000     -11.202915      -304.8468
   9   2.0000      -1.321885       -35.9703
  10   2.0000      -1.253541       -34.1106
  11   2.0000      -1.075506       -29.2660
  12   2.0000      -1.001073       -27.2406
  13   2.0000      -0.955545       -26.0017
  14   2.0000      -0.885517       -24.0961
  15   2.0000      -0.813730       -22.1427
  16   2.0000      -0.778822       -21.1928
  17   2.0000      -0.729761       -19.8578
  18   2.0000      -0.717297       -19.5186
  19   2.0000      -0.677798       -18.4438
  20   2.0000      -0.630400       -17.1540
  21   2.0000      -0.585388       -15.9292
  22   2.0000      -0.574405       -15.6304
  23   2.0000      -0.548489       -14.9252
  24   2.0000      -0.545688       -14.8489
  25   2.0000      -0.531611       -14.4659
  26   2.0000      -0.522533       -14.2189
  27   2.0000      -0.492236       -13.3944
  28   2.0000      -0.472576       -12.8595
  29   2.0000      -0.396437       -10.7876
  30   2.0000      -0.330818        -9.0020
  31   2.0000      -0.284131        -7.7316
  32   0.0000       0.131563         3.5800
  33   0.0000       0.149313         4.0630
  34   0.0000       0.157898         4.2966
  35   0.0000       0.174397         4.7456
  36   0.0000       0.187605         5.1050

MULLIKEN ATOMIC CHARGES
-----------------------
   0 C :   -0.147474
   1 C :   -0.041426
   2 N :   -0.367884
   3 C :   -0.158669
   4 C :    0.124515
   5 C :   -0.277425
   6 C :   -0.118023
   7 C :   -0.182140
   8 N :    0.021204
   9 H :    0.133747
  10 H :    0.123393
  11 H :    0.142705
  12 H :    0.216131
  13 H :    0.144104
  14 H :    0.122666
  15 H :    0.126718
  16 H :    0.137859
Sum of atomic charges:    0.0000000

LOEWDIN ATOMIC CHARGES
----------------------
   0 C :   -0.200981
   1 C :   -0.240966
   2 N :    0.006951
   3 C :   -0.209108
   4 C :   -0.191838
   5 C :   -0.169900
   6 C :   -0.196215
   7 C :   -0.221587
   8 N :    0.289733
   9 H :    0.142289
  10 H :    0.137147
  11 H :    0.136175
  12 H :    0.168045
  13 H :    0.142204
  14 H :    0.138450
  15 H :    0.136634
  16 H :    0.132968

  Mayer bond orders larger than 0.1
B(  0-C ,  1-C ) :   0.9580 B(  0-C ,  8-N ) :   0.9061 B(  0-C ,  9-H ) :   0.9048
B(  0-C , 10-H ) :   0.9205 B(  1-C ,  2-N ) :   0.9211 B(  1-C ,  3-C ) :   0.9423
B(  1-C , 11-H ) :   0.9165 B(  2-N ,  3-C ) :   0.9849 B(  2-N , 12-H ) :   0.8672
B(  3-C ,  4-C ) :   0.9419 B(  3-C , 13-H ) :   0.9244 B(  4-C ,  5-C ) :   1.4102
B(  4-C ,  8-N ) :   1.1364 B(  5-C ,  6-C ) :   1.2890 B(  5-C , 14-H ) :   0.9441
B(  6-C ,  7-C ) :   1.4407 B(  6-C , 15-H ) :   0.9318 B(  7-C ,  8-N ) :   1.1576
B(  7-C , 16-H ) :   0.9187

MP2 TOTAL ENERGY:     -380.204083128 Eh
FINAL SINGLE POINT ENERGY      -380.204083128101

DIPOLE MOMENT
-------------
                                X             Y             Z
Electronic contribution:      0.45217      -1.03884       0.27638
Nuclear contribution   :     -0.26645       2.09662      -0.79425
                        -----------------------------------------
Total Dipole Moment    :      0.18572       1.05778      -0.51787
                        -----------------------------------------
Magnitude (a.u.)       :      1.19230
Magnitude (Debye)      :      3.03059

                             ****ORCA TERMINATED NORMALLY****
TOTAL RUN TIME: 0 days 0 hours 18 minutes 0 seconds 719 msec
