                         Program Version 3.0.3 - RELEASE   -
|  1> ! RI-MP2 RIJK def2-TZVP def2-TZVP/C def2-TZVP/JK TIGHTSCF
|  2> % maxcore 2000
|  3> % mp2 density relaxed end
|  4> *xyz 0 1
|  5>  O       -0.0141194634    -0.0387936979    -0.2299359129
|  6>  C       -0.0142535010     1.1625523622    -0.0403764762
|  7>  N       -1.1681794233     1.8785668326     0.1936227957
|  8>  C       -1.2194496778     3.3242830114     0.0580756073
|  9>  C       -0.0274776315     3.9431923585     0.8177792891
| 10>  C        1.2576127702     3.2362243499     0.4243224062
| 11>  C        1.2369263241     1.9669402438     0.0182521138
| 12>  C        0.0444393906     5.3854041055     0.5745216463
| 13>  N        0.0950633407     6.5227216985     0.3788230764
| 14>  H       -2.0168514473     1.3557759230     0.0311001931
| 15>  H       -1.1712717053     3.6443945117    -0.9929859024
| 16>  H       -2.1600912266     3.6901808694     0.4757823571
| 17>  H       -0.1855700367     3.8003046879     1.8973055261
| 18>  H        2.1859481801     3.7903592819     0.5183406408
| 19>  H        2.1408463073     1.4268233514    -0.2372547903
| 20> *
| 21>
| 22>                          ****END OF INPUT****

CARTESIAN COORDINATES (ANGSTROEM)
---------------------------------
  O     -0.014119   -0.038794   -0.229936
  C     -0.014254    1.162552   -0.040376
  N     -1.168179    1.878567    0.193623
  C     -1.219450    3.324283    0.058076
  C     -0.027478    3.943192    0.817779
  C      1.257613    3.236224    0.424322
  C      1.236926    1.966940    0.018252
  C      0.044439    5.385404    0.574522
  N      0.095063    6.522722    0.378823
  H     -2.016851    1.355776    0.031100
  H     -1.171272    3.644395   -0.992986
  H     -2.160091    3.690181    0.475782
  H     -0.185570    3.800305    1.897306
  H      2.185948    3.790359    0.518341
  H      2.140846    1.426823   -0.237255

 Total Charge           Charge          ....    0
 Multiplicity           Mult            ....    1
 Number of Electrons    NEL             ....   64
 Basis Dimension        Dim             ....  315

ORBITAL ENERGIES
----------------

  NO   OCC          E(Eh)            E(eV)
   0   2.0000     -20.536492      -558.8264
   1   2.0000     -15.602205      -424.5576
   2   2.0000     -15.590863      -424.2490
   3   2.0000     -11.368994      -309.3661
   4   2.0000     -11.318261      -307.9855
   5   2.0000     -11.312890      -307.8394
   6   2.0000     -11.292649      -307.2886
   7   2.0000     -11.292207      -307.2766
   8   2.0000     -11.267889      -306.6149
   9   2.0000      -1.399758       -38.0893
  10   2.0000      -1.266632       -34.4668
  11   2.0000      -1.238089       -33.6901
  12   2.0000      -1.136038       -30.9132
  13   2.0000      -1.063399       -28.9366
  14   2.0000      -0.932760       -25.3817
  15   2.0000      -0.881550       -23.9882
  16   2.0000      -0.784999       -21.3609
  17   2.0000      -0.743484       -20.2312
  18   2.0000      -0.696477       -18.9521
  19   2.0000      -0.688004       -18.7215
  20   2.0000      -0.664245       -18.0750
  21   2.0000      -0.628689       -17.1075
  22   2.0000      -0.615532       -16.7495
  23   2.0000      -0.603574       -16.4241
  24   2.0000      -0.571946       -15.5634
  25   2.0000      -0.564229       -15.3534
  26   2.0000      -0.549650       -14.9567
  27   2.0000      -0.482502       -13.1296
  28   2.0000      -0.478606       -13.0235
  29   2.0000      -0.445694       -12.1279
  30   2.0000      -0.416782       -11.3412
  31   2.0000      -0.407286       -11.0828
  32   0.0000       0.075293         2.0488
  33   0.0000       0.113221         3.0809
  34   0.0000       0.139372         3.7925
  35   0.0000       0.149923         4.0796
  36   0.0000       0.155933         4.2431

MULLIKEN ATOMIC CHARGES
-----------------------
   0 O :   -0.329321
   1 C :    0.241612
   2 N :   -0.298623
   3 C :   -0.176255
   4 C :    0.181086
   5 C :   -0.205704
   6 C :   -0.144002
   7 C :   -0.228882
   8 N :   -0.044751
   9 H :    0.244386
  10 H :    0.143103
  11 H :    0.153333
  12 H :    0.147470
  13 H :    0.159231
  14 H :    0.157317
Sum of atomic charges:   -0.0000000

LOEWDIN ATOMIC CHARGES
----------------------
   0 O :    0.102523
   1 C :   -0.440135
   2 N :    0.105425
   3 C :   -0.230455
   4 C :   -0.219961
   5 C :   -0.098430
   6 C :   -0.110903
   7 C :   -0.165709
   8 N :    0.074469
   9 H :    0.192129
  10 H :    0.141148
  11 H :    0.144247
  12 H :    0.189246
  13 H :    0.156103
  14 H :    0.160303

  Mayer bond orders larger than 0.1
B(  0-O ,  1-C ) :   1.9620 B(  1-C ,  2-N ) :   1.1433 B(  1-C ,  6-C ) :   0.9717
B(  2-N ,  3-C ) :   0.9014 B(  2-N ,  9-H ) :   0.8600 B(  3-C ,  4-C ) :   0.9060
B(  3-C , 10-H ) :   0.9306 B(  3-C , 11-H ) :   0.9233 B(  4-C ,  5-C ) :   0.8809
B(  4-C ,  7-C ) :   0.9015 B(  4-C , 12-H ) :   0.8792 B(  5-C ,  6-C ) :   1.7090
B(  5-C , 13-H ) :   0.9182 B(  6-C , 14-H ) :   0.9270 B(  7-C ,  8-N ) :   2.8675

MP2 TOTAL ENERGY:     -416.150804014 Eh
FINAL SINGLE POINT ENERGY      -416.150804014298

DIPOLE MOMENT
-------------
                                X             Y             Z
Electronic contribution:      0.69477       0.14740       0.01993
Nuclear contribution   :     -1.08635      -0.16492       0.27720
                        -----------------------------------------
Total Dipole Moment    :     -0.39157      -0.01752       0.29713
                        -----------------------------------------
Magnitude (a.u.)       :      0.49186
Magnitude (Debye)      :      1.25020

                             ****ORCA TERMINATED NORMALLY****
TOTAL RUN TIME: 0 days 0 hours 14 minutes 57 seconds 517 msec
