                         Program Version 3.0.3 - RELEASE   -
|  1> ! RI-MP2 RIJK def2-TZVP def2-TZVP/C def2-TZVP/JK TIGHTSCF
|  2> % maxcore 2000
|  3> % mp2 density relaxed end
|  4> *xyz 0 1
|  5>  C       -0.1065346270     1.4522951884    -0.1111706380
|  6>  C        0.1190401700    -0.0367565327    -0.0001096332
|  7>  O       -0.9273895435    -0.7095467230    -0.6009568151
|  8>  C        1.4861511632    -0.6147699297    -0.0260767585
|  9>  C        0.7338512670    -0.6411074948     1.3210620583
| 10>  C        1.2347657415     0.2078533336     2.4715203664
| 11>  O        2.2683964512    -0.4455641723     3.1980583232
| 12>  C        0.1698508557    -1.9424157923     1.7234360874
| 13>  O       -0.2297330897    -2.7957291887     0.9489935803
| 14>  H        0.7284398389     2.0305827704     0.2865837938
| 15>  H       -0.2269630498     1.7060800772    -1.1689239545
| 16>  H       -1.0228760307     1.7428059797     0.4100850065
| 17>  H       -0.8261858653    -1.6579790084    -0.4048690769
| 18>  H        1.6170726611    -1.5759696293    -0.5132193936
| 19>  H        2.3385678913     0.0561532508    -0.0825204238
| 20>  H        1.5605784806     1.1938730105     2.1153272509
| 21>  H        0.4349967893     0.3768590408     3.2010173245
| 22>  H        2.9809992583    -0.6412745588     2.5798348766
| 23>  H        0.1011450179    -2.1073494513     2.8165962957
| 24> *
| 25>
| 26>                          ****END OF INPUT****

CARTESIAN COORDINATES (ANGSTROEM)
---------------------------------
  C     -0.106535    1.452295   -0.111171
  C      0.119040   -0.036757   -0.000110
  O     -0.927390   -0.709547   -0.600957
  C      1.486151   -0.614770   -0.026077
  C      0.733851   -0.641107    1.321062
  C      1.234766    0.207853    2.471520
  O      2.268396   -0.445564    3.198058
  C      0.169851   -1.942416    1.723436
  O     -0.229733   -2.795729    0.948994
  H      0.728440    2.030583    0.286584
  H     -0.226963    1.706080   -1.168924
  H     -1.022876    1.742806    0.410085
  H     -0.826186   -1.657979   -0.404869
  H      1.617073   -1.575970   -0.513219
  H      2.338568    0.056153   -0.082520
  H      1.560578    1.193873    2.115327
  H      0.434997    0.376859    3.201017
  H      2.980999   -0.641275    2.579835
  H      0.101145   -2.107349    2.816596

 Total Charge           Charge          ....    0
 Multiplicity           Mult            ....    1
 Number of Electrons    NEL             ....   70
 Basis Dimension        Dim             ....  339

ORBITAL ENERGIES
----------------

  NO   OCC          E(Eh)            E(eV)
   0   2.0000     -20.573405      -559.8308
   1   2.0000     -20.563306      -559.5560
   2   2.0000     -20.559608      -559.4554
   3   2.0000     -11.344269      -308.6932
   4   2.0000     -11.322114      -308.0904
   5   2.0000     -11.299217      -307.4673
   6   2.0000     -11.257696      -306.3375
   7   2.0000     -11.252500      -306.1961
   8   2.0000     -11.233543      -305.6802
   9   2.0000      -1.409000       -38.3408
  10   2.0000      -1.378097       -37.4999
  11   2.0000      -1.376698       -37.4619
  12   2.0000      -1.159353       -31.5476
  13   2.0000      -1.007027       -27.4026
  14   2.0000      -0.969377       -26.3781
  15   2.0000      -0.898139       -24.4396
  16   2.0000      -0.803563       -21.8661
  17   2.0000      -0.780354       -21.2345
  18   2.0000      -0.726206       -19.7611
  19   2.0000      -0.702690       -19.1212
  20   2.0000      -0.680190       -18.5089
  21   2.0000      -0.645104       -17.5542
  22   2.0000      -0.628075       -17.0908
  23   2.0000      -0.612059       -16.6550
  24   2.0000      -0.600983       -16.3536
  25   2.0000      -0.591221       -16.0879
  26   2.0000      -0.563258       -15.3270
  27   2.0000      -0.558767       -15.2048
  28   2.0000      -0.537221       -14.6185
  29   2.0000      -0.525931       -14.3113
  30   2.0000      -0.522320       -14.2131
  31   2.0000      -0.484619       -13.1872
  32   2.0000      -0.437248       -11.8981
  33   2.0000      -0.427238       -11.6257
  34   2.0000      -0.385993       -10.5034
  35   0.0000       0.107076         2.9137
  36   0.0000       0.121532         3.3071
  37   0.0000       0.145730         3.9655
  38   0.0000       0.172552         4.6954
  39   0.0000       0.177579         4.8322

MULLIKEN ATOMIC CHARGES
-----------------------
   0 C :   -0.404651
   1 C :    0.191812
   2 O :   -0.436563
   3 C :   -0.291465
   4 C :   -0.103053
   5 C :   -0.010373
   6 O :   -0.459997
   7 C :    0.137117
   8 O :   -0.347116
   9 H :    0.120455
  10 H :    0.150249
  11 H :    0.145160
  12 H :    0.341922
  13 H :    0.156471
  14 H :    0.141408
  15 H :    0.107232
  16 H :    0.129698
  17 H :    0.316295
  18 H :    0.115399
Sum of atomic charges:   -0.0000000

LOEWDIN ATOMIC CHARGES
----------------------
   0 C :   -0.256536
   1 C :   -0.341119
   2 O :    0.051978
   3 C :   -0.161979
   4 C :   -0.228400
   5 C :   -0.305576
   6 O :   -0.040303
   7 C :   -0.251641
   8 O :    0.097123
   9 H :    0.125264
  10 H :    0.137767
  11 H :    0.134068
  12 H :    0.181689
  13 H :    0.146863
  14 H :    0.141192
  15 H :    0.124088
  16 H :    0.138585
  17 H :    0.176106
  18 H :    0.130832

  Mayer bond orders larger than 0.1
B(  0-C ,  1-C ) :   0.9052 B(  0-C ,  9-H ) :   0.9387 B(  0-C , 10-H ) :   0.9276
B(  0-C , 11-H ) :   0.9347 B(  1-C ,  2-O ) :   1.0887 B(  1-C ,  3-C ) :   0.9367
B(  1-C ,  4-C ) :   0.7213 B(  2-O , 12-H ) :   0.7816 B(  3-C ,  4-C ) :   0.8055
B(  3-C , 13-H ) :   0.9068 B(  3-C , 14-H ) :   0.9141 B(  4-C ,  5-C ) :   0.9351
B(  4-C ,  7-C ) :   0.9460 B(  5-C ,  6-O ) :   0.8935 B(  5-C , 15-H ) :   0.9280
B(  5-C , 16-H ) :   0.9220 B(  6-O , 17-H ) :   0.8423 B(  7-C ,  8-O ) :   1.7972
B(  7-C , 18-H ) :   0.9445

MP2 TOTAL ENERGY:     -459.427356881 Eh
FINAL SINGLE POINT ENERGY      -459.427356880796

DIPOLE MOMENT
-------------
                                X             Y             Z
Electronic contribution:     -1.42547      -6.05466       0.73597
Nuclear contribution   :      2.21409       6.86211      -0.74181
                        -----------------------------------------
Total Dipole Moment    :      0.78862       0.80745      -0.00584
                        -----------------------------------------
Magnitude (a.u.)       :      1.12869
Magnitude (Debye)      :      2.86889

                             ****ORCA TERMINATED NORMALLY****
TOTAL RUN TIME: 0 days 0 hours 18 minutes 35 seconds 953 msec
