                         Program Version 3.0.3 - RELEASE   -
|  1> ! RI-MP2 RIJK def2-TZVP def2-TZVP/C def2-TZVP/JK TIGHTSCF
|  2> % maxcore 2000
|  3> % mp2 density relaxed end
|  4> *xyz 0 1
|  5>  O       -0.0159789675     1.4877813392     0.5693234339
|  6>  C        0.0521910725     0.1168857398     0.2978316183
|  7>  C       -0.6493592994    -0.8577797784     1.2063780958
|  8>  C       -1.2202585954    -0.5425467918    -0.1629160708
|  9>  C       -2.4869254527     0.2616304615    -0.2729055167
| 10>  C       -2.9486114363     0.7241342173    -1.6750647620
| 11>  O       -4.1926753164    -0.0294968157    -1.5218874011
| 12>  C       -3.8022066653    -0.5030261603    -0.2851030493
| 13>  N       -4.3719797118    -1.2952479837     0.5015129002
| 14>  H        0.4987590344     1.6600244544     1.3643170578
| 15>  H        0.9784255309    -0.2055569330    -0.1772798768
| 16>  H       -0.2104619872    -1.8344037710     1.3758540272
| 17>  H       -1.1768391744    -0.4429972783     2.0588087484
| 18>  H       -1.1097662911    -1.3158450623    -0.9183419947
| 19>  H       -2.4819566484     1.0721094825     0.4578597228
| 20>  H       -3.1469949025     1.7906170461    -1.8007918664
| 21>  H       -2.3642651314     0.3428950528    -2.5169418040
| 22>  H       -5.2667486182    -1.6130122791     0.1243192475
| 23> *
| 24>
| 25>                          ****END OF INPUT****

CARTESIAN COORDINATES (ANGSTROEM)
---------------------------------
  O     -0.015979    1.487781    0.569323
  C      0.052191    0.116886    0.297832
  C     -0.649359   -0.857780    1.206378
  C     -1.220259   -0.542547   -0.162916
  C     -2.486925    0.261630   -0.272906
  C     -2.948611    0.724134   -1.675065
  O     -4.192675   -0.029497   -1.521887
  C     -3.802207   -0.503026   -0.285103
  N     -4.371980   -1.295248    0.501513
  H      0.498759    1.660024    1.364317
  H      0.978426   -0.205557   -0.177280
  H     -0.210462   -1.834404    1.375854
  H     -1.176839   -0.442997    2.058809
  H     -1.109766   -1.315845   -0.918342
  H     -2.481957    1.072109    0.457860
  H     -3.146995    1.790617   -1.800792
  H     -2.364265    0.342895   -2.516942
  H     -5.266749   -1.613012    0.124319

 Total Charge           Charge          ....    0
 Multiplicity           Mult            ....    1
 Number of Electrons    NEL             ....   68
 Basis Dimension        Dim             ....  333

ORBITAL ENERGIES
----------------

  NO   OCC          E(Eh)            E(eV)
   0   2.0000     -20.586279      -560.1811
   1   2.0000     -20.574739      -559.8671
   2   2.0000     -15.531549      -422.6349
   3   2.0000     -11.333274      -308.3941
   4   2.0000     -11.295413      -307.3638
   5   2.0000     -11.294545      -307.3402
   6   2.0000     -11.253118      -306.2129
   7   2.0000     -11.247000      -306.0464
   8   2.0000     -11.234873      -305.7164
   9   2.0000      -1.427802       -38.8525
  10   2.0000      -1.384261       -37.6677
  11   2.0000      -1.191585       -32.4247
  12   2.0000      -1.149814       -31.2880
  13   2.0000      -1.034053       -28.1380
  14   2.0000      -0.900266       -24.4975
  15   2.0000      -0.841110       -22.8878
  16   2.0000      -0.820589       -22.3294
  17   2.0000      -0.750869       -20.4322
  18   2.0000      -0.703323       -19.1384
  19   2.0000      -0.694576       -18.9004
  20   2.0000      -0.680742       -18.5239
  21   2.0000      -0.661091       -17.9892
  22   2.0000      -0.654573       -17.8118
  23   2.0000      -0.610246       -16.6056
  24   2.0000      -0.562288       -15.3006
  25   2.0000      -0.539145       -14.6709
  26   2.0000      -0.526131       -14.3168
  27   2.0000      -0.519038       -14.1237
  28   2.0000      -0.511207       -13.9106
  29   2.0000      -0.496135       -13.5005
  30   2.0000      -0.443262       -12.0618
  31   2.0000      -0.410972       -11.1831
  32   2.0000      -0.410002       -11.1567
  33   2.0000      -0.395974       -10.7750
  34   0.0000       0.133972         3.6456
  35   0.0000       0.147537         4.0147
  36   0.0000       0.158278         4.3070
  37   0.0000       0.164518         4.4768
  38   0.0000       0.181796         4.9469

MULLIKEN ATOMIC CHARGES
-----------------------
   0 O :   -0.477052
   1 C :    0.024938
   2 C :   -0.285452
   3 C :   -0.110954
   4 C :   -0.051668
   5 C :   -0.015153
   6 O :   -0.267150
   7 C :    0.110695
   8 N :   -0.376722
   9 H :    0.328949
  10 H :    0.112786
  11 H :    0.135657
  12 H :    0.144357
  13 H :    0.131972
  14 H :    0.137449
  15 H :    0.117594
  16 H :    0.112101
  17 H :    0.227653
Sum of atomic charges:    0.0000000

LOEWDIN ATOMIC CHARGES
----------------------
   0 O :   -0.005083
   1 C :   -0.318470
   2 C :   -0.204920
   3 C :   -0.186582
   4 C :   -0.180953
   5 C :   -0.205316
   6 O :    0.205462
   7 C :   -0.380836
   8 N :   -0.056721
   9 H :    0.182737
  10 H :    0.131143
  11 H :    0.134408
  12 H :    0.142576
  13 H :    0.154407
  14 H :    0.169356
  15 H :    0.122646
  16 H :    0.123435
  17 H :    0.172711

  Mayer bond orders larger than 0.1
B(  0-O ,  1-C ) :   1.0185 B(  0-O ,  9-H ) :   0.8385 B(  1-C ,  2-C ) :   0.9061
B(  1-C ,  3-C ) :   0.8634 B(  1-C , 10-H ) :   0.9518 B(  2-C ,  3-C ) :   0.8724
B(  2-C , 11-H ) :   0.9213 B(  2-C , 12-H ) :   0.9232 B(  3-C ,  4-C ) :   0.9308
B(  3-C , 13-H ) :   0.9091 B(  4-C ,  5-C ) :   0.9593 B(  4-C ,  7-C ) :   0.9065
B(  4-C , 14-H ) :   0.8921 B(  5-C ,  6-O ) :   0.8942 B(  5-C , 15-H ) :   0.9180
B(  5-C , 16-H ) :   0.9149 B(  6-O ,  7-C ) :   1.0749 B(  7-C ,  8-N ) :   2.0628
B(  8-N , 17-H ) :   0.8456

MP2 TOTAL ENERGY:     -438.336149634 Eh
FINAL SINGLE POINT ENERGY      -438.336149634440

DIPOLE MOMENT
-------------
                                X             Y             Z
Electronic contribution:     -3.86978       0.43026      -1.26519
Nuclear contribution   :      4.90538      -0.16592       1.22277
                        -----------------------------------------
Total Dipole Moment    :      1.03560       0.26434      -0.04242
                        -----------------------------------------
Magnitude (a.u.)       :      1.06964
Magnitude (Debye)      :      2.71882

                             ****ORCA TERMINATED NORMALLY****
TOTAL RUN TIME: 0 days 0 hours 15 minutes 13 seconds 968 msec
