                         Program Version 3.0.3 - RELEASE   -
|  1> ! RI-MP2 RIJK def2-TZVP def2-TZVP/C def2-TZVP/JK TIGHTSCF
|  2> % maxcore 2000
|  3> % mp2 density relaxed end
|  4> *xyz 0 1
|  5>  O        0.0576936540     1.3777441381    -0.1891926745
|  6>  C        0.0266328583     0.0347311665    -0.0095582842
|  7>  C       -0.2767079712    -0.8766517879    -1.1641761528
|  8>  C       -1.1601084153    -1.0045759862     0.0600327239
|  9>  N       -0.4641891957    -1.6788127563     1.1617988789
| 10>  C        0.6216677335    -0.7496867236     1.1275911111
| 11>  N        1.6507689703    -0.5484015563     1.8225811188
| 12>  C       -2.5649892950    -0.7915107998     0.0799193471
| 13>  N       -3.7082837073    -0.6086340086     0.0866247788
| 14>  H        0.0675975917     1.8051644439     0.6763267638
| 15>  H       -0.7283287220    -0.3560191291    -2.0036547921
| 16>  H        0.3848006638    -1.6972175642    -1.4297191224
| 17>  H       -0.2681067078    -2.6722229428     1.0754810914
| 18>  H        1.7674913128    -1.2568791936     2.5492529525
| 19> *
| 20>
| 21>                          ****END OF INPUT****

CARTESIAN COORDINATES (ANGSTROEM)
---------------------------------
  O      0.057694    1.377744   -0.189193
  C      0.026633    0.034731   -0.009558
  C     -0.276708   -0.876652   -1.164176
  C     -1.160108   -1.004576    0.060033
  N     -0.464189   -1.678813    1.161799
  C      0.621668   -0.749687    1.127591
  N      1.650769   -0.548402    1.822581
  C     -2.564989   -0.791511    0.079919
  N     -3.708284   -0.608634    0.086625
  H      0.067598    1.805164    0.676327
  H     -0.728329   -0.356019   -2.003655
  H      0.384801   -1.697218   -1.429719
  H     -0.268107   -2.672223    1.075481
  H      1.767491   -1.256879    2.549253

 Total Charge           Charge          ....    0
 Multiplicity           Mult            ....    1
 Number of Electrons    NEL             ....   64
 Basis Dimension        Dim             ....  309

ORBITAL ENERGIES
----------------

  NO   OCC          E(Eh)            E(eV)
   0   2.0000     -20.613187      -560.9133
   1   2.0000     -15.612925      -424.8493
   2   2.0000     -15.583597      -424.0512
   3   2.0000     -15.567992      -423.6266
   4   2.0000     -11.351579      -308.8922
   5   2.0000     -11.349723      -308.8417
   6   2.0000     -11.334998      -308.4410
   7   2.0000     -11.287220      -307.1409
   8   2.0000     -11.286891      -307.1319
   9   2.0000      -1.435263       -39.0555
  10   2.0000      -1.336156       -36.3587
  11   2.0000      -1.230832       -33.4926
  12   2.0000      -1.211606       -32.9695
  13   2.0000      -1.117248       -30.4019
  14   2.0000      -0.958161       -26.0729
  15   2.0000      -0.909222       -24.7412
  16   2.0000      -0.814162       -22.1545
  17   2.0000      -0.766582       -20.8598
  18   2.0000      -0.722740       -19.6668
  19   2.0000      -0.697676       -18.9847
  20   2.0000      -0.670942       -18.2573
  21   2.0000      -0.648531       -17.6474
  22   2.0000      -0.603079       -16.4106
  23   2.0000      -0.582591       -15.8531
  24   2.0000      -0.564538       -15.3619
  25   2.0000      -0.553713       -15.0673
  26   2.0000      -0.524653       -14.2765
  27   2.0000      -0.503279       -13.6949
  28   2.0000      -0.470966       -12.8156
  29   2.0000      -0.456328       -12.4173
  30   2.0000      -0.407871       -11.0987
  31   2.0000      -0.388878       -10.5819
  32   0.0000       0.106043         2.8856
  33   0.0000       0.122207         3.3254
  34   0.0000       0.134608         3.6629
  35   0.0000       0.147670         4.0183
  36   0.0000       0.155903         4.2423

MULLIKEN ATOMIC CHARGES
-----------------------
   0 O :   -0.424188
   1 C :    0.216147
   2 C :   -0.187003
   3 C :    0.182487
   4 N :   -0.302611
   5 C :    0.004149
   6 N :   -0.336625
   7 C :   -0.235857
   8 N :   -0.045466
   9 H :    0.347239
  10 H :    0.161057
  11 H :    0.152485
  12 H :    0.238420
  13 H :    0.229765
Sum of atomic charges:   -0.0000000

LOEWDIN ATOMIC CHARGES
----------------------
   0 O :    0.087966
   1 C :   -0.271521
   2 C :   -0.124076
   3 C :   -0.226192
   4 N :    0.116814
   5 C :   -0.333044
   6 N :   -0.031783
   7 C :   -0.157652
   8 N :    0.081618
   9 H :    0.205620
  10 H :    0.160837
  11 H :    0.141532
  12 H :    0.176974
  13 H :    0.172905

  Mayer bond orders larger than 0.1
B(  0-O ,  1-C ) :   1.1463 B(  0-O ,  9-H ) :   0.8200 B(  1-C ,  2-C ) :   0.8767
B(  1-C ,  3-C ) :   0.7049 B(  1-C ,  5-C ) :   0.9228 B(  2-C ,  3-C ) :   0.8638
B(  2-C , 10-H ) :   0.9120 B(  2-C , 11-H ) :   0.9105 B(  3-C ,  4-N ) :   0.9735
B(  3-C ,  7-C ) :   0.9613 B(  4-N ,  5-C ) :   1.0385 B(  4-N , 12-H ) :   0.8500
B(  5-C ,  6-N ) :   2.1028 B(  6-N , 13-H ) :   0.8474 B(  7-C ,  8-N ) :   2.8512

MP2 TOTAL ENERGY:     -432.113780505 Eh
FINAL SINGLE POINT ENERGY      -432.113780504871

DIPOLE MOMENT
-------------
                                X             Y             Z
Electronic contribution:     -2.89571       0.70681       0.74726
Nuclear contribution   :      3.95180      -1.51388      -0.78241
                        -----------------------------------------
Total Dipole Moment    :      1.05610      -0.80707      -0.03515
                        -----------------------------------------
Magnitude (a.u.)       :      1.32964
Magnitude (Debye)      :      3.37966

                             ****ORCA TERMINATED NORMALLY****
TOTAL RUN TIME: 0 days 0 hours 14 minutes 51 seconds 84 msec
