                         Program Version 3.0.3 - RELEASE   -
|  1> ! RI-MP2 RIJK def2-TZVP def2-TZVP/C def2-TZVP/JK TIGHTSCF
|  2> % maxcore 2000
|  3> % mp2 density relaxed end
|  4> *xyz 0 1
|  5>  C       -0.0579454912     1.4772372147     0.1672579860
|  6>  C        1.4000130784     1.8875094638     0.1159991802
|  7>  C        2.1739074600     0.9207835287    -0.3969645728
|  8>  C        3.5076642258     0.5189670893     0.1068713149
|  9>  C        3.3949688471    -0.3925747444     1.0834184346
| 10>  C        2.0113137852    -0.8464346799     1.5435999057
| 11>  C        1.0122123291    -1.0094934305     0.3699057801
| 12>  C        0.0028673468     0.0025049930    -0.2276113915
| 13>  C        1.3367979805    -0.2416280095    -0.8740539306
| 14>  H       -0.4511243328     1.6425114154     1.1796176289
| 15>  H       -0.7183511397     2.0354953146    -0.5124412227
| 16>  H        1.7784723736     2.7381430984     0.6735239620
| 17>  H        4.4565747186     0.8952679663    -0.2598581692
| 18>  H        4.2668172078    -0.8136445563     1.5768532417
| 19>  H        2.0914226201    -1.7976673210     2.0791035036
| 20>  H        1.6297760005    -0.1250712270     2.2786572498
| 21>  H        0.6722937680    -2.0326155630     0.2295137068
| 22>  H       -0.8956150454    -0.4521905109    -0.6314965466
| 23>  H        1.5167946775    -0.7065138415    -1.8376166809
| 24> *
| 25>
| 26>                          ****END OF INPUT****

CARTESIAN COORDINATES (ANGSTROEM)
---------------------------------
  C     -0.057945    1.477237    0.167258
  C      1.400013    1.887509    0.115999
  C      2.173907    0.920784   -0.396965
  C      3.507664    0.518967    0.106871
  C      3.394969   -0.392575    1.083418
  C      2.011314   -0.846435    1.543600
  C      1.012212   -1.009493    0.369906
  C      0.002867    0.002505   -0.227611
  C      1.336798   -0.241628   -0.874054
  H     -0.451124    1.642511    1.179618
  H     -0.718351    2.035495   -0.512441
  H      1.778472    2.738143    0.673524
  H      4.456575    0.895268   -0.259858
  H      4.266817   -0.813645    1.576853
  H      2.091423   -1.797667    2.079104
  H      1.629776   -0.125071    2.278657
  H      0.672294   -2.032616    0.229514
  H     -0.895615   -0.452191   -0.631497
  H      1.516795   -0.706514   -1.837617

 Total Charge           Charge          ....    0
 Multiplicity           Mult            ....    1
 Number of Electrons    NEL             ....   64
 Basis Dimension        Dim             ....  339

ORBITAL ENERGIES
----------------

  NO   OCC          E(Eh)            E(eV)
   0   2.0000     -11.232087      -305.6406
   1   2.0000     -11.230531      -305.5983
   2   2.0000     -11.229580      -305.5724
   3   2.0000     -11.228145      -305.5334
   4   2.0000     -11.227589      -305.5182
   5   2.0000     -11.227287      -305.5100
   6   2.0000     -11.226345      -305.4844
   7   2.0000     -11.220907      -305.3364
   8   2.0000     -11.220639      -305.3291
   9   2.0000      -1.194927       -32.5156
  10   2.0000      -1.072484       -29.1838
  11   2.0000      -1.042065       -28.3560
  12   2.0000      -0.961504       -26.1638
  13   2.0000      -0.917641       -24.9703
  14   2.0000      -0.800472       -21.7819
  15   2.0000      -0.774545       -21.0765
  16   2.0000      -0.756561       -20.5871
  17   2.0000      -0.696605       -18.9556
  18   2.0000      -0.658814       -17.9272
  19   2.0000      -0.653484       -17.7822
  20   2.0000      -0.596697       -16.2370
  21   2.0000      -0.572529       -15.5793
  22   2.0000      -0.563810       -15.3421
  23   2.0000      -0.539525       -14.6812
  24   2.0000      -0.524501       -14.2724
  25   2.0000      -0.512726       -13.9520
  26   2.0000      -0.497772       -13.5451
  27   2.0000      -0.453827       -12.3493
  28   2.0000      -0.415299       -11.3009
  29   2.0000      -0.396648       -10.7934
  30   2.0000      -0.358615        -9.7584
  31   2.0000      -0.314881        -8.5684
  32   0.0000       0.132960         3.6180
  33   0.0000       0.145659         3.9636
  34   0.0000       0.152484         4.1493
  35   0.0000       0.167561         4.5596
  36   0.0000       0.169999         4.6259

MULLIKEN ATOMIC CHARGES
-----------------------
   0 C :   -0.153223
   1 C :   -0.242843
   2 C :    0.109324
   3 C :   -0.221625
   4 C :   -0.173333
   5 C :   -0.146831
   6 C :   -0.147332
   7 C :   -0.179352
   8 C :   -0.070870
   9 H :    0.117963
  10 H :    0.120476
  11 H :    0.122349
  12 H :    0.134190
  13 H :    0.121666
  14 H :    0.130382
  15 H :    0.113082
  16 H :    0.115167
  17 H :    0.120819
  18 H :    0.129990
Sum of atomic charges:    0.0000000

LOEWDIN ATOMIC CHARGES
----------------------
   0 C :   -0.224506
   1 C :   -0.109387
   2 C :   -0.128962
   3 C :   -0.129539
   4 C :   -0.145452
   5 C :   -0.221019
   6 C :   -0.163250
   7 C :   -0.162684
   8 C :   -0.144212
   9 H :    0.143376
  10 H :    0.141467
  11 H :    0.137889
  12 H :    0.141291
  13 H :    0.137575
  14 H :    0.141807
  15 H :    0.150895
  16 H :    0.148720
  17 H :    0.144313
  18 H :    0.141678

  Mayer bond orders larger than 0.1
B(  0-C ,  1-C ) :   0.9579 B(  0-C ,  7-C ) :   0.9578 B(  0-C ,  9-H ) :   0.9122
B(  0-C , 10-H ) :   0.9049 B(  1-C ,  2-C ) :   1.7454 B(  1-C , 11-H ) :   0.9284
B(  2-C ,  3-C ) :   0.9238 B(  2-C ,  8-C ) :   0.8864 B(  3-C ,  4-C ) :   1.7657
B(  3-C , 12-H ) :   0.9267 B(  4-C ,  5-C ) :   0.9846 B(  4-C , 13-H ) :   0.9278
B(  5-C ,  6-C ) :   0.9418 B(  5-C , 14-H ) :   0.9276 B(  5-C , 15-H ) :   0.8896
B(  6-C ,  7-C ) :   0.8849 B(  6-C ,  8-C ) :   0.8627 B(  6-C , 16-H ) :   0.9269
B(  7-C ,  8-C ) :   0.8773 B(  7-C , 17-H ) :   0.9284 B(  8-C , 18-H ) :   0.9108

MP2 TOTAL ENERGY:     -348.078757887 Eh
FINAL SINGLE POINT ENERGY      -348.078757887065

DIPOLE MOMENT
-------------
                                X             Y             Z
Electronic contribution:      1.66090       0.86403      -2.10192
Nuclear contribution   :     -1.78253      -1.02171       2.29780
                        -----------------------------------------
Total Dipole Moment    :     -0.12163      -0.15768       0.19588
                        -----------------------------------------
Magnitude (a.u.)       :      0.27933
Magnitude (Debye)      :      0.71001

                             ****ORCA TERMINATED NORMALLY****
TOTAL RUN TIME: 0 days 0 hours 20 minutes 51 seconds 544 msec
