                         Program Version 3.0.3 - RELEASE   -
|  1> ! RI-MP2 RIJK def2-TZVP def2-TZVP/C def2-TZVP/JK TIGHTSCF
|  2> % maxcore 2000
|  3> % mp2 density relaxed end
|  4> *xyz 0 1
|  5>  C        0.2845369027     1.0340460183    -0.8554159510
|  6>  C       -0.0262480326    -0.0969611361     0.1117438116
|  7>  C       -0.6665559557     0.1923754586     1.4436801954
|  8>  C       -1.4569611108    -0.5017293426     0.3617767140
|  9>  C        1.5697335295     1.7315444977    -0.5319894096
| 10>  N        2.6545017353     1.6526619723    -1.1884467367
| 11>  C        3.6365908411     2.4879445396    -0.4817901644
| 12>  C        2.8661255556     3.0534827080     0.7400951267
| 13>  O        1.5380186213     2.5065654944     0.5913549808
| 14>  H        0.3621751029     0.6558033762    -1.8778131854
| 15>  H       -0.5275789676     1.7702631025    -0.8254883609
| 16>  H        0.7045777900    -0.9005999289     0.0933456946
| 17>  H       -0.3500503515    -0.3870077766     2.3038453464
| 18>  H       -0.9061937540     1.2253496759     1.6698302415
| 19>  H       -2.2369179766     0.0624700916    -0.1393941598
| 20>  H       -1.6797892161    -1.5564596614     0.4782932437
| 21>  H        4.5011860290     1.8831704498    -0.1881980971
| 22>  H        4.0051488621     3.2758711555    -1.1475723987
| 23>  H        3.2685193411     2.7238446965     1.7024795070
| 24>  H        2.7898247643     4.1444983988     0.7452291019
| 25> *
| 26>
| 27>                          ****END OF INPUT****

CARTESIAN COORDINATES (ANGSTROEM)
---------------------------------
  C      0.284537    1.034046   -0.855416
  C     -0.026248   -0.096961    0.111744
  C     -0.666556    0.192375    1.443680
  C     -1.456961   -0.501729    0.361777
  C      1.569734    1.731544   -0.531989
  N      2.654502    1.652662   -1.188447
  C      3.636591    2.487945   -0.481790
  C      2.866126    3.053483    0.740095
  O      1.538019    2.506565    0.591355
  H      0.362175    0.655803   -1.877813
  H     -0.527579    1.770263   -0.825488
  H      0.704578   -0.900600    0.093346
  H     -0.350050   -0.387008    2.303845
  H     -0.906194    1.225350    1.669830
  H     -2.236918    0.062470   -0.139394
  H     -1.679789   -1.556460    0.478293
  H      4.501186    1.883170   -0.188198
  H      4.005149    3.275871   -1.147572
  H      3.268519    2.723845    1.702480
  H      2.789825    4.144498    0.745229

 Total Charge           Charge          ....    0
 Multiplicity           Mult            ....    1
 Number of Electrons    NEL             ....   68
 Basis Dimension        Dim             ....  345

ORBITAL ENERGIES
----------------

  NO   OCC          E(Eh)            E(eV)
   0   2.0000     -20.585900      -560.1708
   1   2.0000     -15.536374      -422.7662
   2   2.0000     -11.325303      -308.1772
   3   2.0000     -11.287122      -307.1382
   4   2.0000     -11.255630      -306.2813
   5   2.0000     -11.237996      -305.8014
   6   2.0000     -11.235879      -305.7438
   7   2.0000     -11.225472      -305.4606
   8   2.0000     -11.222879      -305.3901
   9   2.0000      -1.428402       -38.8688
  10   2.0000      -1.204183       -32.7675
  11   2.0000      -1.147640       -31.2289
  12   2.0000      -1.046247       -28.4698
  13   2.0000      -0.964088       -26.2342
  14   2.0000      -0.855986       -23.2926
  15   2.0000      -0.822688       -22.3865
  16   2.0000      -0.798266       -21.7219
  17   2.0000      -0.748035       -20.3551
  18   2.0000      -0.688361       -18.7313
  19   2.0000      -0.682690       -18.5770
  20   2.0000      -0.660371       -17.9696
  21   2.0000      -0.624482       -16.9930
  22   2.0000      -0.611476       -16.6391
  23   2.0000      -0.563552       -15.3350
  24   2.0000      -0.556394       -15.1403
  25   2.0000      -0.544312       -14.8115
  26   2.0000      -0.526445       -14.3253
  27   2.0000      -0.515772       -14.0349
  28   2.0000      -0.508167       -13.8279
  29   2.0000      -0.489279       -13.3140
  30   2.0000      -0.431402       -11.7391
  31   2.0000      -0.417693       -11.3660
  32   2.0000      -0.410047       -11.1579
  33   2.0000      -0.370308       -10.0766
  34   0.0000       0.142471         3.8768
  35   0.0000       0.152403         4.1471
  36   0.0000       0.164903         4.4872
  37   0.0000       0.173905         4.7322
  38   0.0000       0.178003         4.8437

MULLIKEN ATOMIC CHARGES
-----------------------
   0 C :   -0.195698
   1 C :   -0.094532
   2 C :   -0.267049
   3 C :   -0.261146
   4 C :    0.165324
   5 N :   -0.259878
   6 C :   -0.128436
   7 C :   -0.063638
   8 O :   -0.277026
   9 H :    0.140944
  10 H :    0.131478
  11 H :    0.125981
  12 H :    0.127613
  13 H :    0.134148
  14 H :    0.126852
  15 H :    0.130351
  16 H :    0.119382
  17 H :    0.118981
  18 H :    0.112302
  19 H :    0.114047
Sum of atomic charges:    0.0000000

LOEWDIN ATOMIC CHARGES
----------------------
   0 C :   -0.202436
   1 C :   -0.223948
   2 C :   -0.228815
   3 C :   -0.230136
   4 C :   -0.372847
   5 N :    0.081726
   6 C :   -0.282368
   7 C :   -0.265830
   8 O :    0.229295
   9 H :    0.157707
  10 H :    0.155841
  11 H :    0.149837
  12 H :    0.130670
  13 H :    0.134608
  14 H :    0.131790
  15 H :    0.130822
  16 H :    0.129479
  17 H :    0.129267
  18 H :    0.122591
  19 H :    0.122746

  Mayer bond orders larger than 0.1
B(  0-C ,  1-C ) :   0.9063 B(  0-C ,  4-C ) :   0.9146 B(  0-C ,  9-H ) :   0.9280
B(  0-C , 10-H ) :   0.9250 B(  1-C ,  2-C ) :   0.8928 B(  1-C ,  3-C ) :   0.8830
B(  1-C , 11-H ) :   0.9281 B(  2-C ,  3-C ) :   0.9053 B(  2-C , 12-H ) :   0.9304
B(  2-C , 13-H ) :   0.9267 B(  3-C , 14-H ) :   0.9277 B(  3-C , 15-H ) :   0.9306
B(  4-C ,  5-N ) :   1.8889 B(  4-C ,  8-O ) :   1.0825 B(  5-N ,  6-C ) :   0.9262
B(  6-C ,  7-C ) :   0.9419 B(  6-C , 16-H ) :   0.9237 B(  6-C , 17-H ) :   0.9266
B(  7-C ,  8-O ) :   0.8846 B(  7-C , 18-H ) :   0.9248 B(  7-C , 19-H ) :   0.9282

MP2 TOTAL ENERGY:     -402.457545520 Eh
FINAL SINGLE POINT ENERGY      -402.457545520295

DIPOLE MOMENT
-------------
                                X             Y             Z
Electronic contribution:      2.82936       2.27201      -1.74612
Nuclear contribution   :     -2.73581      -1.99225       2.22000
                        -----------------------------------------
Total Dipole Moment    :      0.09355       0.27977       0.47388
                        -----------------------------------------
Magnitude (a.u.)       :      0.55820
Magnitude (Debye)      :      1.41883

                             ****ORCA TERMINATED NORMALLY****
TOTAL RUN TIME: 0 days 0 hours 16 minutes 45 seconds 544 msec
