                         Program Version 3.0.3 - RELEASE   -
|  1> ! RI-MP2 RIJK def2-TZVP def2-TZVP/C def2-TZVP/JK TIGHTSCF
|  2> % maxcore 2000
|  3> % mp2 density relaxed end
|  4> *xyz 0 1
|  5>  C       -0.0266361944     1.4917628280    -0.3228971402
|  6>  C       -0.0105810412     0.1242739528     0.3729688016
|  7>  C       -1.3731727590    -0.5172161111     0.3579205197
|  8>  O       -1.8311078579    -1.0773772372    -0.8695309651
|  9>  C       -1.5771674706    -1.9910313607     0.2108351001
| 10>  C       -0.4714165792    -2.9029018945     0.0655554684
| 11>  C        0.4369140903    -3.6815687663    -0.0368616461
| 12>  C       -2.7732813872    -2.5713733134     0.8033086769
| 13>  N       -3.7179120879    -3.0235800545     1.2908762818
| 14>  H        0.9670349948     1.9470002169    -0.2999272474
| 15>  H       -0.3312535591     1.3897894587    -1.3684665843
| 16>  H       -0.7228654993     2.1808567804     0.1665365314
| 17>  H        0.7069722055    -0.5435020305    -0.1116737595
| 18>  H        0.3026914318     0.2338859688     1.4185276566
| 19>  H       -2.1538141242     0.0070482007     0.9126391921
| 20>  H        1.2398347178    -4.3709936081    -0.1339529562
| 21> *
| 22>
| 23>                          ****END OF INPUT****

CARTESIAN COORDINATES (ANGSTROEM)
---------------------------------
  C     -0.026636    1.491763   -0.322897
  C     -0.010581    0.124274    0.372969
  C     -1.373173   -0.517216    0.357921
  O     -1.831108   -1.077377   -0.869531
  C     -1.577167   -1.991031    0.210835
  C     -0.471417   -2.902902    0.065555
  C      0.436914   -3.681569   -0.036862
  C     -2.773281   -2.571373    0.803309
  N     -3.717912   -3.023580    1.290876
  H      0.967035    1.947000   -0.299927
  H     -0.331254    1.389789   -1.368467
  H     -0.722865    2.180857    0.166537
  H      0.706972   -0.543502   -0.111674
  H      0.302691    0.233886    1.418528
  H     -2.153814    0.007048    0.912639
  H      1.239835   -4.370994   -0.133953

 Total Charge           Charge          ....    0
 Multiplicity           Mult            ....    1
 Number of Electrons    NEL             ....   64
 Basis Dimension        Dim             ....  321

ORBITAL ENERGIES
----------------

  NO   OCC          E(Eh)            E(eV)
   0   2.0000     -20.615839      -560.9855
   1   2.0000     -15.589179      -424.2031
   2   2.0000     -11.376828      -309.5792
   3   2.0000     -11.333790      -308.4081
   4   2.0000     -11.289653      -307.2071
   5   2.0000     -11.267999      -306.6178
   6   2.0000     -11.262937      -306.4801
   7   2.0000     -11.253387      -306.2202
   8   2.0000     -11.235862      -305.7434
   9   2.0000      -1.462893       -39.8073
  10   2.0000      -1.232707       -33.5437
  11   2.0000      -1.090719       -29.6800
  12   2.0000      -1.077498       -29.3202
  13   2.0000      -0.998695       -27.1759
  14   2.0000      -0.933738       -25.4083
  15   2.0000      -0.848289       -23.0831
  16   2.0000      -0.800826       -21.7916
  17   2.0000      -0.745828       -20.2950
  18   2.0000      -0.710338       -19.3293
  19   2.0000      -0.663389       -18.0517
  20   2.0000      -0.618723       -16.8363
  21   2.0000      -0.598281       -16.2801
  22   2.0000      -0.579437       -15.7673
  23   2.0000      -0.572166       -15.5694
  24   2.0000      -0.544350       -14.8125
  25   2.0000      -0.524891       -14.2830
  26   2.0000      -0.514939       -14.0122
  27   2.0000      -0.492797       -13.4097
  28   2.0000      -0.484028       -13.1711
  29   2.0000      -0.461321       -12.5532
  30   2.0000      -0.428412       -11.6577
  31   2.0000      -0.406095       -11.0504
  32   0.0000       0.112705         3.0668
  33   0.0000       0.126032         3.4295
  34   0.0000       0.138035         3.7561
  35   0.0000       0.147575         4.0157
  36   0.0000       0.151911         4.1337

MULLIKEN ATOMIC CHARGES
-----------------------
   0 C :   -0.405572
   1 C :   -0.199301
   2 C :    0.061622
   3 O :   -0.292785
   4 C :    0.084008
   5 C :    0.017629
   6 C :   -0.061625
   7 C :   -0.191254
   8 N :   -0.045389
   9 H :    0.142639
  10 H :    0.147534
  11 H :    0.130465
  12 H :    0.139312
  13 H :    0.122261
  14 H :    0.144357
  15 H :    0.206099
Sum of atomic charges:    0.0000000

LOEWDIN ATOMIC CHARGES
----------------------
   0 C :   -0.306212
   1 C :   -0.265570
   2 C :   -0.211513
   3 O :    0.231155
   4 C :   -0.285087
   5 C :   -0.051478
   6 C :   -0.041307
   7 C :   -0.122977
   8 N :    0.090447
   9 H :    0.125296
  10 H :    0.128449
  11 H :    0.123679
  12 H :    0.151425
  13 H :    0.148874
  14 H :    0.150821
  15 H :    0.133998

  Mayer bond orders larger than 0.1
B(  0-C ,  1-C ) :   0.9185 B(  0-C ,  9-H ) :   0.9388 B(  0-C , 10-H ) :   0.9359
B(  0-C , 11-H ) :   0.9359 B(  1-C ,  2-C ) :   0.9086 B(  1-C , 12-H ) :   0.9311
B(  1-C , 13-H ) :   0.9182 B(  2-C ,  3-O ) :   0.8582 B(  2-C ,  4-C ) :   0.9387
B(  2-C , 14-H ) :   0.9000 B(  3-O ,  4-C ) :   0.9330 B(  4-C ,  5-C ) :   1.1897
B(  4-C ,  6-C ) :  -0.1416 B(  4-C ,  7-C ) :   0.9154 B(  5-C ,  6-C ) :   2.5630
B(  6-C , 15-H ) :   0.8812 B(  7-C ,  8-N ) :   2.8277

MP2 TOTAL ENERGY:     -399.999333154 Eh
FINAL SINGLE POINT ENERGY      -399.999333154112

DIPOLE MOMENT
-------------
                                X             Y             Z
Electronic contribution:     -6.59962      -9.78523       0.71993
Nuclear contribution   :      8.17035      10.51641      -0.66452
                        -----------------------------------------
Total Dipole Moment    :      1.57073       0.73118       0.05541
                        -----------------------------------------
Magnitude (a.u.)       :      1.73347
Magnitude (Debye)      :      4.40612

                             ****ORCA TERMINATED NORMALLY****
TOTAL RUN TIME: 0 days 0 hours 23 minutes 24 seconds 870 msec
