                         Program Version 3.0.3 - RELEASE   -
|  1> ! RI-MP2 RIJK def2-TZVP def2-TZVP/C def2-TZVP/JK TIGHTSCF
|  2> % maxcore 2000
|  3> % mp2 density relaxed end
|  4> *xyz 0 1
|  5>  C       -0.0148601303     1.4874108660     0.0887757640
|  6>  C        1.3839210473     2.1388684067    -0.0514102043
|  7>  C        2.1872796616     1.3849806265    -1.0635305123
|  8>  C        1.9569574910     0.0454097077    -1.3037555530
|  9>  N        2.9117153392    -0.2828624138    -2.2050987131
| 10>  N        3.6844725388     0.7845132883    -2.5131281638
| 11>  N        3.2427866065     1.7949735677    -1.8085424351
| 12>  C        0.9087204979    -0.7174757699    -0.6621832800
| 13>  C       -0.0098941745    -0.0277956855     0.0321398188
| 14>  H       -0.4884876163     1.8258320076     1.0154190853
| 15>  H       -0.6641904612     1.8454557411    -0.7256490597
| 16>  H        1.2866903807     3.1932195064    -0.3233247868
| 17>  H        1.9030586619     2.1125221357     0.9172965829
| 18>  H        3.0880902210    -1.1617888512    -2.6647502097
| 19>  H        0.8773747103    -1.7988457922    -0.7414666352
| 20>  H       -0.8237297040    -0.5517280210     0.5238804519
| 21> *
| 22>
| 23>                          ****END OF INPUT****

CARTESIAN COORDINATES (ANGSTROEM)
---------------------------------
  C     -0.014860    1.487411    0.088776
  C      1.383921    2.138868   -0.051410
  C      2.187280    1.384981   -1.063531
  C      1.956957    0.045410   -1.303756
  N      2.911715   -0.282862   -2.205099
  N      3.684473    0.784513   -2.513128
  N      3.242787    1.794974   -1.808542
  C      0.908720   -0.717476   -0.662183
  C     -0.009894   -0.027796    0.032140
  H     -0.488488    1.825832    1.015419
  H     -0.664190    1.845456   -0.725649
  H      1.286690    3.193220   -0.323325
  H      1.903059    2.112522    0.917297
  H      3.088090   -1.161789   -2.664750
  H      0.877375   -1.798846   -0.741467
  H     -0.823730   -0.551728    0.523880

 Total Charge           Charge          ....    0
 Multiplicity           Mult            ....    1
 Number of Electrons    NEL             ....   64
 Basis Dimension        Dim             ....  321

ORBITAL ENERGIES
----------------

  NO   OCC          E(Eh)            E(eV)
   0   2.0000     -15.652498      -425.9261
   1   2.0000     -15.631357      -425.3509
   2   2.0000     -15.590217      -424.2314
   3   2.0000     -11.278811      -306.9121
   4   2.0000     -11.256877      -306.3152
   5   2.0000     -11.254048      -306.2382
   6   2.0000     -11.247121      -306.0497
   7   2.0000     -11.245613      -306.0087
   8   2.0000     -11.239846      -305.8517
   9   2.0000      -1.425684       -38.7948
  10   2.0000      -1.197678       -32.5905
  11   2.0000      -1.148912       -31.2635
  12   2.0000      -1.048230       -28.5238
  13   2.0000      -1.023179       -27.8421
  14   2.0000      -0.890548       -24.2330
  15   2.0000      -0.866103       -23.5679
  16   2.0000      -0.826640       -22.4940
  17   2.0000      -0.755543       -20.5594
  18   2.0000      -0.718186       -19.5428
  19   2.0000      -0.652096       -17.7444
  20   2.0000      -0.636678       -17.3249
  21   2.0000      -0.617735       -16.8094
  22   2.0000      -0.611764       -16.6470
  23   2.0000      -0.585462       -15.9312
  24   2.0000      -0.533282       -14.5114
  25   2.0000      -0.528422       -14.3791
  26   2.0000      -0.496618       -13.5137
  27   2.0000      -0.485554       -13.2126
  28   2.0000      -0.439211       -11.9515
  29   2.0000      -0.431773       -11.7491
  30   2.0000      -0.400576       -10.9002
  31   2.0000      -0.304423        -8.2838
  32   0.0000       0.096248         2.6190
  33   0.0000       0.128370         3.4931
  34   0.0000       0.137001         3.7280
  35   0.0000       0.159815         4.3488
  36   0.0000       0.166827         4.5396

MULLIKEN ATOMIC CHARGES
-----------------------
   0 C :   -0.210437
   1 C :   -0.217003
   2 C :   -0.018567
   3 C :    0.090617
   4 N :   -0.085391
   5 N :   -0.131670
   6 N :   -0.133401
   7 C :   -0.234855
   8 C :   -0.124398
   9 H :    0.135281
  10 H :    0.128303
  11 H :    0.147497
  12 H :    0.126415
  13 H :    0.261971
  14 H :    0.131949
  15 H :    0.133689
Sum of atomic charges:   -0.0000000

LOEWDIN ATOMIC CHARGES
----------------------
   0 C :   -0.234206
   1 C :   -0.209368
   2 C :   -0.247250
   3 C :   -0.225556
   4 N :    0.145403
   5 N :   -0.049895
   6 N :    0.024104
   7 C :   -0.142686
   8 C :   -0.139726
   9 H :    0.143783
  10 H :    0.152206
  11 H :    0.150564
  12 H :    0.149554
  13 H :    0.191292
  14 H :    0.148009
  15 H :    0.143772

  Mayer bond orders larger than 0.1
B(  0-C ,  1-C ) :   0.9370 B(  0-C ,  8-C ) :   0.9346 B(  0-C ,  9-H ) :   0.9351
B(  0-C , 10-H ) :   0.9049 B(  1-C ,  2-C ) :   0.9300 B(  1-C , 11-H ) :   0.9392
B(  1-C , 12-H ) :   0.9132 B(  2-C ,  3-C ) :   1.3398 B(  2-C ,  6-N ) :   1.4674
B(  3-C ,  4-N ) :   1.1708 B(  3-C ,  5-N ) :   0.1233 B(  3-C ,  7-C ) :   1.0081
B(  4-N ,  5-N ) :   1.0366 B(  4-N , 13-H ) :   0.8561 B(  5-N ,  6-N ) :   1.2676
B(  7-C ,  8-C ) :   1.7663 B(  7-C , 14-H ) :   0.9169 B(  8-C , 15-H ) :   0.9251

MP2 TOTAL ENERGY:     -396.254539352 Eh
FINAL SINGLE POINT ENERGY      -396.254539352437

DIPOLE MOMENT
-------------
                                X             Y             Z
Electronic contribution:      5.81536      -1.49376      -4.53917
Nuclear contribution   :     -7.04628       0.27751       5.09909
                        -----------------------------------------
Total Dipole Moment    :     -1.23092      -1.21625       0.55992
                        -----------------------------------------
Magnitude (a.u.)       :      1.81877
Magnitude (Debye)      :      4.62295

                             ****ORCA TERMINATED NORMALLY****
TOTAL RUN TIME: 0 days 0 hours 17 minutes 45 seconds 251 msec
