                         Program Version 3.0.3 - RELEASE   -
|  1> ! RI-MP2 RIJK def2-TZVP def2-TZVP/C def2-TZVP/JK TIGHTSCF
|  2> % maxcore 2000
|  3> % mp2 density relaxed end
|  4> *xyz 0 1
|  5>  N       -0.1491933201     1.2809105821    -0.0114208714
|  6>  C       -0.0332058934     0.0159438188    -0.0185790413
|  7>  N        1.0846330439    -0.8029643162    -0.0223153260
|  8>  C        0.7759344121    -2.1735158580    -0.0098606904
|  9>  O        1.5670666020    -3.0825286767     0.0599918757
| 10>  N       -0.5951887446    -2.2351110312    -0.1054081774
| 11>  C       -1.1979518266    -0.9315869543    -0.0255730863
| 12>  C       -2.4365195057    -0.6283129167     0.7800571805
| 13>  C       -2.4785613472    -0.5644871348    -0.7266302831
| 14>  H        0.7544065762     1.7529219290    -0.0078624254
| 15>  H        2.0404508234    -0.4883968552    -0.0029554373
| 16>  H       -1.0676830330    -3.0874768456     0.1432432675
| 17>  H       -2.9271039345    -1.4618669235     1.2721973249
| 18>  H       -2.4334331271     0.3049803396     1.3316686753
| 19>  H       -2.5043213655     0.4133197842    -1.1938869486
| 20>  H       -2.9942579898    -1.3568461715    -1.2581714568
| 21> *
| 22>
| 23>                          ****END OF INPUT****

CARTESIAN COORDINATES (ANGSTROEM)
---------------------------------
  N     -0.149193    1.280911   -0.011421
  C     -0.033206    0.015944   -0.018579
  N      1.084633   -0.802964   -0.022315
  C      0.775934   -2.173516   -0.009861
  O      1.567067   -3.082529    0.059992
  N     -0.595189   -2.235111   -0.105408
  C     -1.197952   -0.931587   -0.025573
  C     -2.436520   -0.628313    0.780057
  C     -2.478561   -0.564487   -0.726630
  H      0.754407    1.752922   -0.007862
  H      2.040451   -0.488397   -0.002955
  H     -1.067683   -3.087477    0.143243
  H     -2.927104   -1.461867    1.272197
  H     -2.433433    0.304980    1.331669
  H     -2.504321    0.413320   -1.193887
  H     -2.994258   -1.356846   -1.258171

 Total Charge           Charge          ....    0
 Multiplicity           Mult            ....    1
 Number of Electrons    NEL             ....   66
 Basis Dimension        Dim             ....  321

ORBITAL ENERGIES
----------------

  NO   OCC          E(Eh)            E(eV)
   0   2.0000     -20.531642      -558.6944
   1   2.0000     -15.615871      -424.9295
   2   2.0000     -15.599492      -424.4838
   3   2.0000     -15.543203      -422.9521
   4   2.0000     -11.395987      -310.1006
   5   2.0000     -11.342774      -308.6526
   6   2.0000     -11.302040      -307.5442
   7   2.0000     -11.250219      -306.1340
   8   2.0000     -11.247040      -306.0475
   9   2.0000      -1.418446       -38.5979
  10   2.0000      -1.326180       -36.0872
  11   2.0000      -1.234965       -33.6051
  12   2.0000      -1.191724       -32.4285
  13   2.0000      -1.131093       -30.7786
  14   2.0000      -0.925923       -25.1957
  15   2.0000      -0.863755       -23.5040
  16   2.0000      -0.848848       -23.0983
  17   2.0000      -0.799959       -21.7680
  18   2.0000      -0.743729       -20.2379
  19   2.0000      -0.690935       -18.8013
  20   2.0000      -0.676479       -18.4079
  21   2.0000      -0.662256       -18.0209
  22   2.0000      -0.647738       -17.6259
  23   2.0000      -0.635470       -17.2920
  24   2.0000      -0.574820       -15.6416
  25   2.0000      -0.546529       -14.8718
  26   2.0000      -0.523517       -14.2456
  27   2.0000      -0.503202       -13.6928
  28   2.0000      -0.473345       -12.8804
  29   2.0000      -0.467215       -12.7136
  30   2.0000      -0.430249       -11.7077
  31   2.0000      -0.405944       -11.0463
  32   2.0000      -0.366453        -9.9717
  33   0.0000       0.125334         3.4105
  34   0.0000       0.135746         3.6938
  35   0.0000       0.150039         4.0828
  36   0.0000       0.168834         4.5942
  37   0.0000       0.179326         4.8797

MULLIKEN ATOMIC CHARGES
-----------------------
   0 N :   -0.387036
   1 C :    0.034241
   2 N :   -0.288915
   3 C :    0.302526
   4 O :   -0.337942
   5 N :   -0.324227
   6 C :    0.248546
   7 C :   -0.287535
   8 C :   -0.265186
   9 H :    0.211449
  10 H :    0.248958
  11 H :    0.249048
  12 H :    0.141514
  13 H :    0.156362
  14 H :    0.157448
  15 H :    0.140748
Sum of atomic charges:   -0.0000000

LOEWDIN ATOMIC CHARGES
----------------------
   0 N :   -0.064493
   1 C :   -0.323268
   2 N :    0.162719
   3 C :   -0.509843
   4 O :    0.080644
   5 N :    0.153434
   6 C :   -0.241398
   7 C :   -0.186972
   8 C :   -0.184399
   9 H :    0.162248
  10 H :    0.193613
  11 H :    0.192919
  12 H :    0.135859
  13 H :    0.145603
  14 H :    0.145888
  15 H :    0.137446

  Mayer bond orders larger than 0.1
B(  0-N ,  1-C ) :   2.0669 B(  0-N ,  6-C ) :  -0.1237 B(  0-N ,  9-H ) :   0.8575
B(  1-C ,  2-N ) :   1.0858 B(  1-C ,  6-C ) :   0.8928 B(  2-N ,  3-C ) :   1.0121
B(  2-N , 10-H ) :   0.8637 B(  3-C ,  4-O ) :   2.0283 B(  3-C ,  5-N ) :   1.1431
B(  5-N ,  6-C ) :   0.9163 B(  5-N , 11-H ) :   0.8639 B(  6-C ,  7-C ) :   0.8625
B(  6-C ,  8-C ) :   0.8447 B(  7-C ,  8-C ) :   0.9056 B(  7-C , 12-H ) :   0.9231
B(  7-C , 13-H ) :   0.9131 B(  8-C , 14-H ) :   0.9139 B(  8-C , 15-H ) :   0.9260

MP2 TOTAL ENERGY:     -433.393952924 Eh
FINAL SINGLE POINT ENERGY      -433.393952923993

DIPOLE MOMENT
-------------
                                X             Y             Z
Electronic contribution:      5.70148      -2.79150      -0.17872
Nuclear contribution   :     -6.22891       3.08312       0.30421
                        -----------------------------------------
Total Dipole Moment    :     -0.52742       0.29163       0.12549
                        -----------------------------------------
Magnitude (a.u.)       :      0.61560
Magnitude (Debye)      :      1.56474

                             ****ORCA TERMINATED NORMALLY****
TOTAL RUN TIME: 0 days 0 hours 15 minutes 4 seconds 143 msec
