                         Program Version 3.0.3 - RELEASE   -
|  1> ! RI-MP2 RIJK def2-TZVP def2-TZVP/C def2-TZVP/JK TIGHTSCF
|  2> % maxcore 2000
|  3> % mp2 density relaxed end
|  4> *xyz 0 1
|  5>  C        0.0054607250     1.3391256485    -0.1116479153
|  6>  O       -0.0522906959    -0.0632863078    -0.0138776784
|  7>  C        0.7527922391    -0.5734036094     1.0212340343
|  8>  C        0.6709656664    -2.0830404594     1.0155774564
|  9>  O        1.3778312783    -2.5567474306    -0.1391199759
| 10>  C        1.3934550174    -3.8876511377    -0.3180281126
| 11>  N        0.8289276459    -4.6921237987     0.4923869927
| 12>  C        2.1144095978    -4.2572712007    -1.5066919449
| 13>  C        2.7068397597    -4.6193814014    -2.4879399531
| 14>  H        1.0273152484     1.6927641303    -0.3216280274
| 15>  H       -0.6471030978     1.6360063781    -0.9360144574
| 16>  H       -0.3431675604     1.8294127234     0.8117844247
| 17>  H        1.8016902947    -0.2565420015     0.8983076136
| 18>  H        0.4087727594    -0.2073442157     2.0043183792
| 19>  H        1.1244284319    -2.5015791478     1.9201895646
| 20>  H       -0.3697239930    -2.4177639568     0.9722748112
| 21>  H        0.9527158939    -5.6530983803     0.1824693269
| 22>  H        3.2301946892    -4.9345645325    -3.3572219286
| 23> *
| 24>
| 25>                          ****END OF INPUT****

CARTESIAN COORDINATES (ANGSTROEM)
---------------------------------
  C      0.005461    1.339126   -0.111648
  O     -0.052291   -0.063286   -0.013878
  C      0.752792   -0.573404    1.021234
  C      0.670966   -2.083040    1.015577
  O      1.377831   -2.556747   -0.139120
  C      1.393455   -3.887651   -0.318028
  N      0.828928   -4.692124    0.492387
  C      2.114410   -4.257271   -1.506692
  C      2.706840   -4.619381   -2.487940
  H      1.027315    1.692764   -0.321628
  H     -0.647103    1.636006   -0.936014
  H     -0.343168    1.829413    0.811784
  H      1.801690   -0.256542    0.898308
  H      0.408773   -0.207344    2.004318
  H      1.124428   -2.501579    1.920190
  H     -0.369724   -2.417764    0.972275
  H      0.952716   -5.653098    0.182469
  H      3.230195   -4.934565   -3.357222

 Total Charge           Charge          ....    0
 Multiplicity           Mult            ....    1
 Number of Electrons    NEL             ....   68
 Basis Dimension        Dim             ....  333

ORBITAL ENERGIES
----------------

  NO   OCC          E(Eh)            E(eV)
   0   2.0000     -20.595716      -560.4379
   1   2.0000     -20.557325      -559.3933
   2   2.0000     -15.548017      -423.0830
   3   2.0000     -11.365846      -309.2804
   4   2.0000     -11.283625      -307.0430
   5   2.0000     -11.280863      -306.9679
   6   2.0000     -11.271875      -306.7233
   7   2.0000     -11.257685      -306.3372
   8   2.0000     -11.253279      -306.2173
   9   2.0000      -1.436064       -39.0773
  10   2.0000      -1.379196       -37.5298
  11   2.0000      -1.207657       -32.8620
  12   2.0000      -1.059787       -28.8383
  13   2.0000      -1.031236       -28.0614
  14   2.0000      -0.930588       -25.3226
  15   2.0000      -0.879469       -23.9316
  16   2.0000      -0.816580       -22.2203
  17   2.0000      -0.769024       -20.9262
  18   2.0000      -0.716828       -19.5059
  19   2.0000      -0.692088       -18.8327
  20   2.0000      -0.685728       -18.6596
  21   2.0000      -0.649614       -17.6769
  22   2.0000      -0.638158       -17.3652
  23   2.0000      -0.630899       -17.1676
  24   2.0000      -0.562221       -15.2988
  25   2.0000      -0.550686       -14.9849
  26   2.0000      -0.525525       -14.3003
  27   2.0000      -0.506103       -13.7718
  28   2.0000      -0.482735       -13.1359
  29   2.0000      -0.467402       -12.7186
  30   2.0000      -0.441611       -12.0169
  31   2.0000      -0.426697       -11.6110
  32   2.0000      -0.413805       -11.2602
  33   2.0000      -0.388356       -10.5677
  34   0.0000       0.107873         2.9354
  35   0.0000       0.143468         3.9040
  36   0.0000       0.155582         4.2336
  37   0.0000       0.158296         4.3075
  38   0.0000       0.167417         4.5557

MULLIKEN ATOMIC CHARGES
-----------------------
   0 C :   -0.216146
   1 O :   -0.296030
   2 C :   -0.047485
   3 C :   -0.055257
   4 O :   -0.227248
   5 C :    0.031730
   6 N :   -0.401770
   7 C :    0.028387
   8 C :   -0.068700
   9 H :    0.113912
  10 H :    0.141040
  11 H :    0.109229
  12 H :    0.100871
  13 H :    0.099167
  14 H :    0.125028
  15 H :    0.131283
  16 H :    0.229571
  17 H :    0.202418
Sum of atomic charges:   -0.0000000

LOEWDIN ATOMIC CHARGES
----------------------
   0 C :   -0.359703
   1 O :    0.139009
   2 C :   -0.336463
   3 C :   -0.281582
   4 O :    0.276007
   5 C :   -0.420886
   6 N :   -0.041991
   7 C :   -0.064433
   8 C :   -0.053313
   9 H :    0.102045
  10 H :    0.114405
  11 H :    0.100713
  12 H :    0.125032
  13 H :    0.124570
  14 H :    0.134493
  15 H :    0.137386
  16 H :    0.173459
  17 H :    0.131253

  Mayer bond orders larger than 0.1
B(  0-C ,  1-O ) :   0.9208 B(  0-C ,  9-H ) :   0.9373 B(  0-C , 10-H ) :   0.9394
B(  0-C , 11-H ) :   0.9362 B(  1-O ,  2-C ) :   0.9642 B(  2-C ,  3-C ) :   0.9563
B(  2-C , 12-H ) :   0.9183 B(  2-C , 13-H ) :   0.9203 B(  3-C ,  4-O ) :   0.8498
B(  3-C , 14-H ) :   0.9244 B(  3-C , 15-H ) :   0.9269 B(  4-O ,  5-C ) :   1.1874
B(  5-C ,  6-N ) :   1.8931 B(  5-C ,  7-C ) :   1.1391 B(  5-C ,  8-C ) :  -0.1302
B(  6-N , 16-H ) :   0.8615 B(  7-C ,  8-C ) :   2.6061 B(  8-C , 17-H ) :   0.8802

MP2 TOTAL ENERGY:     -438.302636184 Eh
FINAL SINGLE POINT ENERGY      -438.302636184213

DIPOLE MOMENT
-------------
                                X             Y             Z
Electronic contribution:      2.45119      -8.68476      -3.55566
Nuclear contribution   :     -2.02894       8.97505       3.50994
                        -----------------------------------------
Total Dipole Moment    :      0.42224       0.29029      -0.04572
                        -----------------------------------------
Magnitude (a.u.)       :      0.51444
Magnitude (Debye)      :      1.30760

                             ****ORCA TERMINATED NORMALLY****
TOTAL RUN TIME: 0 days 0 hours 15 minutes 2 seconds 398 msec
