                         Program Version 3.0.3 - RELEASE   -
|  1> ! RI-MP2 RIJK def2-TZVP def2-TZVP/C def2-TZVP/JK TIGHTSCF
|  2> % maxcore 2000
|  3> % mp2 density relaxed end
|  4> *xyz 0 1
|  5>  C       -0.0578806230     1.5082134483    -0.0280677199
|  6>  C        0.0414787194     0.0176352136     0.0140965432
|  7>  C        0.4691728568    -1.0343765333    -0.9569336621
|  8>  C        1.2450091721    -1.7976106974     0.1204905845
|  9>  C        0.4918071595    -0.9269133082     1.1677821925
| 10>  O       -0.7036686297    -1.6045026903     1.5681809419
| 11>  C       -1.4710160425    -1.7199010568     0.4289948898
| 12>  N       -2.4875691291    -2.4482025607     0.2931215743
| 13>  N       -0.9718976074    -0.8497355750    -0.5865509145
| 14>  H        0.9155223362     1.9732005329     0.1590396249
| 15>  H       -0.4157057989     1.8332654674    -1.0084165686
| 16>  H       -0.7606689307     1.8735599790     0.7286093016
| 17>  H        0.6946371974    -0.9651418578    -2.0141943923
| 18>  H        1.1111210564    -2.8796765405     0.2054632726
| 19>  H        2.3100535772    -1.5546207225     0.0765639747
| 20>  H        1.0095303293    -0.5579720644     2.0498602862
| 21>  H       -2.6533844730    -2.9773690843     1.1494878012
| 22> *
| 23>
| 24>                          ****END OF INPUT****

CARTESIAN COORDINATES (ANGSTROEM)
---------------------------------
  C     -0.057881    1.508213   -0.028068
  C      0.041479    0.017635    0.014097
  C      0.469173   -1.034377   -0.956934
  C      1.245009   -1.797611    0.120491
  C      0.491807   -0.926913    1.167782
  O     -0.703669   -1.604503    1.568181
  C     -1.471016   -1.719901    0.428995
  N     -2.487569   -2.448203    0.293122
  N     -0.971898   -0.849736   -0.586551
  H      0.915522    1.973201    0.159040
  H     -0.415706    1.833265   -1.008417
  H     -0.760669    1.873560    0.728609
  H      0.694637   -0.965142   -2.014194
  H      1.111121   -2.879677    0.205463
  H      2.310054   -1.554621    0.076564
  H      1.009530   -0.557972    2.049860
  H     -2.653384   -2.977369    1.149488

 Total Charge           Charge          ....    0
 Multiplicity           Mult            ....    1
 Number of Electrons    NEL             ....   66
 Basis Dimension        Dim             ....  327

ORBITAL ENERGIES
----------------

  NO   OCC          E(Eh)            E(eV)
   0   2.0000     -20.598625      -560.5171
   1   2.0000     -15.586246      -424.1233
   2   2.0000     -15.529430      -422.5773
   3   2.0000     -11.358970      -309.0933
   4   2.0000     -11.314003      -307.8697
   5   2.0000     -11.290274      -307.2240
   6   2.0000     -11.288353      -307.1717
   7   2.0000     -11.253007      -306.2099
   8   2.0000     -11.240096      -305.8585
   9   2.0000      -1.453683       -39.5567
  10   2.0000      -1.298678       -35.3388
  11   2.0000      -1.203640       -32.7527
  12   2.0000      -1.068610       -29.0783
  13   2.0000      -1.015093       -27.6221
  14   2.0000      -0.911768       -24.8105
  15   2.0000      -0.889927       -24.2161
  16   2.0000      -0.803927       -21.8760
  17   2.0000      -0.744279       -20.2529
  18   2.0000      -0.712147       -19.3785
  19   2.0000      -0.672228       -18.2922
  20   2.0000      -0.656010       -17.8509
  21   2.0000      -0.631932       -17.1957
  22   2.0000      -0.599775       -16.3207
  23   2.0000      -0.596145       -16.2219
  24   2.0000      -0.578807       -15.7501
  25   2.0000      -0.560556       -15.2535
  26   2.0000      -0.525280       -14.2936
  27   2.0000      -0.488292       -13.2871
  28   2.0000      -0.479362       -13.0441
  29   2.0000      -0.463937       -12.6244
  30   2.0000      -0.429767       -11.6945
  31   2.0000      -0.408491       -11.1156
  32   2.0000      -0.388496       -10.5715
  33   0.0000       0.129775         3.5313
  34   0.0000       0.152658         4.1540
  35   0.0000       0.167508         4.5581
  36   0.0000       0.174426         4.7464
  37   0.0000       0.178194         4.8489

MULLIKEN ATOMIC CHARGES
-----------------------
   0 C :   -0.415320
   1 C :    0.131727
   2 C :   -0.096963
   3 C :   -0.232916
   4 C :    0.052614
   5 O :   -0.267920
   6 C :    0.164278
   7 N :   -0.347674
   8 N :   -0.200140
   9 H :    0.134357
  10 H :    0.155049
  11 H :    0.147033
  12 H :    0.142922
  13 H :    0.132643
  14 H :    0.131394
  15 H :    0.140136
  16 H :    0.228779
Sum of atomic charges:    0.0000000

LOEWDIN ATOMIC CHARGES
----------------------
   0 C :   -0.266804
   1 C :   -0.237143
   2 C :   -0.162564
   3 C :   -0.200679
   4 C :   -0.213510
   5 O :    0.241329
   6 C :   -0.454270
   7 N :   -0.048120
   8 N :    0.204559
   9 H :    0.131399
  10 H :    0.139899
  11 H :    0.136154
  12 H :    0.137954
  13 H :    0.134275
  14 H :    0.145783
  15 H :    0.139133
  16 H :    0.172604

  Mayer bond orders larger than 0.1
B(  0-C ,  1-C ) :   0.8266 B(  0-C ,  9-H ) :   0.9363 B(  0-C , 10-H ) :   0.9472
B(  0-C , 11-H ) :   0.9384 B(  1-C ,  2-C ) :   0.8373 B(  1-C ,  4-C ) :   0.8628
B(  1-C ,  8-N ) :   0.7981 B(  2-C ,  3-C ) :   0.9512 B(  2-C ,  8-N ) :   0.8815
B(  2-C , 12-H ) :   0.9272 B(  3-C ,  4-C ) :   0.9399 B(  3-C , 13-H ) :   0.9104
B(  3-C , 14-H ) :   0.9103 B(  4-C ,  5-O ) :   0.9072 B(  4-C , 15-H ) :   0.9246
B(  5-O ,  6-C ) :   1.0534 B(  6-C ,  7-N ) :   2.0468 B(  6-C ,  8-N ) :   1.0193
B(  7-N , 16-H ) :   0.8474

MP2 TOTAL ENERGY:     -417.276349365 Eh
FINAL SINGLE POINT ENERGY      -417.276349365006

DIPOLE MOMENT
-------------
                                X             Y             Z
Electronic contribution:     -3.43615      -3.73762       1.01309
Nuclear contribution   :      5.00878       4.34366      -0.61415
                        -----------------------------------------
Total Dipole Moment    :      1.57263       0.60604       0.39894
                        -----------------------------------------
Magnitude (a.u.)       :      1.73194
Magnitude (Debye)      :      4.40224

                             ****ORCA TERMINATED NORMALLY****
TOTAL RUN TIME: 0 days 0 hours 17 minutes 9 seconds 532 msec
