                         Program Version 3.0.3 - RELEASE   -
|  1> ! RI-MP2 RIJK def2-TZVP def2-TZVP/C def2-TZVP/JK TIGHTSCF
|  2> % maxcore 2000
|  3> % mp2 density relaxed end
|  4> *xyz 0 1
|  5>  C       -0.0988911788     1.5909964182    -0.0630598735
|  6>  C        0.0029921216     0.0586569986     0.0063429270
|  7>  C        0.8154071310    -0.5082133671    -1.1388348040
|  8>  C        1.8482537300    -1.2627450355    -0.7469534896
|  9>  C        1.8889415853    -1.3332019477     0.7322969217
| 10>  O        2.6843203526    -1.9309849060     1.4262476345
| 11>  C        0.7290422818    -0.5084684586     1.2288077105
| 12>  C        0.9140844831     0.2081274662     2.5524675303
| 13>  C        0.0323314607    -0.9947256740     2.4857319275
| 14>  H        0.8897228981     2.0534134747     0.0138282777
| 15>  H       -0.5503813089     1.9051431360    -1.0099124256
| 16>  H       -0.7229111669     1.9828922355     0.7457948369
| 17>  H       -1.0170812437    -0.3479547927    -0.0546710642
| 18>  H        0.5537307578    -0.2892809318    -2.1695728729
| 19>  H        2.5689213071    -1.7682415148    -1.3766870114
| 20>  H        1.8885833688     0.0926935571     3.0149475515
| 21>  H        0.4557343471     1.1837514090     2.6677153265
| 22>  H       -1.0419533348    -0.8528464600     2.5419471393
| 23>  H        0.4049482780    -1.9212252072     2.9093838678
| 24> *
| 25>
| 26>                          ****END OF INPUT****

CARTESIAN COORDINATES (ANGSTROEM)
---------------------------------
  C     -0.098891    1.590996   -0.063060
  C      0.002992    0.058657    0.006343
  C      0.815407   -0.508213   -1.138835
  C      1.848254   -1.262745   -0.746953
  C      1.888942   -1.333202    0.732297
  O      2.684320   -1.930985    1.426248
  C      0.729042   -0.508468    1.228808
  C      0.914084    0.208127    2.552468
  C      0.032331   -0.994726    2.485732
  H      0.889723    2.053413    0.013828
  H     -0.550381    1.905143   -1.009912
  H     -0.722911    1.982892    0.745795
  H     -1.017081   -0.347955   -0.054671
  H      0.553731   -0.289281   -2.169573
  H      2.568921   -1.768242   -1.376687
  H      1.888583    0.092694    3.014948
  H      0.455734    1.183751    2.667715
  H     -1.041953   -0.852846    2.541947
  H      0.404948   -1.921225    2.909384

 Total Charge           Charge          ....    0
 Multiplicity           Mult            ....    1
 Number of Electrons    NEL             ....   66
 Basis Dimension        Dim             ....  339

ORBITAL ENERGIES
----------------

  NO   OCC          E(Eh)            E(eV)
   0   2.0000     -20.529530      -558.6369
   1   2.0000     -11.321540      -308.0748
   2   2.0000     -11.264634      -306.5263
   3   2.0000     -11.254840      -306.2598
   4   2.0000     -11.244262      -305.9719
   5   2.0000     -11.237618      -305.7911
   6   2.0000     -11.237029      -305.7751
   7   2.0000     -11.236336      -305.7562
   8   2.0000     -11.232201      -305.6437
   9   2.0000      -1.373586       -37.3772
  10   2.0000      -1.180238       -32.1159
  11   2.0000      -1.111706       -30.2511
  12   2.0000      -1.019121       -27.7317
  13   2.0000      -0.901122       -24.5208
  14   2.0000      -0.883399       -24.0385
  15   2.0000      -0.830942       -22.6111
  16   2.0000      -0.766451       -20.8562
  17   2.0000      -0.717304       -19.5188
  18   2.0000      -0.683795       -18.6070
  19   2.0000      -0.654042       -17.7974
  20   2.0000      -0.624348       -16.9894
  21   2.0000      -0.615000       -16.7350
  22   2.0000      -0.592682       -16.1277
  23   2.0000      -0.570668       -15.5287
  24   2.0000      -0.560147       -15.2424
  25   2.0000      -0.536741       -14.6055
  26   2.0000      -0.516442       -14.0531
  27   2.0000      -0.511696       -13.9239
  28   2.0000      -0.500898       -13.6301
  29   2.0000      -0.439141       -11.9496
  30   2.0000      -0.409458       -11.1419
  31   2.0000      -0.398168       -10.8347
  32   2.0000      -0.380181       -10.3452
  33   0.0000       0.095068         2.5869
  34   0.0000       0.131894         3.5890
  35   0.0000       0.157939         4.2977
  36   0.0000       0.160185         4.3589
  37   0.0000       0.182448         4.9647

MULLIKEN ATOMIC CHARGES
-----------------------
   0 C :   -0.441193
   1 C :    0.092984
   2 C :   -0.184451
   3 C :   -0.178466
   4 C :    0.188570
   5 O :   -0.316261
   6 C :    0.020415
   7 C :   -0.259435
   8 C :   -0.297509
   9 H :    0.145328
  10 H :    0.136594
  11 H :    0.133532
  12 H :    0.110176
  13 H :    0.140507
  14 H :    0.143169
  15 H :    0.148568
  16 H :    0.134593
  17 H :    0.134736
  18 H :    0.148144
Sum of atomic charges:    0.0000000

LOEWDIN ATOMIC CHARGES
----------------------
   0 C :   -0.280935
   1 C :   -0.212164
   2 C :   -0.082658
   3 C :   -0.110304
   4 C :   -0.289616
   5 O :    0.133933
   6 C :   -0.173939
   7 C :   -0.185622
   8 C :   -0.185871
   9 H :    0.129293
  10 H :    0.125240
  11 H :    0.123853
  12 H :    0.163280
  13 H :    0.142863
  14 H :    0.145804
  15 H :    0.143561
  16 H :    0.134828
  17 H :    0.135435
  18 H :    0.143019

  Mayer bond orders larger than 0.1
B(  0-C ,  1-C ) :   0.8695 B(  0-C ,  9-H ) :   0.9353 B(  0-C , 10-H ) :   0.9367
B(  0-C , 11-H ) :   0.9354 B(  1-C ,  2-C ) :   0.9149 B(  1-C ,  6-C ) :   0.8677
B(  1-C , 12-H ) :   0.9031 B(  2-C ,  3-C ) :   1.6889 B(  2-C , 13-H ) :   0.9170
B(  3-C ,  4-C ) :   1.0129 B(  3-C , 14-H ) :   0.9207 B(  4-C ,  5-O ) :   1.9585
B(  4-C ,  6-C ) :   0.9230 B(  6-C ,  7-C ) :   0.8078 B(  6-C ,  8-C ) :   0.8150
B(  7-C ,  8-C ) :   0.9657 B(  7-C , 15-H ) :   0.9192 B(  7-C , 16-H ) :   0.9244
B(  8-C , 17-H ) :   0.9276 B(  8-C , 18-H ) :   0.9196

MP2 TOTAL ENERGY:     -385.233540481 Eh
FINAL SINGLE POINT ENERGY      -385.233540481118

DIPOLE MOMENT
-------------
                                X             Y             Z
Electronic contribution:      4.97959      -5.88178      -0.50042
Nuclear contribution   :     -5.97723       6.64210      -0.13776
                        -----------------------------------------
Total Dipole Moment    :     -0.99763       0.76032      -0.63818
                        -----------------------------------------
Magnitude (a.u.)       :      1.40735
Magnitude (Debye)      :      3.57720

                             ****ORCA TERMINATED NORMALLY****
TOTAL RUN TIME: 0 days 0 hours 18 minutes 29 seconds 299 msec
