                         Program Version 3.0.3 - RELEASE   -
|  1> ! RI-MP2 RIJK def2-TZVP def2-TZVP/C def2-TZVP/JK TIGHTSCF
|  2> % maxcore 2000
|  3> % mp2 density relaxed end
|  4> *xyz 0 1
|  5>  O        0.1219818986     1.3661283588     0.1955527802
|  6>  C        0.0254970162    -0.0083416666    -0.1581176129
|  7>  C       -1.3869549775    -0.5303372809    -0.0846483191
|  8>  C       -1.8832508770    -1.0817468332     1.2358373125
|  9>  C       -1.6850523787    -2.0144907550     0.0657000397
| 10>  C       -2.8946775424    -2.3231269839    -0.7916486766
| 11>  N       -4.1399414144    -1.6466299941    -0.3622384867
| 12>  C       -3.3408784816    -1.0750582977    -1.4661165113
| 13>  C       -2.4195149636     0.0698043081    -1.0552871047
| 14>  H       -0.2810584908     1.4628282541     1.0652246254
| 15>  H        0.4069025197    -0.0675380021    -1.1845237139
| 16>  H        0.6823033889    -0.6307375251     0.4720273899
| 17>  H       -1.1608511603    -1.1475218465     2.0447730210
| 18>  H       -2.9033826609    -0.8814855967     1.5393103212
| 19>  H       -0.8878338624    -2.7487520158     0.0997766654
| 20>  H       -2.9664058591    -3.2962735434    -1.2649855354
| 21>  H       -4.9423846275    -2.1389220192    -0.7471672756
| 22>  H       -3.7686133359    -1.0765601550    -2.4642156629
| 23>  H       -2.9756091956     0.9062858586    -0.6209725499
| 24>  H       -1.8989062959     0.4531292956    -1.9401035463
| 25> *
| 26>
| 27>                          ****END OF INPUT****

CARTESIAN COORDINATES (ANGSTROEM)
---------------------------------
  O      0.121982    1.366128    0.195553
  C      0.025497   -0.008342   -0.158118
  C     -1.386955   -0.530337   -0.084648
  C     -1.883251   -1.081747    1.235837
  C     -1.685052   -2.014491    0.065700
  C     -2.894678   -2.323127   -0.791649
  N     -4.139941   -1.646630   -0.362238
  C     -3.340878   -1.075058   -1.466117
  C     -2.419515    0.069804   -1.055287
  H     -0.281058    1.462828    1.065225
  H      0.406903   -0.067538   -1.184524
  H      0.682303   -0.630738    0.472027
  H     -1.160851   -1.147522    2.044773
  H     -2.903383   -0.881486    1.539310
  H     -0.887834   -2.748752    0.099777
  H     -2.966406   -3.296274   -1.264986
  H     -4.942385   -2.138922   -0.747167
  H     -3.768613   -1.076560   -2.464216
  H     -2.975609    0.906286   -0.620973
  H     -1.898906    0.453129   -1.940104

 Total Charge           Charge          ....    0
 Multiplicity           Mult            ....    1
 Number of Electrons    NEL             ....   68
 Basis Dimension        Dim             ....  345

ORBITAL ENERGIES
----------------

  NO   OCC          E(Eh)            E(eV)
   0   2.0000     -20.549870      -559.1904
   1   2.0000     -15.556385      -423.3108
   2   2.0000     -11.273151      -306.7580
   3   2.0000     -11.260679      -306.4187
   4   2.0000     -11.256614      -306.3081
   5   2.0000     -11.233239      -305.6720
   6   2.0000     -11.231854      -305.6343
   7   2.0000     -11.223439      -305.4053
   8   2.0000     -11.221126      -305.3424
   9   2.0000      -1.353985       -36.8438
  10   2.0000      -1.271664       -34.6037
  11   2.0000      -1.148318       -31.2473
  12   2.0000      -0.993675       -27.0393
  13   2.0000      -0.946490       -25.7553
  14   2.0000      -0.900814       -24.5124
  15   2.0000      -0.815180       -22.1822
  16   2.0000      -0.763272       -20.7697
  17   2.0000      -0.750926       -20.4337
  18   2.0000      -0.724844       -19.7240
  19   2.0000      -0.674793       -18.3620
  20   2.0000      -0.632334       -17.2067
  21   2.0000      -0.614008       -16.7080
  22   2.0000      -0.602209       -16.3869
  23   2.0000      -0.577368       -15.7110
  24   2.0000      -0.565589       -15.3904
  25   2.0000      -0.536765       -14.6061
  26   2.0000      -0.510064       -13.8795
  27   2.0000      -0.499863       -13.6020
  28   2.0000      -0.476276       -12.9601
  29   2.0000      -0.465118       -12.6565
  30   2.0000      -0.435228       -11.8432
  31   2.0000      -0.413779       -11.2595
  32   2.0000      -0.394445       -10.7334
  33   2.0000      -0.365820        -9.9545
  34   0.0000       0.133608         3.6356
  35   0.0000       0.144470         3.9312
  36   0.0000       0.159628         4.3437
  37   0.0000       0.173059         4.7092
  38   0.0000       0.186444         5.0734

MULLIKEN ATOMIC CHARGES
-----------------------
   0 O :   -0.466863
   1 C :   -0.002340
   2 C :   -0.018798
   3 C :   -0.350098
   4 C :   -0.046932
   5 C :   -0.159497
   6 N :   -0.383372
   7 C :   -0.044860
   8 C :   -0.165992
   9 H :    0.314725
  10 H :    0.108015
  11 H :    0.095338
  12 H :    0.128715
  13 H :    0.165854
  14 H :    0.126200
  15 H :    0.130803
  16 H :    0.213675
  17 H :    0.125979
  18 H :    0.115637
  19 H :    0.113812
Sum of atomic charges:    0.0000000

LOEWDIN ATOMIC CHARGES
----------------------
   0 O :   -0.048177
   1 C :   -0.309971
   2 C :   -0.227940
   3 C :   -0.186379
   4 C :   -0.162452
   5 C :   -0.225381
   6 N :    0.001691
   7 C :   -0.240477
   8 C :   -0.183723
   9 H :    0.174582
  10 H :    0.131812
  11 H :    0.122324
  12 H :    0.133890
  13 H :    0.142872
  14 H :    0.146543
  15 H :    0.136470
  16 H :    0.166742
  17 H :    0.132643
  18 H :    0.145339
  19 H :    0.149591

  Mayer bond orders larger than 0.1
B(  0-O ,  1-C ) :   0.9095 B(  0-O ,  9-H ) :   0.8442 B(  1-C ,  2-C ) :   0.9611
B(  1-C , 10-H ) :   0.9229 B(  1-C , 11-H ) :   0.9234 B(  2-C ,  3-C ) :   0.8878
B(  2-C ,  4-C ) :   0.8197 B(  2-C ,  8-C ) :   0.9537 B(  3-C ,  4-C ) :   0.8876
B(  3-C , 12-H ) :   0.9294 B(  3-C , 13-H ) :   0.9021 B(  4-C ,  5-C ) :   0.9001
B(  4-C , 14-H ) :   0.9247 B(  5-C ,  6-N ) :   0.9279 B(  5-C ,  7-C ) :   0.9531
B(  5-C , 15-H ) :   0.9226 B(  6-N ,  7-C ) :   0.9305 B(  6-N , 16-H ) :   0.8706
B(  7-C ,  8-C ) :   0.9497 B(  7-C , 17-H ) :   0.9281 B(  8-C , 18-H ) :   0.9087
B(  8-C , 19-H ) :   0.9261

MP2 TOTAL ENERGY:     -402.429216955 Eh
FINAL SINGLE POINT ENERGY      -402.429216954776

DIPOLE MOMENT
-------------
                                X             Y             Z
Electronic contribution:     -0.70340       0.07382      -0.09169
Nuclear contribution   :      0.39419      -0.81570      -0.16713
                        -----------------------------------------
Total Dipole Moment    :     -0.30921      -0.74188      -0.25882
                        -----------------------------------------
Magnitude (a.u.)       :      0.84438
Magnitude (Debye)      :      2.14624

                             ****ORCA TERMINATED NORMALLY****
TOTAL RUN TIME: 0 days 0 hours 19 minutes 49 seconds 317 msec
