                         Program Version 3.0.3 - RELEASE   -
|  1> ! RI-MP2 RIJK def2-TZVP def2-TZVP/C def2-TZVP/JK TIGHTSCF
|  2> % maxcore 2000
|  3> % mp2 density relaxed end
|  4> *xyz 0 1
|  5>  O       -0.0957819583    -0.0365955853     0.0002969735
|  6>  C       -0.0031112928     1.1736433149     0.0082505368
|  7>  C        1.2263941221     1.9038340032     0.0002403187
|  8>  C        2.2544951028     2.5484833694    -0.0062708528
|  9>  C        3.4468471016     3.2896392366    -0.0142196984
| 10>  C        4.7320021115     2.7600451445    -0.0331688666
| 11>  N        5.6076948269     3.7986616005    -0.0349736774
| 12>  C        4.9271622266     4.9975418208    -0.0177486661
| 13>  C        3.5880230095     4.7190718424    -0.0047419553
| 14>  H       -0.9070010435     1.8181575869     0.0229796096
| 15>  H        5.0598404569     1.7338112506    -0.0449560146
| 16>  H        6.6087261428     3.7043514679    -0.0471077174
| 17>  H        5.4579941809     5.9353063845    -0.0164008050
| 18>  H        2.7807355830     5.4332679429     0.0100558851
| 19> *
| 20>
| 21>                          ****END OF INPUT****

CARTESIAN COORDINATES (ANGSTROEM)
---------------------------------
  O     -0.095782   -0.036596    0.000297
  C     -0.003111    1.173643    0.008251
  C      1.226394    1.903834    0.000240
  C      2.254495    2.548483   -0.006271
  C      3.446847    3.289639   -0.014220
  C      4.732002    2.760045   -0.033169
  N      5.607695    3.798662   -0.034974
  C      4.927162    4.997542   -0.017749
  C      3.588023    4.719072   -0.004742
  H     -0.907001    1.818158    0.022980
  H      5.059840    1.733811   -0.044956
  H      6.608726    3.704351   -0.047108
  H      5.457994    5.935306   -0.016401
  H      2.780736    5.433268    0.010056

 Total Charge           Charge          ....    0
 Multiplicity           Mult            ....    1
 Number of Electrons    NEL             ....   62
 Basis Dimension        Dim             ....  309

ORBITAL ENERGIES
----------------

  NO   OCC          E(Eh)            E(eV)
   0   2.0000     -20.551847      -559.2442
   1   2.0000     -15.636101      -425.4799
   2   2.0000     -11.345424      -308.7247
   3   2.0000     -11.291999      -307.2709
   4   2.0000     -11.276766      -306.8564
   5   2.0000     -11.262505      -306.4684
   6   2.0000     -11.254256      -306.2439
   7   2.0000     -11.238923      -305.8266
   8   2.0000     -11.232912      -305.6631
   9   2.0000      -1.386414       -37.7262
  10   2.0000      -1.323300       -36.0088
  11   2.0000      -1.103375       -30.0244
  12   2.0000      -1.043049       -28.3828
  13   2.0000      -1.008590       -27.4451
  14   2.0000      -0.907338       -24.6899
  15   2.0000      -0.834371       -22.7044
  16   2.0000      -0.809270       -22.0213
  17   2.0000      -0.767663       -20.8892
  18   2.0000      -0.708476       -19.2786
  19   2.0000      -0.654051       -17.7976
  20   2.0000      -0.642464       -17.4823
  21   2.0000      -0.612060       -16.6550
  22   2.0000      -0.601126       -16.3575
  23   2.0000      -0.597694       -16.2641
  24   2.0000      -0.571624       -15.5547
  25   2.0000      -0.543358       -14.7855
  26   2.0000      -0.448873       -12.2144
  27   2.0000      -0.440450       -11.9852
  28   2.0000      -0.401043       -10.9129
  29   2.0000      -0.355459        -9.6725
  30   2.0000      -0.314847        -8.5674
  31   0.0000       0.073952         2.0123
  32   0.0000       0.115012         3.1296
  33   0.0000       0.150112         4.0848
  34   0.0000       0.162043         4.4094
  35   0.0000       0.171902         4.6777

MULLIKEN ATOMIC CHARGES
-----------------------
   0 O :   -0.267658
   1 C :    0.035101
   2 C :    0.059392
   3 C :    0.080593
   4 C :   -0.039283
   5 C :   -0.119753
   6 N :   -0.250599
   7 C :   -0.047944
   8 C :   -0.267535
   9 H :    0.098489
  10 H :    0.165727
  11 H :    0.252979
  12 H :    0.158586
  13 H :    0.141905
Sum of atomic charges:   -0.0000000

LOEWDIN ATOMIC CHARGES
----------------------
   0 O :    0.133042
   1 C :   -0.305124
   2 C :   -0.053130
   3 C :    0.002673
   4 C :   -0.182498
   5 C :   -0.174788
   6 N :    0.194508
   7 C :   -0.218044
   8 C :   -0.142056
   9 H :    0.122617
  10 H :    0.142499
  11 H :    0.196927
  12 H :    0.136525
  13 H :    0.146848

  Mayer bond orders larger than 0.1
B(  0-O ,  1-C ) :   1.9965 B(  1-C ,  2-C ) :   0.8521 B(  1-C ,  9-H ) :   1.0080
B(  2-C ,  3-C ) :   2.6267 B(  2-C ,  4-C ) :  -0.1723 B(  2-C ,  9-H ) :  -0.1085
B(  3-C ,  4-C ) :   1.0941 B(  4-C ,  5-C ) :   1.4086 B(  4-C ,  8-C ) :   1.2086
B(  5-C ,  6-N ) :   1.1995 B(  5-C , 10-H ) :   0.8992 B(  6-N ,  7-C ) :   1.1097
B(  6-N , 11-H ) :   0.8750 B(  7-C ,  8-C ) :   1.5299 B(  7-C , 12-H ) :   0.9126
B(  8-C , 13-H ) :   0.9291

MP2 TOTAL ENERGY:     -398.855513311 Eh
FINAL SINGLE POINT ENERGY      -398.855513310693

DIPOLE MOMENT
-------------
                                X             Y             Z
Electronic contribution:     -2.65095      -3.07457       0.00674
Nuclear contribution   :      4.46976       4.50840      -0.01662
                        -----------------------------------------
Total Dipole Moment    :      1.81881       1.43383      -0.00988
                        -----------------------------------------
Magnitude (a.u.)       :      2.31604
Magnitude (Debye)      :      5.88689

                             ****ORCA TERMINATED NORMALLY****
TOTAL RUN TIME: 0 days 0 hours 13 minutes 6 seconds 393 msec
