                         Program Version 3.0.3 - RELEASE   -
|  1> ! RI-MP2 RIJK def2-TZVP def2-TZVP/C def2-TZVP/JK TIGHTSCF
|  2> % maxcore 2000
|  3> % mp2 density relaxed end
|  4> *xyz 0 1
|  5>  C        0.0319300288     1.4691902688    -0.0250928049
|  6>  N        0.1248715294     0.0246434293    -0.0608842992
|  7>  C        0.6198982805    -0.6143091399     0.9275317173
|  8>  C        0.7165424171    -2.0643940432     0.9115856366
|  9>  C        1.2541422242    -2.7228788650     1.9542453767
| 10>  N        1.5038407928    -4.0706717570     2.0768083320
| 11>  O        1.6997670652    -2.0547071910     3.0667413649
| 12>  C        1.5744422242    -0.6933388088     3.0389009429
| 13>  N        1.1034687668     0.0201543429     2.1116065458
| 14>  H        0.5831674632     1.8836322037    -0.8790104631
| 15>  H       -1.0162846900     1.7632156095    -0.1650377935
| 16>  H        0.4085408541     1.9289160262     0.8951581108
| 17>  H        0.3576717812    -2.6008478202     0.0433182536
| 18>  H        0.9901006363    -4.6545706236     1.4341136272
| 19>  H        1.4884472205    -4.4130160893     3.0272509173
| 20>  H        1.9541370056    -0.2749322925     3.9670942656
| 21> *
| 22>
| 23>                          ****END OF INPUT****

CARTESIAN COORDINATES (ANGSTROEM)
---------------------------------
  C      0.031930    1.469190   -0.025093
  N      0.124872    0.024643   -0.060884
  C      0.619898   -0.614309    0.927532
  C      0.716542   -2.064394    0.911586
  C      1.254142   -2.722879    1.954245
  N      1.503841   -4.070672    2.076808
  O      1.699767   -2.054707    3.066741
  C      1.574442   -0.693339    3.038901
  N      1.103469    0.020154    2.111607
  H      0.583167    1.883632   -0.879010
  H     -1.016285    1.763216   -0.165038
  H      0.408541    1.928916    0.895158
  H      0.357672   -2.600848    0.043318
  H      0.990101   -4.654571    1.434114
  H      1.488447   -4.413016    3.027251
  H      1.954137   -0.274932    3.967094

 Total Charge           Charge          ....    0
 Multiplicity           Mult            ....    1
 Number of Electrons    NEL             ....   66
 Basis Dimension        Dim             ....  321

ORBITAL ENERGIES
----------------

  NO   OCC          E(Eh)            E(eV)
   0   2.0000     -20.646762      -561.8270
   1   2.0000     -15.595943      -424.3872
   2   2.0000     -15.571446      -423.7206
   3   2.0000     -15.524313      -422.4380
   4   2.0000     -11.367896      -309.3362
   5   2.0000     -11.365878      -309.2813
   6   2.0000     -11.304596      -307.6137
   7   2.0000     -11.221834      -305.3616
   8   2.0000     -11.220751      -305.3321
   9   2.0000      -1.489499       -40.5313
  10   2.0000      -1.274027       -34.6680
  11   2.0000      -1.244198       -33.8564
  12   2.0000      -1.179146       -32.0862
  13   2.0000      -1.054056       -28.6823
  14   2.0000      -0.930991       -25.3336
  15   2.0000      -0.923123       -25.1195
  16   2.0000      -0.831200       -22.6181
  17   2.0000      -0.752018       -20.4634
  18   2.0000      -0.741283       -20.1713
  19   2.0000      -0.688252       -18.7283
  20   2.0000      -0.680934       -18.5292
  21   2.0000      -0.658625       -17.9221
  22   2.0000      -0.655214       -17.8293
  23   2.0000      -0.614433       -16.7196
  24   2.0000      -0.569803       -15.5051
  25   2.0000      -0.562566       -15.3082
  26   2.0000      -0.528020       -14.3682
  27   2.0000      -0.519053       -14.1242
  28   2.0000      -0.492905       -13.4126
  29   2.0000      -0.454327       -12.3629
  30   2.0000      -0.399741       -10.8775
  31   2.0000      -0.386528       -10.5180
  32   2.0000      -0.308331        -8.3901
  33   0.0000       0.118469         3.2237
  34   0.0000       0.121500         3.3062
  35   0.0000       0.150020         4.0822
  36   0.0000       0.164192         4.4679
  37   0.0000       0.167878         4.5682

MULLIKEN ATOMIC CHARGES
-----------------------
   0 C :   -0.263842
   1 N :   -0.222434
   2 C :    0.162980
   3 C :   -0.327543
   4 C :    0.372646
   5 N :   -0.502358
   6 O :   -0.243707
   7 C :    0.103084
   8 N :   -0.259853
   9 H :    0.127420
  10 H :    0.126785
  11 H :    0.125324
  12 H :    0.126892
  13 H :    0.262057
  14 H :    0.265000
  15 H :    0.147547
Sum of atomic charges:    0.0000000

LOEWDIN ATOMIC CHARGES
----------------------
   0 C :   -0.344149
   1 N :    0.080720
   2 C :   -0.331758
   3 C :   -0.154498
   4 C :   -0.340913
   5 N :   -0.046411
   6 O :    0.303076
   7 C :   -0.295259
   8 N :    0.138017
   9 H :    0.116490
  10 H :    0.116144
  11 H :    0.107663
  12 H :    0.157097
  13 H :    0.178695
  14 H :    0.177119
  15 H :    0.137966

  Mayer bond orders larger than 0.1
B(  0-C ,  1-N ) :   0.8704 B(  0-C ,  9-H ) :   0.9331 B(  0-C , 10-H ) :   0.9334
B(  0-C , 11-H ) :   0.9246 B(  1-N ,  2-C ) :   1.9101 B(  2-C ,  3-C ) :   1.0985
B(  2-C ,  8-N ) :   0.9493 B(  3-C ,  4-C ) :   1.5850 B(  3-C , 12-H ) :   0.9016
B(  4-C ,  5-N ) :   1.0987 B(  4-C ,  6-O ) :   0.9809 B(  5-N , 13-H ) :   0.8730
B(  5-N , 14-H ) :   0.8598 B(  6-O ,  7-C ) :   1.0082 B(  7-C ,  8-N ) :   1.8335
B(  7-C , 15-H ) :   0.9253

MP2 TOTAL ENERGY:     -433.359210868 Eh
FINAL SINGLE POINT ENERGY      -433.359210867929

DIPOLE MOMENT
-------------
                                X             Y             Z
Electronic contribution:      1.98005      -3.16697       3.52264
Nuclear contribution   :     -1.85239       1.94896      -2.51355
                        -----------------------------------------
Total Dipole Moment    :      0.12767      -1.21801       1.00908
                        -----------------------------------------
Magnitude (a.u.)       :      1.58685
Magnitude (Debye)      :      4.03345

                             ****ORCA TERMINATED NORMALLY****
TOTAL RUN TIME: 0 days 0 hours 13 minutes 26 seconds 861 msec
