                         Program Version 3.0.3 - RELEASE   -
|  1> ! RI-MP2 RIJK def2-TZVP def2-TZVP/C def2-TZVP/JK TIGHTSCF
|  2> % maxcore 2000
|  3> % mp2 density relaxed end
|  4> *xyz 0 1
|  5>  C       -0.0325959744     1.5468089950     0.0465172836
|  6>  C        0.0052280130     0.0460288660     0.0215285197
|  7>  C       -0.8879404766    -0.8316281877     0.8459351459
|  8>  C        0.5965841812    -0.9608919740     1.0375776303
|  9>  C        1.2064715493    -1.7764663239    -0.1073142870
| 10>  O        0.6014043204    -3.0263271728    -0.4162282134
| 11>  C        0.1256166478    -2.8977019941    -1.7417134652
| 12>  O       -0.2735084787    -1.5520009851    -1.9295418591
| 13>  C        0.6114873224    -0.7814185071    -1.1293040067
| 14>  H        0.9279285830     1.9790604649    -0.2571070862
| 15>  H       -0.8008661318     1.9338851829    -0.6335342725
| 16>  H       -0.2627911976     1.9184790202     1.0501912459
| 17>  H       -1.4058332386    -0.3188633818     1.6502728368
| 18>  H       -1.4501859492    -1.6383616058     0.3883334386
| 19>  H        1.0825227372    -0.7663225966     1.9856771649
| 20>  H        2.2974927777    -1.8572191683    -0.0818265318
| 21>  H        0.9175491310    -3.1664701718    -2.4636134119
| 22>  H       -0.7424566567    -3.5498827621    -1.8753802856
| 23>  H        1.3279991207    -0.2263242778    -1.7445926163
| 24> *
| 25>
| 26>                          ****END OF INPUT****

CARTESIAN COORDINATES (ANGSTROEM)
---------------------------------
  C     -0.032596    1.546809    0.046517
  C      0.005228    0.046029    0.021529
  C     -0.887940   -0.831628    0.845935
  C      0.596584   -0.960892    1.037578
  C      1.206472   -1.776466   -0.107314
  O      0.601404   -3.026327   -0.416228
  C      0.125617   -2.897702   -1.741713
  O     -0.273508   -1.552001   -1.929542
  C      0.611487   -0.781419   -1.129304
  H      0.927929    1.979060   -0.257107
  H     -0.800866    1.933885   -0.633534
  H     -0.262791    1.918479    1.050191
  H     -1.405833   -0.318863    1.650273
  H     -1.450186   -1.638362    0.388333
  H      1.082523   -0.766323    1.985677
  H      2.297493   -1.857219   -0.081827
  H      0.917549   -3.166470   -2.463613
  H     -0.742457   -3.549883   -1.875380
  H      1.327999   -0.226324   -1.744593

 Total Charge           Charge          ....    0
 Multiplicity           Mult            ....    1
 Number of Electrons    NEL             ....   68
 Basis Dimension        Dim             ....  339

ORBITAL ENERGIES
----------------

  NO   OCC          E(Eh)            E(eV)
   0   2.0000     -20.561601      -559.5096
   1   2.0000     -20.560869      -559.4897
   2   2.0000     -11.328403      -308.2615
   3   2.0000     -11.285941      -307.1061
   4   2.0000     -11.284874      -307.0770
   5   2.0000     -11.244468      -305.9775
   6   2.0000     -11.235345      -305.7293
   7   2.0000     -11.227372      -305.5123
   8   2.0000     -11.224333      -305.4296
   9   2.0000      -1.436091       -39.0780
  10   2.0000      -1.331664       -36.2364
  11   2.0000      -1.191587       -32.4247
  12   2.0000      -1.004832       -27.3429
  13   2.0000      -0.976427       -26.5699
  14   2.0000      -0.885480       -24.0951
  15   2.0000      -0.867798       -23.6140
  16   2.0000      -0.784541       -21.3484
  17   2.0000      -0.740822       -20.1588
  18   2.0000      -0.711696       -19.3662
  19   2.0000      -0.692367       -18.8403
  20   2.0000      -0.644091       -17.5266
  21   2.0000      -0.632731       -17.2175
  22   2.0000      -0.606020       -16.4907
  23   2.0000      -0.586368       -15.9559
  24   2.0000      -0.565374       -15.3846
  25   2.0000      -0.556034       -15.1304
  26   2.0000      -0.539977       -14.6935
  27   2.0000      -0.531586       -14.4652
  28   2.0000      -0.518998       -14.1227
  29   2.0000      -0.460054       -12.5187
  30   2.0000      -0.443668       -12.0728
  31   2.0000      -0.425738       -11.5849
  32   2.0000      -0.407018       -11.0755
  33   2.0000      -0.373998       -10.1770
  34   0.0000       0.138032         3.7560
  35   0.0000       0.158841         4.3223
  36   0.0000       0.172156         4.6846
  37   0.0000       0.174269         4.7421
  38   0.0000       0.194578         5.2947

MULLIKEN ATOMIC CHARGES
-----------------------
   0 C :   -0.413289
   1 C :    0.056334
   2 C :   -0.280600
   3 C :   -0.136544
   4 C :    0.062793
   5 O :   -0.335529
   6 C :    0.122190
   7 O :   -0.334086
   8 C :    0.041364
   9 H :    0.128342
  10 H :    0.143396
  11 H :    0.132480
  12 H :    0.130711
  13 H :    0.143324
  14 H :    0.136506
  15 H :    0.099771
  16 H :    0.084406
  17 H :    0.122955
  18 H :    0.095476
Sum of atomic charges:    0.0000000

LOEWDIN ATOMIC CHARGES
----------------------
   0 C :   -0.274806
   1 C :   -0.202872
   2 C :   -0.176504
   3 C :   -0.143575
   4 C :   -0.248447
   5 O :    0.167624
   6 C :   -0.368626
   7 O :    0.167829
   8 C :   -0.226594
   9 H :    0.126612
  10 H :    0.131980
  11 H :    0.130790
  12 H :    0.143176
  13 H :    0.138811
  14 H :    0.135939
  15 H :    0.136337
  16 H :    0.105120
  17 H :    0.119257
  18 H :    0.137948

  Mayer bond orders larger than 0.1
B(  0-C ,  1-C ) :   0.8908 B(  0-C ,  9-H ) :   0.9391 B(  0-C , 10-H ) :   0.9375
B(  0-C , 11-H ) :   0.9399 B(  1-C ,  2-C ) :   0.9071 B(  1-C ,  3-C ) :   0.7873
B(  1-C ,  8-C ) :   0.8826 B(  2-C ,  3-C ) :   0.8774 B(  2-C , 12-H ) :   0.9283
B(  2-C , 13-H ) :   0.9064 B(  3-C ,  4-C ) :   0.9241 B(  3-C , 14-H ) :   0.9121
B(  4-C ,  5-O ) :   0.9564 B(  4-C ,  8-C ) :   1.0033 B(  4-C , 15-H ) :   0.9537
B(  5-O ,  6-C ) :   0.9599 B(  6-C ,  7-O ) :   0.9559 B(  6-C , 16-H ) :   0.9228
B(  6-C , 17-H ) :   0.9297 B(  7-O ,  8-C ) :   0.9742 B(  8-C , 18-H ) :   0.9662

MP2 TOTAL ENERGY:     -422.290081948 Eh
FINAL SINGLE POINT ENERGY      -422.290081947847

DIPOLE MOMENT
-------------
                                X             Y             Z
Electronic contribution:      0.57975      -5.09022      -1.86170
Nuclear contribution   :     -0.21024       5.55199       1.97506
                        -----------------------------------------
Total Dipole Moment    :      0.36952       0.46177       0.11336
                        -----------------------------------------
Magnitude (a.u.)       :      0.60218
Magnitude (Debye)      :      1.53063

                             ****ORCA TERMINATED NORMALLY****
TOTAL RUN TIME: 0 days 0 hours 17 minutes 7 seconds 877 msec
