                         Program Version 3.0.3 - RELEASE   -
|  1> ! RI-MP2 RIJK def2-TZVP def2-TZVP/C def2-TZVP/JK TIGHTSCF
|  2> % maxcore 2000
|  3> % mp2 density relaxed end
|  4> *xyz 0 1
|  5>  C       -0.2388120917     1.3781324540    -0.5445641419
|  6>  C       -0.1281837583    -0.1166806719    -0.2816035427
|  7>  O        0.8602657655    -0.7592952061    -0.5977069592
|  8>  N       -1.2014356435    -0.7090751555     0.3234247907
|  9>  C       -2.4001058089    -0.0441099206     0.8359656432
| 10>  C       -3.3966715329    -1.1756786245     1.0122961927
| 11>  C       -3.6189115967    -2.0740429301    -0.1782181248
| 12>  C       -2.6372592675    -2.4781094827     0.8915832451
| 13>  C       -1.1801017683    -2.1410563333     0.6387241046
| 14>  H        0.6957847143     1.7084785739    -0.9965290466
| 15>  H       -1.0661430213     1.6035309660    -1.2259290340
| 16>  H       -0.4129635730     1.9389585955     0.3794727839
| 17>  H       -2.2130720656     0.4487192279     1.8025608340
| 18>  H       -2.7469634285     0.7228497452     0.1357611657
| 19>  H       -4.1919317671    -1.0427517711     1.7356503785
| 20>  H       -4.5582173928    -2.6134266667    -0.2238836821
| 21>  H       -3.2296700594    -1.7622778873    -1.1430835723
| 22>  H       -2.8627999553    -3.3251558866     1.5277443885
| 23>  H       -0.7259654239    -2.6847740073    -0.1935050071
| 24>  H       -0.5717986752    -2.3426252188     1.5317416238
| 25> *
| 26>
| 27>                          ****END OF INPUT****

CARTESIAN COORDINATES (ANGSTROEM)
---------------------------------
  C     -0.238812    1.378132   -0.544564
  C     -0.128184   -0.116681   -0.281604
  O      0.860266   -0.759295   -0.597707
  N     -1.201436   -0.709075    0.323425
  C     -2.400106   -0.044110    0.835966
  C     -3.396672   -1.175679    1.012296
  C     -3.618912   -2.074043   -0.178218
  C     -2.637259   -2.478109    0.891583
  C     -1.180102   -2.141056    0.638724
  H      0.695785    1.708479   -0.996529
  H     -1.066143    1.603531   -1.225929
  H     -0.412964    1.938959    0.379473
  H     -2.213072    0.448719    1.802561
  H     -2.746963    0.722850    0.135761
  H     -4.191932   -1.042752    1.735650
  H     -4.558217   -2.613427   -0.223884
  H     -3.229670   -1.762278   -1.143084
  H     -2.862800   -3.325156    1.527744
  H     -0.725965   -2.684774   -0.193505
  H     -0.571799   -2.342625    1.531742

 Total Charge           Charge          ....    0
 Multiplicity           Mult            ....    1
 Number of Electrons    NEL             ....   68
 Basis Dimension        Dim             ....  345

ORBITAL ENERGIES
----------------

  NO   OCC          E(Eh)            E(eV)
   0   2.0000     -20.505788      -557.9909
   1   2.0000     -15.577205      -423.8773
   2   2.0000     -11.340896      -308.6015
   3   2.0000     -11.275202      -306.8138
   4   2.0000     -11.259509      -306.3868
   5   2.0000     -11.243281      -305.9452
   6   2.0000     -11.240210      -305.8617
   7   2.0000     -11.233225      -305.6716
   8   2.0000     -11.232540      -305.6529
   9   2.0000      -1.372268       -37.3413
  10   2.0000      -1.259480       -34.2722
  11   2.0000      -1.143847       -31.1257
  12   2.0000      -1.012746       -27.5582
  13   2.0000      -0.990151       -26.9434
  14   2.0000      -0.921567       -25.0771
  15   2.0000      -0.808598       -22.0031
  16   2.0000      -0.785434       -21.3727
  17   2.0000      -0.751526       -20.4501
  18   2.0000      -0.691127       -18.8065
  19   2.0000      -0.670005       -18.2318
  20   2.0000      -0.630414       -17.1544
  21   2.0000      -0.623337       -16.9619
  22   2.0000      -0.602177       -16.3861
  23   2.0000      -0.586165       -15.9504
  24   2.0000      -0.581387       -15.8204
  25   2.0000      -0.557965       -15.1830
  26   2.0000      -0.537877       -14.6364
  27   2.0000      -0.523698       -14.2505
  28   2.0000      -0.510615       -13.8945
  29   2.0000      -0.500174       -13.6104
  30   2.0000      -0.422521       -11.4974
  31   2.0000      -0.420199       -11.4342
  32   2.0000      -0.409072       -11.1314
  33   2.0000      -0.367216        -9.9925
  34   0.0000       0.125601         3.4178
  35   0.0000       0.149763         4.0753
  36   0.0000       0.165459         4.5024
  37   0.0000       0.172250         4.6872
  38   0.0000       0.182901         4.9770

MULLIKEN ATOMIC CHARGES
-----------------------
   0 C :   -0.429081
   1 C :    0.235224
   2 O :   -0.379968
   3 N :   -0.103263
   4 C :   -0.194014
   5 C :   -0.092797
   6 C :   -0.300807
   7 C :   -0.101777
   8 C :   -0.152632
   9 H :    0.161999
  10 H :    0.142564
  11 H :    0.140728
  12 H :    0.120806
  13 H :    0.131311
  14 H :    0.136125
  15 H :    0.138010
  16 H :    0.141675
  17 H :    0.134771
  18 H :    0.148208
  19 H :    0.122918
Sum of atomic charges:   -0.0000000

LOEWDIN ATOMIC CHARGES
----------------------
   0 C :   -0.278281
   1 C :   -0.461454
   2 O :    0.073225
   3 N :    0.194626
   4 C :   -0.228534
   5 C :   -0.201385
   6 C :   -0.201501
   7 C :   -0.199358
   8 C :   -0.215485
   9 H :    0.136661
  10 H :    0.131503
  11 H :    0.131440
  12 H :    0.133557
  13 H :    0.137718
  14 H :    0.145278
  15 H :    0.136266
  16 H :    0.139201
  17 H :    0.145664
  18 H :    0.144271
  19 H :    0.136586

  Mayer bond orders larger than 0.1
B(  0-C ,  1-C ) :   0.9066 B(  0-C ,  9-H ) :   0.9401 B(  0-C , 10-H ) :   0.9198
B(  0-C , 11-H ) :   0.9176 B(  1-C ,  2-O ) :   1.9118 B(  1-C ,  3-N ) :   1.1624
B(  3-N ,  4-C ) :   0.9241 B(  3-N ,  8-C ) :   0.8617 B(  4-C ,  5-C ) :   0.9547
B(  4-C , 12-H ) :   0.9160 B(  4-C , 13-H ) :   0.9219 B(  5-C ,  6-C ) :   0.8835
B(  5-C ,  7-C ) :   0.8647 B(  5-C , 14-H ) :   0.9260 B(  6-C ,  7-C ) :   0.8819
B(  6-C , 15-H ) :   0.9294 B(  6-C , 16-H ) :   0.9228 B(  7-C ,  8-C ) :   0.9475
B(  7-C , 17-H ) :   0.9295 B(  8-C , 18-H ) :   0.9288 B(  8-C , 19-H ) :   0.9267

MP2 TOTAL ENERGY:     -402.487871329 Eh
FINAL SINGLE POINT ENERGY      -402.487871328862

DIPOLE MOMENT
-------------
                                X             Y             Z
Electronic contribution:      3.53479      -1.80385      -0.30239
Nuclear contribution   :     -4.95507       2.12637       0.89981
                        -----------------------------------------
Total Dipole Moment    :     -1.42028       0.32253       0.59742
                        -----------------------------------------
Magnitude (a.u.)       :      1.57421
Magnitude (Debye)      :      4.00132

                             ****ORCA TERMINATED NORMALLY****
TOTAL RUN TIME: 0 days 0 hours 20 minutes 27 seconds 87 msec
