                         Program Version 3.0.3 - RELEASE   -
|  1> ! RI-MP2 RIJK def2-TZVP def2-TZVP/C def2-TZVP/JK TIGHTSCF
|  2> % maxcore 2000
|  3> % mp2 density relaxed end
|  4> *xyz 0 1
|  5>  C        0.0598408572     1.5191588403     0.0146543171
|  6>  C       -0.0223084531     0.0315690874    -0.0616282446
|  7>  C       -0.0297727740    -0.7748533796    -1.1350998137
|  8>  C       -0.0262844850    -2.2199212944    -0.7301024962
|  9>  O        1.1480562990    -2.5808593032     0.0338669152
| 10>  C       -0.0805519924    -2.2764613061     0.7328811725
| 11>  C       -0.6852703230    -3.3373996351     1.6005193367
| 12>  C       -0.0881366970    -0.8095316506     1.1792480717
| 13>  O       -0.1640460709    -0.4123573984     2.3172536996
| 14>  H        0.9852960421     1.8279855735     0.5141880225
| 15>  H        0.0312742699     1.9770320734    -0.9769568878
| 16>  H       -0.7627565066     1.9200357630     0.6161501838
| 17>  H        0.0121182082    -0.4508845206    -2.1688409699
| 18>  H       -0.4253844557    -2.9988924070    -1.3720196338
| 19>  H       -0.5581543895    -4.3216360382     1.1441952238
| 20>  H       -0.2040268102    -3.3358414871     2.5830555021
| 21>  H       -1.7525482891    -3.1496557274     1.7540936911
| 22> *
| 23>
| 24>                          ****END OF INPUT****

CARTESIAN COORDINATES (ANGSTROEM)
---------------------------------
  C      0.059841    1.519159    0.014654
  C     -0.022308    0.031569   -0.061628
  C     -0.029773   -0.774853   -1.135100
  C     -0.026284   -2.219921   -0.730102
  O      1.148056   -2.580859    0.033867
  C     -0.080552   -2.276461    0.732881
  C     -0.685270   -3.337400    1.600519
  C     -0.088137   -0.809532    1.179248
  O     -0.164046   -0.412357    2.317254
  H      0.985296    1.827986    0.514188
  H      0.031274    1.977032   -0.976957
  H     -0.762757    1.920036    0.616150
  H      0.012118   -0.450885   -2.168841
  H     -0.425384   -2.998892   -1.372020
  H     -0.558154   -4.321636    1.144195
  H     -0.204027   -3.335841    2.583056
  H     -1.752548   -3.149656    1.754094

 Total Charge           Charge          ....    0
 Multiplicity           Mult            ....    1
 Number of Electrons    NEL             ....   66
 Basis Dimension        Dim             ....  327

ORBITAL ENERGIES
----------------

  NO   OCC          E(Eh)            E(eV)
   0   2.0000     -20.583725      -560.1116
   1   2.0000     -20.560082      -559.4683
   2   2.0000     -11.339102      -308.5527
   3   2.0000     -11.306063      -307.6536
   4   2.0000     -11.304803      -307.6193
   5   2.0000     -11.264337      -306.5182
   6   2.0000     -11.259751      -306.3934
   7   2.0000     -11.235509      -305.7337
   8   2.0000     -11.234212      -305.6985
   9   2.0000      -1.428412       -38.8691
  10   2.0000      -1.395935       -37.9853
  11   2.0000      -1.132980       -30.8299
  12   2.0000      -1.031155       -28.0591
  13   2.0000      -0.993235       -27.0273
  14   2.0000      -0.915766       -24.9193
  15   2.0000      -0.885938       -24.1076
  16   2.0000      -0.781857       -21.2754
  17   2.0000      -0.736289       -20.0355
  18   2.0000      -0.699829       -19.0433
  19   2.0000      -0.650017       -17.6879
  20   2.0000      -0.635592       -17.2953
  21   2.0000      -0.604572       -16.4512
  22   2.0000      -0.600305       -16.3351
  23   2.0000      -0.582370       -15.8471
  24   2.0000      -0.565860       -15.3978
  25   2.0000      -0.556471       -15.1424
  26   2.0000      -0.550626       -14.9833
  27   2.0000      -0.539158       -14.6712
  28   2.0000      -0.530549       -14.4370
  29   2.0000      -0.483940       -13.1687
  30   2.0000      -0.457955       -12.4616
  31   2.0000      -0.405209       -11.0263
  32   2.0000      -0.371402       -10.1064
  33   0.0000       0.073817         2.0087
  34   0.0000       0.142478         3.8770
  35   0.0000       0.149772         4.0755
  36   0.0000       0.158872         4.3231
  37   0.0000       0.178647         4.8612

MULLIKEN ATOMIC CHARGES
-----------------------
   0 C :   -0.401213
   1 C :    0.020121
   2 C :   -0.189496
   3 C :    0.082484
   4 O :   -0.315140
   5 C :    0.158342
   6 C :   -0.398192
   7 C :    0.140293
   8 O :   -0.268647
   9 H :    0.153693
  10 H :    0.140118
  11 H :    0.152932
  12 H :    0.148777
  13 H :    0.136390
  14 H :    0.146094
  15 H :    0.154763
  16 H :    0.138681
Sum of atomic charges:   -0.0000000

LOEWDIN ATOMIC CHARGES
----------------------
   0 C :   -0.261822
   1 C :   -0.141796
   2 C :   -0.074804
   3 C :   -0.217245
   4 O :    0.189810
   5 C :   -0.275825
   6 C :   -0.259450
   7 C :   -0.239876
   8 O :    0.169758
   9 H :    0.141617
  10 H :    0.131701
  11 H :    0.140089
  12 H :    0.143691
  13 H :    0.141606
  14 H :    0.135606
  15 H :    0.140164
  16 H :    0.136774

  Mayer bond orders larger than 0.1
B(  0-C ,  1-C ) :   0.8850 B(  0-C ,  9-H ) :   0.9222 B(  0-C , 10-H ) :   0.9499
B(  0-C , 11-H ) :   0.9248 B(  1-C ,  2-C ) :   1.6918 B(  1-C ,  7-C ) :   0.9337
B(  2-C ,  3-C ) :   0.9017 B(  2-C , 12-H ) :   0.9080 B(  3-C ,  4-O ) :   0.9004
B(  3-C ,  5-C ) :   0.9394 B(  3-C , 13-H ) :   0.9223 B(  4-O ,  5-C ) :   0.8752
B(  5-C ,  6-C ) :   0.8802 B(  5-C ,  7-C ) :   0.9162 B(  6-C , 14-H ) :   0.9402
B(  6-C , 15-H ) :   0.9352 B(  6-C , 16-H ) :   0.9241 B(  7-C ,  8-O ) :   2.0255

MP2 TOTAL ENERGY:     -421.125187091 Eh
FINAL SINGLE POINT ENERGY      -421.125187090845

DIPOLE MOMENT
-------------
                                X             Y             Z
Electronic contribution:      2.01010      -1.11361       0.57510
Nuclear contribution   :     -2.65019       1.11580      -1.57893
                        -----------------------------------------
Total Dipole Moment    :     -0.64009       0.00219      -1.00382
                        -----------------------------------------
Magnitude (a.u.)       :      1.19054
Magnitude (Debye)      :      3.02611

                             ****ORCA TERMINATED NORMALLY****
TOTAL RUN TIME: 0 days 0 hours 17 minutes 18 seconds 903 msec
