                         Program Version 3.0.3 - RELEASE   -
|  1> ! RI-MP2 RIJK def2-TZVP def2-TZVP/C def2-TZVP/JK TIGHTSCF
|  2> % maxcore 2000
|  3> % mp2 density relaxed end
|  4> *xyz 0 1
|  5>  N        0.1167376333     1.3923865850     0.1287689105
|  6>  C       -0.0105323855     0.0024426112     0.0220690442
|  7>  C       -1.1366552496    -0.7978351143    -0.0009255646
|  8>  C       -0.6346606781    -2.1350102894    -0.0002761934
|  9>  C        0.7576937901    -2.1012261094     0.0127612558
| 10>  N        1.1419293757    -0.7654820144    -0.0051860679
| 11>  C        1.1861530716    -3.4398001909    -0.0226288625
| 12>  N        0.1315003598    -4.2584472702    -0.0447859654
| 13>  N       -0.9663072778    -3.4517126354    -0.0373966808
| 14>  H        0.6517065682     1.7996120043    -0.6314604665
| 15>  H       -0.7869971992     1.8445004519     0.1723805730
| 16>  H       -2.1561367757    -0.4507358825    -0.0513470392
| 17>  H        2.0314222583    -0.4069749368     0.2968675431
| 18>  H        2.1820428877    -3.8559672735    -0.0199825406
| 19>  H       -1.8740897289    -3.8790943255    -0.0680102258
| 20> *
| 21>
| 22>                          ****END OF INPUT****

CARTESIAN COORDINATES (ANGSTROEM)
---------------------------------
  N      0.116738    1.392387    0.128769
  C     -0.010532    0.002443    0.022069
  C     -1.136655   -0.797835   -0.000926
  C     -0.634661   -2.135010   -0.000276
  C      0.757694   -2.101226    0.012761
  N      1.141929   -0.765482   -0.005186
  C      1.186153   -3.439800   -0.022629
  N      0.131500   -4.258447   -0.044786
  N     -0.966307   -3.451713   -0.037397
  H      0.651707    1.799612   -0.631460
  H     -0.786997    1.844500    0.172381
  H     -2.156137   -0.450736   -0.051347
  H      2.031422   -0.406975    0.296868
  H      2.182043   -3.855967   -0.019983
  H     -1.874090   -3.879094   -0.068010

 Total Charge           Charge          ....    0
 Multiplicity           Mult            ....    1
 Number of Electrons    NEL             ....   64
 Basis Dimension        Dim             ....  315

ORBITAL ENERGIES
----------------

  NO   OCC          E(Eh)            E(eV)
   0   2.0000     -15.614786      -424.8999
   1   2.0000     -15.599357      -424.4801
   2   2.0000     -15.582281      -424.0154
   3   2.0000     -15.568994      -423.6539
   4   2.0000     -11.317077      -307.9533
   5   2.0000     -11.255324      -306.2729
   6   2.0000     -11.247440      -306.0584
   7   2.0000     -11.235087      -305.7223
   8   2.0000     -11.217420      -305.2415
   9   2.0000      -1.351791       -36.7841
  10   2.0000      -1.297900       -35.3177
  11   2.0000      -1.200619       -32.6705
  12   2.0000      -1.088938       -29.6315
  13   2.0000      -1.041335       -28.3362
  14   2.0000      -0.979303       -26.6482
  15   2.0000      -0.813363       -22.1327
  16   2.0000      -0.808361       -21.9966
  17   2.0000      -0.791852       -21.5474
  18   2.0000      -0.739825       -20.1317
  19   2.0000      -0.687323       -18.7030
  20   2.0000      -0.647181       -17.6107
  21   2.0000      -0.632842       -17.2205
  22   2.0000      -0.609516       -16.5858
  23   2.0000      -0.592286       -16.1169
  24   2.0000      -0.590785       -16.0761
  25   2.0000      -0.547859       -14.9080
  26   2.0000      -0.517205       -14.0739
  27   2.0000      -0.462618       -12.5885
  28   2.0000      -0.443778       -12.0758
  29   2.0000      -0.388628       -10.5751
  30   2.0000      -0.317412        -8.6372
  31   2.0000      -0.272120        -7.4048
  32   0.0000       0.120269         3.2727
  33   0.0000       0.147144         4.0040
  34   0.0000       0.150448         4.0939
  35   0.0000       0.154448         4.2027
  36   0.0000       0.174085         4.7371

MULLIKEN ATOMIC CHARGES
-----------------------
   0 N :   -0.534257
   1 C :    0.280369
   2 C :   -0.347898
   3 C :    0.114804
   4 C :    0.085319
   5 N :   -0.339731
   6 C :   -0.169071
   7 N :   -0.199112
   8 N :   -0.157544
   9 H :    0.255082
  10 H :    0.252926
  11 H :    0.132745
  12 H :    0.251368
  13 H :    0.124891
  14 H :    0.250111
Sum of atomic charges:    0.0000000

LOEWDIN ATOMIC CHARGES
----------------------
   0 N :   -0.096241
   1 C :   -0.317982
   2 C :   -0.179196
   3 C :   -0.229138
   4 C :   -0.217448
   5 N :    0.182835
   6 C :   -0.275558
   7 N :    0.016383
   8 N :    0.129843
   9 H :    0.168659
  10 H :    0.173063
  11 H :    0.137705
  12 H :    0.191452
  13 H :    0.131728
  14 H :    0.183894

  Mayer bond orders larger than 0.1
B(  0-N ,  1-C ) :   1.0133 B(  0-N ,  9-H ) :   0.8696 B(  0-N , 10-H ) :   0.8852
B(  1-C ,  2-C ) :   1.5318 B(  1-C ,  5-N ) :   1.1045 B(  2-C ,  3-C ) :   1.2000
B(  2-C , 11-H ) :   0.9017 B(  3-C ,  4-C ) :   1.2586 B(  3-C ,  8-N ) :   1.1586
B(  4-C ,  5-N ) :   1.0587 B(  4-C ,  6-C ) :   1.2525 B(  5-N , 12-H ) :   0.8612
B(  6-C ,  7-N ) :   1.5621 B(  6-C , 13-H ) :   0.9473 B(  7-N ,  8-N ) :   1.0382
B(  8-N , 14-H ) :   0.8687

MP2 TOTAL ENERGY:     -412.306037126 Eh
FINAL SINGLE POINT ENERGY      -412.306037126396

DIPOLE MOMENT
-------------
                                X             Y             Z
Electronic contribution:      0.09845      -3.41430       0.04058
Nuclear contribution   :     -0.31966       4.84790      -0.30156
                        -----------------------------------------
Total Dipole Moment    :     -0.22121       1.43360      -0.26098
                        -----------------------------------------
Magnitude (a.u.)       :      1.47386
Magnitude (Debye)      :      3.74625

                             ****ORCA TERMINATED NORMALLY****
TOTAL RUN TIME: 0 days 0 hours 17 minutes 43 seconds 505 msec
