                         Program Version 3.0.3 - RELEASE   -
|  1> ! RI-MP2 RIJK def2-TZVP def2-TZVP/C def2-TZVP/JK TIGHTSCF
|  2> % maxcore 2000
|  3> % mp2 density relaxed end
|  4> *xyz 0 1
|  5>  C        0.0871700890     1.4273990214    -0.1276334233
|  6>  C       -0.0141046429    -0.0726050342     0.0025627811
|  7>  N        0.1763976465    -0.8528416042    -1.3571151545
|  8>  C       -0.5740193638    -1.8379966084    -0.5666391036
|  9>  N        0.1679896598    -2.7021427450     0.0304272231
| 10>  C        0.2230737127    -2.2259490462     1.3724908285
| 11>  C       -0.8181622833    -1.1727142398     1.7408108727
| 12>  C        0.5753698860    -0.7092344716     1.3250581361
| 13>  C       -1.3207498750    -0.8195744879     0.3566150205
| 14>  H        1.1157633689     1.7264026991    -0.3528465192
| 15>  H       -0.5606460573     1.7936017857    -0.9312467370
| 16>  H       -0.2170528825     1.9115646440     0.8048673739
| 17>  H       -0.4473360767    -0.3348517547    -1.9862042875
| 18>  H        0.6922766955    -2.8336670664     2.1371586629
| 19>  H       -1.3272605867    -1.1185368619     2.6920946351
| 20>  H        1.3773788905    -0.2958677958     1.9214734081
| 21>  H       -2.3076968107    -0.4484158141     0.0936771331
| 22> *
| 23>
| 24>                          ****END OF INPUT****

CARTESIAN COORDINATES (ANGSTROEM)
---------------------------------
  C      0.087170    1.427399   -0.127633
  C     -0.014105   -0.072605    0.002563
  N      0.176398   -0.852842   -1.357115
  C     -0.574019   -1.837997   -0.566639
  N      0.167990   -2.702143    0.030427
  C      0.223074   -2.225949    1.372491
  C     -0.818162   -1.172714    1.740811
  C      0.575370   -0.709234    1.325058
  C     -1.320750   -0.819574    0.356615
  H      1.115763    1.726403   -0.352847
  H     -0.560646    1.793602   -0.931247
  H     -0.217053    1.911565    0.804867
  H     -0.447336   -0.334852   -1.986204
  H      0.692277   -2.833667    2.137159
  H     -1.327261   -1.118537    2.692095
  H      1.377379   -0.295868    1.921473
  H     -2.307697   -0.448416    0.093677

 Total Charge           Charge          ....    0
 Multiplicity           Mult            ....    1
 Number of Electrons    NEL             ....   64
 Basis Dimension        Dim             ....  327

ORBITAL ENERGIES
----------------

  NO   OCC          E(Eh)            E(eV)
   0   2.0000     -15.578787      -423.9203
   1   2.0000     -15.541228      -422.8983
   2   2.0000     -11.312438      -307.8271
   3   2.0000     -11.300121      -307.4919
   4   2.0000     -11.277936      -306.8882
   5   2.0000     -11.250753      -306.1485
   6   2.0000     -11.249730      -306.1207
   7   2.0000     -11.249515      -306.1149
   8   2.0000     -11.240645      -305.8735
   9   2.0000      -1.330124       -36.1945
  10   2.0000      -1.184977       -32.2449
  11   2.0000      -1.141504       -31.0619
  12   2.0000      -1.005497       -27.3610
  13   2.0000      -0.973899       -26.5011
  14   2.0000      -0.864998       -23.5378
  15   2.0000      -0.815608       -22.1938
  16   2.0000      -0.751175       -20.4405
  17   2.0000      -0.726761       -19.7762
  18   2.0000      -0.691613       -18.8198
  19   2.0000      -0.634930       -17.2773
  20   2.0000      -0.621799       -16.9200
  21   2.0000      -0.607919       -16.5423
  22   2.0000      -0.598943       -16.2981
  23   2.0000      -0.559957       -15.2372
  24   2.0000      -0.540865       -14.7177
  25   2.0000      -0.509992       -13.8776
  26   2.0000      -0.483332       -13.1521
  27   2.0000      -0.464222       -12.6321
  28   2.0000      -0.430937       -11.7264
  29   2.0000      -0.407942       -11.1007
  30   2.0000      -0.388518       -10.5721
  31   2.0000      -0.320762        -8.7284
  32   0.0000       0.092337         2.5126
  33   0.0000       0.129949         3.5361
  34   0.0000       0.159887         4.3508
  35   0.0000       0.164075         4.4647
  36   0.0000       0.175023         4.7626

MULLIKEN ATOMIC CHARGES
-----------------------
   0 C :   -0.417762
   1 C :    0.123340
   2 N :   -0.281812
   3 C :   -0.009352
   4 N :   -0.182995
   5 C :   -0.060648
   6 C :   -0.202507
   7 C :   -0.174051
   8 C :   -0.003884
   9 H :    0.157130
  10 H :    0.131328
  11 H :    0.147750
  12 H :    0.202343
  13 H :    0.134031
  14 H :    0.151685
  15 H :    0.149837
  16 H :    0.135568
Sum of atomic charges:    0.0000000

LOEWDIN ATOMIC CHARGES
----------------------
   0 C :   -0.264599
   1 C :   -0.207052
   2 N :    0.039561
   3 C :   -0.285223
   4 N :    0.161869
   5 C :   -0.210046
   6 C :   -0.141481
   7 C :   -0.102455
   8 C :   -0.132234
   9 H :    0.136858
  10 H :    0.129070
  11 H :    0.137865
  12 H :    0.168090
  13 H :    0.145733
  14 H :    0.140573
  15 H :    0.141104
  16 H :    0.142367

  Mayer bond orders larger than 0.1
B(  0-C ,  1-C ) :   0.8690 B(  0-C ,  9-H ) :   0.9424 B(  0-C , 10-H ) :   0.9254
B(  0-C , 11-H ) :   0.9292 B(  1-C ,  2-N ) :   0.8617 B(  1-C ,  7-C ) :   0.9097
B(  1-C ,  8-C ) :   0.9058 B(  2-N ,  3-C ) :   1.0269 B(  2-N , 12-H ) :   0.8523
B(  3-C ,  4-N ) :   1.7647 B(  3-C ,  8-C ) :   0.9310 B(  4-N ,  5-C ) :   1.0315
B(  5-C ,  6-C ) :   0.8261 B(  5-C ,  7-C ) :   0.7991 B(  5-C , 13-H ) :   0.9422
B(  6-C ,  7-C ) :   0.8557 B(  6-C ,  8-C ) :   0.9642 B(  6-C , 14-H ) :   0.9150
B(  7-C , 15-H ) :   0.9162 B(  8-C , 16-H ) :   0.9107

MP2 TOTAL ENERGY:     -380.068815338 Eh
FINAL SINGLE POINT ENERGY      -380.068815337643

DIPOLE MOMENT
-------------
                                X             Y             Z
Electronic contribution:     -0.32054      -6.23739      -1.12707
Nuclear contribution   :     -0.38174       7.51100       1.90426
                        -----------------------------------------
Total Dipole Moment    :     -0.70228       1.27361       0.77719
                        -----------------------------------------
Magnitude (a.u.)       :      1.64903
Magnitude (Debye)      :      4.19151

                             ****ORCA TERMINATED NORMALLY****
TOTAL RUN TIME: 0 days 0 hours 21 minutes 59 seconds 943 msec
