                         Program Version 3.0.3 - RELEASE   -
|  1> ! RI-MP2 RIJK def2-TZVP def2-TZVP/C def2-TZVP/JK TIGHTSCF
|  2> % maxcore 2000
|  3> % mp2 density relaxed end
|  4> *xyz 0 1
|  5>  O        0.0121089684     1.4809071836    -0.1199785042
|  6>  C        0.0483785837     0.0805459079    -0.0292473933
|  7>  C       -0.0010646350    -0.5776143233     1.3590371345
|  8>  C       -1.5108751303    -0.2490849081     1.5748330653
|  9>  C       -1.7680583109    -1.7269645498     1.8423563709
| 10>  N       -0.6992693417    -1.8281916334     0.7543343453
| 11>  C       -1.3215427500    -0.5815598251     0.0624138683
| 12>  H        0.9116001610     1.8134410237    -0.0422889078
| 13>  H        0.7461047016    -0.3804560850    -0.7410573167
| 14>  H        0.7730168438    -0.6950236220     2.1204698374
| 15>  H       -1.9510530814     0.6476884268     2.0173882009
| 16>  H       -1.4496430281    -2.1451926797     2.8032287464
| 17>  H       -2.7329929931    -2.1496043162     1.5425171565
| 18>  H       -2.0941209279    -0.6989128595    -0.6990982936
| 19> *
| 20>
| 21>                          ****END OF INPUT****

CARTESIAN COORDINATES (ANGSTROEM)
---------------------------------
  O      0.012109    1.480907   -0.119979
  C      0.048379    0.080546   -0.029247
  C     -0.001065   -0.577614    1.359037
  C     -1.510875   -0.249085    1.574833
  C     -1.768058   -1.726965    1.842356
  N     -0.699269   -1.828192    0.754334
  C     -1.321543   -0.581560    0.062414
  H      0.911600    1.813441   -0.042289
  H      0.746105   -0.380456   -0.741057
  H      0.773017   -0.695024    2.120470
  H     -1.951053    0.647688    2.017388
  H     -1.449643   -2.145193    2.803229
  H     -2.732993   -2.149604    1.542517
  H     -2.094121   -0.698913   -0.699098

 Total Charge           Charge          ....    0
 Multiplicity           Mult            ....    1
 Number of Electrons    NEL             ....   52
 Basis Dimension        Dim             ....  259

ORBITAL ENERGIES
----------------

  NO   OCC          E(Eh)            E(eV)
   0   2.0000     -20.566806      -559.6512
   1   2.0000     -15.567065      -423.6014
   2   2.0000     -11.289286      -307.1971
   3   2.0000     -11.271011      -306.6998
   4   2.0000     -11.270554      -306.6874
   5   2.0000     -11.254535      -306.2515
   6   2.0000     -11.247521      -306.0606
   7   2.0000      -1.379673       -37.5428
   8   2.0000      -1.310522       -35.6611
   9   2.0000      -1.019773       -27.7494
  10   2.0000      -0.931572       -25.3494
  11   2.0000      -0.884554       -24.0699
  12   2.0000      -0.838013       -22.8035
  13   2.0000      -0.715856       -19.4794
  14   2.0000      -0.697404       -18.9773
  15   2.0000      -0.682679       -18.5767
  16   2.0000      -0.638009       -17.3611
  17   2.0000      -0.622630       -16.9426
  18   2.0000      -0.580924       -15.8078
  19   2.0000      -0.519889       -14.1469
  20   2.0000      -0.501827       -13.6554
  21   2.0000      -0.463372       -12.6090
  22   2.0000      -0.448630       -12.2079
  23   2.0000      -0.440848       -11.9961
  24   2.0000      -0.420823       -11.4512
  25   2.0000      -0.376932       -10.2569
  26   0.0000       0.132409         3.6030
  27   0.0000       0.156085         4.2473
  28   0.0000       0.176025         4.7899
  29   0.0000       0.178211         4.8494
  30   0.0000       0.199680         5.4336

MULLIKEN ATOMIC CHARGES
-----------------------
   0 O :   -0.461299
   1 C :   -0.009332
   2 C :   -0.045043
   3 C :   -0.121328
   4 C :   -0.148163
   5 N :   -0.223253
   6 C :   -0.032352
   7 H :    0.322498
   8 H :    0.098891
   9 H :    0.138993
  10 H :    0.118461
  11 H :    0.113860
  12 H :    0.115690
  13 H :    0.132376
Sum of atomic charges:   -0.0000000

LOEWDIN ATOMIC CHARGES
----------------------
   0 O :   -0.006903
   1 C :   -0.308845
   2 C :   -0.168990
   3 C :   -0.171723
   4 C :   -0.241427
   5 N :    0.126105
   6 C :   -0.156380
   7 H :    0.178989
   8 H :    0.130304
   9 H :    0.123921
  10 H :    0.124504
  11 H :    0.121414
  12 H :    0.121861
  13 H :    0.127170

  Mayer bond orders larger than 0.1
B(  0-O ,  1-C ) :   1.1845 B(  0-O ,  2-C ) :  -0.1247 B(  0-O ,  6-C ) :  -0.1214
B(  0-O ,  7-H ) :   0.8420 B(  1-C ,  2-C ) :   0.8677 B(  1-C ,  6-C ) :   0.9096
B(  1-C ,  8-H ) :   0.9634 B(  2-C ,  3-C ) :   0.9083 B(  2-C ,  5-N ) :   0.9009
B(  2-C ,  9-H ) :   0.8839 B(  3-C ,  4-C ) :   0.9582 B(  3-C ,  6-C ) :   0.9055
B(  3-C , 10-H ) :   0.9003 B(  4-C ,  5-N ) :   0.9196 B(  4-C , 11-H ) :   0.9261
B(  4-C , 12-H ) :   0.9269 B(  5-N ,  6-C ) :   0.8997 B(  6-C , 13-H ) :   0.8872

MP2 TOTAL ENERGY:     -323.921880823 Eh
FINAL SINGLE POINT ENERGY      -323.921880823074

DIPOLE MOMENT
-------------
                                X             Y             Z
Electronic contribution:      0.94456       0.88006      -1.22727
Nuclear contribution   :     -0.68522      -0.50791       1.58722
                        -----------------------------------------
Total Dipole Moment    :      0.25934       0.37214       0.35995
                        -----------------------------------------
Magnitude (a.u.)       :      0.57906
Magnitude (Debye)      :      1.47186

                             ****ORCA TERMINATED NORMALLY****
TOTAL RUN TIME: 0 days 0 hours 8 minutes 28 seconds 964 msec
