                         Program Version 3.0.3 - RELEASE   -
|  1> ! RI-MP2 RIJK def2-TZVP def2-TZVP/C def2-TZVP/JK TIGHTSCF
|  2> % maxcore 2000
|  3> % mp2 density relaxed end
|  4> *xyz 0 1
|  5>  O       -0.0722026564     1.3373131747     0.1279480224
|  6>  C        0.0585654993    -0.0414955084     0.0494173908
|  7>  C       -0.4031481787    -0.8801417556    -1.1302889786
|  8>  C        0.5000522460    -2.0942465369    -1.2373250947
|  9>  C        0.8076519127    -2.2351659230     0.2497708310
| 10>  C       -0.5139782511    -2.0577051301     1.0820013621
| 11>  C        0.3339730233    -1.2701796978     2.1251422184
| 12>  C        1.1167219019    -0.8236198499     0.8579834870
| 13>  C       -1.1325578043    -0.9487067901     0.2123549265
| 14>  H        0.6084238662     1.7344713362    -0.4263258760
| 15>  H       -0.8780031911    -0.4088552004    -1.9826476395
| 16>  H       -0.0100493329    -2.9742812373    -1.6461523594
| 17>  H        1.3986191206    -1.9064324045    -1.8373443005
| 18>  H        1.4649490065    -3.0428972507     0.5699716339
| 19>  H       -1.1432211796    -2.9036212882     1.3599604554
| 20>  H       -0.1637778748    -0.4966432117     2.7166376560
| 21>  H        0.9189849457    -1.9268488958     2.7757853854
| 22>  H        2.1260024770    -0.4105371774     0.9004722075
| 23>  H       -2.1345412405    -0.5646374630     0.3467417123
| 24> *
| 25>
| 26>                          ****END OF INPUT****

CARTESIAN COORDINATES (ANGSTROEM)
---------------------------------
  O     -0.072203    1.337313    0.127948
  C      0.058565   -0.041496    0.049417
  C     -0.403148   -0.880142   -1.130289
  C      0.500052   -2.094247   -1.237325
  C      0.807652   -2.235166    0.249771
  C     -0.513978   -2.057705    1.082001
  C      0.333973   -1.270180    2.125142
  C      1.116722   -0.823620    0.857983
  C     -1.132558   -0.948707    0.212355
  H      0.608424    1.734471   -0.426326
  H     -0.878003   -0.408855   -1.982648
  H     -0.010049   -2.974281   -1.646152
  H      1.398619   -1.906432   -1.837344
  H      1.464949   -3.042897    0.569972
  H     -1.143221   -2.903621    1.359960
  H     -0.163778   -0.496643    2.716638
  H      0.918985   -1.926849    2.775785
  H      2.126002   -0.410537    0.900472
  H     -2.134541   -0.564637    0.346742

 Total Charge           Charge          ....    0
 Multiplicity           Mult            ....    1
 Number of Electrons    NEL             ....   66
 Basis Dimension        Dim             ....  339

ORBITAL ENERGIES
----------------

  NO   OCC          E(Eh)            E(eV)
   0   2.0000     -20.563360      -559.5575
   1   2.0000     -11.275553      -306.8234
   2   2.0000     -11.230003      -305.5839
   3   2.0000     -11.229141      -305.5605
   4   2.0000     -11.227487      -305.5154
   5   2.0000     -11.226170      -305.4796
   6   2.0000     -11.218879      -305.2812
   7   2.0000     -11.218316      -305.2659
   8   2.0000     -11.218289      -305.2652
   9   2.0000      -1.373268       -37.3685
  10   2.0000      -1.223837       -33.3023
  11   2.0000      -1.061397       -28.8821
  12   2.0000      -0.993226       -27.0271
  13   2.0000      -0.920191       -25.0397
  14   2.0000      -0.855448       -23.2779
  15   2.0000      -0.777321       -21.1520
  16   2.0000      -0.752910       -20.4877
  17   2.0000      -0.735057       -20.0019
  18   2.0000      -0.703215       -19.1355
  19   2.0000      -0.651707       -17.7339
  20   2.0000      -0.619706       -16.8631
  21   2.0000      -0.596978       -16.2446
  22   2.0000      -0.590160       -16.0591
  23   2.0000      -0.572528       -15.5793
  24   2.0000      -0.544425       -14.8146
  25   2.0000      -0.504991       -13.7415
  26   2.0000      -0.484247       -13.1770
  27   2.0000      -0.466846       -12.7035
  28   2.0000      -0.456215       -12.4142
  29   2.0000      -0.434617       -11.8265
  30   2.0000      -0.423606       -11.5269
  31   2.0000      -0.377252       -10.2656
  32   2.0000      -0.372029       -10.1234
  33   0.0000       0.137223         3.7340
  34   0.0000       0.150771         4.1027
  35   0.0000       0.164732         4.4826
  36   0.0000       0.176366         4.7992
  37   0.0000       0.189413         5.1542

MULLIKEN ATOMIC CHARGES
-----------------------
   0 O :   -0.448456
   1 C :    0.113233
   2 C :   -0.215249
   3 C :   -0.182891
   4 C :   -0.150198
   5 C :   -0.047007
   6 C :   -0.267148
   7 C :   -0.035253
   8 C :   -0.180077
   9 H :    0.325963
  10 H :    0.128603
  11 H :    0.109598
  12 H :    0.109570
  13 H :    0.122827
  14 H :    0.123113
  15 H :    0.121023
  16 H :    0.110917
  17 H :    0.122004
  18 H :    0.139429
Sum of atomic charges:    0.0000000

LOEWDIN ATOMIC CHARGES
----------------------
   0 O :    0.030941
   1 C :   -0.299645
   2 C :   -0.162517
   3 C :   -0.214364
   4 C :   -0.161098
   5 C :   -0.155686
   6 C :   -0.191250
   7 C :   -0.146793
   8 C :   -0.127155
   9 H :    0.183878
  10 H :    0.144580
  11 H :    0.139643
  12 H :    0.139142
  13 H :    0.144458
  14 H :    0.133007
  15 H :    0.129032
  16 H :    0.133601
  17 H :    0.133407
  18 H :    0.146819

  Mayer bond orders larger than 0.1
B(  0-O ,  1-C ) :   1.0618 B(  0-O ,  9-H ) :   0.8382 B(  1-C ,  2-C ) :   0.8938
B(  1-C ,  7-C ) :   0.9195 B(  1-C ,  8-C ) :   0.8887 B(  2-C ,  3-C ) :   0.9309
B(  2-C ,  8-C ) :   0.8660 B(  2-C , 10-H ) :   0.9314 B(  3-C ,  4-C ) :   0.9619
B(  3-C , 11-H ) :   0.9017 B(  3-C , 12-H ) :   0.9193 B(  4-C ,  5-C ) :   0.9035
B(  4-C ,  7-C ) :   0.8870 B(  4-C , 13-H ) :   0.9101 B(  5-C ,  6-C ) :   0.9316
B(  5-C ,  8-C ) :   0.8843 B(  5-C , 14-H ) :   0.9106 B(  6-C ,  7-C ) :   0.9021
B(  6-C , 15-H ) :   0.9164 B(  6-C , 16-H ) :   0.9203 B(  7-C , 17-H ) :   0.9013
B(  8-C , 18-H ) :   0.9153

MP2 TOTAL ENERGY:     -385.206857013 Eh
FINAL SINGLE POINT ENERGY      -385.206857013351

DIPOLE MOMENT
-------------
                                X             Y             Z
Electronic contribution:     -0.82874       2.93149      -0.53073
Nuclear contribution   :      1.26151      -3.16561       0.19374
                        -----------------------------------------
Total Dipole Moment    :      0.43277      -0.23412      -0.33699
                        -----------------------------------------
Magnitude (a.u.)       :      0.59637
Magnitude (Debye)      :      1.51586

                             ****ORCA TERMINATED NORMALLY****
TOTAL RUN TIME: 0 days 0 hours 18 minutes 56 seconds 354 msec
