                         Program Version 3.0.3 - RELEASE   -
|  1> ! RI-MP2 RIJK def2-TZVP def2-TZVP/C def2-TZVP/JK TIGHTSCF
|  2> % maxcore 2000
|  3> % mp2 density relaxed end
|  4> *xyz 0 1
|  5>  C       -0.1478647270     1.5322041620    -0.0167917244
|  6>  C        0.1036645251     0.0359405367     0.0019870991
|  7>  N        1.2536215696    -0.4498697760    -0.8525721840
|  8>  C        1.7586372493    -1.2633573492     0.2758204417
|  9>  C        2.1795070372    -0.3028868771     1.3749524449
| 10>  C        0.7250625844    -0.6161718017     1.2391938235
| 11>  O       -0.0720182508    -1.1214650035     2.2331093440
| 12>  C        2.2401660247    -2.5909782313     0.1421326448
| 13>  N        2.6085798651    -3.6836916528     0.0270172906
| 14>  H        0.7613142434     2.0892056508     0.2256290051
| 15>  H       -0.4845238972     1.8539632281    -1.0071575852
| 16>  H       -0.9260993511     1.7947110711     0.7075206704
| 17>  H       -0.8144953738    -0.5127376848    -0.2380298165
| 18>  H        0.9166632898    -1.0462635968    -1.6026739825
| 19>  H        2.6618725731    -0.7846747860     2.2214280661
| 20>  H        2.5992389249     0.6567399360     1.0836293696
| 21>  H        0.3588751431    -1.0005127655     3.0852318829
| 22> *
| 23>
| 24>                          ****END OF INPUT****

CARTESIAN COORDINATES (ANGSTROEM)
---------------------------------
  C     -0.147865    1.532204   -0.016792
  C      0.103665    0.035941    0.001987
  N      1.253622   -0.449870   -0.852572
  C      1.758637   -1.263357    0.275820
  C      2.179507   -0.302887    1.374952
  C      0.725063   -0.616172    1.239194
  O     -0.072018   -1.121465    2.233109
  C      2.240166   -2.590978    0.142133
  N      2.608580   -3.683692    0.027017
  H      0.761314    2.089206    0.225629
  H     -0.484524    1.853963   -1.007158
  H     -0.926099    1.794711    0.707521
  H     -0.814495   -0.512738   -0.238030
  H      0.916663   -1.046264   -1.602674
  H      2.661873   -0.784675    2.221428
  H      2.599239    0.656740    1.083629
  H      0.358875   -1.000513    3.085232

 Total Charge           Charge          ....    0
 Multiplicity           Mult            ....    1
 Number of Electrons    NEL             ....   66
 Basis Dimension        Dim             ....  327

ORBITAL ENERGIES
----------------

  NO   OCC          E(Eh)            E(eV)
   0   2.0000     -20.600659      -560.5724
   1   2.0000     -15.576034      -423.8454
   2   2.0000     -15.574691      -423.8089
   3   2.0000     -11.329782      -308.2990
   4   2.0000     -11.311245      -307.7946
   5   2.0000     -11.285085      -307.0828
   6   2.0000     -11.278877      -306.9139
   7   2.0000     -11.268118      -306.6211
   8   2.0000     -11.229801      -305.5784
   9   2.0000      -1.417088       -38.5609
  10   2.0000      -1.288071       -35.0502
  11   2.0000      -1.216232       -33.0954
  12   2.0000      -1.098897       -29.9025
  13   2.0000      -1.029830       -28.0231
  14   2.0000      -0.922262       -25.0960
  15   2.0000      -0.888761       -24.1844
  16   2.0000      -0.782908       -21.3040
  17   2.0000      -0.774092       -21.0641
  18   2.0000      -0.707424       -19.2500
  19   2.0000      -0.662909       -18.0387
  20   2.0000      -0.635664       -17.2973
  21   2.0000      -0.604704       -16.4548
  22   2.0000      -0.600596       -16.3430
  23   2.0000      -0.582264       -15.8442
  24   2.0000      -0.566182       -15.4066
  25   2.0000      -0.562634       -15.3101
  26   2.0000      -0.531920       -14.4743
  27   2.0000      -0.525123       -14.2893
  28   2.0000      -0.492682       -13.4066
  29   2.0000      -0.480803       -13.0833
  30   2.0000      -0.440866       -11.9966
  31   2.0000      -0.437370       -11.9014
  32   2.0000      -0.358265        -9.7489
  33   0.0000       0.117095         3.1863
  34   0.0000       0.130102         3.5403
  35   0.0000       0.145228         3.9519
  36   0.0000       0.150973         4.1082
  37   0.0000       0.163356         4.4451

MULLIKEN ATOMIC CHARGES
-----------------------
   0 C :   -0.392688
   1 C :   -0.024672
   2 N :   -0.313740
   3 C :    0.180424
   4 C :   -0.301491
   5 C :    0.167282
   6 O :   -0.423425
   7 C :   -0.241480
   8 N :   -0.048718
   9 H :    0.125997
  10 H :    0.138047
  11 H :    0.135509
  12 H :    0.126149
  13 H :    0.221523
  14 H :    0.167896
  15 H :    0.145873
  16 H :    0.337517
Sum of atomic charges:   -0.0000000

LOEWDIN ATOMIC CHARGES
----------------------
   0 C :   -0.290943
   1 C :   -0.238169
   2 N :    0.051708
   3 C :   -0.238755
   4 C :   -0.148490
   5 C :   -0.299703
   6 O :    0.060417
   7 C :   -0.164584
   8 N :    0.073156
   9 H :    0.125616
  10 H :    0.128933
  11 H :    0.130434
  12 H :    0.153312
  13 H :    0.172153
  14 H :    0.152232
  15 H :    0.141482
  16 H :    0.191202

  Mayer bond orders larger than 0.1
B(  0-C ,  1-C ) :   0.9184 B(  0-C ,  9-H ) :   0.9367 B(  0-C , 10-H ) :   0.9335
B(  0-C , 11-H ) :   0.9319 B(  1-C ,  2-N ) :   0.9305 B(  1-C ,  5-C ) :   0.9079
B(  1-C , 12-H ) :   0.9262 B(  2-N ,  3-C ) :   1.1029 B(  2-N , 13-H ) :   0.8733
B(  3-C ,  4-C ) :   0.7806 B(  3-C ,  5-C ) :   0.7146 B(  3-C ,  7-C ) :   0.8861
B(  4-C ,  5-C ) :   0.9357 B(  4-C , 14-H ) :   0.9271 B(  4-C , 15-H ) :   0.8858
B(  5-C ,  6-O ) :   1.1219 B(  6-O , 16-H ) :   0.8269 B(  7-C ,  8-N ) :   2.8599

MP2 TOTAL ENERGY:     -417.267464115 Eh
FINAL SINGLE POINT ENERGY      -417.267464114725

DIPOLE MOMENT
-------------
                                X             Y             Z
Electronic contribution:      3.16050      -8.17226       0.38045
Nuclear contribution   :     -3.74073       9.57243       0.28919
                        -----------------------------------------
Total Dipole Moment    :     -0.58024       1.40017       0.66963
                        -----------------------------------------
Magnitude (a.u.)       :      1.65697
Magnitude (Debye)      :      4.21169

                             ****ORCA TERMINATED NORMALLY****
TOTAL RUN TIME: 0 days 0 hours 16 minutes 35 seconds 156 msec
