                         Program Version 3.0.3 - RELEASE   -
|  1> ! RI-MP2 RIJK def2-TZVP def2-TZVP/C def2-TZVP/JK TIGHTSCF
|  2> % maxcore 2000
|  3> % mp2 density relaxed end
|  4> *xyz 0 1
|  5>  C       -0.5460387828     0.5362050828    -2.6352567983
|  6>  C       -0.2350990018    -0.4608500981    -1.5115064612
|  7>  C       -1.4791463048    -0.8903988038    -0.7595505409
|  8>  C       -2.3603185936    -2.0674374024    -1.1793022744
|  9>  C       -2.0755414931    -2.9372085737    -2.3859310647
| 10>  C       -1.5581436113    -2.1164271733     0.1069059940
| 11>  C       -0.3894560273    -3.0571543198     0.3007039100
| 12>  O       -2.2813183945    -1.8928536180     1.2986642354
| 13>  H        0.3665625966     0.8510984969    -3.1511983727
| 14>  H       -1.2196129552     0.0968870760    -3.3783056648
| 15>  H       -1.0330403142     1.4341677121    -2.2396189745
| 16>  H        0.2848899368    -1.3276616677    -1.9325693345
| 17>  H        0.4698338408    -0.0032368847    -0.8049332230
| 18>  H       -2.0402443263    -0.0551827690    -0.3462497622
| 19>  H       -3.4201124599    -1.8962011523    -1.0059013046
| 20>  H       -1.0064913357    -3.0773422012    -2.5640659808
| 21>  H       -2.5185391249    -3.9328186716    -2.2674330353
| 22>  H       -2.5008983408    -2.4958373983    -3.2943935234
| 23>  H        0.1992430278    -3.1950032152    -0.6085634917
| 24>  H        0.2734759741    -2.6749367315     1.0835131906
| 25>  H       -0.7421310863    -4.0476936619     0.6154834140
| 26>  H       -2.7105733135    -2.7218750051     1.5395018831
| 27> *
| 28>
| 29>                          ****END OF INPUT****

CARTESIAN COORDINATES (ANGSTROEM)
---------------------------------
  C     -0.546039    0.536205   -2.635257
  C     -0.235099   -0.460850   -1.511506
  C     -1.479146   -0.890399   -0.759551
  C     -2.360319   -2.067437   -1.179302
  C     -2.075541   -2.937209   -2.385931
  C     -1.558144   -2.116427    0.106906
  C     -0.389456   -3.057154    0.300704
  O     -2.281318   -1.892854    1.298664
  H      0.366563    0.851098   -3.151198
  H     -1.219613    0.096887   -3.378306
  H     -1.033040    1.434168   -2.239619
  H      0.284890   -1.327662   -1.932569
  H      0.469834   -0.003237   -0.804933
  H     -2.040244   -0.055183   -0.346250
  H     -3.420112   -1.896201   -1.005901
  H     -1.006491   -3.077342   -2.564066
  H     -2.518539   -3.932819   -2.267433
  H     -2.500898   -2.495837   -3.294394
  H      0.199243   -3.195003   -0.608563
  H      0.273476   -2.674937    1.083513
  H     -0.742131   -4.047694    0.615483
  H     -2.710573   -2.721875    1.539502

 Total Charge           Charge          ....    0
 Multiplicity           Mult            ....    1
 Number of Electrons    NEL             ....   64
 Basis Dimension        Dim             ....  332

ORBITAL ENERGIES
----------------

  NO   OCC          E(Eh)            E(eV)
   0   2.0000     -20.552592      -559.2645
   1   2.0000     -11.278214      -306.8958
   2   2.0000     -11.223239      -305.3999
   3   2.0000     -11.220900      -305.3362
   4   2.0000     -11.219022      -305.2851
   5   2.0000     -11.218539      -305.2720
   6   2.0000     -11.218330      -305.2663
   7   2.0000     -11.211039      -305.0679
   8   2.0000      -1.362526       -37.0762
   9   2.0000      -1.138609       -30.9831
  10   2.0000      -1.024415       -27.8758
  11   2.0000      -0.979128       -26.6434
  12   2.0000      -0.949528       -25.8380
  13   2.0000      -0.859355       -23.3842
  14   2.0000      -0.764333       -20.7986
  15   2.0000      -0.743767       -20.2389
  16   2.0000      -0.688735       -18.7414
  17   2.0000      -0.638694       -17.3798
  18   2.0000      -0.617619       -16.8063
  19   2.0000      -0.596275       -16.2255
  20   2.0000      -0.580097       -15.7852
  21   2.0000      -0.562171       -15.2975
  22   2.0000      -0.550147       -14.9703
  23   2.0000      -0.540931       -14.7195
  24   2.0000      -0.537107       -14.6154
  25   2.0000      -0.515394       -14.0246
  26   2.0000      -0.504566       -13.7299
  27   2.0000      -0.495640       -13.4871
  28   2.0000      -0.475058       -12.9270
  29   2.0000      -0.465453       -12.6656
  30   2.0000      -0.386578       -10.5193
  31   2.0000      -0.373144       -10.1538
  32   0.0000       0.127428         3.4675
  33   0.0000       0.149983         4.0813
  34   0.0000       0.168080         4.5737
  35   0.0000       0.169606         4.6152
  36   0.0000       0.182829         4.9750

MULLIKEN ATOMIC CHARGES
-----------------------
   0 C :   -0.393780
   1 C :   -0.190931
   2 C :   -0.122928
   3 C :   -0.163165
   4 C :   -0.403148
   5 C :    0.214864
   6 C :   -0.401549
   7 O :   -0.462727
   8 H :    0.131785
   9 H :    0.126501
  10 H :    0.125130
  11 H :    0.095117
  12 H :    0.119985
  13 H :    0.119849
  14 H :    0.121576
  15 H :    0.119505
  16 H :    0.134189
  17 H :    0.135094
  18 H :    0.118233
  19 H :    0.144462
  20 H :    0.119244
  21 H :    0.312694
Sum of atomic charges:    0.0000000

LOEWDIN ATOMIC CHARGES
----------------------
   0 C :   -0.313397
   1 C :   -0.271947
   2 C :   -0.176272
   3 C :   -0.205562
   4 C :   -0.296255
   5 C :   -0.353574
   6 C :   -0.274222
   7 O :    0.013081
   8 H :    0.119554
   9 H :    0.120792
  10 H :    0.121383
  11 H :    0.134144
  12 H :    0.140746
  13 H :    0.158050
  14 H :    0.151009
  15 H :    0.121923
  16 H :    0.125640
  17 H :    0.125900
  18 H :    0.125870
  19 H :    0.131573
  20 H :    0.125001
  21 H :    0.176560

  Mayer bond orders larger than 0.1
B(  0-C ,  1-C ) :   0.9155 B(  0-C ,  8-H ) :   0.9416 B(  0-C ,  9-H ) :   0.9401
B(  0-C , 10-H ) :   0.9396 B(  1-C ,  2-C ) :   0.8999 B(  1-C , 11-H ) :   0.9349
B(  1-C , 12-H ) :   0.9369 B(  2-C ,  3-C ) :   0.9079 B(  2-C ,  5-C ) :   0.8400
B(  2-C , 13-H ) :   0.9210 B(  3-C ,  4-C ) :   0.8782 B(  3-C ,  5-C ) :   0.8902
B(  3-C , 14-H ) :   0.9267 B(  4-C , 15-H ) :   0.9385 B(  4-C , 16-H ) :   0.9392
B(  4-C , 17-H ) :   0.9345 B(  5-C ,  6-C ) :   0.9416 B(  5-C ,  7-O ) :   0.9761
B(  6-C , 18-H ) :   0.9300 B(  6-C , 19-H ) :   0.9383 B(  6-C , 20-H ) :   0.9238
B(  7-O , 21-H ) :   0.8445

MP2 TOTAL ENERGY:     -349.594670035 Eh
FINAL SINGLE POINT ENERGY      -349.594670034566

DIPOLE MOMENT
-------------
                                X             Y             Z
Electronic contribution:     -3.25544      -0.24071       6.00210
Nuclear contribution   :      3.30177      -0.28150      -6.30944
                        -----------------------------------------
Total Dipole Moment    :      0.04633      -0.52221      -0.30734
                        -----------------------------------------
Magnitude (a.u.)       :      0.60771
Magnitude (Debye)      :      1.54467

                             ****ORCA TERMINATED NORMALLY****
TOTAL RUN TIME: 0 days 0 hours 14 minutes 30 seconds 79 msec
