                         Program Version 3.0.3 - RELEASE   -
|  1> ! RI-MP2 RIJK def2-TZVP def2-TZVP/C def2-TZVP/JK TIGHTSCF
|  2> % maxcore 2000
|  3> % mp2 density relaxed end
|  4> *xyz 0 1
|  5>  C        0.0947817608     1.4690553503    -0.2739444251
|  6>  C        0.0046579054    -0.0013966253     0.1445661969
|  7>  O        0.6037884625    -0.2071416546     1.4256189280
|  8>  C       -1.4128629730    -0.5664648237     0.0884836799
|  9>  C       -2.4276598214     0.1292679294     0.9798562714
| 10>  C       -1.9011576054    -1.1034624416    -1.2408435912
| 11>  C       -1.5968090837    -2.0577907636    -0.1080884170
| 12>  C       -0.4582860459    -3.0532116974    -0.1848652803
| 13>  H        1.1389864603     1.7934145961    -0.2724058538
| 14>  H       -0.3177807984     1.6202602822    -1.2764419198
| 15>  H       -0.4586859281     2.1165575432     0.4157103367
| 16>  H        0.6332082056    -0.5818040942    -0.5375516437
| 17>  H        0.1768634782     0.3899032225     2.0488369811
| 18>  H       -2.5715597067     1.1792431601     0.7026330747
| 19>  H       -3.4031242213    -0.3614819300     0.9130351845
| 20>  H       -2.1236854780     0.0946876501     2.0333630470
| 21>  H       -2.9339689244    -0.9274173126    -1.5244704329
| 22>  H       -1.2074605262    -1.0881089517    -2.0771214949
| 23>  H       -2.4731832593    -2.4564739668     0.3988010059
| 24>  H        0.3667015840    -2.6959832825    -0.8070061004
| 25>  H       -0.0521543863    -3.2691745126     0.8086473815
| 26>  H       -0.8061148986    -3.9955744570    -0.6223413486
| 27> *
| 28>
| 29>                          ****END OF INPUT****

CARTESIAN COORDINATES (ANGSTROEM)
---------------------------------
  C      0.094782    1.469055   -0.273944
  C      0.004658   -0.001397    0.144566
  O      0.603788   -0.207142    1.425619
  C     -1.412863   -0.566465    0.088484
  C     -2.427660    0.129268    0.979856
  C     -1.901158   -1.103462   -1.240844
  C     -1.596809   -2.057791   -0.108088
  C     -0.458286   -3.053212   -0.184865
  H      1.138986    1.793415   -0.272406
  H     -0.317781    1.620260   -1.276442
  H     -0.458686    2.116558    0.415710
  H      0.633208   -0.581804   -0.537552
  H      0.176863    0.389903    2.048837
  H     -2.571560    1.179243    0.702633
  H     -3.403124   -0.361482    0.913035
  H     -2.123685    0.094688    2.033363
  H     -2.933969   -0.927417   -1.524470
  H     -1.207461   -1.088109   -2.077121
  H     -2.473183   -2.456474    0.398801
  H      0.366702   -2.695983   -0.807006
  H     -0.052154   -3.269175    0.808647
  H     -0.806115   -3.995574   -0.622341

 Total Charge           Charge          ....    0
 Multiplicity           Mult            ....    1
 Number of Electrons    NEL             ....   64
 Basis Dimension        Dim             ....  332

ORBITAL ENERGIES
----------------

  NO   OCC          E(Eh)            E(eV)
   0   2.0000     -20.547767      -559.1332
   1   2.0000     -11.277190      -306.8679
   2   2.0000     -11.231434      -305.6229
   3   2.0000     -11.225794      -305.4694
   4   2.0000     -11.219584      -305.3004
   5   2.0000     -11.219375      -305.2947
   6   2.0000     -11.215658      -305.1936
   7   2.0000     -11.210408      -305.0507
   8   2.0000      -1.353812       -36.8391
   9   2.0000      -1.154775       -31.4230
  10   2.0000      -1.014961       -27.6185
  11   2.0000      -0.976707       -26.5775
  12   2.0000      -0.935822       -25.4650
  13   2.0000      -0.864666       -23.5288
  14   2.0000      -0.791052       -21.5256
  15   2.0000      -0.742196       -20.1962
  16   2.0000      -0.662849       -18.0370
  17   2.0000      -0.650111       -17.6904
  18   2.0000      -0.622019       -16.9260
  19   2.0000      -0.608542       -16.5593
  20   2.0000      -0.581886       -15.8339
  21   2.0000      -0.555948       -15.1281
  22   2.0000      -0.549525       -14.9533
  23   2.0000      -0.538847       -14.6628
  24   2.0000      -0.533919       -14.5287
  25   2.0000      -0.528634       -14.3849
  26   2.0000      -0.519469       -14.1355
  27   2.0000      -0.492007       -13.3882
  28   2.0000      -0.468119       -12.7382
  29   2.0000      -0.438337       -11.9278
  30   2.0000      -0.397062       -10.8046
  31   2.0000      -0.384732       -10.4691
  32   0.0000       0.130691         3.5563
  33   0.0000       0.156832         4.2676
  34   0.0000       0.159428         4.3383
  35   0.0000       0.173287         4.7154
  36   0.0000       0.190564         5.1855

MULLIKEN ATOMIC CHARGES
-----------------------
   0 C :   -0.429263
   1 C :    0.143830
   2 O :   -0.475010
   3 C :    0.102312
   4 C :   -0.460098
   5 C :   -0.332733
   6 C :   -0.091171
   7 C :   -0.394570
   8 H :    0.147554
   9 H :    0.135091
  10 H :    0.121200
  11 H :    0.077482
  12 H :    0.309375
  13 H :    0.138937
  14 H :    0.134376
  15 H :    0.123640
  16 H :    0.128090
  17 H :    0.123603
  18 H :    0.110487
  19 H :    0.115474
  20 H :    0.139007
  21 H :    0.132387
Sum of atomic charges:   -0.0000000

LOEWDIN ATOMIC CHARGES
----------------------
   0 C :   -0.297528
   1 C :   -0.330118
   2 O :   -0.019271
   3 C :   -0.248879
   4 C :   -0.271420
   5 C :   -0.191892
   6 C :   -0.212897
   7 C :   -0.292658
   8 H :    0.125823
   9 H :    0.128857
  10 H :    0.120204
  11 H :    0.148466
  12 H :    0.170086
  13 H :    0.124595
  14 H :    0.130848
  15 H :    0.123156
  16 H :    0.131847
  17 H :    0.135723
  18 H :    0.148776
  19 H :    0.122494
  20 H :    0.128964
  21 H :    0.124824

  Mayer bond orders larger than 0.1
B(  0-C ,  1-C ) :   0.9293 B(  0-C ,  8-H ) :   0.9447 B(  0-C ,  9-H ) :   0.9347
B(  0-C , 10-H ) :   0.9252 B(  1-C ,  2-O ) :   0.9031 B(  1-C ,  3-C ) :   0.9263
B(  1-C , 11-H ) :   0.9189 B(  2-O , 12-H ) :   0.8452 B(  3-C ,  4-C ) :   0.8787
B(  3-C ,  5-C ) :   0.8660 B(  3-C ,  6-C ) :   0.8385 B(  4-C , 13-H ) :   0.9413
B(  4-C , 14-H ) :   0.9314 B(  4-C , 15-H ) :   0.9408 B(  5-C ,  6-C ) :   0.8998
B(  5-C , 16-H ) :   0.9222 B(  5-C , 17-H ) :   0.9212 B(  6-C ,  7-C ) :   0.9171
B(  6-C , 18-H ) :   0.9324 B(  7-C , 19-H ) :   0.9369 B(  7-C , 20-H ) :   0.9370
B(  7-C , 21-H ) :   0.9350

MP2 TOTAL ENERGY:     -349.597619570 Eh
FINAL SINGLE POINT ENERGY      -349.597619569999

DIPOLE MOMENT
-------------
                                X             Y             Z
Electronic contribution:      1.52570      -0.47231       1.50000
Nuclear contribution   :     -1.99280       0.82228      -1.61523
                        -----------------------------------------
Total Dipole Moment    :     -0.46710       0.34997      -0.11523
                        -----------------------------------------
Magnitude (a.u.)       :      0.59493
Magnitude (Debye)      :      1.51219

                             ****ORCA TERMINATED NORMALLY****
TOTAL RUN TIME: 0 days 0 hours 15 minutes 29 seconds 13 msec
