                         Program Version 3.0.3 - RELEASE   -
|  1> ! RI-MP2 RIJK def2-TZVP def2-TZVP/C def2-TZVP/JK TIGHTSCF
|  2> % maxcore 2000
|  3> % mp2 density relaxed end
|  4> *xyz 0 1
|  5>  C       -0.0957097284     1.4274952575    -0.8983354217
|  6>  C       -0.1584788619     0.2549638415     0.0486688060
|  7>  C        0.4591464204    -1.0460292814    -0.3067109247
|  8>  O        1.0846511484    -0.1742960497     0.6266597919
|  9>  C       -1.3403824537     0.2394546403     0.9924363212
| 10>  O       -2.2924244079     0.9609903943     0.8089146942
| 11>  C       -1.2980862106    -0.7462856508     2.1696001628
| 12>  C       -2.1914636874    -1.9333733761     1.8415370320
| 13>  O       -1.7800773063    -2.9903734490     1.4370404733
| 14>  H        0.7871870702     1.3464746013    -1.5358100703
| 15>  H       -0.9922350318     1.4608075167    -1.5217804623
| 16>  H       -0.0438379633     2.3683476378    -0.3432012484
| 17>  H        0.0699167582    -1.9764557795     0.1022931956
| 18>  H        0.9451373092    -1.1200922185    -1.2783425242
| 19>  H       -0.2810884589    -1.0858199893     2.3632364322
| 20>  H       -1.7072930472    -0.2194201110     3.0358817781
| 21>  H       -3.2776372290    -1.7471934439     1.9715327043
| 22> *
| 23>
| 24>                          ****END OF INPUT****

CARTESIAN COORDINATES (ANGSTROEM)
---------------------------------
  C     -0.095710    1.427495   -0.898335
  C     -0.158479    0.254964    0.048669
  C      0.459146   -1.046029   -0.306711
  O      1.084651   -0.174296    0.626660
  C     -1.340382    0.239455    0.992436
  O     -2.292424    0.960990    0.808915
  C     -1.298086   -0.746286    2.169600
  C     -2.191464   -1.933373    1.841537
  O     -1.780077   -2.990373    1.437040
  H      0.787187    1.346475   -1.535810
  H     -0.992235    1.460808   -1.521780
  H     -0.043838    2.368348   -0.343201
  H      0.069917   -1.976456    0.102293
  H      0.945137   -1.120092   -1.278343
  H     -0.281088   -1.085820    2.363236
  H     -1.707293   -0.219420    3.035882
  H     -3.277637   -1.747193    1.971533

 Total Charge           Charge          ....    0
 Multiplicity           Mult            ....    1
 Number of Electrons    NEL             ....   68
 Basis Dimension        Dim             ....  327

ORBITAL ENERGIES
----------------

  NO   OCC          E(Eh)            E(eV)
   0   2.0000     -20.594110      -560.3942
   1   2.0000     -20.577477      -559.9416
   2   2.0000     -20.573180      -559.8247
   3   2.0000     -11.360211      -309.1271
   4   2.0000     -11.354848      -308.9811
   5   2.0000     -11.317375      -307.9614
   6   2.0000     -11.304451      -307.6097
   7   2.0000     -11.262591      -306.4707
   8   2.0000     -11.235131      -305.7234
   9   2.0000      -1.441884       -39.2356
  10   2.0000      -1.418420       -38.5972
  11   2.0000      -1.413545       -38.4645
  12   2.0000      -1.069090       -29.0914
  13   2.0000      -1.034567       -28.1520
  14   2.0000      -0.931594       -25.3500
  15   2.0000      -0.898485       -24.4490
  16   2.0000      -0.821335       -22.3497
  17   2.0000      -0.751658       -20.4537
  18   2.0000      -0.726878       -19.7794
  19   2.0000      -0.690029       -18.7767
  20   2.0000      -0.680418       -18.5151
  21   2.0000      -0.655368       -17.8335
  22   2.0000      -0.642006       -17.4699
  23   2.0000      -0.614412       -16.7190
  24   2.0000      -0.584693       -15.9103
  25   2.0000      -0.584189       -15.8966
  26   2.0000      -0.555325       -15.1112
  27   2.0000      -0.544756       -14.8236
  28   2.0000      -0.539399       -14.6778
  29   2.0000      -0.538768       -14.6606
  30   2.0000      -0.485280       -13.2052
  31   2.0000      -0.453080       -12.3289
  32   2.0000      -0.446178       -12.1411
  33   2.0000      -0.422338       -11.4924
  34   0.0000       0.094437         2.5698
  35   0.0000       0.126526         3.4430
  36   0.0000       0.145725         3.9654
  37   0.0000       0.158866         4.3230
  38   0.0000       0.177232         4.8227

MULLIKEN ATOMIC CHARGES
-----------------------
   0 C :   -0.391832
   1 C :    0.126541
   2 C :   -0.086685
   3 O :   -0.323085
   4 C :    0.175277
   5 O :   -0.273865
   6 C :   -0.195176
   7 C :    0.083161
   8 O :   -0.269183
   9 H :    0.143239
  10 H :    0.148787
  11 H :    0.142469
  12 H :    0.158568
  13 H :    0.131576
  14 H :    0.171017
  15 H :    0.150612
  16 H :    0.108578
Sum of atomic charges:    0.0000000

LOEWDIN ATOMIC CHARGES
----------------------
   0 C :   -0.257960
   1 C :   -0.315874
   2 C :   -0.230540
   3 O :    0.180463
   4 C :   -0.284116
   5 O :    0.173510
   6 C :   -0.222805
   7 C :   -0.282509
   8 O :    0.135565
   9 H :    0.133684
  10 H :    0.138890
  11 H :    0.135755
  12 H :    0.129771
  13 H :    0.127164
  14 H :    0.159217
  15 H :    0.160879
  16 H :    0.118905

  Mayer bond orders larger than 0.1
B(  0-C ,  1-C ) :   0.9185 B(  0-C ,  9-H ) :   0.9358 B(  0-C , 10-H ) :   0.9258
B(  0-C , 11-H ) :   0.9320 B(  1-C ,  2-C ) :   0.9230 B(  1-C ,  3-O ) :   0.8845
B(  1-C ,  4-C ) :   0.9148 B(  2-C ,  3-O ) :   0.8687 B(  2-C , 12-H ) :   0.8962
B(  2-C , 13-H ) :   0.9164 B(  4-C ,  5-O ) :   1.9814 B(  4-C ,  6-C ) :   0.8746
B(  6-C ,  7-C ) :   0.8652 B(  6-C , 14-H ) :   0.9066 B(  6-C , 15-H ) :   0.9018
B(  7-C ,  8-O ) :   1.9550 B(  7-C , 16-H ) :   0.9320

MP2 TOTAL ENERGY:     -458.223589977 Eh
FINAL SINGLE POINT ENERGY      -458.223589976611

DIPOLE MOMENT
-------------
                                X             Y             Z
Electronic contribution:     -1.97662      -2.28217       2.82675
Nuclear contribution   :      2.09143       2.46612      -2.93327
                        -----------------------------------------
Total Dipole Moment    :      0.11481       0.18395      -0.10652
                        -----------------------------------------
Magnitude (a.u.)       :      0.24159
Magnitude (Debye)      :      0.61407

                             ****ORCA TERMINATED NORMALLY****
TOTAL RUN TIME: 0 days 0 hours 16 minutes 8 seconds 361 msec
