                         Program Version 3.0.3 - RELEASE   -
|  1> ! RI-MP2 RIJK def2-TZVP def2-TZVP/C def2-TZVP/JK TIGHTSCF
|  2> % maxcore 2000
|  3> % mp2 density relaxed end
|  4> *xyz 0 1
|  5>  N        1.5251278521    -0.3895155464     0.5055231528
|  6>  C        0.7413928227     0.3964033758     0.1869034636
|  7>  C       -0.2759307079     1.3755850639    -0.2301481892
|  8>  O       -0.2308088722     2.5749603027     0.5179114939
|  9>  C        0.7846674889     3.4195427059     0.2142055765
| 10>  C        1.8837677434     3.3524580258    -0.6164012462
| 11>  C        2.5043630158     4.6130613692    -0.4374827834
| 12>  N        1.8557220919     5.3878652832     0.4199799995
| 13>  N        0.7979472719     4.6327063838     0.8093180669
| 14>  H       -0.1620288285     1.5790996535    -1.3024736002
| 15>  H       -1.2677978791     0.9498435957    -0.0602122683
| 16>  H        2.2081418768     2.5281727891    -1.2278284795
| 17>  H        3.4069395928     4.9754125762    -0.9074983084
| 18>  H        0.1323293416     4.9918656816     1.4723106520
| 19> *
| 20>
| 21>                          ****END OF INPUT****

CARTESIAN COORDINATES (ANGSTROEM)
---------------------------------
  N      1.525128   -0.389516    0.505523
  C      0.741393    0.396403    0.186903
  C     -0.275931    1.375585   -0.230148
  O     -0.230809    2.574960    0.517911
  C      0.784667    3.419543    0.214206
  C      1.883768    3.352458   -0.616401
  C      2.504363    4.613061   -0.437483
  N      1.855722    5.387865    0.419980
  N      0.797947    4.632706    0.809318
  H     -0.162029    1.579100   -1.302474
  H     -1.267798    0.949844   -0.060212
  H      2.208142    2.528173   -1.227828
  H      3.406940    4.975413   -0.907498
  H      0.132329    4.991866    1.472311

 Total Charge           Charge          ....    0
 Multiplicity           Mult            ....    1
 Number of Electrons    NEL             ....   64
 Basis Dimension        Dim             ....  309

ORBITAL ENERGIES
----------------

  NO   OCC          E(Eh)            E(eV)
   0   2.0000     -20.642567      -561.7128
   1   2.0000     -15.641373      -425.6234
   2   2.0000     -15.596326      -424.3976
   3   2.0000     -15.590372      -424.2356
   4   2.0000     -11.369315      -309.3748
   5   2.0000     -11.357031      -309.0405
   6   2.0000     -11.293841      -307.3210
   7   2.0000     -11.265192      -306.5415
   8   2.0000     -11.230809      -305.6058
   9   2.0000      -1.476178       -40.1689
  10   2.0000      -1.375239       -37.4221
  11   2.0000      -1.240257       -33.7491
  12   2.0000      -1.115149       -30.3447
  13   2.0000      -1.069577       -29.1047
  14   2.0000      -1.027822       -27.9685
  15   2.0000      -0.839491       -22.8437
  16   2.0000      -0.826114       -22.4797
  17   2.0000      -0.797892       -21.7118
  18   2.0000      -0.754372       -20.5275
  19   2.0000      -0.693504       -18.8712
  20   2.0000      -0.660072       -17.9615
  21   2.0000      -0.639182       -17.3930
  22   2.0000      -0.620820       -16.8934
  23   2.0000      -0.610347       -16.6084
  24   2.0000      -0.586552       -15.9609
  25   2.0000      -0.561733       -15.2855
  26   2.0000      -0.550219       -14.9722
  27   2.0000      -0.491887       -13.3849
  28   2.0000      -0.483084       -13.1454
  29   2.0000      -0.464708       -12.6453
  30   2.0000      -0.379193       -10.3184
  31   2.0000      -0.344097        -9.3633
  32   0.0000       0.118815         3.2331
  33   0.0000       0.132945         3.6176
  34   0.0000       0.145611         3.9623
  35   0.0000       0.148004         4.0274
  36   0.0000       0.165764         4.5107

MULLIKEN ATOMIC CHARGES
-----------------------
   0 N :   -0.050245
   1 C :   -0.169977
   2 C :    0.012331
   3 O :   -0.278177
   4 C :    0.255208
   5 C :   -0.222075
   6 C :   -0.123553
   7 N :   -0.210119
   8 N :   -0.123566
   9 H :    0.175088
  10 H :    0.177891
  11 H :    0.156928
  12 H :    0.136797
  13 H :    0.263470
Sum of atomic charges:   -0.0000000

LOEWDIN ATOMIC CHARGES
----------------------
   0 N :    0.082851
   1 C :   -0.186997
   2 C :   -0.276075
   3 O :    0.258472
   4 C :   -0.356500
   5 C :   -0.205755
   6 C :   -0.273249
   7 N :    0.022200
   8 N :    0.145024
   9 H :    0.155476
  10 H :    0.160004
  11 H :    0.146255
  12 H :    0.135728
  13 H :    0.192568

  Mayer bond orders larger than 0.1
B(  0-N ,  1-C ) :   2.8267 B(  1-C ,  2-C ) :   0.8895 B(  2-C ,  3-O ) :   0.9115
B(  2-C ,  9-H ) :   0.9369 B(  2-C , 10-H ) :   0.9080 B(  3-O ,  4-C ) :   1.0365
B(  4-C ,  5-C ) :   1.3841 B(  4-C ,  7-N ) :   0.1048 B(  4-C ,  8-N ) :   1.2103
B(  5-C ,  6-C ) :   1.2597 B(  5-C , 11-H ) :   0.9217 B(  6-C ,  7-N ) :   1.5671
B(  6-C , 12-H ) :   0.9401 B(  7-N ,  8-N ) :   1.0275 B(  8-N , 13-H ) :   0.8648

MP2 TOTAL ENERGY:     -432.152219947 Eh
FINAL SINGLE POINT ENERGY      -432.152219947085

DIPOLE MOMENT
-------------
                                X             Y             Z
Electronic contribution:     -0.53011      -0.74887       2.11088
Nuclear contribution   :     -0.79761       0.78996      -2.64803
                        -----------------------------------------
Total Dipole Moment    :     -1.32772       0.04109      -0.53716
                        -----------------------------------------
Magnitude (a.u.)       :      1.43285
Magnitude (Debye)      :      3.64202

                             ****ORCA TERMINATED NORMALLY****
TOTAL RUN TIME: 0 days 0 hours 14 minutes 27 seconds 534 msec
