                         Program Version 3.0.3 - RELEASE   -
|  1> ! RI-MP2 RIJK def2-TZVP def2-TZVP/C def2-TZVP/JK TIGHTSCF
|  2> % maxcore 2000
|  3> % mp2 density relaxed end
|  4> *xyz 0 1
|  5>  C        0.0099969909     1.6275967783    -0.0882154943
|  6>  C        0.0300139141     0.0975984616    -0.1113754668
|  7>  C       -1.3638254506    -0.5262449945     0.0985587171
|  8>  C       -1.3749352870    -2.0251258278     0.0622397296
|  9>  C       -1.3479565032    -2.8862817367     1.1234452357
| 10>  N       -1.2499149386    -2.7024477905     2.4993137860
| 11>  O       -1.3481846973    -4.1773234789     0.7137498864
| 12>  C       -1.3763536783    -4.1577620321    -0.6605561007
| 13>  C       -1.3860259989    -2.8790452290    -1.1008781372
| 14>  H        1.0106600515     2.0429136947    -0.2431899237
| 15>  H       -0.6417645254     2.0279888760    -0.8731633625
| 16>  H       -0.3614562853     2.0061194498     0.8711334806
| 17>  H        0.4353236884    -0.2555860993    -1.0675189779
| 18>  H        0.7090517858    -0.2815708186     0.6619672651
| 19>  H       -1.7686109601    -0.1711486646     1.0576186911
| 20>  H       -2.0453278911    -0.1345960103    -0.6685525259
| 21>  H       -1.5267697814    -1.7707808146     2.7794964402
| 22>  H       -1.7779343091    -3.3942748976     3.0182226705
| 23>  H       -1.3905569867    -5.1227104693    -1.1367075980
| 24>  H       -1.4128817975    -2.5580020564    -2.1315844452
| 25> *
| 26>
| 27>                          ****END OF INPUT****

CARTESIAN COORDINATES (ANGSTROEM)
---------------------------------
  C      0.009997    1.627597   -0.088215
  C      0.030014    0.097598   -0.111375
  C     -1.363825   -0.526245    0.098559
  C     -1.374935   -2.025126    0.062240
  C     -1.347957   -2.886282    1.123445
  N     -1.249915   -2.702448    2.499314
  O     -1.348185   -4.177323    0.713750
  C     -1.376354   -4.157762   -0.660556
  C     -1.386026   -2.879045   -1.100878
  H      1.010660    2.042914   -0.243190
  H     -0.641765    2.027989   -0.873163
  H     -0.361456    2.006119    0.871133
  H      0.435324   -0.255586   -1.067519
  H      0.709052   -0.281571    0.661967
  H     -1.768611   -0.171149    1.057619
  H     -2.045328   -0.134596   -0.668553
  H     -1.526770   -1.770781    2.779496
  H     -1.777934   -3.394275    3.018223
  H     -1.390557   -5.122710   -1.136708
  H     -1.412882   -2.558002   -2.131584

 Total Charge           Charge          ....    0
 Multiplicity           Mult            ....    1
 Number of Electrons    NEL             ....   68
 Basis Dimension        Dim             ....  345

ORBITAL ENERGIES
----------------

  NO   OCC          E(Eh)            E(eV)
   0   2.0000     -20.610334      -560.8357
   1   2.0000     -15.573070      -423.7648
   2   2.0000     -11.316934      -307.9494
   3   2.0000     -11.269348      -306.6545
   4   2.0000     -11.228333      -305.5385
   5   2.0000     -11.221203      -305.3445
   6   2.0000     -11.218288      -305.2651
   7   2.0000     -11.212570      -305.1095
   8   2.0000     -11.210191      -305.0448
   9   2.0000      -1.452946       -39.5367
  10   2.0000      -1.212322       -32.9890
  11   2.0000      -1.096884       -29.8477
  12   2.0000      -1.042539       -28.3689
  13   2.0000      -0.977004       -26.5856
  14   2.0000      -0.922402       -25.0998
  15   2.0000      -0.817680       -22.2502
  16   2.0000      -0.795739       -21.6532
  17   2.0000      -0.754036       -20.5184
  18   2.0000      -0.708396       -19.2764
  19   2.0000      -0.673604       -18.3297
  20   2.0000      -0.640473       -17.4282
  21   2.0000      -0.629861       -17.1394
  22   2.0000      -0.611264       -16.6333
  23   2.0000      -0.582277       -15.8446
  24   2.0000      -0.564659       -15.3652
  25   2.0000      -0.555562       -15.1176
  26   2.0000      -0.552257       -15.0277
  27   2.0000      -0.509294       -13.8586
  28   2.0000      -0.488492       -13.2926
  29   2.0000      -0.482032       -13.1167
  30   2.0000      -0.475822       -12.9478
  31   2.0000      -0.467461       -12.7203
  32   2.0000      -0.379377       -10.3234
  33   2.0000      -0.277589        -7.5536
  34   0.0000       0.124581         3.3900
  35   0.0000       0.146905         3.9975
  36   0.0000       0.164259         4.4697
  37   0.0000       0.172216         4.6862
  38   0.0000       0.180524         4.9123

MULLIKEN ATOMIC CHARGES
-----------------------
   0 C :   -0.384584
   1 C :   -0.173309
   2 C :   -0.332085
   3 C :    0.055969
   4 C :    0.232510
   5 N :   -0.503820
   6 O :   -0.232501
   7 C :   -0.017841
   8 C :   -0.256456
   9 H :    0.134481
  10 H :    0.121386
  11 H :    0.118397
  12 H :    0.112945
  13 H :    0.115997
  14 H :    0.100464
  15 H :    0.129530
  16 H :    0.248284
  17 H :    0.256266
  18 H :    0.145347
  19 H :    0.129018
Sum of atomic charges:   -0.0000000

LOEWDIN ATOMIC CHARGES
----------------------
   0 C :   -0.323188
   1 C :   -0.287736
   2 C :   -0.235707
   3 C :   -0.187529
   4 C :   -0.334069
   5 N :   -0.081709
   6 O :    0.337374
   7 C :   -0.251005
   8 C :   -0.172447
   9 H :    0.121243
  10 H :    0.119862
  11 H :    0.118978
  12 H :    0.136396
  13 H :    0.136930
  14 H :    0.137911
  15 H :    0.145986
  16 H :    0.171749
  17 H :    0.173672
  18 H :    0.129652
  19 H :    0.143637

  Mayer bond orders larger than 0.1
B(  0-C ,  1-C ) :   0.9149 B(  0-C ,  9-H ) :   0.9421 B(  0-C , 10-H ) :   0.9388
B(  0-C , 11-H ) :   0.9386 B(  1-C ,  2-C ) :   0.9270 B(  1-C , 12-H ) :   0.9361
B(  1-C , 13-H ) :   0.9337 B(  2-C ,  3-C ) :   0.8414 B(  2-C , 14-H ) :   0.9417
B(  2-C , 15-H ) :   0.9358 B(  3-C ,  4-C ) :   1.4928 B(  3-C ,  8-C ) :   1.1356
B(  4-C ,  5-N ) :   1.0447 B(  4-C ,  6-O ) :   1.0860 B(  5-N , 16-H ) :   0.8770
B(  5-N , 17-H ) :   0.8692 B(  6-O ,  7-C ) :   0.9968 B(  7-C ,  8-C ) :   1.6082
B(  7-C , 18-H ) :   0.9357 B(  8-C , 19-H ) :   0.9289

MP2 TOTAL ENERGY:     -402.483763423 Eh
FINAL SINGLE POINT ENERGY      -402.483763423495

DIPOLE MOMENT
-------------
                                X             Y             Z
Electronic contribution:     -2.86623     -12.36675       1.41081
Nuclear contribution   :      2.45962      12.72968      -1.20077
                        -----------------------------------------
Total Dipole Moment    :     -0.40661       0.36294       0.21004
                        -----------------------------------------
Magnitude (a.u.)       :      0.58410
Magnitude (Debye)      :      1.48466

                             ****ORCA TERMINATED NORMALLY****
TOTAL RUN TIME: 0 days 0 hours 17 minutes 31 seconds 119 msec
