                         Program Version 3.0.3 - RELEASE   -
|  1> ! RI-MP2 RIJK def2-TZVP def2-TZVP/C def2-TZVP/JK TIGHTSCF
|  2> % maxcore 2000
|  3> % mp2 density relaxed end
|  4> *xyz 0 1
|  5>  O        0.0713398910    -0.1186145467    -0.3050455635
|  6>  C        0.0105116027     1.0909488129    -0.1401641637
|  7>  C       -1.3546421521     1.7206691279     0.1517929133
|  8>  C       -1.4708744192     2.7902316300     1.2222287497
|  9>  C       -0.5535879230     2.8558868271     2.4257796905
| 10>  C       -0.5312494750     3.9473548692     1.3723843024
| 11>  N        0.6024709882     4.1767601058     0.5154428940
| 12>  C        1.3966338430     3.2393511081    -0.0720365486
| 13>  C        1.1907305225     1.9246330597    -0.3345140012
| 14>  H       -1.7181270314     2.1394416825    -0.7981444419
| 15>  H       -2.0148822931     0.8849350065     0.4007033837
| 16>  H       -2.5078704864     3.0524607003     1.4186690007
| 17>  H       -0.9657606767     3.0835993415     3.4024005653
| 18>  H        0.2888616605     2.1732901615     2.4398650809
| 19>  H       -0.9854748712     4.8955030064     1.6396621148
| 20>  H        1.0697352181     5.0482836796     0.7058432995
| 21>  H        2.3571370539     3.6545840335    -0.3683932117
| 22>  H        2.0294238583     1.3864164342    -0.7621160044
| 23> *
| 24>
| 25>                          ****END OF INPUT****

CARTESIAN COORDINATES (ANGSTROEM)
---------------------------------
  O      0.071340   -0.118615   -0.305046
  C      0.010512    1.090949   -0.140164
  C     -1.354642    1.720669    0.151793
  C     -1.470874    2.790232    1.222229
  C     -0.553588    2.855887    2.425780
  C     -0.531249    3.947355    1.372384
  N      0.602471    4.176760    0.515443
  C      1.396634    3.239351   -0.072037
  C      1.190731    1.924633   -0.334514
  H     -1.718127    2.139442   -0.798144
  H     -2.014882    0.884935    0.400703
  H     -2.507870    3.052461    1.418669
  H     -0.965761    3.083599    3.402401
  H      0.288862    2.173290    2.439865
  H     -0.985475    4.895503    1.639662
  H      1.069735    5.048284    0.705843
  H      2.357137    3.654584   -0.368393
  H      2.029424    1.386416   -0.762116

 Total Charge           Charge          ....    0
 Multiplicity           Mult            ....    1
 Number of Electrons    NEL             ....   66
 Basis Dimension        Dim             ....  333

ORBITAL ENERGIES
----------------

  NO   OCC          E(Eh)            E(eV)
   0   2.0000     -20.517143      -558.2998
   1   2.0000     -15.598563      -424.4585
   2   2.0000     -11.314561      -307.8849
   3   2.0000     -11.304547      -307.6124
   4   2.0000     -11.284953      -307.0792
   5   2.0000     -11.249619      -306.1177
   6   2.0000     -11.234349      -305.7022
   7   2.0000     -11.233990      -305.6924
   8   2.0000     -11.210845      -305.0626
   9   2.0000      -1.359327       -36.9892
  10   2.0000      -1.275087       -34.6969
  11   2.0000      -1.147601       -31.2278
  12   2.0000      -1.054215       -28.6867
  13   2.0000      -0.984177       -26.7808
  14   2.0000      -0.894077       -24.3291
  15   2.0000      -0.834559       -22.7095
  16   2.0000      -0.775118       -21.0920
  17   2.0000      -0.753642       -20.5076
  18   2.0000      -0.720972       -19.6187
  19   2.0000      -0.665688       -18.1143
  20   2.0000      -0.634877       -17.2759
  21   2.0000      -0.624515       -16.9939
  22   2.0000      -0.604315       -16.4443
  23   2.0000      -0.585739       -15.9388
  24   2.0000      -0.563746       -15.3403
  25   2.0000      -0.546972       -14.8839
  26   2.0000      -0.531544       -14.4640
  27   2.0000      -0.517674       -14.0866
  28   2.0000      -0.491499       -13.3744
  29   2.0000      -0.430700       -11.7199
  30   2.0000      -0.419807       -11.4235
  31   2.0000      -0.395910       -10.7733
  32   2.0000      -0.315933        -8.5970
  33   0.0000       0.107410         2.9228
  34   0.0000       0.116164         3.1610
  35   0.0000       0.146292         3.9808
  36   0.0000       0.164797         4.4844
  37   0.0000       0.175463         4.7746

MULLIKEN ATOMIC CHARGES
-----------------------
   0 O :   -0.316885
   1 C :    0.175483
   2 C :   -0.174294
   3 C :   -0.135442
   4 C :   -0.280230
   5 C :   -0.013323
   6 N :   -0.309387
   7 C :    0.037110
   8 C :   -0.310507
   9 H :    0.130731
  10 H :    0.133144
  11 H :    0.126636
  12 H :    0.136995
  13 H :    0.162779
  14 H :    0.128435
  15 H :    0.240841
  16 H :    0.134430
  17 H :    0.133485
Sum of atomic charges:    0.0000000

LOEWDIN ATOMIC CHARGES
----------------------
   0 O :    0.120133
   1 C :   -0.346441
   2 C :   -0.205060
   3 C :   -0.206170
   4 C :   -0.201526
   5 C :   -0.244781
   6 N :    0.113945
   7 C :   -0.218327
   8 C :   -0.207242
   9 H :    0.158802
  10 H :    0.155094
  11 H :    0.154812
  12 H :    0.131720
  13 H :    0.145371
  14 H :    0.147478
  15 H :    0.194624
  16 H :    0.149129
  17 H :    0.158438

  Mayer bond orders larger than 0.1
B(  0-O ,  1-C ) :   1.9381 B(  1-C ,  2-C ) :   0.9103 B(  1-C ,  8-C ) :   1.0757
B(  2-C ,  3-C ) :   0.9021 B(  2-C ,  9-H ) :   0.9054 B(  2-C , 10-H ) :   0.9205
B(  3-C ,  4-C ) :   0.8571 B(  3-C ,  5-C ) :   0.8939 B(  3-C , 11-H ) :   0.9198
B(  4-C ,  5-C ) :   0.8835 B(  4-C , 12-H ) :   0.9269 B(  4-C , 13-H ) :   0.9209
B(  5-C ,  6-N ) :   0.9071 B(  5-C , 14-H ) :   0.9215 B(  6-N ,  7-C ) :   1.1789
B(  6-N , 15-H ) :   0.8757 B(  7-C ,  8-C ) :   1.5470 B(  7-C , 16-H ) :   0.9071
B(  8-C , 17-H ) :   0.9151

MP2 TOTAL ENERGY:     -401.255893683 Eh
FINAL SINGLE POINT ENERGY      -401.255893683250

DIPOLE MOMENT
-------------
                                X             Y             Z
Electronic contribution:      1.68737      -2.44863      -2.42496
Nuclear contribution   :     -1.69679       4.49655       3.03881
                        -----------------------------------------
Total Dipole Moment    :     -0.00942       2.04792       0.61385
                        -----------------------------------------
Magnitude (a.u.)       :      2.13796
Magnitude (Debye)      :      5.43427

                             ****ORCA TERMINATED NORMALLY****
TOTAL RUN TIME: 0 days 0 hours 18 minutes 51 seconds 346 msec
