                         Program Version 3.0.3 - RELEASE   -
|  1> ! RI-MP2 RIJK def2-TZVP def2-TZVP/C def2-TZVP/JK TIGHTSCF
|  2> % maxcore 2000
|  3> % mp2 density relaxed end
|  4> *xyz 0 1
|  5>  C       -0.1672421978     1.3814948317     0.0650324707
|  6>  C       -0.0995176615    -0.0698859962     0.0088494012
|  7>  C       -0.0480677891    -1.2712729307    -0.0388817241
|  8>  C        0.0388141366    -2.7296336924    -0.1052602387
|  9>  O        0.7828761654    -3.2885391340     0.9630960434
| 10>  C       -0.1506638260    -3.6146753622     1.9752987364
| 11>  C       -1.4685453509    -3.7928810514     1.2311952929
| 12>  O       -2.4997799074    -4.2536856024     1.6138486942
| 13>  O       -1.2718967832    -3.3150124914    -0.0302084217
| 14>  H        0.4454331012     1.7722084031     0.8842788378
| 15>  H        0.1935542110     1.8285950076    -0.8671775077
| 16>  H       -1.1964815186     1.7199164898     0.2240056938
| 17>  H        0.4970694620    -3.0611497782    -1.0411183125
| 18>  H        0.1526732904    -4.5389291319     2.4708472979
| 19>  H       -0.2539290520    -2.8192614515     2.7270545064
| 20> *
| 21>
| 22>                          ****END OF INPUT****

CARTESIAN COORDINATES (ANGSTROEM)
---------------------------------
  C     -0.167242    1.381495    0.065032
  C     -0.099518   -0.069886    0.008849
  C     -0.048068   -1.271273   -0.038882
  C      0.038814   -2.729634   -0.105260
  O      0.782876   -3.288539    0.963096
  C     -0.150664   -3.614675    1.975299
  C     -1.468545   -3.792881    1.231195
  O     -2.499780   -4.253686    1.613849
  O     -1.271897   -3.315012   -0.030208
  H      0.445433    1.772208    0.884279
  H      0.193554    1.828595   -0.867178
  H     -1.196482    1.719916    0.224006
  H      0.497069   -3.061150   -1.041118
  H      0.152673   -4.538929    2.470847
  H     -0.253929   -2.819261    2.727055

 Total Charge           Charge          ....    0
 Multiplicity           Mult            ....    1
 Number of Electrons    NEL             ....   66
 Basis Dimension        Dim             ....  315

ORBITAL ENERGIES
----------------

  NO   OCC          E(Eh)            E(eV)
   0   2.0000     -20.621775      -561.1470
   1   2.0000     -20.602002      -560.6090
   2   2.0000     -20.558236      -559.4181
   3   2.0000     -11.395105      -310.0766
   4   2.0000     -11.392680      -310.0106
   5   2.0000     -11.317696      -307.9702
   6   2.0000     -11.263764      -306.5026
   7   2.0000     -11.257423      -306.3301
   8   2.0000     -11.237119      -305.7776
   9   2.0000      -1.502842       -40.8944
  10   2.0000      -1.416901       -38.5558
  11   2.0000      -1.368433       -37.2370
  12   2.0000      -1.091591       -29.7037
  13   2.0000      -1.045569       -28.4514
  14   2.0000      -0.983039       -26.7499
  15   2.0000      -0.918729       -24.9999
  16   2.0000      -0.828307       -22.5394
  17   2.0000      -0.770916       -20.9777
  18   2.0000      -0.739079       -20.1114
  19   2.0000      -0.679770       -18.4975
  20   2.0000      -0.671612       -18.2755
  21   2.0000      -0.645868       -17.5750
  22   2.0000      -0.623960       -16.9788
  23   2.0000      -0.615493       -16.7484
  24   2.0000      -0.604908       -16.4604
  25   2.0000      -0.602907       -16.4059
  26   2.0000      -0.592685       -16.1278
  27   2.0000      -0.559966       -15.2374
  28   2.0000      -0.489831       -13.3290
  29   2.0000      -0.480368       -13.0715
  30   2.0000      -0.453387       -12.3373
  31   2.0000      -0.401135       -10.9155
  32   2.0000      -0.400541       -10.8993
  33   0.0000       0.125001         3.4015
  34   0.0000       0.142620         3.8809
  35   0.0000       0.150789         4.1032
  36   0.0000       0.158299         4.3075
  37   0.0000       0.165163         4.4943

MULLIKEN ATOMIC CHARGES
-----------------------
   0 C :   -0.477232
   1 C :    0.031308
   2 C :   -0.084454
   3 C :    0.240317
   4 O :   -0.305779
   5 C :   -0.080443
   6 C :    0.234982
   7 O :   -0.272234
   8 O :   -0.224696
   9 H :    0.168553
  10 H :    0.168900
  11 H :    0.171424
  12 H :    0.144770
  13 H :    0.152128
  14 H :    0.132456
Sum of atomic charges:    0.0000000

LOEWDIN ATOMIC CHARGES
----------------------
   0 C :   -0.285357
   1 C :   -0.071959
   2 C :   -0.062794
   3 C :   -0.342256
   4 O :    0.189211
   5 C :   -0.271720
   6 C :   -0.464509
   7 O :    0.153408
   8 O :    0.279118
   9 H :    0.145242
  10 H :    0.145253
  11 H :    0.146152
  12 H :    0.154357
  13 H :    0.144865
  14 H :    0.140989

  Mayer bond orders larger than 0.1
B(  0-C ,  1-C ) :   0.8839 B(  0-C ,  9-H ) :   0.9399 B(  0-C , 10-H ) :   0.9463
B(  0-C , 11-H ) :   0.9398 B(  1-C ,  2-C ) :   2.6858 B(  2-C ,  3-C ) :   1.0413
B(  3-C ,  4-O ) :   0.9508 B(  3-C ,  8-O ) :   0.9052 B(  3-C , 12-H ) :   0.9383
B(  4-O ,  5-C ) :   0.9380 B(  5-C ,  6-C ) :   0.9367 B(  5-C , 13-H ) :   0.9136
B(  5-C , 14-H ) :   0.9050 B(  6-C ,  7-O ) :   2.0420 B(  6-C ,  8-O ) :   1.0845

MP2 TOTAL ENERGY:     -457.021101924 Eh
FINAL SINGLE POINT ENERGY      -457.021101923996

DIPOLE MOMENT
-------------
                                X             Y             Z
Electronic contribution:     -2.08392      -7.46182      -0.42515
Nuclear contribution   :      2.98673       8.55759       0.43655
                        -----------------------------------------
Total Dipole Moment    :      0.90281       1.09577       0.01140
                        -----------------------------------------
Magnitude (a.u.)       :      1.41982
Magnitude (Debye)      :      3.60891

                             ****ORCA TERMINATED NORMALLY****
TOTAL RUN TIME: 0 days 0 hours 14 minutes 8 seconds 871 msec
