                         Program Version 3.0.3 - RELEASE   -
|  1> ! RI-MP2 RIJK def2-TZVP def2-TZVP/C def2-TZVP/JK TIGHTSCF
|  2> % maxcore 2000
|  3> % mp2 density relaxed end
|  4> *xyz 0 1
|  5>  C       -0.0176799891     1.4329640039     0.0147783274
|  6>  O       -0.0030443138     0.0124161613     0.0037286356
|  7>  C        0.5986346197    -0.5644718095    -1.0494201632
|  8>  C        0.7195341281    -1.9198482983    -1.2460129940
|  9>  O        1.3847118575    -2.1285928625    -2.4158057563
| 10>  N        1.7020199304    -0.9212789992    -2.9898299573
| 11>  C        1.2378629797     0.0060100559    -2.1828865285
| 12>  C        0.2994640799    -3.0241914393    -0.4922473052
| 13>  C       -0.0664557042    -3.9649999360     0.1642732767
| 14>  H        1.0006103450     1.8414624044     0.0295672708
| 15>  H       -0.5562577326     1.8323041294    -0.8538266064
| 16>  H       -0.5373332865     1.7255458068     0.9275266662
| 17>  H        1.3758995843     1.0456583911    -2.4387668367
| 18>  H       -0.3887977384    -4.7949953581     0.7430166409
| 19> *
| 20>
| 21>                          ****END OF INPUT****

CARTESIAN COORDINATES (ANGSTROEM)
---------------------------------
  C     -0.017680    1.432964    0.014778
  O     -0.003044    0.012416    0.003729
  C      0.598635   -0.564472   -1.049420
  C      0.719534   -1.919848   -1.246013
  O      1.384712   -2.128593   -2.415806
  N      1.702020   -0.921279   -2.989830
  C      1.237863    0.006010   -2.182887
  C      0.299464   -3.024191   -0.492247
  C     -0.066456   -3.965000    0.164273
  H      1.000610    1.841462    0.029567
  H     -0.556258    1.832304   -0.853827
  H     -0.537333    1.725546    0.927527
  H      1.375900    1.045658   -2.438767
  H     -0.388798   -4.794995    0.743017

 Total Charge           Charge          ....    0
 Multiplicity           Mult            ....    1
 Number of Electrons    NEL             ....   64
 Basis Dimension        Dim             ....  309

ORBITAL ENERGIES
----------------

  NO   OCC          E(Eh)            E(eV)
   0   2.0000     -20.653617      -562.0135
   1   2.0000     -20.608081      -560.7744
   2   2.0000     -15.640818      -425.6083
   3   2.0000     -11.326482      -308.2092
   4   2.0000     -11.318356      -307.9881
   5   2.0000     -11.305026      -307.6254
   6   2.0000     -11.290499      -307.2301
   7   2.0000     -11.255440      -306.2761
   8   2.0000     -11.250955      -306.1540
   9   2.0000      -1.505770       -40.9741
  10   2.0000      -1.435577       -39.0640
  11   2.0000      -1.174705       -31.9653
  12   2.0000      -1.104687       -30.0601
  13   2.0000      -1.033884       -28.1334
  14   2.0000      -0.968328       -26.3495
  15   2.0000      -0.873871       -23.7792
  16   2.0000      -0.833841       -22.6900
  17   2.0000      -0.779796       -21.2193
  18   2.0000      -0.725182       -19.7332
  19   2.0000      -0.690570       -18.7914
  20   2.0000      -0.689143       -18.7525
  21   2.0000      -0.671068       -18.2607
  22   2.0000      -0.656656       -17.8685
  23   2.0000      -0.603730       -16.4283
  24   2.0000      -0.580376       -15.7928
  25   2.0000      -0.541593       -14.7375
  26   2.0000      -0.529068       -14.3967
  27   2.0000      -0.489439       -13.3183
  28   2.0000      -0.459641       -12.5075
  29   2.0000      -0.419806       -11.4235
  30   2.0000      -0.415704       -11.3119
  31   2.0000      -0.325284        -8.8514
  32   0.0000       0.078258         2.1295
  33   0.0000       0.126711         3.4480
  34   0.0000       0.153139         4.1671
  35   0.0000       0.155779         4.2390
  36   0.0000       0.178092         4.8461

MULLIKEN ATOMIC CHARGES
-----------------------
   0 C :   -0.246729
   1 O :   -0.276592
   2 C :    0.187737
   3 C :   -0.061327
   4 O :   -0.091761
   5 N :   -0.111690
   6 C :   -0.162220
   7 C :    0.061440
   8 C :   -0.092028
   9 H :    0.137920
  10 H :    0.137906
  11 H :    0.157754
  12 H :    0.157231
  13 H :    0.202361
Sum of atomic charges:   -0.0000000

LOEWDIN ATOMIC CHARGES
----------------------
   0 C :   -0.315249
   1 O :    0.243453
   2 C :   -0.271598
   3 C :   -0.241886
   4 O :    0.307358
   5 N :    0.032931
   6 C :   -0.259115
   7 C :   -0.072543
   8 C :   -0.043742
   9 H :    0.111652
  10 H :    0.111644
  11 H :    0.120516
  12 H :    0.145152
  13 H :    0.131426

  Mayer bond orders larger than 0.1
B(  0-C ,  1-O ) :   0.8650 B(  0-C ,  9-H ) :   0.9338 B(  0-C , 10-H ) :   0.9338
B(  0-C , 11-H ) :   0.9380 B(  1-O ,  2-C ) :   1.1203 B(  2-C ,  3-C ) :   1.3882
B(  2-C ,  6-C ) :   1.2176 B(  3-C ,  4-O ) :   1.1040 B(  3-C ,  5-N ) :   0.1091
B(  3-C ,  7-C ) :   1.1963 B(  3-C ,  8-C ) :  -0.1368 B(  4-O ,  5-N ) :   0.9196
B(  5-N ,  6-C ) :   1.5462 B(  6-C , 12-H ) :   0.9219 B(  7-C ,  8-C ) :   2.5918
B(  8-C , 13-H ) :   0.8708

MP2 TOTAL ENERGY:     -435.886198980 Eh
FINAL SINGLE POINT ENERGY      -435.886198980285

DIPOLE MOMENT
-------------
                                X             Y             Z
Electronic contribution:      1.70316      -5.98788      -2.93509
Nuclear contribution   :     -2.20751       6.94735       3.81376
                        -----------------------------------------
Total Dipole Moment    :     -0.50434       0.95947       0.87867
                        -----------------------------------------
Magnitude (a.u.)       :      1.39535
Magnitude (Debye)      :      3.54669

                             ****ORCA TERMINATED NORMALLY****
TOTAL RUN TIME: 0 days 0 hours 14 minutes 22 seconds 781 msec
