                         Program Version 3.0.3 - RELEASE   -
|  1> ! RI-MP2 RIJK def2-TZVP def2-TZVP/C def2-TZVP/JK TIGHTSCF
|  2> % maxcore 2000
|  3> % mp2 density relaxed end
|  4> *xyz 0 1
|  5>  C       -0.1176647740     1.6406090535     0.0021035013
|  6>  C        0.0622814946     0.1295048048     0.0151678427
|  7>  C        1.0910441509    -0.6150705339    -0.8740644207
|  8>  C        2.4419592643     0.0859402757    -0.9031009964
|  9>  O        2.7248964350     0.7047305886     0.3500685298
| 10>  C        2.1443845702     0.0711974714     1.4880632528
| 11>  C        0.8428500419    -0.6273681927     1.1203067993
| 12>  O        1.1860740159    -1.6557586198     0.1440117012
| 13>  H        0.8305688967     2.1668007063     0.1232822371
| 14>  H       -0.5738941656     1.9636060270    -0.9402196000
| 15>  H       -0.7912905962     1.9528231997     0.8078314424
| 16>  H       -0.9025132938    -0.3707278134    -0.1079835595
| 17>  H        0.7934182472    -1.0031792416    -1.8526738781
| 18>  H        3.2135358075    -0.6571366338    -1.1556164593
| 19>  H        2.4684282226     0.8844990581    -1.6538511769
| 20>  H        2.8316626611    -0.6760542218     1.9129415157
| 21>  H        1.9848368182     0.8605412450     2.2320412845
| 22>  H        0.3150412635    -1.0268808831     1.9913370939
| 23> *
| 24>
| 25>                          ****END OF INPUT****

CARTESIAN COORDINATES (ANGSTROEM)
---------------------------------
  C     -0.117665    1.640609    0.002104
  C      0.062281    0.129505    0.015168
  C      1.091044   -0.615071   -0.874064
  C      2.441959    0.085940   -0.903101
  O      2.724896    0.704731    0.350069
  C      2.144385    0.071197    1.488063
  C      0.842850   -0.627368    1.120307
  O      1.186074   -1.655759    0.144012
  H      0.830569    2.166801    0.123282
  H     -0.573894    1.963606   -0.940220
  H     -0.791291    1.952823    0.807831
  H     -0.902513   -0.370728   -0.107984
  H      0.793418   -1.003179   -1.852674
  H      3.213536   -0.657137   -1.155616
  H      2.468428    0.884499   -1.653851
  H      2.831663   -0.676054    1.912942
  H      1.984837    0.860541    2.232041
  H      0.315041   -1.026881    1.991337

 Total Charge           Charge          ....    0
 Multiplicity           Mult            ....    1
 Number of Electrons    NEL             ....   62
 Basis Dimension        Dim             ....  308

ORBITAL ENERGIES
----------------

  NO   OCC          E(Eh)            E(eV)
   0   2.0000     -20.554014      -559.3032
   1   2.0000     -20.548691      -559.1583
   2   2.0000     -11.286394      -307.1184
   3   2.0000     -11.286381      -307.1180
   4   2.0000     -11.276336      -306.8447
   5   2.0000     -11.276318      -306.8442
   6   2.0000     -11.239800      -305.8505
   7   2.0000     -11.219335      -305.2936
   8   2.0000      -1.401775       -38.1442
   9   2.0000      -1.352123       -36.7931
  10   2.0000      -1.056963       -28.7614
  11   2.0000      -1.031187       -28.0600
  12   2.0000      -0.942538       -25.6478
  13   2.0000      -0.875758       -23.8306
  14   2.0000      -0.864095       -23.5132
  15   2.0000      -0.726942       -19.7811
  16   2.0000      -0.700955       -19.0740
  17   2.0000      -0.663217       -18.0470
  18   2.0000      -0.633972       -17.2513
  19   2.0000      -0.627622       -17.0785
  20   2.0000      -0.615670       -16.7532
  21   2.0000      -0.570279       -15.5181
  22   2.0000      -0.560558       -15.2535
  23   2.0000      -0.549252       -14.9459
  24   2.0000      -0.543982       -14.8025
  25   2.0000      -0.515121       -14.0172
  26   2.0000      -0.503659       -13.7053
  27   2.0000      -0.457503       -12.4493
  28   2.0000      -0.441614       -12.0169
  29   2.0000      -0.428651       -11.6642
  30   2.0000      -0.392892       -10.6911
  31   0.0000       0.131148         3.5687
  32   0.0000       0.166029         4.5179
  33   0.0000       0.171405         4.6642
  34   0.0000       0.176769         4.8101
  35   0.0000       0.199951         5.4409

MULLIKEN ATOMIC CHARGES
-----------------------
   0 C :   -0.444568
   1 C :   -0.052695
   2 C :    0.027977
   3 C :   -0.053317
   4 O :   -0.337749
   5 C :   -0.053313
   6 C :    0.027979
   7 O :   -0.330817
   8 H :    0.165552
   9 H :    0.132561
  10 H :    0.132560
  11 H :    0.108898
  12 H :    0.119867
  13 H :    0.105844
  14 H :    0.112757
  15 H :    0.105844
  16 H :    0.112754
  17 H :    0.119867
Sum of atomic charges:   -0.0000000

LOEWDIN ATOMIC CHARGES
----------------------
   0 C :   -0.297057
   1 C :   -0.221613
   2 C :   -0.262193
   3 C :   -0.294590
   4 O :    0.143630
   5 C :   -0.294588
   6 C :   -0.262193
   7 O :    0.151305
   8 H :    0.131401
   9 H :    0.126818
  10 H :    0.126819
  11 H :    0.156819
  12 H :    0.135869
  13 H :    0.129683
  14 H :    0.132170
  15 H :    0.129683
  16 H :    0.132170
  17 H :    0.135869

  Mayer bond orders larger than 0.1
B(  0-C ,  1-C ) :   0.8921 B(  0-C ,  8-H ) :   0.9295 B(  0-C ,  9-H ) :   0.9330
B(  0-C , 10-H ) :   0.9330 B(  1-C ,  2-C ) :   0.9444 B(  1-C ,  6-C ) :   0.9444
B(  1-C , 11-H ) :   0.9224 B(  2-C ,  3-C ) :   0.9496 B(  2-C ,  7-O ) :   0.9241
B(  2-C , 12-H ) :   0.9057 B(  3-C ,  4-O ) :   0.9154 B(  3-C , 13-H ) :   0.9221
B(  3-C , 14-H ) :   0.9194 B(  4-O ,  5-C ) :   0.9154 B(  5-C ,  6-C ) :   0.9496
B(  5-C , 15-H ) :   0.9221 B(  5-C , 16-H ) :   0.9194 B(  6-C ,  7-O ) :   0.9241
B(  6-C , 17-H ) :   0.9057

MP2 TOTAL ENERGY:     -384.287009081 Eh
FINAL SINGLE POINT ENERGY      -384.287009081075

DIPOLE MOMENT
-------------
                                X             Y             Z
Electronic contribution:      2.28587      -3.73198       0.26142
Nuclear contribution   :     -2.80775       4.06317      -0.32432
                        -----------------------------------------
Total Dipole Moment    :     -0.52188       0.33120      -0.06290
                        -----------------------------------------
Magnitude (a.u.)       :      0.62129
Magnitude (Debye)      :      1.57920

                             ****ORCA TERMINATED NORMALLY****
TOTAL RUN TIME: 0 days 0 hours 12 minutes 57 seconds 225 msec
