                         Program Version 3.0.3 - RELEASE   -
|  1> ! RI-MP2 RIJK def2-TZVP def2-TZVP/C def2-TZVP/JK TIGHTSCF
|  2> % maxcore 2000
|  3> % mp2 density relaxed end
|  4> *xyz 0 1
|  5>  C       -0.0821386946     1.3332043466     0.0208394279
|  6>  O       -0.1810847359    -0.0588773376    -0.1664918348
|  7>  C        0.7619051092    -0.5689620630    -1.0945396346
|  8>  C        0.6608653537    -2.0706002019    -1.0433708147
|  9>  O        0.9038127422    -2.5875538329     0.2349556728
| 10>  C       -0.3312795766    -2.7908868469    -1.9246488027
| 11>  C        1.1614574470    -2.9021641625    -2.1788465905
| 12>  H        0.9130455661     1.6253669026     0.3908555703
| 13>  H       -0.2762788074     1.8840319210    -0.9126325100
| 14>  H       -0.8337469891     1.6190501180     0.7607384983
| 15>  H        0.5582781144    -0.1917547046    -2.1094958097
| 16>  H        1.7787070502    -0.2512069222    -0.8098548100
| 17>  H        0.3222333895    -2.0949592754     0.8276967452
| 18>  H       -0.8241448267    -3.6528108382    -1.4905978085
| 19>  H       -0.9350609736    -2.2145386383    -2.6173100373
| 20>  H        1.5823536049    -2.4054016181    -3.0466351499
| 21>  H        1.6458385968    -3.8331487166    -1.9079901519
| 22> *
| 23>
| 24>                          ****END OF INPUT****

CARTESIAN COORDINATES (ANGSTROEM)
---------------------------------
  C     -0.082139    1.333204    0.020839
  O     -0.181085   -0.058877   -0.166492
  C      0.761905   -0.568962   -1.094540
  C      0.660865   -2.070600   -1.043371
  O      0.903813   -2.587554    0.234956
  C     -0.331280   -2.790887   -1.924649
  C      1.161457   -2.902164   -2.178847
  H      0.913046    1.625367    0.390856
  H     -0.276279    1.884032   -0.912633
  H     -0.833747    1.619050    0.760738
  H      0.558278   -0.191755   -2.109496
  H      1.778707   -0.251207   -0.809855
  H      0.322233   -2.094959    0.827697
  H     -0.824145   -3.652811   -1.490598
  H     -0.935061   -2.214539   -2.617310
  H      1.582354   -2.405402   -3.046635
  H      1.645839   -3.833149   -1.907990

 Total Charge           Charge          ....    0
 Multiplicity           Mult            ....    1
 Number of Electrons    NEL             ....   56
 Basis Dimension        Dim             ....  277

ORBITAL ENERGIES
----------------

  NO   OCC          E(Eh)            E(eV)
   0   2.0000     -20.564498      -559.5884
   1   2.0000     -20.552282      -559.2560
   2   2.0000     -11.283291      -307.0340
   3   2.0000     -11.281467      -306.9843
   4   2.0000     -11.277543      -306.8775
   5   2.0000     -11.223589      -305.4094
   6   2.0000     -11.220928      -305.3370
   7   2.0000      -1.390538       -37.8385
   8   2.0000      -1.359468       -36.9930
   9   2.0000      -1.128936       -30.7199
  10   2.0000      -0.986453       -26.8427
  11   2.0000      -0.892842       -24.2955
  12   2.0000      -0.828073       -22.5330
  13   2.0000      -0.778257       -21.1775
  14   2.0000      -0.704682       -19.1754
  15   2.0000      -0.678209       -18.4550
  16   2.0000      -0.660360       -17.9693
  17   2.0000      -0.645761       -17.5720
  18   2.0000      -0.613003       -16.6807
  19   2.0000      -0.589192       -16.0327
  20   2.0000      -0.564991       -15.3742
  21   2.0000      -0.536665       -14.6034
  22   2.0000      -0.514816       -14.0089
  23   2.0000      -0.498836       -13.5740
  24   2.0000      -0.489308       -13.3147
  25   2.0000      -0.435362       -11.8468
  26   2.0000      -0.420347       -11.4382
  27   2.0000      -0.387890       -10.5550
  28   0.0000       0.138697         3.7741
  29   0.0000       0.163475         4.4484
  30   0.0000       0.173585         4.7235
  31   0.0000       0.186796         5.0830
  32   0.0000       0.188633         5.1330

MULLIKEN ATOMIC CHARGES
-----------------------
   0 C :   -0.220561
   1 O :   -0.324895
   2 C :   -0.099924
   3 C :    0.300174
   4 O :   -0.479773
   5 C :   -0.286658
   6 C :   -0.308544
   7 H :    0.116506
   8 H :    0.113820
   9 H :    0.140328
  10 H :    0.094503
  11 H :    0.104211
  12 H :    0.330035
  13 H :    0.129421
  14 H :    0.123541
  15 H :    0.130944
  16 H :    0.136873
Sum of atomic charges:    0.0000000

LOEWDIN ATOMIC CHARGES
----------------------
   0 C :   -0.360533
   1 O :    0.126899
   2 C :   -0.291128
   3 C :   -0.382063
   4 O :    0.023187
   5 C :   -0.211398
   6 C :   -0.205677
   7 H :    0.102640
   8 H :    0.102739
   9 H :    0.113957
  10 H :    0.127692
  11 H :    0.126995
  12 H :    0.184619
  13 H :    0.136316
  14 H :    0.131789
  15 H :    0.133089
  16 H :    0.140878

  Mayer bond orders larger than 0.1
B(  0-C ,  1-O ) :   0.9159 B(  0-C ,  7-H ) :   0.9379 B(  0-C ,  8-H ) :   0.9376
B(  0-C ,  9-H ) :   0.9388 B(  1-O ,  2-C ) :   0.9297 B(  2-C ,  3-C ) :   0.9605
B(  2-C , 10-H ) :   0.9108 B(  2-C , 11-H ) :   0.9208 B(  3-C ,  4-O ) :   0.9644
B(  3-C ,  5-C ) :   0.8628 B(  3-C ,  6-C ) :   0.8699 B(  4-O , 12-H ) :   0.8259
B(  5-C ,  6-C ) :   0.9214 B(  5-C , 13-H ) :   0.9238 B(  5-C , 14-H ) :   0.9147
B(  6-C , 15-H ) :   0.9251 B(  6-C , 16-H ) :   0.9164

MP2 TOTAL ENERGY:     -346.262340263 Eh
FINAL SINGLE POINT ENERGY      -346.262340263476

DIPOLE MOMENT
-------------
                                X             Y             Z
Electronic contribution:      0.03289      -2.77576       2.14322
Nuclear contribution   :     -0.13441       3.56603      -2.44162
                        -----------------------------------------
Total Dipole Moment    :     -0.10152       0.79027      -0.29840
                        -----------------------------------------
Magnitude (a.u.)       :      0.85081
Magnitude (Debye)      :      2.16259

                             ****ORCA TERMINATED NORMALLY****
TOTAL RUN TIME: 0 days 0 hours 8 minutes 27 seconds 947 msec
