                         Program Version 3.0.3 - RELEASE   -
|  1> ! RI-MP2 RIJK def2-TZVP def2-TZVP/C def2-TZVP/JK TIGHTSCF
|  2> % maxcore 2000
|  3> % mp2 density relaxed end
|  4> *xyz 0 1
|  5>  C       -0.8940894156     0.6169980710     0.1563961732
|  6>  C        0.4218822530    -0.0892395156     0.3451629184
|  7>  N        1.3587989445     0.2254065807     1.1494719361
|  8>  N        0.6696463115    -1.2272389327    -0.4418171089
|  9>  C       -0.1118299911    -1.8318300560    -1.3942324151
| 10>  O       -1.2128547172    -1.4852294233    -1.7538239929
| 11>  H       -1.0137362333     0.9538274171    -0.8759795982
| 12>  H       -1.7320568385    -0.0556817483     0.3535127504
| 13>  H       -0.9430852438     1.4740152627     0.8313998887
| 14>  H        1.1062489333     1.0555972675     1.6825566942
| 15>  H        1.5733915357    -1.6406108224    -0.2529991409
| 16>  H        0.4066101114    -2.7152885807    -1.8150361351
| 17> *
| 18>
| 19>                          ****END OF INPUT****

CARTESIAN COORDINATES (ANGSTROEM)
---------------------------------
  C     -0.894089    0.616998    0.156396
  C      0.421882   -0.089240    0.345163
  N      1.358799    0.225407    1.149472
  N      0.669646   -1.227239   -0.441817
  C     -0.111830   -1.831830   -1.394232
  O     -1.212855   -1.485229   -1.753824
  H     -1.013736    0.953827   -0.875980
  H     -1.732057   -0.055682    0.353513
  H     -0.943085    1.474015    0.831400
  H      1.106249    1.055597    1.682557
  H      1.573392   -1.640611   -0.252999
  H      0.406610   -2.715289   -1.815036

 Total Charge           Charge          ....    0
 Multiplicity           Mult            ....    1
 Number of Electrons    NEL             ....   46
 Basis Dimension        Dim             ....  222

ORBITAL ENERGIES
----------------

  NO   OCC          E(Eh)            E(eV)
   0   2.0000     -20.545545      -559.0727
   1   2.0000     -15.613116      -424.8545
   2   2.0000     -15.543654      -422.9643
   3   2.0000     -11.372122      -309.4512
   4   2.0000     -11.336979      -308.4949
   5   2.0000     -11.240478      -305.8690
   6   2.0000      -1.406616       -38.2760
   7   2.0000      -1.291879       -35.1538
   8   2.0000      -1.181817       -32.1589
   9   2.0000      -1.003295       -27.3011
  10   2.0000      -0.900559       -24.5054
  11   2.0000      -0.776435       -21.1279
  12   2.0000      -0.746231       -20.3060
  13   2.0000      -0.652625       -17.7588
  14   2.0000      -0.643705       -17.5161
  15   2.0000      -0.626223       -17.0404
  16   2.0000      -0.619469       -16.8566
  17   2.0000      -0.565941       -15.4000
  18   2.0000      -0.565732       -15.3944
  19   2.0000      -0.492804       -13.4099
  20   2.0000      -0.452773       -12.3206
  21   2.0000      -0.438471       -11.9314
  22   2.0000      -0.386661       -10.5216
  23   0.0000       0.130296         3.5455
  24   0.0000       0.133662         3.6371
  25   0.0000       0.146735         3.9929
  26   0.0000       0.178881         4.8676
  27   0.0000       0.195546         5.3211

MULLIKEN ATOMIC CHARGES
-----------------------
   0 C :   -0.334083
   1 C :    0.126205
   2 N :   -0.382899
   3 N :   -0.266506
   4 C :    0.197728
   5 O :   -0.340022
   6 H :    0.157009
   7 H :    0.157031
   8 H :    0.120496
   9 H :    0.217305
  10 H :    0.252723
  11 H :    0.095014
Sum of atomic charges:    0.0000000

LOEWDIN ATOMIC CHARGES
----------------------
   0 C :   -0.272965
   1 C :   -0.367332
   2 N :   -0.063889
   3 N :    0.134171
   4 C :   -0.409557
   5 O :    0.084305
   6 H :    0.142265
   7 H :    0.142253
   8 H :    0.127678
   9 H :    0.164544
  10 H :    0.202936
  11 H :    0.115590

  Mayer bond orders larger than 0.1
B(  0-C ,  1-C ) :   0.9802 B(  0-C ,  6-H ) :   0.9086 B(  0-C ,  7-H ) :   0.9086
B(  0-C ,  8-H ) :   0.9246 B(  1-C ,  2-N ) :   1.9469 B(  1-C ,  3-N ) :   0.9739
B(  2-N ,  9-H ) :   0.8636 B(  3-N ,  4-C ) :   1.0939 B(  3-N , 10-H ) :   0.8531
B(  4-C ,  5-O ) :   1.9016 B(  4-C , 11-H ) :   0.9273

MP2 TOTAL ENERGY:     -302.091730490 Eh
FINAL SINGLE POINT ENERGY      -302.091730489692

DIPOLE MOMENT
-------------
                                X             Y             Z
Electronic contribution:      0.93346      -2.58034      -1.57147
Nuclear contribution   :     -0.66315       2.67446       1.80741
                        -----------------------------------------
Total Dipole Moment    :      0.27031       0.09413       0.23595
                        -----------------------------------------
Magnitude (a.u.)       :      0.37094
Magnitude (Debye)      :      0.94286

                             ****ORCA TERMINATED NORMALLY****
TOTAL RUN TIME: 0 days 0 hours 4 minutes 12 seconds 366 msec
