                         Program Version 3.0.3 - RELEASE   -
|  1> ! RI-MP2 RIJK def2-TZVP def2-TZVP/C def2-TZVP/JK TIGHTSCF
|  2> % maxcore 2000
|  3> % mp2 density relaxed end
|  4> *xyz 0 1
|  5>  C        0.0118037528     1.5839415317     0.1195728084
|  6>  C       -0.0047670542     0.0489509016     0.0145423456
|  7>  C        0.7711601881    -0.5439633774     1.2069649972
|  8>  C       -1.4536136323    -0.4691472383     0.0419069463
|  9>  C        0.6768402956    -0.4334417039    -1.2876541368
| 10>  C        0.0435471519    -0.0187132449    -2.6254241295
| 11>  C        1.2519073432    -0.0419065826    -3.5714347897
| 12>  C        2.3706366768     0.4668109067    -2.6557916146
| 13>  O        2.0280410506     0.0498452759    -1.3356399536
| 14>  H        1.0332137247     1.9637315690     0.0352167963
| 15>  H       -0.5967228814     2.0586127539    -0.6570344701
| 16>  H       -0.3927593237     1.9020499823     1.0862810281
| 17>  H        0.3222627118    -0.2312965007     2.1559205462
| 18>  H        0.7609175509    -1.6395376515     1.1772485414
| 19>  H        1.8137119684    -0.2166920570     1.1925954696
| 20>  H       -2.0578038704    -0.0318992310    -0.7597424480
| 21>  H       -1.4899062589    -1.5594909040    -0.0645770165
| 22>  H       -1.9326507801    -0.2145727004     0.9932915771
| 23>  H        0.7119572318    -1.5359893098    -1.2457508584
| 24>  H       -0.7572068470    -0.6944558308    -2.9333059033
| 25>  H       -0.3722061836     0.9923620436    -2.5662061090
| 26>  H        1.4613513163    -1.0666519879    -3.8967014741
| 27>  H        1.1212552737     0.5748036646    -4.4641074220
| 28>  H        3.3554044549     0.0602033078    -2.9123781234
| 29>  H        2.4397711399     1.5645826831    -2.6886328572
| 30> *
| 31>
| 32>                          ****END OF INPUT****

CARTESIAN COORDINATES (ANGSTROEM)
---------------------------------
  C      0.011804    1.583942    0.119573
  C     -0.004767    0.048951    0.014542
  C      0.771160   -0.543963    1.206965
  C     -1.453614   -0.469147    0.041907
  C      0.676840   -0.433442   -1.287654
  C      0.043547   -0.018713   -2.625424
  C      1.251907   -0.041907   -3.571435
  C      2.370637    0.466811   -2.655792
  O      2.028041    0.049845   -1.335640
  H      1.033214    1.963732    0.035217
  H     -0.596723    2.058613   -0.657034
  H     -0.392759    1.902050    1.086281
  H      0.322263   -0.231297    2.155921
  H      0.760918   -1.639538    1.177249
  H      1.813712   -0.216692    1.192595
  H     -2.057804   -0.031899   -0.759742
  H     -1.489906   -1.559491   -0.064577
  H     -1.932651   -0.214573    0.993292
  H      0.711957   -1.535989   -1.245751
  H     -0.757207   -0.694456   -2.933306
  H     -0.372206    0.992362   -2.566206
  H      1.461351   -1.066652   -3.896701
  H      1.121255    0.574804   -4.464107
  H      3.355404    0.060203   -2.912378
  H      2.439771    1.564583   -2.688633

 Total Charge           Charge          ....    0
 Multiplicity           Mult            ....    1
 Number of Electrons    NEL             ....   72
 Basis Dimension        Dim             ....  375

ORBITAL ENERGIES
----------------

  NO   OCC          E(Eh)            E(eV)
   0   2.0000     -20.539864      -558.9181
   1   2.0000     -11.269949      -306.6709
   2   2.0000     -11.268008      -306.6181
   3   2.0000     -11.229469      -305.5694
   4   2.0000     -11.224263      -305.4277
   5   2.0000     -11.221927      -305.3641
   6   2.0000     -11.210210      -305.0453
   7   2.0000     -11.203007      -304.8493
   8   2.0000     -11.200750      -304.7879
   9   2.0000      -1.364662       -37.1343
  10   2.0000      -1.098113       -29.8812
  11   2.0000      -1.053822       -28.6760
  12   2.0000      -0.972827       -26.4720
  13   2.0000      -0.926660       -25.2157
  14   2.0000      -0.921792       -25.0832
  15   2.0000      -0.822755       -22.3883
  16   2.0000      -0.807066       -21.9614
  17   2.0000      -0.726654       -19.7733
  18   2.0000      -0.679546       -18.4914
  19   2.0000      -0.663138       -18.0449
  20   2.0000      -0.608407       -16.5556
  21   2.0000      -0.604282       -16.4434
  22   2.0000      -0.592256       -16.1161
  23   2.0000      -0.579141       -15.7592
  24   2.0000      -0.554997       -15.1022
  25   2.0000      -0.540174       -14.6989
  26   2.0000      -0.528798       -14.3893
  27   2.0000      -0.513969       -13.9858
  28   2.0000      -0.508010       -13.8236
  29   2.0000      -0.497189       -13.5292
  30   2.0000      -0.483023       -13.1437
  31   2.0000      -0.472808       -12.8658
  32   2.0000      -0.454660       -12.3719
  33   2.0000      -0.452216       -12.3054
  34   2.0000      -0.435568       -11.8524
  35   2.0000      -0.398222       -10.8362
  36   0.0000       0.130342         3.5468
  37   0.0000       0.153902         4.1879
  38   0.0000       0.162032         4.4091
  39   0.0000       0.173214         4.7134
  40   0.0000       0.190989         5.1971

MULLIKEN ATOMIC CHARGES
-----------------------
   0 C :   -0.454458
   1 C :    0.124267
   2 C :   -0.417703
   3 C :   -0.424051
   4 C :    0.072382
   5 C :   -0.266155
   6 C :   -0.226943
   7 C :   -0.034993
   8 O :   -0.332308
   9 H :    0.150442
  10 H :    0.119189
  11 H :    0.130483
  12 H :    0.124987
  13 H :    0.120717
  14 H :    0.151103
  15 H :    0.131583
  16 H :    0.129362
  17 H :    0.134525
  18 H :    0.081385
  19 H :    0.131134
  20 H :    0.116001
  21 H :    0.113629
  22 H :    0.127070
  23 H :    0.109117
  24 H :    0.089234
Sum of atomic charges:   -0.0000000

LOEWDIN ATOMIC CHARGES
----------------------
   0 C :   -0.272518
   1 C :   -0.335185
   2 C :   -0.270467
   3 C :   -0.269192
   4 C :   -0.269018
   5 C :   -0.240445
   6 C :   -0.264240
   7 C :   -0.305050
   8 O :    0.162970
   9 H :    0.130452
  10 H :    0.119661
  11 H :    0.125985
  12 H :    0.122573
  13 H :    0.123649
  14 H :    0.130378
  15 H :    0.124120
  16 H :    0.125669
  17 H :    0.126974
  18 H :    0.142459
  19 H :    0.138426
  20 H :    0.139826
  21 H :    0.137698
  22 H :    0.135651
  23 H :    0.121829
  24 H :    0.117796

  Mayer bond orders larger than 0.1
B(  0-C ,  1-C ) :   0.9014 B(  0-C ,  9-H ) :   0.9376 B(  0-C , 10-H ) :   0.9329
B(  0-C , 11-H ) :   0.9357 B(  1-C ,  2-C ) :   0.9117 B(  1-C ,  3-C ) :   0.9012
B(  1-C ,  4-C ) :   0.8768 B(  2-C , 12-H ) :   0.9366 B(  2-C , 13-H ) :   0.9301
B(  2-C , 14-H ) :   0.9348 B(  3-C , 15-H ) :   0.9339 B(  3-C , 16-H ) :   0.9338
B(  3-C , 17-H ) :   0.9359 B(  4-C ,  5-C ) :   0.9118 B(  4-C ,  8-O ) :   0.9310
B(  4-C , 18-H ) :   0.9310 B(  5-C ,  6-C ) :   0.9236 B(  5-C , 19-H ) :   0.9256
B(  5-C , 20-H ) :   0.9318 B(  6-C ,  7-C ) :   0.9580 B(  6-C , 21-H ) :   0.9267
B(  6-C , 22-H ) :   0.9288 B(  7-C ,  8-O ) :   0.9407 B(  7-C , 23-H ) :   0.9274
B(  7-C , 24-H ) :   0.9264

MP2 TOTAL ENERGY:     -388.840015071 Eh
FINAL SINGLE POINT ENERGY      -388.840015070929

DIPOLE MOMENT
-------------
                                X             Y             Z
Electronic contribution:      4.15007      -0.65878      -2.57676
Nuclear contribution   :     -4.48962       0.65246       2.06108
                        -----------------------------------------
Total Dipole Moment    :     -0.33955      -0.00632      -0.51568
                        -----------------------------------------
Magnitude (a.u.)       :      0.61746
Magnitude (Debye)      :      1.56947

                             ****ORCA TERMINATED NORMALLY****
TOTAL RUN TIME: 0 days 0 hours 25 minutes 4 seconds 371 msec
