                         Program Version 3.0.3 - RELEASE   -
|  1> ! RI-MP2 RIJK def2-TZVP def2-TZVP/C def2-TZVP/JK TIGHTSCF
|  2> % maxcore 2000
|  3> % mp2 density relaxed end
|  4> *xyz 0 1
|  5>  C        0.3581172852     1.4058551458    -0.0796442586
|  6>  C       -0.0103846301    -0.0901291004    -0.0219146353
|  7>  C        0.6147819826    -0.8532691026    -1.2379346047
|  8>  C        1.8591612363    -1.4761839651    -0.6595821530
|  9>  C        1.8740002269    -1.4455425361     0.6699503594
| 10>  C        0.6455977299    -0.7876120825     1.2481809415
| 11>  O        0.8906968982     0.0739624465     2.3393386454
| 12>  C       -1.4667699559    -0.2292003546     0.0048891392
| 13>  N       -2.6169974147    -0.3459095358     0.0253277936
| 14>  H        1.4441360433     1.5175789686    -0.1648203091
| 15>  H       -0.1004873867     1.8747530208    -0.9535333547
| 16>  H        0.0168377428     1.9261819792     0.8166138845
| 17>  H       -0.0679104662    -1.6239056240    -1.6152890210
| 18>  H        0.8165559434    -0.1780777246    -2.0766726227
| 19>  H        2.6183507340    -1.9305468836    -1.2863876768
| 20>  H        2.6374225434    -1.8656576079     1.3148451507
| 21>  H       -0.0488918043    -1.5366848024     1.6455396038
| 22>  H        1.6467170120     0.6296883785     2.1208258279
| 23> *
| 24>
| 25>                          ****END OF INPUT****

CARTESIAN COORDINATES (ANGSTROEM)
---------------------------------
  C      0.358117    1.405855   -0.079644
  C     -0.010385   -0.090129   -0.021915
  C      0.614782   -0.853269   -1.237935
  C      1.859161   -1.476184   -0.659582
  C      1.874000   -1.445543    0.669950
  C      0.645598   -0.787612    1.248181
  O      0.890697    0.073962    2.339339
  C     -1.466770   -0.229200    0.004889
  N     -2.616997   -0.345910    0.025328
  H      1.444136    1.517579   -0.164820
  H     -0.100487    1.874753   -0.953533
  H      0.016838    1.926182    0.816614
  H     -0.067910   -1.623906   -1.615289
  H      0.816556   -0.178078   -2.076673
  H      2.618351   -1.930547   -1.286388
  H      2.637423   -1.865658    1.314845
  H     -0.048892   -1.536685    1.645540
  H      1.646717    0.629688    2.120826

 Total Charge           Charge          ....    0
 Multiplicity           Mult            ....    1
 Number of Electrons    NEL             ....   66
 Basis Dimension        Dim             ....  333

ORBITAL ENERGIES
----------------

  NO   OCC          E(Eh)            E(eV)
   0   2.0000     -20.576318      -559.9101
   1   2.0000     -15.564995      -423.5450
   2   2.0000     -11.311115      -307.7911
   3   2.0000     -11.293678      -307.3166
   4   2.0000     -11.267080      -306.5928
   5   2.0000     -11.259139      -306.3768
   6   2.0000     -11.256810      -306.3134
   7   2.0000     -11.246542      -306.0340
   8   2.0000     -11.244371      -305.9749
   9   2.0000      -1.386201       -37.7204
  10   2.0000      -1.218091       -33.1459
  11   2.0000      -1.162832       -31.6423
  12   2.0000      -1.055923       -28.7331
  13   2.0000      -0.975182       -26.5360
  14   2.0000      -0.937121       -25.5004
  15   2.0000      -0.838795       -22.8248
  16   2.0000      -0.778372       -21.1806
  17   2.0000      -0.743719       -20.2376
  18   2.0000      -0.670797       -18.2533
  19   2.0000      -0.657261       -17.8850
  20   2.0000      -0.627104       -17.0644
  21   2.0000      -0.615300       -16.7432
  22   2.0000      -0.589233       -16.0338
  23   2.0000      -0.576233       -15.6801
  24   2.0000      -0.563290       -15.3279
  25   2.0000      -0.540478       -14.7072
  26   2.0000      -0.534347       -14.5403
  27   2.0000      -0.520170       -14.1546
  28   2.0000      -0.502368       -13.6701
  29   2.0000      -0.488635       -13.2964
  30   2.0000      -0.450304       -12.2534
  31   2.0000      -0.432538       -11.7700
  32   2.0000      -0.379781       -10.3344
  33   0.0000       0.112266         3.0549
  34   0.0000       0.128970         3.5094
  35   0.0000       0.150606         4.0982
  36   0.0000       0.162389         4.4188
  37   0.0000       0.169304         4.6070

MULLIKEN ATOMIC CHARGES
-----------------------
   0 C :   -0.528649
   1 C :    0.308393
   2 C :   -0.198379
   3 C :   -0.168127
   4 C :   -0.232299
   5 C :    0.088095
   6 O :   -0.452024
   7 C :   -0.273920
   8 N :   -0.049632
   9 H :    0.150734
  10 H :    0.155093
  11 H :    0.176102
  12 H :    0.151151
  13 H :    0.136511
  14 H :    0.140283
  15 H :    0.143572
  16 H :    0.132439
  17 H :    0.320658
Sum of atomic charges:   -0.0000000

LOEWDIN ATOMIC CHARGES
----------------------
   0 C :   -0.253944
   1 C :   -0.237068
   2 C :   -0.176966
   3 C :   -0.141658
   4 C :   -0.150311
   5 C :   -0.270652
   6 O :    0.005671
   7 C :   -0.159330
   8 N :    0.062294
   9 H :    0.130650
  10 H :    0.134851
  11 H :    0.135124
  12 H :    0.154823
  13 H :    0.145700
  14 H :    0.141447
  15 H :    0.143552
  16 H :    0.158864
  17 H :    0.176953

  Mayer bond orders larger than 0.1
B(  0-C ,  1-C ) :   0.8441 B(  0-C ,  9-H ) :   0.9314 B(  0-C , 10-H ) :   0.9265
B(  0-C , 11-H ) :   0.9334 B(  1-C ,  2-C ) :   0.8702 B(  1-C ,  5-C ) :   0.8254
B(  1-C ,  7-C ) :   0.8991 B(  2-C ,  3-C ) :   0.9435 B(  2-C , 12-H ) :   0.9069
B(  2-C , 13-H ) :   0.9207 B(  3-C ,  4-C ) :   1.7523 B(  3-C , 14-H ) :   0.9205
B(  4-C ,  5-C ) :   0.9591 B(  4-C , 15-H ) :   0.9290 B(  5-C ,  6-O ) :   0.9709
B(  5-C , 16-H ) :   0.9206 B(  6-O , 17-H ) :   0.8359 B(  7-C ,  8-N ) :   2.8884

MP2 TOTAL ENERGY:     -401.284203340 Eh
FINAL SINGLE POINT ENERGY      -401.284203339754

DIPOLE MOMENT
-------------
                                X             Y             Z
Electronic contribution:     -4.22406      -1.99254       2.06418
Nuclear contribution   :      6.12810       2.08912      -2.67186
                        -----------------------------------------
Total Dipole Moment    :      1.90404       0.09658      -0.60768
                        -----------------------------------------
Magnitude (a.u.)       :      2.00100
Magnitude (Debye)      :      5.08613

                             ****ORCA TERMINATED NORMALLY****
TOTAL RUN TIME: 0 days 0 hours 17 minutes 29 seconds 23 msec
