                         Program Version 3.0.3 - RELEASE   -
|  1> ! RI-MP2 RIJK def2-TZVP def2-TZVP/C def2-TZVP/JK TIGHTSCF
|  2> % maxcore 2000
|  3> % mp2 density relaxed end
|  4> *xyz 0 1
|  5>  N        0.0015060708     1.3350774741     0.0096886996
|  6>  C        1.1727630394     2.0487729436     0.0022305604
|  7>  N        2.3544886662     1.5115328309    -0.0123279362
|  8>  C        2.4006802302     0.1552271547    -0.0203635757
|  9>  N        3.4944910796    -0.5839635577    -0.0351762115
| 10>  C        3.0319335367    -1.8831234341    -0.0378693841
| 11>  C        1.6547093366    -2.0143356941    -0.0252127970
| 12>  C        1.1772335285    -0.6799860271    -0.0130647861
| 13>  C       -0.0213685499    -0.0310298180     0.0022805428
| 14>  H       -0.8695850445     1.8430828155     0.0210370186
| 15>  H        1.0566862049     3.1277387310     0.0093878085
| 16>  H        3.7495033475    -2.6951560412    -0.0494056154
| 17>  H        1.0772544249    -2.9261043615    -0.0246918264
| 18>  H       -0.9998610008    -0.4964968861     0.0092345426
| 19> *
| 20>
| 21>                          ****END OF INPUT****

CARTESIAN COORDINATES (ANGSTROEM)
---------------------------------
  N      0.001506    1.335077    0.009689
  C      1.172763    2.048773    0.002231
  N      2.354489    1.511533   -0.012328
  C      2.400680    0.155227   -0.020364
  N      3.494491   -0.583964   -0.035176
  C      3.031934   -1.883123   -0.037869
  C      1.654709   -2.014336   -0.025213
  C      1.177234   -0.679986   -0.013065
  C     -0.021369   -0.031030    0.002281
  H     -0.869585    1.843083    0.021037
  H      1.056686    3.127739    0.009388
  H      3.749503   -2.695156   -0.049406
  H      1.077254   -2.926104   -0.024692
  H     -0.999861   -0.496497    0.009235

 Total Charge           Charge          ....    0
 Multiplicity           Mult            ....    1
 Number of Electrons    NEL             ....   62
 Basis Dimension        Dim             ....  309

ORBITAL ENERGIES
----------------

  NO   OCC          E(Eh)            E(eV)
   0   2.0000     -15.659155      -426.1073
   1   2.0000     -15.574037      -423.7911
   2   2.0000     -15.521914      -422.3727
   3   2.0000     -11.345034      -308.7141
   4   2.0000     -11.320872      -308.0566
   5   2.0000     -11.296540      -307.3945
   6   2.0000     -11.251445      -306.1674
   7   2.0000     -11.245510      -306.0059
   8   2.0000     -11.206775      -304.9519
   9   2.0000      -1.353685       -36.8356
  10   2.0000      -1.265756       -34.4430
  11   2.0000      -1.208575       -32.8870
  12   2.0000      -1.073122       -29.2011
  13   2.0000      -1.001984       -27.2654
  14   2.0000      -0.897766       -24.4295
  15   2.0000      -0.883907       -24.0523
  16   2.0000      -0.805766       -21.9260
  17   2.0000      -0.740877       -20.1603
  18   2.0000      -0.737283       -20.0625
  19   2.0000      -0.679797       -18.4982
  20   2.0000      -0.648470       -17.6458
  21   2.0000      -0.627670       -17.0798
  22   2.0000      -0.588310       -16.0087
  23   2.0000      -0.574365       -15.6293
  24   2.0000      -0.542563       -14.7639
  25   2.0000      -0.525810       -14.3080
  26   2.0000      -0.459791       -12.5116
  27   2.0000      -0.453552       -12.3418
  28   2.0000      -0.402190       -10.9442
  29   2.0000      -0.340159        -9.2562
  30   2.0000      -0.289123        -7.8674
  31   0.0000       0.077923         2.1204
  32   0.0000       0.098524         2.6810
  33   0.0000       0.115732         3.1492
  34   0.0000       0.157765         4.2930
  35   0.0000       0.173714         4.7270

MULLIKEN ATOMIC CHARGES
-----------------------
   0 N :   -0.210438
   1 C :    0.048263
   2 N :   -0.216834
   3 C :    0.098078
   4 N :   -0.231783
   5 C :   -0.031728
   6 C :   -0.259578
   7 C :   -0.034133
   8 C :    0.011904
   9 H :    0.260612
  10 H :    0.154240
  11 H :    0.121330
  12 H :    0.127789
  13 H :    0.162278
Sum of atomic charges:   -0.0000000

LOEWDIN ATOMIC CHARGES
----------------------
   0 N :    0.188807
   1 C :   -0.293619
   2 N :    0.170760
   3 C :   -0.293975
   4 N :    0.119790
   5 C :   -0.204353
   6 C :   -0.169437
   7 C :   -0.148524
   8 C :   -0.131435
   9 H :    0.207850
  10 H :    0.137727
  11 H :    0.130965
  12 H :    0.137957
  13 H :    0.147487

  Mayer bond orders larger than 0.1
B(  0-N ,  1-C ) :   1.0877 B(  0-N ,  8-C ) :   1.1805 B(  0-N ,  9-H ) :   0.8655
B(  1-C ,  2-N ) :   1.5855 B(  1-C , 10-H ) :   0.9238 B(  2-N ,  3-C ) :   1.2455
B(  3-C ,  4-N ) :   1.5746 B(  3-C ,  7-C ) :   1.0283 B(  4-N ,  5-C ) :   1.2454
B(  5-C ,  6-C ) :   1.4271 B(  5-C , 11-H ) :   0.9462 B(  6-C ,  7-C ) :   1.1954
B(  6-C , 12-H ) :   0.9181 B(  7-C ,  8-C ) :   1.3987 B(  8-C , 13-H ) :   0.8856

MP2 TOTAL ENERGY:     -395.087118370 Eh
FINAL SINGLE POINT ENERGY      -395.087118370423

DIPOLE MOMENT
-------------
                                X             Y             Z
Electronic contribution:      1.26457       1.60546      -0.00338
Nuclear contribution   :     -4.06911      -1.12903       0.03345
                        -----------------------------------------
Total Dipole Moment    :     -2.80453       0.47642       0.03007
                        -----------------------------------------
Magnitude (a.u.)       :      2.84487
Magnitude (Debye)      :      7.23109

                             ****ORCA TERMINATED NORMALLY****
TOTAL RUN TIME: 0 days 0 hours 16 minutes 52 seconds 69 msec
