                         Program Version 3.0.3 - RELEASE   -
|  1> ! RI-MP2 RIJK def2-TZVP def2-TZVP/C def2-TZVP/JK TIGHTSCF
|  2> % maxcore 2000
|  3> % mp2 density relaxed end
|  4> *xyz 0 1
|  5>  C       -0.3562590517     1.5093802512     0.0820082562
|  6>  C        0.0934208924     0.0520682855    -0.0094523593
|  7>  C        0.9322448665    -0.4071364474    -1.2364360945
|  8>  C        1.6112836005     0.7279835554    -2.0259483971
|  9>  C        1.9602379779    -1.3548354432    -0.6321597579
| 10>  C        2.8506735274    -2.1876979955    -1.4964440683
| 11>  C        1.9596526778    -1.3149231389     0.7097872542
| 12>  C        0.9265525147    -0.3907944392     1.2087757104
| 13>  O        0.7341534364    -0.0434713420     2.3532804556
| 14>  H        0.4866151852     2.2029611672     0.0143975455
| 15>  H       -1.0713134897     1.7638957991    -0.7061772812
| 16>  H       -0.8351871425     1.6702287842     1.0513224332
| 17>  H       -0.8051219112    -0.5799175108     0.0289709705
| 18>  H        0.3027199773    -0.9626095953    -1.9448794811
| 19>  H        2.2914911269     1.3041917761    -1.3907584772
| 20>  H        2.1921498884     0.3276603901    -2.8622567477
| 21>  H        0.8683120742     1.4149725842    -2.4396842117
| 22>  H        3.4864913836    -1.5605410271    -2.1325796646
| 23>  H        3.4978460188    -2.8383681230    -0.9038077905
| 24>  H        2.2557273256    -2.8127438295    -2.1743347699
| 25>  H        2.6210586515    -1.8637986612     1.3693542554
| 26> *
| 27>
| 28>                          ****END OF INPUT****

CARTESIAN COORDINATES (ANGSTROEM)
---------------------------------
  C     -0.356259    1.509380    0.082008
  C      0.093421    0.052068   -0.009452
  C      0.932245   -0.407136   -1.236436
  C      1.611284    0.727984   -2.025948
  C      1.960238   -1.354835   -0.632160
  C      2.850674   -2.187698   -1.496444
  C      1.959653   -1.314923    0.709787
  C      0.926553   -0.390794    1.208776
  O      0.734153   -0.043471    2.353280
  H      0.486615    2.202961    0.014398
  H     -1.071313    1.763896   -0.706177
  H     -0.835187    1.670229    1.051322
  H     -0.805122   -0.579918    0.028971
  H      0.302720   -0.962610   -1.944879
  H      2.291491    1.304192   -1.390758
  H      2.192150    0.327660   -2.862257
  H      0.868312    1.414973   -2.439684
  H      3.486491   -1.560541   -2.132580
  H      3.497846   -2.838368   -0.903808
  H      2.255727   -2.812744   -2.174335
  H      2.621059   -1.863799    1.369354

 Total Charge           Charge          ....    0
 Multiplicity           Mult            ....    1
 Number of Electrons    NEL             ....   68
 Basis Dimension        Dim             ....  351

ORBITAL ENERGIES
----------------

  NO   OCC          E(Eh)            E(eV)
   0   2.0000     -20.526767      -558.5617
   1   2.0000     -11.315530      -307.9112
   2   2.0000     -11.268902      -306.6424
   3   2.0000     -11.250407      -306.1391
   4   2.0000     -11.242729      -305.9302
   5   2.0000     -11.237809      -305.7963
   6   2.0000     -11.230171      -305.5885
   7   2.0000     -11.226517      -305.4891
   8   2.0000     -11.216772      -305.2239
   9   2.0000      -1.369976       -37.2789
  10   2.0000      -1.160369       -31.5752
  11   2.0000      -1.049322       -28.5535
  12   2.0000      -1.008321       -27.4378
  13   2.0000      -0.975898       -26.5555
  14   2.0000      -0.892084       -24.2749
  15   2.0000      -0.848090       -23.0777
  16   2.0000      -0.743713       -20.2374
  17   2.0000      -0.725227       -19.7344
  18   2.0000      -0.665319       -18.1043
  19   2.0000      -0.635369       -17.2893
  20   2.0000      -0.616546       -16.7771
  21   2.0000      -0.607900       -16.5418
  22   2.0000      -0.590760       -16.0754
  23   2.0000      -0.571746       -15.5580
  24   2.0000      -0.557291       -15.1647
  25   2.0000      -0.553673       -15.0662
  26   2.0000      -0.540262       -14.7013
  27   2.0000      -0.530456       -14.4344
  28   2.0000      -0.514894       -14.0110
  29   2.0000      -0.495181       -13.4745
  30   2.0000      -0.475947       -12.9512
  31   2.0000      -0.464270       -12.6334
  32   2.0000      -0.391199       -10.6451
  33   2.0000      -0.367462        -9.9992
  34   0.0000       0.104779         2.8512
  35   0.0000       0.120088         3.2678
  36   0.0000       0.146956         3.9989
  37   0.0000       0.154306         4.1989
  38   0.0000       0.177685         4.8351

MULLIKEN ATOMIC CHARGES
-----------------------
   0 C :   -0.416055
   1 C :   -0.034474
   2 C :    0.015455
   3 C :   -0.463437
   4 C :    0.054167
   5 C :   -0.442563
   6 C :   -0.227896
   7 C :    0.165126
   8 O :   -0.299753
   9 H :    0.127762
  10 H :    0.134482
  11 H :    0.158921
  12 H :    0.113442
  13 H :    0.105292
  14 H :    0.143106
  15 H :    0.138142
  16 H :    0.144547
  17 H :    0.151093
  18 H :    0.147900
  19 H :    0.148275
  20 H :    0.136468
Sum of atomic charges:   -0.0000000

LOEWDIN ATOMIC CHARGES
----------------------
   0 C :   -0.287796
   1 C :   -0.206964
   2 C :   -0.202028
   3 C :   -0.281454
   4 C :   -0.128051
   5 C :   -0.264116
   6 C :   -0.101155
   7 C :   -0.304166
   8 O :    0.134925
   9 H :    0.125589
  10 H :    0.122520
  11 H :    0.134472
  12 H :    0.170305
  13 H :    0.156011
  14 H :    0.127912
  15 H :    0.123622
  16 H :    0.127071
  17 H :    0.136235
  18 H :    0.133494
  19 H :    0.137364
  20 H :    0.146209

  Mayer bond orders larger than 0.1
B(  0-C ,  1-C ) :   0.9072 B(  0-C ,  9-H ) :   0.9306 B(  0-C , 10-H ) :   0.9434
B(  0-C , 11-H ) :   0.9291 B(  1-C ,  2-C ) :   0.8996 B(  1-C ,  7-C ) :   0.8873
B(  1-C , 12-H ) :   0.8971 B(  2-C ,  3-C ) :   0.8467 B(  2-C ,  4-C ) :   0.9012
B(  2-C , 13-H ) :   0.9134 B(  3-C , 14-H ) :   0.9383 B(  3-C , 15-H ) :   0.9384
B(  3-C , 16-H ) :   0.9353 B(  4-C ,  5-C ) :   0.8825 B(  4-C ,  6-C ) :   1.6427
B(  5-C , 17-H ) :   0.9227 B(  5-C , 18-H ) :   0.9463 B(  5-C , 19-H ) :   0.9326
B(  6-C ,  7-C ) :   1.0207 B(  6-C , 20-H ) :   0.9242 B(  7-C ,  8-O ) :   1.9917

MP2 TOTAL ENERGY:     -386.457996943 Eh
FINAL SINGLE POINT ENERGY      -386.457996942628

DIPOLE MOMENT
-------------
                                X             Y             Z
Electronic contribution:     -0.72058      -2.50675       8.43816
Nuclear contribution   :      1.01195       2.09493      -9.91266
                        -----------------------------------------
Total Dipole Moment    :      0.29137      -0.41183      -1.47450
                        -----------------------------------------
Magnitude (a.u.)       :      1.55841
Magnitude (Debye)      :      3.96117

                             ****ORCA TERMINATED NORMALLY****
TOTAL RUN TIME: 0 days 0 hours 21 minutes 29 seconds 90 msec
