                         Program Version 3.0.3 - RELEASE   -
|  1> ! RI-MP2 RIJK def2-TZVP def2-TZVP/C def2-TZVP/JK TIGHTSCF
|  2> % maxcore 2000
|  3> % mp2 density relaxed end
|  4> *xyz 0 1
|  5>  O        0.1320616270     1.3416557629    -0.2923917594
|  6>  C        0.0580399863    -0.0246734737     0.0534100155
|  7>  C        0.1616448279    -0.9981616000    -1.1504254902
|  8>  O       -1.2502087497    -1.2925018484    -1.0891175950
|  9>  C       -1.4035922625    -0.5332720242     0.1280455291
| 10>  C       -1.4994470762    -1.3573264667     1.3989865661
| 11>  N       -0.5432077262    -2.4846941491     1.4194122922
| 12>  C       -0.2103125906    -1.2517456422     2.1475234847
| 13>  C        0.7630073706    -0.3626802898     1.3878629549
| 14>  H        1.0473376145     1.5470170121    -0.5128621925
| 15>  H        0.4365071819    -0.5098689658    -2.0931520059
| 16>  H        0.7690668405    -1.8937285902    -0.9839577855
| 17>  H       -2.1899248497     0.2238712768     0.0495483941
| 18>  H       -2.4502866081    -1.4691085941     1.9087759094
| 19>  H       -0.8763409126    -3.1931289717     2.0676947432
| 20>  H       -0.1811688193    -1.2706270115     3.2327858133
| 21>  H        1.7343251608    -0.8489556628     1.2464237684
| 22>  H        0.9206748553     0.5725689184     1.9349186878
| 23> *
| 24>
| 25>                          ****END OF INPUT****

CARTESIAN COORDINATES (ANGSTROEM)
---------------------------------
  O      0.132062    1.341656   -0.292392
  C      0.058040   -0.024673    0.053410
  C      0.161645   -0.998162   -1.150425
  O     -1.250209   -1.292502   -1.089118
  C     -1.403592   -0.533272    0.128046
  C     -1.499447   -1.357326    1.398987
  N     -0.543208   -2.484694    1.419412
  C     -0.210313   -1.251746    2.147523
  C      0.763007   -0.362680    1.387863
  H      1.047338    1.547017   -0.512862
  H      0.436507   -0.509869   -2.093152
  H      0.769067   -1.893729   -0.983958
  H     -2.189925    0.223871    0.049548
  H     -2.450287   -1.469109    1.908776
  H     -0.876341   -3.193129    2.067695
  H     -0.181169   -1.270627    3.232786
  H      1.734325   -0.848956    1.246424
  H      0.920675    0.572569    1.934919

 Total Charge           Charge          ....    0
 Multiplicity           Mult            ....    1
 Number of Electrons    NEL             ....   68
 Basis Dimension        Dim             ....  333

ORBITAL ENERGIES
----------------

  NO   OCC          E(Eh)            E(eV)
   0   2.0000     -20.565076      -559.6042
   1   2.0000     -20.539963      -558.9208
   2   2.0000     -15.562727      -423.4833
   3   2.0000     -11.288879      -307.1860
   4   2.0000     -11.277438      -306.8747
   5   2.0000     -11.268724      -306.6376
   6   2.0000     -11.268007      -306.6181
   7   2.0000     -11.261265      -306.4346
   8   2.0000     -11.232001      -305.6383
   9   2.0000      -1.390322       -37.8326
  10   2.0000      -1.354964       -36.8704
  11   2.0000      -1.271851       -34.6088
  12   2.0000      -1.052021       -28.6269
  13   2.0000      -0.968189       -26.3458
  14   2.0000      -0.939704       -25.5706
  15   2.0000      -0.861063       -23.4307
  16   2.0000      -0.795557       -21.6482
  17   2.0000      -0.743446       -20.2302
  18   2.0000      -0.737070       -20.0567
  19   2.0000      -0.679657       -18.4944
  20   2.0000      -0.649155       -17.6644
  21   2.0000      -0.631872       -17.1941
  22   2.0000      -0.621733       -16.9182
  23   2.0000      -0.585957       -15.9447
  24   2.0000      -0.582930       -15.8623
  25   2.0000      -0.551090       -14.9959
  26   2.0000      -0.525281       -14.2936
  27   2.0000      -0.519378       -14.1330
  28   2.0000      -0.477789       -13.0013
  29   2.0000      -0.466608       -12.6970
  30   2.0000      -0.431716       -11.7476
  31   2.0000      -0.427359       -11.6290
  32   2.0000      -0.418298       -11.3825
  33   2.0000      -0.381788       -10.3890
  34   0.0000       0.132265         3.5991
  35   0.0000       0.134778         3.6675
  36   0.0000       0.171302         4.6614
  37   0.0000       0.177567         4.8319
  38   0.0000       0.187443         5.1006

MULLIKEN ATOMIC CHARGES
-----------------------
   0 O :   -0.459492
   1 C :    0.147923
   2 C :   -0.047790
   3 O :   -0.342857
   4 C :    0.194145
   5 C :   -0.161030
   6 N :   -0.381251
   7 C :   -0.055931
   8 C :   -0.221967
   9 H :    0.320921
  10 H :    0.087158
  11 H :    0.094704
  12 H :    0.108669
  13 H :    0.136379
  14 H :    0.216318
  15 H :    0.129714
  16 H :    0.118447
  17 H :    0.115939
Sum of atomic charges:   -0.0000000

LOEWDIN ATOMIC CHARGES
----------------------
   0 O :    0.012220
   1 C :   -0.326137
   2 C :   -0.237930
   3 O :    0.143124
   4 C :   -0.219249
   5 C :   -0.223359
   6 N :    0.018140
   7 C :   -0.245416
   8 C :   -0.206488
   9 H :    0.178199
  10 H :    0.116781
  11 H :    0.121109
  12 H :    0.142164
  13 H :    0.135397
  14 H :    0.169646
  15 H :    0.133677
  16 H :    0.141909
  17 H :    0.146214

  Mayer bond orders larger than 0.1
B(  0-O ,  1-C ) :   1.0252 B(  0-O ,  9-H ) :   0.8394 B(  1-C ,  2-C ) :   1.0083
B(  1-C ,  4-C ) :   0.9155 B(  1-C ,  8-C ) :   0.9785 B(  2-C ,  3-O ) :   0.9732
B(  2-C , 10-H ) :   0.8979 B(  2-C , 11-H ) :   0.8936 B(  3-O ,  4-C ) :   0.9521
B(  4-C ,  5-C ) :   0.9056 B(  4-C , 12-H ) :   0.9108 B(  5-C ,  6-N ) :   0.8615
B(  5-C ,  7-C ) :   0.9029 B(  5-C , 13-H ) :   0.9162 B(  6-N ,  7-C ) :   0.9810
B(  6-N , 14-H ) :   0.8668 B(  7-C ,  8-C ) :   0.9097 B(  7-C , 15-H ) :   0.9217
B(  8-C , 16-H ) :   0.9018 B(  8-C , 17-H ) :   0.9138

MP2 TOTAL ENERGY:     -438.327051113 Eh
FINAL SINGLE POINT ENERGY      -438.327051113267

DIPOLE MOMENT
-------------
                                X             Y             Z
Electronic contribution:     -2.05575       0.22356      -1.91061
Nuclear contribution   :      2.69953      -0.07690       2.92555
                        -----------------------------------------
Total Dipole Moment    :      0.64378       0.14666       1.01494
                        -----------------------------------------
Magnitude (a.u.)       :      1.21081
Magnitude (Debye)      :      3.07764

                             ****ORCA TERMINATED NORMALLY****
TOTAL RUN TIME: 0 days 0 hours 18 minutes 5 seconds 984 msec
