                         Program Version 3.0.3 - RELEASE   -
|  1> ! RI-MP2 RIJK def2-TZVP def2-TZVP/C def2-TZVP/JK TIGHTSCF
|  2> % maxcore 2000
|  3> % mp2 density relaxed end
|  4> *xyz 0 1
|  5>  C       -0.2605878773     1.5314733118     0.0152593156
|  6>  C       -0.0799546478     0.0512903665    -0.0532963174
|  7>  C       -0.0789850816    -0.7604012567    -1.1226800979
|  8>  C        0.1551832834    -2.2021888965    -0.7615380494
|  9>  O        1.5262841946    -2.6309074740    -1.0066547919
| 10>  C        1.8177072595    -2.6200244433     0.4052846432
| 11>  C        0.3664051403    -2.1961645424     0.7612107400
| 12>  C        0.1730102784    -0.7457707765     1.1861333550
| 13>  O        0.2303314253    -0.3052074359     2.3115543054
| 14>  H        0.6215487498     2.0040437396     0.4608544653
| 15>  H       -0.4345529956     1.9678821974    -0.9708499747
| 16>  H       -1.1032024338     1.7827063581     0.6684447934
| 17>  H       -0.1917534049    -0.4382889450    -2.1529340452
| 18>  H       -0.5625733850    -2.8981223083    -1.2074832940
| 19>  H        2.0976366017    -3.6153249991     0.7664253685
| 20>  H        2.6054765710    -1.9045550955     0.6688099146
| 21>  H       -0.1893318280    -2.8946660903     1.3845977795
| 22> *
| 23>
| 24>                          ****END OF INPUT****

CARTESIAN COORDINATES (ANGSTROEM)
---------------------------------
  C     -0.260588    1.531473    0.015259
  C     -0.079955    0.051290   -0.053296
  C     -0.078985   -0.760401   -1.122680
  C      0.155183   -2.202189   -0.761538
  O      1.526284   -2.630907   -1.006655
  C      1.817707   -2.620024    0.405285
  C      0.366405   -2.196165    0.761211
  C      0.173010   -0.745771    1.186133
  O      0.230331   -0.305207    2.311554
  H      0.621549    2.004044    0.460854
  H     -0.434553    1.967882   -0.970850
  H     -1.103202    1.782706    0.668445
  H     -0.191753   -0.438289   -2.152934
  H     -0.562573   -2.898122   -1.207483
  H      2.097637   -3.615325    0.766425
  H      2.605477   -1.904555    0.668810
  H     -0.189332   -2.894666    1.384598

 Total Charge           Charge          ....    0
 Multiplicity           Mult            ....    1
 Number of Electrons    NEL             ....   66
 Basis Dimension        Dim             ....  327

ORBITAL ENERGIES
----------------

  NO   OCC          E(Eh)            E(eV)
   0   2.0000     -20.562242      -559.5270
   1   2.0000     -20.549656      -559.1846
   2   2.0000     -11.334816      -308.4360
   3   2.0000     -11.305629      -307.6418
   4   2.0000     -11.296428      -307.3914
   5   2.0000     -11.261189      -306.4325
   6   2.0000     -11.257540      -306.3332
   7   2.0000     -11.251169      -306.1599
   8   2.0000     -11.234002      -305.6927
   9   2.0000      -1.396858       -38.0104
  10   2.0000      -1.386951       -37.7409
  11   2.0000      -1.146378       -31.1945
  12   2.0000      -1.037203       -28.2237
  13   2.0000      -0.988673       -26.9032
  14   2.0000      -0.909568       -24.7506
  15   2.0000      -0.878285       -23.8994
  16   2.0000      -0.768181       -20.9033
  17   2.0000      -0.731579       -19.9073
  18   2.0000      -0.711698       -19.3663
  19   2.0000      -0.666595       -18.1390
  20   2.0000      -0.632697       -17.2166
  21   2.0000      -0.627930       -17.0868
  22   2.0000      -0.602232       -16.3876
  23   2.0000      -0.588294       -16.0083
  24   2.0000      -0.581743       -15.8300
  25   2.0000      -0.554411       -15.0863
  26   2.0000      -0.543763       -14.7965
  27   2.0000      -0.532797       -14.4981
  28   2.0000      -0.489103       -13.3092
  29   2.0000      -0.471949       -12.8424
  30   2.0000      -0.435459       -11.8494
  31   2.0000      -0.409231       -11.1357
  32   2.0000      -0.381843       -10.3905
  33   0.0000       0.086318         2.3488
  34   0.0000       0.141284         3.8445
  35   0.0000       0.151551         4.1239
  36   0.0000       0.161962         4.4072
  37   0.0000       0.167491         4.5577

MULLIKEN ATOMIC CHARGES
-----------------------
   0 C :   -0.411874
   1 C :   -0.046936
   2 C :   -0.146324
   3 C :    0.143709
   4 O :   -0.332696
   5 C :   -0.052570
   6 C :   -0.069159
   7 C :    0.132501
   8 O :   -0.281591
   9 H :    0.152358
  10 H :    0.141037
  11 H :    0.153564
  12 H :    0.146206
  13 H :    0.109337
  14 H :    0.109977
  15 H :    0.109897
  16 H :    0.142566
Sum of atomic charges:   -0.0000000

LOEWDIN ATOMIC CHARGES
----------------------
   0 C :   -0.261013
   1 C :   -0.146784
   2 C :   -0.066566
   3 C :   -0.231393
   4 O :    0.131414
   5 C :   -0.236222
   6 C :   -0.161010
   7 C :   -0.276269
   8 O :    0.150376
   9 H :    0.141253
  10 H :    0.131257
  11 H :    0.141233
  12 H :    0.144435
  13 H :    0.138922
  14 H :    0.122393
  15 H :    0.123090
  16 H :    0.154883

  Mayer bond orders larger than 0.1
B(  0-C ,  1-C ) :   0.9023 B(  0-C ,  9-H ) :   0.9221 B(  0-C , 10-H ) :   0.9507
B(  0-C , 11-H ) :   0.9258 B(  1-C ,  2-C ) :   1.6413 B(  1-C ,  7-C ) :   0.9570
B(  2-C ,  3-C ) :   0.9098 B(  2-C , 12-H ) :   0.9082 B(  3-C ,  4-O ) :   0.9306
B(  3-C ,  6-C ) :   0.9374 B(  3-C , 13-H ) :   0.9205 B(  4-O ,  5-C ) :   0.9486
B(  5-C ,  6-C ) :   0.9319 B(  5-C , 14-H ) :   0.9196 B(  5-C , 15-H ) :   0.8998
B(  6-C ,  7-C ) :   0.9063 B(  6-C , 16-H ) :   0.9093 B(  7-C ,  8-O ) :   2.0277

MP2 TOTAL ENERGY:     -421.127305519 Eh
FINAL SINGLE POINT ENERGY      -421.127305519421

DIPOLE MOMENT
-------------
                                X             Y             Z
Electronic contribution:      0.29630      -2.66616       1.33665
Nuclear contribution   :     -0.71210       2.60999      -1.89679
                        -----------------------------------------
Total Dipole Moment    :     -0.41581      -0.05616      -0.56014
                        -----------------------------------------
Magnitude (a.u.)       :      0.69986
Magnitude (Debye)      :      1.77891

                             ****ORCA TERMINATED NORMALLY****
TOTAL RUN TIME: 0 days 0 hours 17 minutes 33 seconds 137 msec
