                         Program Version 3.0.3 - RELEASE   -
|  1> ! RI-MP2 RIJK def2-TZVP def2-TZVP/C def2-TZVP/JK TIGHTSCF
|  2> % maxcore 2000
|  3> % mp2 density relaxed end
|  4> *xyz 0 1
|  5>  O        0.0238231501     0.4424658906     1.2906497444
|  6>  C       -0.0017913188     1.2606074059     0.3931024167
|  7>  C       -1.2894041641     1.7289879427    -0.1234003724
|  8>  C       -1.6249263720     2.6093819736    -1.0894316465
|  9>  N       -0.8251027399     3.3593204662    -1.9099097787
| 10>  C        0.5422587283     3.4113353472    -1.9640141165
| 11>  C        1.4626607592     2.7472827349    -1.2340968076
| 12>  C        1.3564290001     1.7629082722    -0.1552897204
| 13>  O        2.3658109956     1.3082968953     0.3447896445
| 14>  H       -2.1230511854     1.2600428524     0.3890571104
| 15>  H       -2.6789038521     2.7825819673    -1.2815814111
| 16>  H       -1.3085911861     3.9538814779    -2.5627914616
| 17>  H        0.8921112054     4.1040105511    -2.7226923088
| 18>  H        2.4969812598     2.9694446228    -1.4755811824
| 19> *
| 20>
| 21>                          ****END OF INPUT****

CARTESIAN COORDINATES (ANGSTROEM)
---------------------------------
  O      0.023823    0.442466    1.290650
  C     -0.001791    1.260607    0.393102
  C     -1.289404    1.728988   -0.123400
  C     -1.624926    2.609382   -1.089432
  N     -0.825103    3.359320   -1.909910
  C      0.542259    3.411335   -1.964014
  C      1.462661    2.747283   -1.234097
  C      1.356429    1.762908   -0.155290
  O      2.365811    1.308297    0.344790
  H     -2.123051    1.260043    0.389057
  H     -2.678904    2.782582   -1.281581
  H     -1.308591    3.953881   -2.562791
  H      0.892111    4.104011   -2.722692
  H      2.496981    2.969445   -1.475581

 Total Charge           Charge          ....    0
 Multiplicity           Mult            ....    1
 Number of Electrons    NEL             ....   64
 Basis Dimension        Dim             ....  309

ORBITAL ENERGIES
----------------

  NO   OCC          E(Eh)            E(eV)
   0   2.0000     -20.545680      -559.0764
   1   2.0000     -20.545672      -559.0762
   2   2.0000     -15.648529      -425.8181
   3   2.0000     -11.337575      -308.5111
   4   2.0000     -11.337021      -308.4960
   5   2.0000     -11.330452      -308.3173
   6   2.0000     -11.330428      -308.3166
   7   2.0000     -11.250102      -306.1308
   8   2.0000     -11.250100      -306.1308
   9   2.0000      -1.402901       -38.1749
  10   2.0000      -1.368248       -37.2319
  11   2.0000      -1.322939       -35.9990
  12   2.0000      -1.096477       -29.8366
  13   2.0000      -1.071610       -29.1600
  14   2.0000      -0.922763       -25.1096
  15   2.0000      -0.916008       -24.9259
  16   2.0000      -0.806613       -21.9490
  17   2.0000      -0.773897       -21.0588
  18   2.0000      -0.762580       -20.7509
  19   2.0000      -0.661060       -17.9884
  20   2.0000      -0.657691       -17.8967
  21   2.0000      -0.633098       -17.2275
  22   2.0000      -0.632270       -17.2049
  23   2.0000      -0.612531       -16.6678
  24   2.0000      -0.578149       -15.7322
  25   2.0000      -0.562930       -15.3181
  26   2.0000      -0.562301       -15.3010
  27   2.0000      -0.509152       -13.8547
  28   2.0000      -0.469608       -12.7787
  29   2.0000      -0.407425       -11.0866
  30   2.0000      -0.404761       -11.0141
  31   2.0000      -0.338256        -9.2044
  32   0.0000       0.067628         1.8402
  33   0.0000       0.074064         2.0154
  34   0.0000       0.092447         2.5156
  35   0.0000       0.146509         3.9867
  36   0.0000       0.168956         4.5975

MULLIKEN ATOMIC CHARGES
-----------------------
   0 O :   -0.269124
   1 C :    0.191116
   2 C :   -0.266680
   3 C :    0.042065
   4 N :   -0.251462
   5 C :    0.042066
   6 C :   -0.266681
   7 C :    0.191116
   8 O :   -0.269125
   9 H :    0.148323
  10 H :    0.151867
  11 H :    0.256328
  12 H :    0.151867
  13 H :    0.148323
Sum of atomic charges:   -0.0000000

LOEWDIN ATOMIC CHARGES
----------------------
   0 O :    0.170915
   1 C :   -0.314097
   2 C :   -0.158122
   3 C :   -0.200014
   4 N :    0.155740
   5 C :   -0.200014
   6 C :   -0.158122
   7 C :   -0.314097
   8 O :    0.170915
   9 H :    0.166793
  10 H :    0.153143
  11 H :    0.207026
  12 H :    0.153143
  13 H :    0.166793

  Mayer bond orders larger than 0.1
B(  0-O ,  1-C ) :   1.9065 B(  1-C ,  2-C ) :   1.0798 B(  1-C ,  7-C ) :   0.8597
B(  2-C ,  3-C ) :   1.5721 B(  2-C ,  9-H ) :   0.8985 B(  3-C ,  4-N ) :   1.0877
B(  3-C , 10-H ) :   0.8981 B(  4-N ,  5-C ) :   1.0877 B(  4-N , 11-H ) :   0.8734
B(  5-C ,  6-C ) :   1.5721 B(  5-C , 12-H ) :   0.8981 B(  6-C ,  7-C ) :   1.0798
B(  6-C , 13-H ) :   0.8985 B(  7-C ,  8-O ) :   1.9065

MP2 TOTAL ENERGY:     -435.986746166 Eh
FINAL SINGLE POINT ENERGY      -435.986746165920

DIPOLE MOMENT
-------------
                                X             Y             Z
Electronic contribution:      2.04753      -2.51788       2.76493
Nuclear contribution   :     -3.64636       4.48399      -4.92394
                        -----------------------------------------
Total Dipole Moment    :     -1.59883       1.96611      -2.15900
                        -----------------------------------------
Magnitude (a.u.)       :      3.32914
Magnitude (Debye)      :      8.46199

                             ****ORCA TERMINATED NORMALLY****
TOTAL RUN TIME: 0 days 0 hours 13 minutes 54 seconds 177 msec
