                         Program Version 3.0.3 - RELEASE   -
|  1> ! RI-MP2 RIJK def2-TZVP def2-TZVP/C def2-TZVP/JK TIGHTSCF
|  2> % maxcore 2000
|  3> % mp2 density relaxed end
|  4> *xyz 0 1
|  5>  N        0.1533779501    -1.1634660030    -0.0008411598
|  6>  C        0.0796384686    -0.0091379578     0.0038880599
|  7>  C       -0.0398545621     1.4170891371     0.0106189711
|  8>  C       -0.7214104338     2.3407869355     1.0644146119
|  9>  C        0.6522534174     3.0063049688     1.2407512486
| 10>  N        1.1943551140     2.3385154427    -0.0020355464
| 11>  C        0.6202117275     3.0153355021    -1.2253960550
| 12>  C       -0.7484757869     2.3484263008    -1.0183104702
| 13>  O       -1.4975963240     2.9890660476     0.0353268876
| 14>  H       -1.3269618838     2.0290560295     1.9163072373
| 15>  H        0.6779964277     4.0984291179     1.2316144896
| 16>  H        1.1926255180     2.6273645613     2.1138475944
| 17>  H        0.6462745220     4.1073656539    -1.2089286338
| 18>  H        1.1376857249     2.6428566913    -2.1149885633
| 19>  H       -1.3759925195     2.0429039224    -1.8564447219
| 20> *
| 21>
| 22>                          ****END OF INPUT****

CARTESIAN COORDINATES (ANGSTROEM)
---------------------------------
  N      0.153378   -1.163466   -0.000841
  C      0.079638   -0.009138    0.003888
  C     -0.039855    1.417089    0.010619
  C     -0.721410    2.340787    1.064415
  C      0.652253    3.006305    1.240751
  N      1.194355    2.338515   -0.002036
  C      0.620212    3.015336   -1.225396
  C     -0.748476    2.348426   -1.018310
  O     -1.497596    2.989066    0.035327
  H     -1.326962    2.029056    1.916307
  H      0.677996    4.098429    1.231614
  H      1.192626    2.627365    2.113848
  H      0.646275    4.107366   -1.208929
  H      1.137686    2.642857   -2.114989
  H     -1.375993    2.042904   -1.856445

 Total Charge           Charge          ....    0
 Multiplicity           Mult            ....    1
 Number of Electrons    NEL             ....   64
 Basis Dimension        Dim             ....  315

ORBITAL ENERGIES
----------------

  NO   OCC          E(Eh)            E(eV)
   0   2.0000     -20.585450      -560.1586
   1   2.0000     -15.589936      -424.2237
   2   2.0000     -15.587250      -424.1506
   3   2.0000     -11.325408      -308.1800
   4   2.0000     -11.325319      -308.1776
   5   2.0000     -11.323802      -308.1363
   6   2.0000     -11.286339      -307.1169
   7   2.0000     -11.281709      -306.9909
   8   2.0000     -11.281695      -306.9905
   9   2.0000      -1.433346       -39.0033
  10   2.0000      -1.273406       -34.6511
  11   2.0000      -1.227828       -33.4109
  12   2.0000      -1.062259       -28.9055
  13   2.0000      -1.010296       -27.4915
  14   2.0000      -0.913119       -24.8472
  15   2.0000      -0.870737       -23.6940
  16   2.0000      -0.827132       -22.5074
  17   2.0000      -0.735679       -20.0188
  18   2.0000      -0.690870       -18.7995
  19   2.0000      -0.674528       -18.3549
  20   2.0000      -0.644959       -17.5502
  21   2.0000      -0.615250       -16.7418
  22   2.0000      -0.580292       -15.7906
  23   2.0000      -0.580216       -15.7885
  24   2.0000      -0.554413       -15.0864
  25   2.0000      -0.533101       -14.5064
  26   2.0000      -0.530338       -14.4312
  27   2.0000      -0.504292       -13.7225
  28   2.0000      -0.473140       -12.8748
  29   2.0000      -0.451111       -12.2754
  30   2.0000      -0.431154       -11.7323
  31   2.0000      -0.388961       -10.5842
  32   0.0000       0.126567         3.4441
  33   0.0000       0.131381         3.5751
  34   0.0000       0.137376         3.7382
  35   0.0000       0.155610         4.2344
  36   0.0000       0.169926         4.6239

MULLIKEN ATOMIC CHARGES
-----------------------
   0 N :   -0.031259
   1 C :   -0.162426
   2 C :    0.306126
   3 C :   -0.017200
   4 C :   -0.174159
   5 N :   -0.218329
   6 C :   -0.174156
   7 C :   -0.017220
   8 O :   -0.317599
   9 H :    0.133534
  10 H :    0.130575
  11 H :    0.139006
  12 H :    0.130573
  13 H :    0.139005
  14 H :    0.133531
Sum of atomic charges:   -0.0000000

LOEWDIN ATOMIC CHARGES
----------------------
   0 N :    0.089859
   1 C :   -0.149098
   2 C :   -0.186534
   3 C :   -0.203996
   4 C :   -0.223306
   5 N :    0.121286
   6 C :   -0.223309
   7 C :   -0.204003
   8 O :    0.170956
   9 H :    0.134643
  10 H :    0.129699
  11 H :    0.139732
  12 H :    0.129698
  13 H :    0.139731
  14 H :    0.134641

  Mayer bond orders larger than 0.1
B(  0-N ,  1-C ) :   2.8558 B(  1-C ,  2-C ) :   0.7895 B(  2-C ,  3-C ) :   0.9210
B(  2-C ,  5-N ) :   0.8969 B(  2-C ,  7-C ) :   0.9210 B(  3-C ,  4-C ) :   0.9388
B(  3-C ,  8-O ) :   0.9797 B(  3-C ,  9-H ) :   0.9227 B(  4-C ,  5-N ) :   0.9141
B(  4-C , 10-H ) :   0.9224 B(  4-C , 11-H ) :   0.9123 B(  5-N ,  6-C ) :   0.9141
B(  6-C ,  7-C ) :   0.9388 B(  6-C , 12-H ) :   0.9224 B(  6-C , 13-H ) :   0.9123
B(  7-C ,  8-O ) :   0.9797 B(  7-C , 14-H ) :   0.9227

MP2 TOTAL ENERGY:     -416.031046128 Eh
FINAL SINGLE POINT ENERGY      -416.031046127888

DIPOLE MOMENT
-------------
                                X             Y             Z
Electronic contribution:     -1.32496      -4.65294       0.00025
Nuclear contribution   :      1.15665       5.97850       0.00653
                        -----------------------------------------
Total Dipole Moment    :     -0.16831       1.32556       0.00678
                        -----------------------------------------
Magnitude (a.u.)       :      1.33622
Magnitude (Debye)      :      3.39640

                             ****ORCA TERMINATED NORMALLY****
TOTAL RUN TIME: 0 days 0 hours 16 minutes 43 seconds 240 msec
