                         Program Version 3.0.3 - RELEASE   -
|  1> ! RI-MP2 RIJK def2-TZVP def2-TZVP/C def2-TZVP/JK TIGHTSCF
|  2> % maxcore 2000
|  3> % mp2 density relaxed end
|  4> *xyz 0 1
|  5>  C        0.4327035616     2.1929645970    -0.8079162899
|  6>  C        0.2169927583     0.6842065088    -0.6705950909
|  7>  C        0.9215610223    -0.1301396213    -1.7660479634
|  8>  O        2.3191440943     0.1691650312    -1.8042869973
|  9>  C        0.6497638399    -1.6367986101    -1.6240304594
| 10>  C        1.0910126438    -2.5073841139    -2.7945838090
| 11>  C        2.5884988119    -2.6668512784    -2.9952713080
| 12>  C        0.2288156622    -3.7069263097    -3.1165447110
| 13>  C        0.2156420584    -2.5010011726    -4.0268352711
| 14>  H        1.4996581610     2.4294429865    -0.8173765219
| 15>  H        0.0033461905     2.5674041283    -1.7438978723
| 16>  H       -0.0368263398     2.7378175228     0.0166144938
| 17>  H        0.5810229269     0.3413912998     0.3096081754
| 18>  H       -0.8554560432     0.4535282933    -0.6927586697
| 19>  H        0.5520957331     0.2019456842    -2.7450542050
| 20>  H        2.7052551919    -0.1481106001    -0.9797334636
| 21>  H        1.1271758388    -1.9933108867    -0.6972888624
| 22>  H       -0.4292254733    -1.7681756525    -1.4743943009
| 23>  H        3.0566993256    -3.1033836394    -2.1035566220
| 24>  H        2.7986316081    -3.3365721442    -3.8355797551
| 25>  H        3.0688779935    -1.7049610616    -3.1863906404
| 26>  H        0.7212159993    -4.6075355072    -3.4686326544
| 27>  H       -0.6490728863    -3.8940378395    -2.5063621771
| 28>  H       -0.6720788254    -1.8762189221    -4.0277948305
| 29>  H        0.6950217667    -2.5839461425    -4.9964459640
| 30> *
| 31>
| 32>                          ****END OF INPUT****

CARTESIAN COORDINATES (ANGSTROEM)
---------------------------------
  C      0.432704    2.192965   -0.807916
  C      0.216993    0.684207   -0.670595
  C      0.921561   -0.130140   -1.766048
  O      2.319144    0.169165   -1.804287
  C      0.649764   -1.636799   -1.624030
  C      1.091013   -2.507384   -2.794584
  C      2.588499   -2.666851   -2.995271
  C      0.228816   -3.706926   -3.116545
  C      0.215642   -2.501001   -4.026835
  H      1.499658    2.429443   -0.817377
  H      0.003346    2.567404   -1.743898
  H     -0.036826    2.737818    0.016614
  H      0.581023    0.341391    0.309608
  H     -0.855456    0.453528   -0.692759
  H      0.552096    0.201946   -2.745054
  H      2.705255   -0.148111   -0.979733
  H      1.127176   -1.993311   -0.697289
  H     -0.429225   -1.768176   -1.474394
  H      3.056699   -3.103384   -2.103557
  H      2.798632   -3.336572   -3.835580
  H      3.068878   -1.704961   -3.186391
  H      0.721216   -4.607536   -3.468633
  H     -0.649073   -3.894038   -2.506362
  H     -0.672079   -1.876219   -4.027795
  H      0.695022   -2.583946   -4.996446

 Total Charge           Charge          ....    0
 Multiplicity           Mult            ....    1
 Number of Electrons    NEL             ....   72
 Basis Dimension        Dim             ....  375

ORBITAL ENERGIES
----------------

  NO   OCC          E(Eh)            E(eV)
   0   2.0000     -20.549519      -559.1808
   1   2.0000     -11.274627      -306.7982
   2   2.0000     -11.233467      -305.6782
   3   2.0000     -11.223480      -305.4064
   4   2.0000     -11.221188      -305.3441
   5   2.0000     -11.218223      -305.2634
   6   2.0000     -11.217432      -305.2418
   7   2.0000     -11.208950      -305.0110
   8   2.0000     -11.205915      -304.9285
   9   2.0000      -1.355944       -36.8971
  10   2.0000      -1.150511       -31.3070
  11   2.0000      -1.055688       -28.7267
  12   2.0000      -0.988620       -26.9017
  13   2.0000      -0.949047       -25.8249
  14   2.0000      -0.872146       -23.7323
  15   2.0000      -0.821580       -22.3563
  16   2.0000      -0.802248       -21.8303
  17   2.0000      -0.738822       -20.1044
  18   2.0000      -0.665559       -18.1108
  19   2.0000      -0.647391       -17.6164
  20   2.0000      -0.633500       -17.2384
  21   2.0000      -0.621650       -16.9159
  22   2.0000      -0.606612       -16.5068
  23   2.0000      -0.580230       -15.7889
  24   2.0000      -0.555630       -15.1195
  25   2.0000      -0.542899       -14.7730
  26   2.0000      -0.523596       -14.2478
  27   2.0000      -0.518697       -14.1145
  28   2.0000      -0.514068       -13.9885
  29   2.0000      -0.504643       -13.7320
  30   2.0000      -0.482955       -13.1419
  31   2.0000      -0.474130       -12.9017
  32   2.0000      -0.463885       -12.6230
  33   2.0000      -0.440186       -11.9781
  34   2.0000      -0.403623       -10.9831
  35   2.0000      -0.381782       -10.3888
  36   0.0000       0.127234         3.4622
  37   0.0000       0.150726         4.1015
  38   0.0000       0.158970         4.3258
  39   0.0000       0.167472         4.5571
  40   0.0000       0.179951         4.8967

MULLIKEN ATOMIC CHARGES
-----------------------
   0 C :   -0.367276
   1 C :   -0.193949
   2 C :    0.023523
   3 O :   -0.470962
   4 C :   -0.254888
   5 C :    0.180848
   6 C :   -0.462971
   7 C :   -0.281796
   8 C :   -0.300998
   9 H :    0.133300
  10 H :    0.118420
  11 H :    0.131030
  12 H :    0.097862
  13 H :    0.107152
  14 H :    0.089379
  15 H :    0.309768
  16 H :    0.119795
  17 H :    0.116223
  18 H :    0.119265
  19 H :    0.119789
  20 H :    0.165403
  21 H :    0.125955
  22 H :    0.122887
  23 H :    0.123932
  24 H :    0.128308
Sum of atomic charges:    0.0000000

LOEWDIN ATOMIC CHARGES
----------------------
   0 C :   -0.320124
   1 C :   -0.286729
   2 C :   -0.340109
   3 O :   -0.017355
   4 C :   -0.215305
   5 C :   -0.273545
   6 C :   -0.272631
   7 C :   -0.214878
   8 C :   -0.214065
   9 H :    0.123360
  10 H :    0.121129
  11 H :    0.119310
  12 H :    0.134218
  13 H :    0.138119
  14 H :    0.147695
  15 H :    0.172840
  16 H :    0.142409
  17 H :    0.151132
  18 H :    0.123333
  19 H :    0.125659
  20 H :    0.129785
  21 H :    0.131552
  22 H :    0.129977
  23 H :    0.131453
  24 H :    0.132770

  Mayer bond orders larger than 0.1
B(  0-C ,  1-C ) :   0.9319 B(  0-C ,  9-H ) :   0.9348 B(  0-C , 10-H ) :   0.9372
B(  0-C , 11-H ) :   0.9418 B(  1-C ,  2-C ) :   0.9383 B(  1-C , 12-H ) :   0.9132
B(  1-C , 13-H ) :   0.9325 B(  2-C ,  3-O ) :   0.9038 B(  2-C ,  4-C ) :   0.9303
B(  2-C , 14-H ) :   0.9306 B(  3-O , 15-H ) :   0.8423 B(  4-C ,  5-C ) :   0.8881
B(  4-C , 16-H ) :   0.9126 B(  4-C , 17-H ) :   0.9244 B(  5-C ,  6-C ) :   0.9101
B(  5-C ,  7-C ) :   0.8698 B(  5-C ,  8-C ) :   0.8774 B(  6-C , 18-H ) :   0.9410
B(  6-C , 19-H ) :   0.9259 B(  6-C , 20-H ) :   0.9361 B(  7-C ,  8-C ) :   0.9050
B(  7-C , 21-H ) :   0.9315 B(  7-C , 22-H ) :   0.9225 B(  8-C , 23-H ) :   0.9273
B(  8-C , 24-H ) :   0.9277

MP2 TOTAL ENERGY:     -388.811962007 Eh
FINAL SINGLE POINT ENERGY      -388.811962007142

DIPOLE MOMENT
-------------
                                X             Y             Z
Electronic contribution:      1.36930      -1.00634      -0.92549
Nuclear contribution   :     -1.62793       0.78962       1.39389
                        -----------------------------------------
Total Dipole Moment    :     -0.25863      -0.21672       0.46840
                        -----------------------------------------
Magnitude (a.u.)       :      0.57729
Magnitude (Debye)      :      1.46734

                             ****ORCA TERMINATED NORMALLY****
TOTAL RUN TIME: 0 days 0 hours 19 minutes 51 seconds 178 msec
