                         Program Version 3.0.3 - RELEASE   -
|  1> ! RI-MP2 RIJK def2-TZVP def2-TZVP/C def2-TZVP/JK TIGHTSCF
|  2> % maxcore 2000
|  3> % mp2 density relaxed end
|  4> *xyz 0 1
|  5>  C        0.0337262852     1.6012633245    -0.0177763538
|  6>  C        0.0555980588     0.0777805397     0.1021542081
|  7>  O        0.7429079900    -0.3506455892     1.2671869923
|  8>  C       -1.3714109118    -0.5490939468     0.0418440752
|  9>  C       -1.3278300593    -2.0930216635    -0.0636101574
| 10>  C       -0.9275133165    -2.6086226489    -1.4483764962
| 11>  O       -0.9690118578    -4.0242698510    -1.5229657721
| 12>  C       -2.1290713576    -0.1388072157     1.2240560021
| 13>  C       -2.7009734573     0.1850382967     2.2323765649
| 14>  H        1.0512872668     1.9926302305     0.0600184160
| 15>  H       -0.3875506613     1.9161991595    -0.9785015036
| 16>  H       -0.5718065796     2.0448760998     0.7793745345
| 17>  H        0.6350270885    -0.3346440518    -0.7305190931
| 18>  H        0.2141105667    -0.0699982147     2.0254856035
| 19>  H       -1.8753137803    -0.1479309537    -0.8491809387
| 20>  H       -0.6237104594    -2.4615138267     0.6917654922
| 21>  H       -2.3115395070    -2.5048436444     0.1795513217
| 22>  H       -1.6420841416    -2.2534208196    -2.2001667444
| 23>  H        0.0630808560    -2.2279121380    -1.7408911388
| 24>  H       -0.3144874378    -4.3690311174    -0.9069556628
| 25>  H       -3.2385072246     0.4721409507     3.1023739105
| 26> *
| 27>
| 28>                          ****END OF INPUT****

CARTESIAN COORDINATES (ANGSTROEM)
---------------------------------
  C      0.033726    1.601263   -0.017776
  C      0.055598    0.077781    0.102154
  O      0.742908   -0.350646    1.267187
  C     -1.371411   -0.549094    0.041844
  C     -1.327830   -2.093022   -0.063610
  C     -0.927513   -2.608623   -1.448376
  O     -0.969012   -4.024270   -1.522966
  C     -2.129071   -0.138807    1.224056
  C     -2.700973    0.185038    2.232377
  H      1.051287    1.992630    0.060018
  H     -0.387551    1.916199   -0.978502
  H     -0.571807    2.044876    0.779375
  H      0.635027   -0.334644   -0.730519
  H      0.214111   -0.069998    2.025486
  H     -1.875314   -0.147931   -0.849181
  H     -0.623710   -2.461514    0.691765
  H     -2.311540   -2.504844    0.179551
  H     -1.642084   -2.253421   -2.200167
  H      0.063081   -2.227912   -1.740891
  H     -0.314487   -4.369031   -0.906956
  H     -3.238507    0.472141    3.102374

 Total Charge           Charge          ....    0
 Multiplicity           Mult            ....    1
 Number of Electrons    NEL             ....   70
 Basis Dimension        Dim             ....  351

ORBITAL ENERGIES
----------------

  NO   OCC          E(Eh)            E(eV)
   0   2.0000     -20.557585      -559.4003
   1   2.0000     -20.557210      -559.3901
   2   2.0000     -11.292944      -307.2966
   3   2.0000     -11.279283      -306.9249
   4   2.0000     -11.265704      -306.5554
   5   2.0000     -11.243820      -305.9599
   6   2.0000     -11.232313      -305.6468
   7   2.0000     -11.231007      -305.6112
   8   2.0000     -11.220560      -305.3270
   9   2.0000      -1.367728       -37.2178
  10   2.0000      -1.361560       -37.0499
  11   2.0000      -1.112072       -30.2610
  12   2.0000      -1.023639       -27.8546
  13   2.0000      -1.013255       -27.5721
  14   2.0000      -0.934232       -25.4217
  15   2.0000      -0.849265       -23.1097
  16   2.0000      -0.824461       -22.4347
  17   2.0000      -0.728439       -19.8218
  18   2.0000      -0.697092       -18.9688
  19   2.0000      -0.680103       -18.5065
  20   2.0000      -0.663925       -18.0663
  21   2.0000      -0.639595       -17.4043
  22   2.0000      -0.616362       -16.7721
  23   2.0000      -0.606534       -16.5046
  24   2.0000      -0.580573       -15.7982
  25   2.0000      -0.563400       -15.3309
  26   2.0000      -0.543518       -14.7899
  27   2.0000      -0.525336       -14.2951
  28   2.0000      -0.511743       -13.9252
  29   2.0000      -0.495073       -13.4716
  30   2.0000      -0.473853       -12.8942
  31   2.0000      -0.451593       -12.2885
  32   2.0000      -0.445900       -12.1336
  33   2.0000      -0.397400       -10.8138
  34   2.0000      -0.392545       -10.6817
  35   0.0000       0.129662         3.5283
  36   0.0000       0.140859         3.8330
  37   0.0000       0.148362         4.0371
  38   0.0000       0.164072         4.4646
  39   0.0000       0.168456         4.5839

MULLIKEN ATOMIC CHARGES
-----------------------
   0 C :   -0.391640
   1 C :    0.089393
   2 O :   -0.475193
   3 C :   -0.167734
   4 C :   -0.213388
   5 C :   -0.038749
   6 O :   -0.467869
   7 C :   -0.114769
   8 C :   -0.142101
   9 H :    0.145793
  10 H :    0.122777
  11 H :    0.137173
  12 H :    0.092423
  13 H :    0.322932
  14 H :    0.118270
  15 H :    0.119832
  16 H :    0.138772
  17 H :    0.110620
  18 H :    0.105121
  19 H :    0.315608
  20 H :    0.192730
Sum of atomic charges:    0.0000000

LOEWDIN ATOMIC CHARGES
----------------------
   0 C :   -0.296351
   1 C :   -0.342058
   2 O :   -0.010639
   3 C :   -0.229302
   4 C :   -0.241773
   5 C :   -0.348458
   6 O :   -0.048216
   7 C :   -0.098024
   8 C :   -0.102788
   9 H :    0.127573
  10 H :    0.126317
  11 H :    0.128530
  12 H :    0.144525
  13 H :    0.180959
  14 H :    0.173797
  15 H :    0.143792
  16 H :    0.147265
  17 H :    0.128357
  18 H :    0.113887
  19 H :    0.174454
  20 H :    0.128153

  Mayer bond orders larger than 0.1
B(  0-C ,  1-C ) :   0.9274 B(  0-C ,  9-H ) :   0.9415 B(  0-C , 10-H ) :   0.9292
B(  0-C , 11-H ) :   0.9211 B(  1-C ,  2-O ) :   0.9247 B(  1-C ,  3-C ) :   0.8744
B(  1-C , 12-H ) :   0.9263 B(  2-O , 13-H ) :   0.8318 B(  3-C ,  4-C ) :   0.8765
B(  3-C ,  7-C ) :   1.1030 B(  3-C , 14-H ) :   0.9279 B(  4-C ,  5-C ) :   0.9096
B(  4-C , 15-H ) :   0.9126 B(  4-C , 16-H ) :   0.9276 B(  5-C ,  6-O ) :   0.9331
B(  5-C , 17-H ) :   0.9204 B(  5-C , 18-H ) :   0.9478 B(  6-O , 19-H ) :   0.8464
B(  7-C ,  8-C ) :   2.5921 B(  8-C , 20-H ) :   0.8960

MP2 TOTAL ENERGY:     -423.486173105 Eh
FINAL SINGLE POINT ENERGY      -423.486173104761

DIPOLE MOMENT
-------------
                                X             Y             Z
Electronic contribution:     -1.58579      -2.48504       2.58166
Nuclear contribution   :      1.52026       3.08148      -2.31586
                        -----------------------------------------
Total Dipole Moment    :     -0.06553       0.59644       0.26580
                        -----------------------------------------
Magnitude (a.u.)       :      0.65626
Magnitude (Debye)      :      1.66809

                             ****ORCA TERMINATED NORMALLY****
TOTAL RUN TIME: 0 days 0 hours 18 minutes 52 seconds 682 msec
