                         Program Version 3.0.3 - RELEASE   -
|  1> ! RI-MP2 RIJK def2-TZVP def2-TZVP/C def2-TZVP/JK TIGHTSCF
|  2> % maxcore 2000
|  3> % mp2 density relaxed end
|  4> *xyz 0 1
|  5>  C        0.0659431308    -1.1676942927    -0.0054493089
|  6>  C        0.0582356417     0.0323194370     0.0021425101
|  7>  C        0.0033294915     1.4824483542     0.0118601336
|  8>  O        1.3513086124     1.9992430994    -0.0009743003
|  9>  C        1.4420978947     3.3205253444     0.0061988884
| 10>  N        0.4139570900     4.1380236245     0.0235662057
| 11>  O        1.0341879299     5.4018815237     0.0240689221
| 12>  C        2.3457595411     5.1699778007     0.0069822592
| 13>  N        2.6788478369     3.9201954058    -0.0048012268
| 14>  H        0.0784330742    -2.2298952017    -0.0122373388
| 15>  H       -0.5357359058     1.8666413291    -0.8623474772
| 16>  H       -0.5146934954     1.8556049310     0.9033986400
| 17>  H        2.9977095179     6.0314755644     0.0045919928
| 18> *
| 19>
| 20>                          ****END OF INPUT****

CARTESIAN COORDINATES (ANGSTROEM)
---------------------------------
  C      0.065943   -1.167694   -0.005449
  C      0.058236    0.032319    0.002143
  C      0.003329    1.482448    0.011860
  O      1.351309    1.999243   -0.000974
  C      1.442098    3.320525    0.006199
  N      0.413957    4.138024    0.023566
  O      1.034188    5.401882    0.024069
  C      2.345760    5.169978    0.006982
  N      2.678848    3.920195   -0.004801
  H      0.078433   -2.229895   -0.012237
  H     -0.535736    1.866641   -0.862347
  H     -0.514693    1.855605    0.903399
  H      2.997710    6.031476    0.004592

 Total Charge           Charge          ....    0
 Multiplicity           Mult            ....    1
 Number of Electrons    NEL             ....   64
 Basis Dimension        Dim             ....  303

ORBITAL ENERGIES
----------------

  NO   OCC          E(Eh)            E(eV)
   0   2.0000     -20.668907      -562.4296
   1   2.0000     -20.627540      -561.3039
   2   2.0000     -15.626029      -425.2059
   3   2.0000     -15.589950      -424.2241
   4   2.0000     -11.384571      -309.7899
   5   2.0000     -11.375924      -309.5546
   6   2.0000     -11.334093      -308.4163
   7   2.0000     -11.249528      -306.1152
   8   2.0000     -11.243356      -305.9473
   9   2.0000      -1.534829       -41.7648
  10   2.0000      -1.461378       -39.7661
  11   2.0000      -1.265509       -34.4362
  12   2.0000      -1.165419       -31.7127
  13   2.0000      -1.077073       -29.3086
  14   2.0000      -0.984942       -26.8016
  15   2.0000      -0.888515       -24.1777
  16   2.0000      -0.842444       -22.9241
  17   2.0000      -0.773089       -21.0368
  18   2.0000      -0.746857       -20.3230
  19   2.0000      -0.718250       -19.5446
  20   2.0000      -0.694496       -18.8982
  21   2.0000      -0.672675       -18.3044
  22   2.0000      -0.667837       -18.1728
  23   2.0000      -0.622918       -16.9504
  24   2.0000      -0.567919       -15.4539
  25   2.0000      -0.558702       -15.2030
  26   2.0000      -0.533082       -14.5059
  27   2.0000      -0.483493       -13.1565
  28   2.0000      -0.461272       -12.5519
  29   2.0000      -0.415540       -11.3074
  30   2.0000      -0.408230       -11.1085
  31   2.0000      -0.404446       -11.0055
  32   0.0000       0.112518         3.0618
  33   0.0000       0.140546         3.8245
  34   0.0000       0.157213         4.2780
  35   0.0000       0.161063         4.3828
  36   0.0000       0.164356         4.4723

MULLIKEN ATOMIC CHARGES
-----------------------
   0 C :   -0.043790
   1 C :   -0.021376
   2 C :   -0.264061
   3 O :   -0.218167
   4 C :    0.304249
   5 N :   -0.188147
   6 O :   -0.100049
   7 C :    0.121662
   8 N :   -0.282984
   9 H :    0.201631
  10 H :    0.157808
  11 H :    0.157809
  12 H :    0.175417
Sum of atomic charges:    0.0000000

LOEWDIN ATOMIC CHARGES
----------------------
   0 C :   -0.068364
   1 C :   -0.105154
   2 C :   -0.255911
   3 O :    0.286638
   4 C :   -0.493858
   5 N :    0.011444
   6 O :    0.269999
   7 C :   -0.337468
   8 N :    0.120164
   9 H :    0.130726
  10 H :    0.150904
  11 H :    0.150904
  12 H :    0.139977

  Mayer bond orders larger than 0.1
B(  0-C ,  1-C ) :   2.6241 B(  0-C ,  2-C ) :  -0.1358 B(  0-C ,  9-H ) :   0.8822
B(  1-C ,  2-C ) :   1.0960 B(  2-C ,  3-O ) :   0.8622 B(  2-C , 10-H ) :   0.9243
B(  2-C , 11-H ) :   0.9243 B(  3-O ,  4-C ) :   1.1468 B(  4-C ,  5-N ) :   1.5283
B(  4-C ,  8-N ) :   1.2190 B(  5-N ,  6-O ) :   0.8398 B(  6-O ,  7-C ) :   1.1627
B(  7-C ,  8-N ) :   1.5975 B(  7-C , 12-H ) :   0.9171

MP2 TOTAL ENERGY:     -451.942100895 Eh
FINAL SINGLE POINT ENERGY      -451.942100894865

DIPOLE MOMENT
-------------
                                X             Y             Z
Electronic contribution:      1.85979       3.40446      -0.00088
Nuclear contribution   :     -2.03788      -3.33344       0.00345
                        -----------------------------------------
Total Dipole Moment    :     -0.17808       0.07102       0.00256
                        -----------------------------------------
Magnitude (a.u.)       :      0.19174
Magnitude (Debye)      :      0.48736

                             ****ORCA TERMINATED NORMALLY****
TOTAL RUN TIME: 0 days 0 hours 11 minutes 32 seconds 649 msec
