                         Program Version 3.0.3 - RELEASE   -
|  1> ! RI-MP2 RIJK def2-TZVP def2-TZVP/C def2-TZVP/JK TIGHTSCF
|  2> % maxcore 2000
|  3> % mp2 density relaxed end
|  4> *xyz 0 1
|  5>  C       -0.0647327851     1.4960157061     0.0070359632
|  6>  C        0.0635207801    -0.0085922022    -0.0002325887
|  7>  C       -0.8097697162    -0.8327690138     0.9132745178
|  8>  C        0.6917008903    -0.7861163725     1.1475467478
|  9>  C        1.4630998282    -1.8930372224     0.5152382198
| 10>  C        1.3528799444    -1.8756028905    -0.8166157922
| 11>  C        1.9237500106    -2.8608291534    -1.7830951375
| 12>  O        2.6646435922    -3.8466902084    -1.0859050063
| 13>  C        0.5326961643    -0.6900776878    -1.2930582507
| 14>  H        0.8713410957     1.9765550376    -0.3012199828
| 15>  H       -0.8513539412     1.8337946433    -0.6789114151
| 16>  H       -0.3173877587     1.8688196907     1.0048408229
| 17>  H       -1.4438976828    -0.2844325480     1.6038523411
| 18>  H       -1.2329929746    -1.7657202007     0.5534315070
| 19>  H        1.0656516772    -0.2937166528     2.0395508066
| 20>  H        2.0085013542    -2.6418170237     1.0750022908
| 21>  H        1.1047551470    -3.3159197086    -2.3694705948
| 22>  H        2.5576027975    -2.3256757809    -2.5141427278
| 23>  H        3.0255445965    -4.4604114190    -1.7314745500
| 24>  H       -0.3083931803    -0.9941232372    -1.9312946531
| 25>  H        1.1423456909    -0.0042519957    -1.9008975780
| 26> *
| 27>
| 28>                          ****END OF INPUT****

CARTESIAN COORDINATES (ANGSTROEM)
---------------------------------
  C     -0.064733    1.496016    0.007036
  C      0.063521   -0.008592   -0.000233
  C     -0.809770   -0.832769    0.913275
  C      0.691701   -0.786116    1.147547
  C      1.463100   -1.893037    0.515238
  C      1.352880   -1.875603   -0.816616
  C      1.923750   -2.860829   -1.783095
  O      2.664644   -3.846690   -1.085905
  C      0.532696   -0.690078   -1.293058
  H      0.871341    1.976555   -0.301220
  H     -0.851354    1.833795   -0.678911
  H     -0.317388    1.868820    1.004841
  H     -1.443898   -0.284433    1.603852
  H     -1.232993   -1.765720    0.553432
  H      1.065652   -0.293717    2.039551
  H      2.008501   -2.641817    1.075002
  H      1.104755   -3.315920   -2.369471
  H      2.557603   -2.325676   -2.514143
  H      3.025545   -4.460411   -1.731475
  H     -0.308393   -0.994123   -1.931295
  H      1.142346   -0.004252   -1.900898

 Total Charge           Charge          ....    0
 Multiplicity           Mult            ....    1
 Number of Electrons    NEL             ....   68
 Basis Dimension        Dim             ....  351

ORBITAL ENERGIES
----------------

  NO   OCC          E(Eh)            E(eV)
   0   2.0000     -20.556561      -559.3725
   1   2.0000     -11.281043      -306.9728
   2   2.0000     -11.230733      -305.6038
   3   2.0000     -11.224188      -305.4257
   4   2.0000     -11.221299      -305.3471
   5   2.0000     -11.219403      -305.2955
   6   2.0000     -11.216891      -305.2271
   7   2.0000     -11.214725      -305.1682
   8   2.0000     -11.210615      -305.0563
   9   2.0000      -1.361897       -37.0591
  10   2.0000      -1.178746       -32.0753
  11   2.0000      -1.053401       -28.6645
  12   2.0000      -0.982010       -26.7218
  13   2.0000      -0.927255       -25.2319
  14   2.0000      -0.918364       -24.9900
  15   2.0000      -0.803660       -21.8687
  16   2.0000      -0.739239       -20.1157
  17   2.0000      -0.708464       -19.2783
  18   2.0000      -0.695270       -18.9193
  19   2.0000      -0.653108       -17.7720
  20   2.0000      -0.634781       -17.2733
  21   2.0000      -0.607198       -16.5227
  22   2.0000      -0.586571       -15.9614
  23   2.0000      -0.569962       -15.5095
  24   2.0000      -0.547221       -14.8906
  25   2.0000      -0.543957       -14.8018
  26   2.0000      -0.520815       -14.1721
  27   2.0000      -0.503151       -13.6914
  28   2.0000      -0.491926       -13.3860
  29   2.0000      -0.461685       -12.5631
  30   2.0000      -0.455143       -12.3851
  31   2.0000      -0.428642       -11.6639
  32   2.0000      -0.383758       -10.4426
  33   2.0000      -0.315605        -8.5881
  34   0.0000       0.132594         3.6081
  35   0.0000       0.142857         3.8873
  36   0.0000       0.155720         4.2374
  37   0.0000       0.167990         4.5713
  38   0.0000       0.184297         5.0150

MULLIKEN ATOMIC CHARGES
-----------------------
   0 C :   -0.413540
   1 C :    0.125787
   2 C :   -0.322309
   3 C :   -0.028848
   4 C :   -0.225113
   5 C :   -0.014035
   6 C :   -0.118310
   7 O :   -0.461776
   8 C :   -0.215193
   9 H :    0.129432
  10 H :    0.132077
  11 H :    0.127291
  12 H :    0.124569
  13 H :    0.130209
  14 H :    0.126006
  15 H :    0.141591
  16 H :    0.106355
  17 H :    0.103832
  18 H :    0.313861
  19 H :    0.124848
  20 H :    0.113268
Sum of atomic charges:    0.0000000

LOEWDIN ATOMIC CHARGES
----------------------
   0 C :   -0.271350
   1 C :   -0.230511
   2 C :   -0.181018
   3 C :   -0.167870
   4 C :   -0.109557
   5 C :   -0.166652
   6 C :   -0.317023
   7 O :   -0.037970
   8 C :   -0.167646
   9 H :    0.125968
  10 H :    0.126680
  11 H :    0.128140
  12 H :    0.133653
  13 H :    0.135903
  14 H :    0.143734
  15 H :    0.145568
  16 H :    0.123968
  17 H :    0.124419
  18 H :    0.173086
  19 H :    0.144239
  20 H :    0.144238

  Mayer bond orders larger than 0.1
B(  0-C ,  1-C ) :   0.8981 B(  0-C ,  9-H ) :   0.9380 B(  0-C , 10-H ) :   0.9408
B(  0-C , 11-H ) :   0.9355 B(  1-C ,  2-C ) :   0.8956 B(  1-C ,  3-C ) :   0.8439
B(  1-C ,  8-C ) :   0.9267 B(  2-C ,  3-C ) :   0.8612 B(  2-C , 12-H ) :   0.9260
B(  2-C , 13-H ) :   0.9165 B(  3-C ,  4-C ) :   0.9062 B(  3-C , 14-H ) :   0.9253
B(  4-C ,  5-C ) :   1.7786 B(  4-C , 15-H ) :   0.9297 B(  5-C ,  6-C ) :   0.9075
B(  5-C ,  7-O ) :  -0.1243 B(  5-C ,  8-C ) :   0.9702 B(  6-C ,  7-O ) :   1.0590
B(  6-C , 16-H ) :   0.9375 B(  6-C , 17-H ) :   0.9317 B(  7-O , 18-H ) :   0.8483
B(  8-C , 19-H ) :   0.9041 B(  8-C , 20-H ) :   0.9025

MP2 TOTAL ENERGY:     -386.409798917 Eh
FINAL SINGLE POINT ENERGY      -386.409798917067

DIPOLE MOMENT
-------------
                                X             Y             Z
Electronic contribution:      2.95170      -4.81644       0.70642
Nuclear contribution   :     -2.99600       4.84251      -1.37174
                        -----------------------------------------
Total Dipole Moment    :     -0.04431       0.02607      -0.66532
                        -----------------------------------------
Magnitude (a.u.)       :      0.66730
Magnitude (Debye)      :      1.69614

                             ****ORCA TERMINATED NORMALLY****
TOTAL RUN TIME: 0 days 0 hours 17 minutes 46 seconds 819 msec
