                         Program Version 3.0.3 - RELEASE   -
|  1> ! RI-MP2 RIJK def2-TZVP def2-TZVP/C def2-TZVP/JK TIGHTSCF
|  2> % maxcore 2000
|  3> % mp2 density relaxed end
|  4> *xyz 0 1
|  5>  C       -0.0841839671     1.4734930978    -0.1508182438
|  6>  C        1.2754514809     0.8466891922     0.0505201067
|  7>  C        0.0388087148    -0.0132803307    -0.0220078701
|  8>  C       -0.4634407884    -0.9777559531     1.0929522803
|  9>  C       -0.2524896352    -2.1517619022     0.0622644591
| 10>  O       -1.2506005108    -3.0877113680    -0.2873858059
| 11>  C       -1.5599526196    -2.8717511509    -1.6799113243
| 12>  C       -1.0696865077    -1.4628894658    -1.9946343468
| 13>  C       -0.2684671001    -1.0986726477    -1.0004523453
| 14>  H       -0.5248223859     2.0156627257     0.6796324190
| 15>  H       -0.3219670071     1.8819175692    -1.1274594233
| 16>  H        1.9610769945     0.8263850862    -0.7894720803
| 17>  H        1.7527340045     0.9600875448     1.0185694285
| 18>  H        0.1152723478    -1.0189544399     2.0193337088
| 19>  H       -1.5244652525    -0.8327950457     1.3100030112
| 20>  H        0.7110059007    -2.6517659210     0.2369128972
| 21>  H       -1.0857395425    -3.6542469747    -2.2948605110
| 22>  H       -2.6455592674    -2.9606330187    -1.8146003550
| 23>  H       -1.4662963389    -0.8679366773    -2.8072236550
| 24> *
| 25>
| 26>                          ****END OF INPUT****

CARTESIAN COORDINATES (ANGSTROEM)
---------------------------------
  C     -0.084184    1.473493   -0.150818
  C      1.275451    0.846689    0.050520
  C      0.038809   -0.013280   -0.022008
  C     -0.463441   -0.977756    1.092952
  C     -0.252490   -2.151762    0.062264
  O     -1.250601   -3.087711   -0.287386
  C     -1.559953   -2.871751   -1.679911
  C     -1.069687   -1.462889   -1.994634
  C     -0.268467   -1.098673   -1.000452
  H     -0.524822    2.015663    0.679632
  H     -0.321967    1.881918   -1.127459
  H      1.961077    0.826385   -0.789472
  H      1.752734    0.960088    1.018569
  H      0.115272   -1.018954    2.019334
  H     -1.524465   -0.832795    1.310003
  H      0.711006   -2.651766    0.236913
  H     -1.085740   -3.654247   -2.294861
  H     -2.645559   -2.960633   -1.814600
  H     -1.466296   -0.867937   -2.807224

 Total Charge           Charge          ....    0
 Multiplicity           Mult            ....    1
 Number of Electrons    NEL             ....   66
 Basis Dimension        Dim             ....  339

ORBITAL ENERGIES
----------------

  NO   OCC          E(Eh)            E(eV)
   0   2.0000     -20.549506      -559.1805
   1   2.0000     -11.278944      -306.9157
   2   2.0000     -11.274308      -306.7895
   3   2.0000     -11.254740      -306.2571
   4   2.0000     -11.233844      -305.6884
   5   2.0000     -11.233327      -305.6744
   6   2.0000     -11.232353      -305.6479
   7   2.0000     -11.231825      -305.6335
   8   2.0000     -11.227950      -305.5280
   9   2.0000      -1.373411       -37.3724
  10   2.0000      -1.175643       -31.9909
  11   2.0000      -1.084954       -29.5231
  12   2.0000      -1.028418       -27.9847
  13   2.0000      -0.905139       -24.6301
  14   2.0000      -0.832710       -22.6592
  15   2.0000      -0.822229       -22.3740
  16   2.0000      -0.797885       -21.7116
  17   2.0000      -0.714457       -19.4414
  18   2.0000      -0.679727       -18.4963
  19   2.0000      -0.659187       -17.9374
  20   2.0000      -0.647300       -17.6139
  21   2.0000      -0.612755       -16.6739
  22   2.0000      -0.592026       -16.1099
  23   2.0000      -0.553843       -15.0708
  24   2.0000      -0.537776       -14.6336
  25   2.0000      -0.522162       -14.2088
  26   2.0000      -0.507677       -13.8146
  27   2.0000      -0.478293       -13.0150
  28   2.0000      -0.470952       -12.8153
  29   2.0000      -0.446784       -12.1576
  30   2.0000      -0.415645       -11.3103
  31   2.0000      -0.400953       -10.9105
  32   2.0000      -0.332010        -9.0345
  33   0.0000       0.135077         3.6756
  34   0.0000       0.146548         3.9878
  35   0.0000       0.159664         4.3447
  36   0.0000       0.162985         4.4350
  37   0.0000       0.175873         4.7858

MULLIKEN ATOMIC CHARGES
-----------------------
   0 C :   -0.253948
   1 C :   -0.289049
   2 C :    0.058120
   3 C :   -0.179706
   4 C :    0.080684
   5 O :   -0.330168
   6 C :    0.019858
   7 C :   -0.272847
   8 C :   -0.032368
   9 H :    0.131156
  10 H :    0.132373
  11 H :    0.134155
  12 H :    0.130401
  13 H :    0.121167
  14 H :    0.109370
  15 H :    0.088698
  16 H :    0.101958
  17 H :    0.115297
  18 H :    0.134848
Sum of atomic charges:   -0.0000000

LOEWDIN ATOMIC CHARGES
----------------------
   0 C :   -0.202195
   1 C :   -0.195437
   2 C :   -0.186039
   3 C :   -0.153316
   4 C :   -0.239930
   5 O :    0.160816
   6 C :   -0.265012
   7 C :   -0.139048
   8 C :   -0.118501
   9 H :    0.136376
  10 H :    0.136578
  11 H :    0.135651
  12 H :    0.134309
  13 H :    0.127654
  14 H :    0.141967
  15 H :    0.139987
  16 H :    0.121855
  17 H :    0.126632
  18 H :    0.137652

  Mayer bond orders larger than 0.1
B(  0-C ,  1-C ) :   0.9431 B(  0-C ,  2-C ) :   0.8249 B(  0-C ,  9-H ) :   0.9218
B(  0-C , 10-H ) :   0.9219 B(  1-C ,  2-C ) :   0.8342 B(  1-C , 11-H ) :   0.9216
B(  1-C , 12-H ) :   0.9218 B(  2-C ,  3-C ) :   0.9009 B(  2-C ,  8-C ) :   0.9268
B(  3-C ,  4-C ) :   0.9007 B(  3-C , 13-H ) :   0.9081 B(  3-C , 14-H ) :   0.8940
B(  4-C ,  5-O ) :   0.9966 B(  4-C ,  8-C ) :   0.9798 B(  4-C , 15-H ) :   0.9248
B(  5-O ,  6-C ) :   0.9210 B(  6-C ,  7-C ) :   0.9589 B(  6-C , 16-H ) :   0.9096
B(  6-C , 17-H ) :   0.9251 B(  7-C ,  8-C ) :   1.7546 B(  7-C , 18-H ) :   0.9140

MP2 TOTAL ENERGY:     -385.151682136 Eh
FINAL SINGLE POINT ENERGY      -385.151682136310

DIPOLE MOMENT
-------------
                                X             Y             Z
Electronic contribution:     -0.97130      -3.52641      -0.83970
Nuclear contribution   :      1.11615       4.10940       0.64230
                        -----------------------------------------
Total Dipole Moment    :      0.14485       0.58299      -0.19741
                        -----------------------------------------
Magnitude (a.u.)       :      0.63232
Magnitude (Debye)      :      1.60724

                             ****ORCA TERMINATED NORMALLY****
TOTAL RUN TIME: 0 days 0 hours 18 minutes 48 seconds 464 msec
