                         Program Version 3.0.3 - RELEASE   -
|  1> ! RI-MP2 RIJK def2-TZVP def2-TZVP/C def2-TZVP/JK TIGHTSCF
|  2> % maxcore 2000
|  3> % mp2 density relaxed end
|  4> *xyz 0 1
|  5>  C       -0.0807317174     1.5603278860     0.0561561904
|  6>  C       -0.0076503860     0.0220665926     0.0384972758
|  7>  C        0.7352400025    -0.4816909934     1.2895608567
|  8>  C       -1.4433477660    -0.5431767865     0.0480991516
|  9>  C        0.7400404293    -0.4902221947    -1.2530839714
| 10>  C        2.2146975821    -0.0708846710    -1.3413124010
| 11>  O        0.7622151899    -1.9146134058    -1.3103082257
| 12>  C        0.0376632684     0.0187566297    -2.4607340356
| 13>  N       -0.5220990229     0.3904183263    -3.4015873643
| 14>  H        0.9116318053     2.0174341847     0.1038843186
| 15>  H       -0.5962619671     1.9530360819    -0.8253139946
| 16>  H       -0.6338649835     1.8917464013     0.9406198227
| 17>  H        0.1367582636    -0.2748036198     2.1822177504
| 18>  H        0.9079137373    -1.5595607178     1.2353154670
| 19>  H        1.6999385452     0.0160398997     1.4212886406
| 20>  H       -1.9956765486    -0.2662577088    -0.8554740941
| 21>  H       -1.4528919003    -1.6341293128     0.1450454284
| 22>  H       -1.9925233401    -0.1458594911     0.9067394301
| 23>  H        2.7677520756    -0.5083435529    -0.5087259019
| 24>  H        2.6393258750    -0.4510839071    -2.2724260427
| 25>  H        2.3275055669     1.0138138899    -1.3226976591
| 26>  H       -0.1401918891    -2.2342034303    -1.4158869518
| 27> *
| 28>
| 29>                          ****END OF INPUT****

CARTESIAN COORDINATES (ANGSTROEM)
---------------------------------
  C     -0.080732    1.560328    0.056156
  C     -0.007650    0.022067    0.038497
  C      0.735240   -0.481691    1.289561
  C     -1.443348   -0.543177    0.048099
  C      0.740040   -0.490222   -1.253084
  C      2.214698   -0.070885   -1.341312
  O      0.762215   -1.914613   -1.310308
  C      0.037663    0.018757   -2.460734
  N     -0.522099    0.390418   -3.401587
  H      0.911632    2.017434    0.103884
  H     -0.596262    1.953036   -0.825314
  H     -0.633865    1.891746    0.940620
  H      0.136758   -0.274804    2.182218
  H      0.907914   -1.559561    1.235315
  H      1.699939    0.016040    1.421289
  H     -1.995677   -0.266258   -0.855474
  H     -1.452892   -1.634129    0.145045
  H     -1.992523   -0.145859    0.906739
  H      2.767752   -0.508344   -0.508726
  H      2.639326   -0.451084   -2.272426
  H      2.327506    1.013814   -1.322698
  H     -0.140192   -2.234203   -1.415887

 Total Charge           Charge          ....    0
 Multiplicity           Mult            ....    1
 Number of Electrons    NEL             ....   70
 Basis Dimension        Dim             ....  357

ORBITAL ENERGIES
----------------

  NO   OCC          E(Eh)            E(eV)
   0   2.0000     -20.583471      -560.1047
   1   2.0000     -15.574131      -423.7937
   2   2.0000     -11.342890      -308.6557
   3   2.0000     -11.271721      -306.7191
   4   2.0000     -11.264313      -306.5175
   5   2.0000     -11.237627      -305.7914
   6   2.0000     -11.230723      -305.6035
   7   2.0000     -11.227544      -305.5170
   8   2.0000     -11.225507      -305.4616
   9   2.0000      -1.396160       -37.9915
  10   2.0000      -1.220829       -33.2204
  11   2.0000      -1.126194       -30.6453
  12   2.0000      -1.035853       -28.1870
  13   2.0000      -0.951108       -25.8810
  14   2.0000      -0.947606       -25.7857
  15   2.0000      -0.898599       -24.4521
  16   2.0000      -0.782708       -21.2986
  17   2.0000      -0.753933       -20.5156
  18   2.0000      -0.678100       -18.4520
  19   2.0000      -0.633372       -17.2349
  20   2.0000      -0.620743       -16.8913
  21   2.0000      -0.606871       -16.5138
  22   2.0000      -0.580318       -15.7913
  23   2.0000      -0.574477       -15.6323
  24   2.0000      -0.567369       -15.4389
  25   2.0000      -0.550624       -14.9833
  26   2.0000      -0.545223       -14.8363
  27   2.0000      -0.541270       -14.7287
  28   2.0000      -0.528458       -14.3801
  29   2.0000      -0.526334       -14.3223
  30   2.0000      -0.486031       -13.2256
  31   2.0000      -0.482614       -13.1326
  32   2.0000      -0.472033       -12.8447
  33   2.0000      -0.465919       -12.6783
  34   2.0000      -0.443014       -12.0550
  35   0.0000       0.118667         3.2291
  36   0.0000       0.146614         3.9896
  37   0.0000       0.159790         4.3481
  38   0.0000       0.172188         4.6855
  39   0.0000       0.181333         4.9343

MULLIKEN ATOMIC CHARGES
-----------------------
   0 C :   -0.453958
   1 C :    0.094466
   2 C :   -0.450506
   3 C :   -0.479077
   4 C :    0.374083
   5 C :   -0.433784
   6 O :   -0.450092
   7 C :   -0.254535
   8 N :   -0.038890
   9 H :    0.135396
  10 H :    0.161623
  11 H :    0.138441
  12 H :    0.139110
  13 H :    0.155515
  14 H :    0.138957
  15 H :    0.165685
  16 H :    0.131085
  17 H :    0.141606
  18 H :    0.155298
  19 H :    0.157979
  20 H :    0.144556
  21 H :    0.327043
Sum of atomic charges:    0.0000000

LOEWDIN ATOMIC CHARGES
----------------------
   0 C :   -0.261689
   1 C :   -0.306081
   2 C :   -0.267015
   3 C :   -0.271817
   4 C :   -0.352182
   5 C :   -0.241583
   6 O :    0.040901
   7 C :   -0.160140
   8 N :    0.067224
   9 H :    0.125436
  10 H :    0.134824
  11 H :    0.130676
  12 H :    0.129648
  13 H :    0.131402
  14 H :    0.125445
  15 H :    0.134466
  16 H :    0.123021
  17 H :    0.131703
  18 H :    0.134730
  19 H :    0.138062
  20 H :    0.132708
  21 H :    0.180261

  Mayer bond orders larger than 0.1
B(  0-C ,  1-C ) :   0.9135 B(  0-C ,  9-H ) :   0.9343 B(  0-C , 10-H ) :   0.9258
B(  0-C , 11-H ) :   0.9325 B(  1-C ,  2-C ) :   0.8947 B(  1-C ,  3-C ) :   0.8743
B(  1-C ,  4-C ) :   0.8535 B(  2-C , 12-H ) :   0.9357 B(  2-C , 13-H ) :   0.9303
B(  2-C , 14-H ) :   0.9350 B(  3-C , 15-H ) :   0.9301 B(  3-C , 16-H ) :   0.9369
B(  3-C , 17-H ) :   0.9327 B(  4-C ,  5-C ) :   0.8463 B(  4-C ,  6-O ) :   0.9139
B(  4-C ,  7-C ) :   0.9035 B(  5-C , 18-H ) :   0.9398 B(  5-C , 19-H ) :   0.9335
B(  5-C , 20-H ) :   0.9319 B(  6-O , 21-H ) :   0.8340 B(  7-C ,  8-N ) :   2.8723

MP2 TOTAL ENERGY:     -403.692884495 Eh
FINAL SINGLE POINT ENERGY      -403.692884495360

DIPOLE MOMENT
-------------
                                X             Y             Z
Electronic contribution:     -0.69828      -2.29570      -9.23514
Nuclear contribution   :      0.85904       2.22005      10.50827
                        -----------------------------------------
Total Dipole Moment    :      0.16075      -0.07566       1.27314
                        -----------------------------------------
Magnitude (a.u.)       :      1.28547
Magnitude (Debye)      :      3.26741

                             ****ORCA TERMINATED NORMALLY****
TOTAL RUN TIME: 0 days 0 hours 25 minutes 25 seconds 866 msec
