                         Program Version 3.0.3 - RELEASE   -
|  1> ! RI-MP2 RIJK def2-TZVP def2-TZVP/C def2-TZVP/JK TIGHTSCF
|  2> % maxcore 2000
|  3> % mp2 density relaxed end
|  4> *xyz 0 1
|  5>  C       -0.0298265545     1.4782663491    -0.0274885253
|  6>  N        0.0177356290     0.0405238565     0.0999472690
|  7>  C       -1.2214206811    -0.6940988762     0.4215625477
|  8>  C       -0.4033587748    -1.6115892472     1.3506488540
|  9>  O        0.0926893560    -2.7898793370     0.7203138944
| 10>  C        1.4126608273    -2.6631499880     0.3572008823
| 11>  N        2.0532641343    -3.5319087163    -0.2938082506
| 12>  C        1.9756033755    -1.3537190916     0.8801353389
| 13>  C        0.7313649690    -0.5606082878     1.2494515588
| 14>  H        0.9797439303     1.8719779760    -0.1851800690
| 15>  H       -0.6333092977     1.7526860837    -0.8989668294
| 16>  H       -0.4609976112     1.9829004205     0.8587426220
| 17>  H       -1.9543215636    -0.0995611457     0.9913827369
| 18>  H       -1.7199048033    -1.1655967462    -0.4313539261
| 19>  H       -0.8319477478    -1.8783555142     2.3169100202
| 20>  H        1.4527833344    -4.3273655595    -0.5175343958
| 21>  H        2.6051349697    -1.5531338781     1.7545267987
| 22>  H        2.5897906009    -0.8687493836     0.1204858456
| 23>  H        0.8459906977     0.1064011056     2.1131315077
| 24> *
| 25>
| 26>                          ****END OF INPUT****

CARTESIAN COORDINATES (ANGSTROEM)
---------------------------------
  C     -0.029827    1.478266   -0.027489
  N      0.017736    0.040524    0.099947
  C     -1.221421   -0.694099    0.421563
  C     -0.403359   -1.611589    1.350649
  O      0.092689   -2.789879    0.720314
  C      1.412661   -2.663150    0.357201
  N      2.053264   -3.531909   -0.293808
  C      1.975603   -1.353719    0.880135
  C      0.731365   -0.560608    1.249452
  H      0.979744    1.871978   -0.185180
  H     -0.633309    1.752686   -0.898967
  H     -0.460998    1.982900    0.858743
  H     -1.954322   -0.099561    0.991383
  H     -1.719905   -1.165597   -0.431354
  H     -0.831948   -1.878356    2.316910
  H      1.452783   -4.327366   -0.517534
  H      2.605135   -1.553134    1.754527
  H      2.589791   -0.868749    0.120486
  H      0.845991    0.106401    2.113132

 Total Charge           Charge          ....    0
 Multiplicity           Mult            ....    1
 Number of Electrons    NEL             ....   68
 Basis Dimension        Dim             ....  339

ORBITAL ENERGIES
----------------

  NO   OCC          E(Eh)            E(eV)
   0   2.0000     -20.590901      -560.3069
   1   2.0000     -15.557649      -423.3451
   2   2.0000     -15.523629      -422.4194
   3   2.0000     -11.331875      -308.3560
   4   2.0000     -11.299489      -307.4747
   5   2.0000     -11.274207      -306.7868
   6   2.0000     -11.263572      -306.4974
   7   2.0000     -11.254349      -306.2464
   8   2.0000     -11.239552      -305.8438
   9   2.0000      -1.428788       -38.8793
  10   2.0000      -1.260689       -34.3051
  11   2.0000      -1.188472       -32.3400
  12   2.0000      -1.054513       -28.6948
  13   2.0000      -1.016948       -27.6726
  14   2.0000      -0.898321       -24.4446
  15   2.0000      -0.889811       -24.2130
  16   2.0000      -0.784463       -21.3463
  17   2.0000      -0.764263       -20.7967
  18   2.0000      -0.711504       -19.3610
  19   2.0000      -0.681492       -18.5443
  20   2.0000      -0.652842       -17.7647
  21   2.0000      -0.636468       -17.3192
  22   2.0000      -0.616881       -16.7862
  23   2.0000      -0.594408       -16.1747
  24   2.0000      -0.585608       -15.9352
  25   2.0000      -0.556936       -15.1550
  26   2.0000      -0.538098       -14.6424
  27   2.0000      -0.524589       -14.2748
  28   2.0000      -0.501741       -13.6531
  29   2.0000      -0.477614       -12.9965
  30   2.0000      -0.458006       -12.4630
  31   2.0000      -0.429663       -11.6917
  32   2.0000      -0.391284       -10.6474
  33   2.0000      -0.368974       -10.0403
  34   0.0000       0.130612         3.5541
  35   0.0000       0.150022         4.0823
  36   0.0000       0.158798         4.3211
  37   0.0000       0.169984         4.6255
  38   0.0000       0.180470         4.9108

MULLIKEN ATOMIC CHARGES
-----------------------
   0 C :   -0.338550
   1 N :   -0.175433
   2 C :   -0.164355
   3 C :    0.092469
   4 O :   -0.266352
   5 C :    0.076698
   6 N :   -0.372766
   7 C :   -0.105384
   8 C :   -0.070353
   9 H :    0.138926
  10 H :    0.143711
  11 H :    0.104827
  12 H :    0.099797
  13 H :    0.121262
  14 H :    0.125343
  15 H :    0.222118
  16 H :    0.133712
  17 H :    0.128372
  18 H :    0.105959
Sum of atomic charges:   -0.0000000

LOEWDIN ATOMIC CHARGES
----------------------
   0 C :   -0.338160
   1 N :    0.089150
   2 C :   -0.232512
   3 C :   -0.239012
   4 O :    0.254696
   5 C :   -0.391764
   6 N :   -0.061091
   7 C :   -0.199270
   8 C :   -0.225472
   9 H :    0.120225
  10 H :    0.121274
  11 H :    0.100952
  12 H :    0.124507
  13 H :    0.127511
  14 H :    0.132495
  15 H :    0.167960
  16 H :    0.153568
  17 H :    0.157065
  18 H :    0.137880

  Mayer bond orders larger than 0.1
B(  0-C ,  1-N ) :   0.9163 B(  0-C ,  9-H ) :   0.9354 B(  0-C , 10-H ) :   0.9369
B(  0-C , 11-H ) :   0.9259 B(  1-N ,  2-C ) :   0.9454 B(  1-N ,  8-C ) :   0.9492
B(  2-C ,  3-C ) :   0.9326 B(  2-C , 12-H ) :   0.9157 B(  2-C , 13-H ) :   0.9069
B(  3-C ,  4-O ) :   0.8938 B(  3-C ,  8-C ) :   0.9200 B(  3-C , 14-H ) :   0.9292
B(  4-O ,  5-C ) :   1.0655 B(  5-C ,  6-N ) :   2.0721 B(  5-C ,  7-C ) :   0.9293
B(  6-N , 15-H ) :   0.8558 B(  7-C ,  8-C ) :   0.9478 B(  7-C , 16-H ) :   0.9134
B(  7-C , 17-H ) :   0.8894 B(  8-C , 18-H ) :   0.9151

MP2 TOTAL ENERGY:     -418.494010928 Eh
FINAL SINGLE POINT ENERGY      -418.494010928135

DIPOLE MOMENT
-------------
                                X             Y             Z
Electronic contribution:      1.21401      -7.11869      -0.06261
Nuclear contribution   :     -1.98934       8.14919       0.84624
                        -----------------------------------------
Total Dipole Moment    :     -0.77533       1.03050       0.78363
                        -----------------------------------------
Magnitude (a.u.)       :      1.50902
Magnitude (Debye)      :      3.83562

                             ****ORCA TERMINATED NORMALLY****
TOTAL RUN TIME: 0 days 0 hours 18 minutes 43 seconds 262 msec
