                         Program Version 3.0.3 - RELEASE   -
|  1> ! RI-MP2 RIJK def2-TZVP def2-TZVP/C def2-TZVP/JK TIGHTSCF
|  2> % maxcore 2000
|  3> % mp2 density relaxed end
|  4> *xyz 0 1
|  5>  C       -0.3137470955     1.3127782952    -0.0915524944
|  6>  O        0.1986261568     0.0037825155     0.0912449620
|  7>  C        0.7912825493    -0.5285271157    -1.0436572802
|  8>  C       -0.0454531829    -1.0723152816    -2.1743229579
|  9>  C        0.7598471664    -2.0092600190    -1.2936635121
| 10>  C        2.1470738577    -2.3703078126    -1.7839602482
| 11>  O        2.7333732683    -1.1382851450    -2.2103029664
| 12>  C        2.2063434291    -0.0894262354    -1.4076744858
| 13>  H        0.4814870714     2.0406697890    -0.3058914175
| 14>  H       -1.0473342153     1.3469599035    -0.9088361330
| 15>  H       -0.8040368619     1.5944872987     0.8429781055
| 16>  H       -1.1183600095    -1.0794757446    -2.0175049160
| 17>  H        0.2758643975    -0.9070250263    -3.1982757917
| 18>  H        0.2385284872    -2.6687183524    -0.6108648642
| 19>  H        2.7305427792    -2.8278752586    -0.9688693992
| 20>  H        2.1649906408    -3.0471552628    -2.6444456579
| 21>  H        2.2694720671     0.8299921772    -1.9989688812
| 22>  H        2.7785851043     0.0492613449    -0.4754869418
| 23> *
| 24>
| 25>                          ****END OF INPUT****

CARTESIAN COORDINATES (ANGSTROEM)
---------------------------------
  C     -0.313747    1.312778   -0.091552
  O      0.198626    0.003783    0.091245
  C      0.791283   -0.528527   -1.043657
  C     -0.045453   -1.072315   -2.174323
  C      0.759847   -2.009260   -1.293664
  C      2.147074   -2.370308   -1.783960
  O      2.733373   -1.138285   -2.210303
  C      2.206343   -0.089426   -1.407674
  H      0.481487    2.040670   -0.305891
  H     -1.047334    1.346960   -0.908836
  H     -0.804037    1.594487    0.842978
  H     -1.118360   -1.079476   -2.017505
  H      0.275864   -0.907025   -3.198276
  H      0.238528   -2.668718   -0.610865
  H      2.730543   -2.827875   -0.968869
  H      2.164991   -3.047155   -2.644446
  H      2.269472    0.829992   -1.998969
  H      2.778585    0.049261   -0.475487

 Total Charge           Charge          ....    0
 Multiplicity           Mult            ....    1
 Number of Electrons    NEL             ....   62
 Basis Dimension        Dim             ....  308

ORBITAL ENERGIES
----------------

  NO   OCC          E(Eh)            E(eV)
   0   2.0000     -20.567473      -559.6694
   1   2.0000     -20.554570      -559.3183
   2   2.0000     -11.286413      -307.1189
   3   2.0000     -11.276459      -306.8480
   4   2.0000     -11.276217      -306.8415
   5   2.0000     -11.275577      -306.8240
   6   2.0000     -11.231537      -305.6257
   7   2.0000     -11.228325      -305.5383
   8   2.0000      -1.395556       -37.9750
   9   2.0000      -1.373980       -37.3879
  10   2.0000      -1.140823       -31.0434
  11   2.0000      -0.992214       -26.9995
  12   2.0000      -0.937377       -25.5073
  13   2.0000      -0.899555       -24.4781
  14   2.0000      -0.790441       -21.5090
  15   2.0000      -0.769189       -20.9307
  16   2.0000      -0.711541       -19.3620
  17   2.0000      -0.665750       -18.1160
  18   2.0000      -0.652764       -17.7626
  19   2.0000      -0.632935       -17.2230
  20   2.0000      -0.616317       -16.7708
  21   2.0000      -0.600711       -16.3462
  22   2.0000      -0.571421       -15.5491
  23   2.0000      -0.557147       -15.1607
  24   2.0000      -0.541431       -14.7331
  25   2.0000      -0.506848       -13.7920
  26   2.0000      -0.491606       -13.3773
  27   2.0000      -0.462781       -12.5929
  28   2.0000      -0.427037       -11.6203
  29   2.0000      -0.400095       -10.8871
  30   2.0000      -0.391088       -10.6421
  31   0.0000       0.140416         3.8209
  32   0.0000       0.160632         4.3710
  33   0.0000       0.176490         4.8025
  34   0.0000       0.186122         5.0646
  35   0.0000       0.194588         5.2950

MULLIKEN ATOMIC CHARGES
-----------------------
   0 C :   -0.212654
   1 O :   -0.300093
   2 C :    0.160113
   3 C :   -0.320706
   4 C :   -0.139510
   5 C :   -0.035734
   6 O :   -0.327379
   7 C :   -0.049872
   8 H :    0.116911
   9 H :    0.119115
  10 H :    0.142680
  11 H :    0.140943
  12 H :    0.139150
  13 H :    0.139291
  14 H :    0.099005
  15 H :    0.114086
  16 H :    0.115174
  17 H :    0.099480
Sum of atomic charges:    0.0000000

LOEWDIN ATOMIC CHARGES
----------------------
   0 C :   -0.337880
   1 O :    0.192914
   2 C :   -0.343989
   3 C :   -0.188244
   4 C :   -0.188437
   5 C :   -0.279618
   6 O :    0.149125
   7 C :   -0.267178
   8 H :    0.103572
   9 H :    0.104865
  10 H :    0.113891
  11 H :    0.141131
  12 H :    0.139585
  13 H :    0.150714
  14 H :    0.124818
  15 H :    0.128270
  16 H :    0.128308
  17 H :    0.128153

  Mayer bond orders larger than 0.1
B(  0-C ,  1-O ) :   0.8883 B(  0-C ,  8-H ) :   0.9350 B(  0-C ,  9-H ) :   0.9342
B(  0-C , 10-H ) :   0.9401 B(  1-O ,  2-C ) :   1.0189 B(  2-C ,  3-C ) :   0.8946
B(  2-C ,  4-C ) :   0.8627 B(  2-C ,  7-C ) :   0.9479 B(  3-C ,  4-C ) :   0.8888
B(  3-C , 11-H ) :   0.9221 B(  3-C , 12-H ) :   0.8984 B(  4-C ,  5-C ) :   0.9684
B(  4-C , 13-H ) :   0.9052 B(  5-C ,  6-O ) :   0.9226 B(  5-C , 14-H ) :   0.9322
B(  5-C , 15-H ) :   0.9201 B(  6-O ,  7-C ) :   0.9342 B(  7-C , 16-H ) :   0.9192
B(  7-C , 17-H ) :   0.9177

MP2 TOTAL ENERGY:     -384.278314796 Eh
FINAL SINGLE POINT ENERGY      -384.278314795850

DIPOLE MOMENT
-------------
                                X             Y             Z
Electronic contribution:      2.01996      -1.97806       0.09535
Nuclear contribution   :     -2.50141       2.19863      -0.02206
                        -----------------------------------------
Total Dipole Moment    :     -0.48145       0.22057       0.07329
                        -----------------------------------------
Magnitude (a.u.)       :      0.53462
Magnitude (Debye)      :      1.35889

                             ****ORCA TERMINATED NORMALLY****
TOTAL RUN TIME: 0 days 0 hours 11 minutes 47 seconds 174 msec
