                         Program Version 3.0.3 - RELEASE   -
|  1> ! RI-MP2 RIJK def2-TZVP def2-TZVP/C def2-TZVP/JK TIGHTSCF
|  2> % maxcore 2000
|  3> % mp2 density relaxed end
|  4> *xyz 0 1
|  5>  C       -0.0974153656     1.5317756289    -0.0320806405
|  6>  C       -0.0668743901     0.0032980028    -0.0006513477
|  7>  C        0.5703978720    -0.5145407899     1.3017404113
|  8>  C        0.7224982815    -1.9675736001     1.3062166152
|  9>  N        0.8576103628    -3.1147760366     1.2978543785
| 10>  O       -1.3696219594    -0.5540497189    -0.0479022158
| 11>  C       -1.9219382416    -0.7161021680    -1.3474506889
| 12>  C       -3.3404415148    -1.2277869786    -1.1522059948
| 13>  O       -4.1283542390    -0.3042371554    -0.4273637113
| 14>  H        0.9164791830     1.9436166577    -0.0114778439
| 15>  H       -0.5850148921     1.8907685346    -0.9419526892
| 16>  H       -0.6511052948     1.9213515939     0.8280395179
| 17>  H        0.5226757957    -0.3727664983    -0.8501072522
| 18>  H        1.5523472122    -0.0530524231     1.4488784371
| 19>  H       -0.0616764024    -0.2192159082     2.1466189362
| 20>  H       -1.9470519159     0.2430407575    -1.8847622909
| 21>  H       -1.3239877537    -1.4316275779    -1.9326538465
| 22>  H       -3.8180473703    -1.3648866599    -2.1276261077
| 23>  H       -3.3003701724    -2.2076194726    -0.6518416449
| 24>  H       -3.6331646753    -0.1112441180     0.3768699982
| 25> *
| 26>
| 27>                          ****END OF INPUT****

CARTESIAN COORDINATES (ANGSTROEM)
---------------------------------
  C     -0.097415    1.531776   -0.032081
  C     -0.066874    0.003298   -0.000651
  C      0.570398   -0.514541    1.301740
  C      0.722498   -1.967574    1.306217
  N      0.857610   -3.114776    1.297854
  O     -1.369622   -0.554050   -0.047902
  C     -1.921938   -0.716102   -1.347451
  C     -3.340442   -1.227787   -1.152206
  O     -4.128354   -0.304237   -0.427364
  H      0.916479    1.943617   -0.011478
  H     -0.585015    1.890769   -0.941953
  H     -0.651105    1.921352    0.828040
  H      0.522676   -0.372766   -0.850107
  H      1.552347   -0.053052    1.448878
  H     -0.061676   -0.219216    2.146619
  H     -1.947052    0.243041   -1.884762
  H     -1.323988   -1.431628   -1.932654
  H     -3.818047   -1.364887   -2.127626
  H     -3.300370   -2.207619   -0.651842
  H     -3.633165   -0.111244    0.376870

 Total Charge           Charge          ....    0
 Multiplicity           Mult            ....    1
 Number of Electrons    NEL             ....   70
 Basis Dimension        Dim             ....  345

ORBITAL ENERGIES
----------------

  NO   OCC          E(Eh)            E(eV)
   0   2.0000     -20.578565      -559.9712
   1   2.0000     -20.554500      -559.3164
   2   2.0000     -15.568580      -423.6426
   3   2.0000     -11.318298      -307.9865
   4   2.0000     -11.289468      -307.2020
   5   2.0000     -11.286822      -307.1300
   6   2.0000     -11.279018      -306.9177
   7   2.0000     -11.273680      -306.7724
   8   2.0000     -11.242219      -305.9163
   9   2.0000      -1.404926       -38.2300
  10   2.0000      -1.358392       -36.9637
  11   2.0000      -1.218468       -33.1562
  12   2.0000      -1.102215       -29.9928
  13   2.0000      -1.006152       -27.3788
  14   2.0000      -0.993110       -27.0239
  15   2.0000      -0.863042       -23.4846
  16   2.0000      -0.830736       -22.6055
  17   2.0000      -0.721905       -19.6440
  18   2.0000      -0.715175       -19.4609
  19   2.0000      -0.690615       -18.7926
  20   2.0000      -0.667888       -18.1742
  21   2.0000      -0.644522       -17.5383
  22   2.0000      -0.614655       -16.7256
  23   2.0000      -0.595565       -16.2061
  24   2.0000      -0.584478       -15.9044
  25   2.0000      -0.567606       -15.4454
  26   2.0000      -0.560916       -15.2633
  27   2.0000      -0.554068       -15.0770
  28   2.0000      -0.543413       -14.7870
  29   2.0000      -0.503730       -13.7072
  30   2.0000      -0.494797       -13.4641
  31   2.0000      -0.460290       -12.5251
  32   2.0000      -0.459223       -12.4961
  33   2.0000      -0.446344       -12.1456
  34   2.0000      -0.442819       -12.0497
  35   0.0000       0.114706         3.1213
  36   0.0000       0.142878         3.8879
  37   0.0000       0.153745         4.1836
  38   0.0000       0.155731         4.2376
  39   0.0000       0.169364         4.6086

MULLIKEN ATOMIC CHARGES
-----------------------
   0 C :   -0.381397
   1 C :    0.048285
   2 C :   -0.092403
   3 C :   -0.189265
   4 N :   -0.056039
   5 O :   -0.327294
   6 C :   -0.096622
   7 C :   -0.005131
   8 O :   -0.484534
   9 H :    0.137427
  10 H :    0.145101
  11 H :    0.132500
  12 H :    0.095498
  13 H :    0.157177
  14 H :    0.153393
  15 H :    0.103378
  16 H :    0.113181
  17 H :    0.111029
  18 H :    0.112372
  19 H :    0.323344
Sum of atomic charges:   -0.0000000

LOEWDIN ATOMIC CHARGES
----------------------
   0 C :   -0.290405
   1 C :   -0.339969
   2 C :   -0.225657
   3 C :   -0.191111
   4 N :    0.057807
   5 O :    0.177362
   6 C :   -0.330443
   7 C :   -0.351640
   8 O :   -0.048310
   9 H :    0.128857
  10 H :    0.127940
  11 H :    0.128463
  12 H :    0.144518
  13 H :    0.167132
  14 H :    0.168306
  15 H :    0.122166
  16 H :    0.125919
  17 H :    0.131166
  18 H :    0.122734
  19 H :    0.175165

  Mayer bond orders larger than 0.1
B(  0-C ,  1-C ) :   0.9339 B(  0-C ,  9-H ) :   0.9324 B(  0-C , 10-H ) :   0.9346
B(  0-C , 11-H ) :   0.9287 B(  1-C ,  2-C ) :   0.9070 B(  1-C ,  5-O ) :   0.9088
B(  1-C , 12-H ) :   0.9281 B(  2-C ,  3-C ) :   0.9426 B(  2-C , 13-H ) :   0.9075
B(  2-C , 14-H ) :   0.8975 B(  3-C ,  4-N ) :   2.8765 B(  5-O ,  6-C ) :   0.8860
B(  6-C ,  7-C ) :   0.9615 B(  6-C , 15-H ) :   0.9189 B(  6-C , 16-H ) :   0.9199
B(  7-C ,  8-O ) :   0.9308 B(  7-C , 17-H ) :   0.9229 B(  7-C , 18-H ) :   0.9339
B(  8-O , 19-H ) :   0.8344

MP2 TOTAL ENERGY:     -439.575452947 Eh
FINAL SINGLE POINT ENERGY      -439.575452946918

DIPOLE MOMENT
-------------
                                X             Y             Z
Electronic contribution:      1.18371      -6.09385       3.65524
Nuclear contribution   :     -0.57722       7.55709      -4.00702
                        -----------------------------------------
Total Dipole Moment    :      0.60649       1.46325      -0.35177
                        -----------------------------------------
Magnitude (a.u.)       :      1.62255
Magnitude (Debye)      :      4.12419

                             ****ORCA TERMINATED NORMALLY****
TOTAL RUN TIME: 0 days 0 hours 17 minutes 13 seconds 493 msec
