                         Program Version 3.0.3 - RELEASE   -
|  1> ! RI-MP2 RIJK def2-TZVP def2-TZVP/C def2-TZVP/JK TIGHTSCF
|  2> % maxcore 2000
|  3> % mp2 density relaxed end
|  4> *xyz 0 1
|  5>  C       -0.1648715448    -1.1697279226    -0.6719654390
|  6>  C       -0.1345060228    -0.0513604739    -0.2320703531
|  7>  C       -0.0811233191     1.2958462137     0.3134490425
|  8>  C       -0.3454158284     1.3894531119     1.8346514173
|  9>  C        0.1283961203     2.8047148300     2.1782551065
| 10>  C        1.4365283871     2.9724456981     1.3480963979
| 11>  C        1.3002768740     1.9891065300     0.1348039599
| 12>  C        1.6786666604     4.3550426134     0.9477983316
| 13>  N        1.8588559362     5.4509047422     0.6261040035
| 14>  H       -0.1982440757    -2.1552952358    -1.0659118517
| 15>  H       -0.8391909373     1.9080832804    -0.1926960815
| 16>  H       -1.3928309943     1.2123346940     2.0889237551
| 17>  H        0.2569623923     0.6377007217     2.3569763057
| 18>  H       -0.6128214571     3.5399345109     1.8493982124
| 19>  H        0.2995965160     2.9650522429     3.2447133461
| 20>  H        2.2887329313     2.6614817028     1.9606865483
| 21>  H        2.0983620365     1.2449035772     0.1712140413
| 22>  H        1.3745232057     2.5029203931    -0.8244810330
| 23> *
| 24>
| 25>                          ****END OF INPUT****

CARTESIAN COORDINATES (ANGSTROEM)
---------------------------------
  C     -0.164872   -1.169728   -0.671965
  C     -0.134506   -0.051360   -0.232070
  C     -0.081123    1.295846    0.313449
  C     -0.345416    1.389453    1.834651
  C      0.128396    2.804715    2.178255
  C      1.436528    2.972446    1.348096
  C      1.300277    1.989107    0.134804
  C      1.678667    4.355043    0.947798
  N      1.858856    5.450905    0.626104
  H     -0.198244   -2.155295   -1.065912
  H     -0.839191    1.908083   -0.192696
  H     -1.392831    1.212335    2.088924
  H      0.256962    0.637701    2.356976
  H     -0.612821    3.539935    1.849398
  H      0.299597    2.965052    3.244713
  H      2.288733    2.661482    1.960687
  H      2.098362    1.244904    0.171214
  H      1.374523    2.502920   -0.824481

 Total Charge           Charge          ....    0
 Multiplicity           Mult            ....    1
 Number of Electrons    NEL             ....   64
 Basis Dimension        Dim             ....  333

ORBITAL ENERGIES
----------------

  NO   OCC          E(Eh)            E(eV)
   0   2.0000     -15.567440      -423.6116
   1   2.0000     -11.288531      -307.1765
   2   2.0000     -11.273043      -306.7551
   3   2.0000     -11.271238      -306.7060
   4   2.0000     -11.257140      -306.3224
   5   2.0000     -11.254377      -306.2472
   6   2.0000     -11.248565      -306.0890
   7   2.0000     -11.242612      -305.9270
   8   2.0000     -11.231329      -305.6200
   9   2.0000      -1.219576       -33.1864
  10   2.0000      -1.164296       -31.6821
  11   2.0000      -1.064273       -28.9604
  12   2.0000      -1.008895       -27.4534
  13   2.0000      -0.988417       -26.8962
  14   2.0000      -0.853787       -23.2327
  15   2.0000      -0.830556       -22.6006
  16   2.0000      -0.736609       -20.0442
  17   2.0000      -0.718703       -19.5569
  18   2.0000      -0.690470       -18.7886
  19   2.0000      -0.646619       -17.5954
  20   2.0000      -0.611839       -16.6490
  21   2.0000      -0.582171       -15.8417
  22   2.0000      -0.555050       -15.1037
  23   2.0000      -0.539066       -14.6687
  24   2.0000      -0.530333       -14.4311
  25   2.0000      -0.519773       -14.1437
  26   2.0000      -0.512336       -13.9414
  27   2.0000      -0.505146       -13.7457
  28   2.0000      -0.455245       -12.3879
  29   2.0000      -0.448159       -12.1950
  30   2.0000      -0.395415       -10.7598
  31   2.0000      -0.392196       -10.6722
  32   0.0000       0.112841         3.0706
  33   0.0000       0.136303         3.7090
  34   0.0000       0.152375         4.1463
  35   0.0000       0.156532         4.2595
  36   0.0000       0.163304         4.4437

MULLIKEN ATOMIC CHARGES
-----------------------
   0 C :   -0.122403
   1 C :   -0.016567
   2 C :   -0.242319
   3 C :   -0.207642
   4 C :   -0.241567
   5 C :    0.065749
   6 C :   -0.260028
   7 C :   -0.226902
   8 N :   -0.055187
   9 H :    0.193982
  10 H :    0.127525
  11 H :    0.139858
  12 H :    0.126086
  13 H :    0.137291
  14 H :    0.144515
  15 H :    0.139813
  16 H :    0.144123
  17 H :    0.153671
Sum of atomic charges:   -0.0000000

LOEWDIN ATOMIC CHARGES
----------------------
   0 C :   -0.095188
   1 C :   -0.091217
   2 C :   -0.230550
   3 C :   -0.214167
   4 C :   -0.211716
   5 C :   -0.219196
   6 C :   -0.165019
   7 C :   -0.177890
   8 N :    0.056964
   9 H :    0.127698
  10 H :    0.174035
  11 H :    0.141925
  12 H :    0.145772
  13 H :    0.148123
  14 H :    0.140724
  15 H :    0.175640
  16 H :    0.147012
  17 H :    0.147049

  Mayer bond orders larger than 0.1
B(  0-C ,  1-C ) :   2.5940 B(  0-C ,  2-C ) :  -0.1158 B(  0-C ,  9-H ) :   0.8862
B(  1-C ,  2-C ) :   1.1629 B(  2-C ,  3-C ) :   0.9170 B(  2-C ,  6-C ) :   0.9141
B(  2-C , 10-H ) :   0.9117 B(  3-C ,  4-C ) :   0.9152 B(  3-C , 11-H ) :   0.9241
B(  3-C , 12-H ) :   0.9273 B(  4-C ,  5-C ) :   0.8986 B(  4-C , 13-H ) :   0.9300
B(  4-C , 14-H ) :   0.9225 B(  5-C ,  6-C ) :   0.8649 B(  5-C ,  7-C ) :   0.9438
B(  5-C , 15-H ) :   0.9068 B(  6-C , 16-H ) :   0.9284 B(  6-C , 17-H ) :   0.9273
B(  7-C ,  8-N ) :   2.8828

MP2 TOTAL ENERGY:     -364.144309880 Eh
FINAL SINGLE POINT ENERGY      -364.144309880307

DIPOLE MOMENT
-------------
                                X             Y             Z
Electronic contribution:      1.88745       3.01634      -2.19505
Nuclear contribution   :     -2.24862      -4.37062       2.70796
                        -----------------------------------------
Total Dipole Moment    :     -0.36118      -1.35429       0.51291
                        -----------------------------------------
Magnitude (a.u.)       :      1.49252
Magnitude (Debye)      :      3.79369

                             ****ORCA TERMINATED NORMALLY****
TOTAL RUN TIME: 0 days 0 hours 16 minutes 44 seconds 610 msec
