                         Program Version 3.0.3 - RELEASE   -
|  1> ! RI-MP2 RIJK def2-TZVP def2-TZVP/C def2-TZVP/JK TIGHTSCF
|  2> % maxcore 2000
|  3> % mp2 density relaxed end
|  4> *xyz 0 1
|  5>  O       -0.0558541314     1.3677342454     0.1317222327
|  6>  N        0.0576938214    -0.0214636389     0.0949449246
|  7>  C       -1.0774954902    -0.6104685770    -0.0418093093
|  8>  C       -1.0752679452    -2.1185224740    -0.0765845508
|  9>  C       -2.0900156564    -2.6463310940    -1.1031443696
| 10>  C       -3.4684886617    -2.0167096163    -0.9342607649
| 11>  O       -4.4940755870    -2.6129487067    -1.1932925526
| 12>  C       -3.4866065519    -0.6045544688    -0.4865185538
| 13>  C       -2.3731027957     0.0571664261    -0.1208847377
| 14>  H        0.8565173056     1.6447753043     0.2675563194
| 15>  H       -0.0663363229    -2.4809232532    -0.2843011736
| 16>  H       -1.3544623049    -2.4879183172     0.9195988193
| 17>  H       -1.7502726196    -2.4010768464    -2.1189996911
| 18>  H       -2.1959530368    -3.7321268026    -1.0517704045
| 19>  H       -4.4584688011    -0.1209873957    -0.4972159811
| 20>  H       -2.4074160521     1.1083903051     0.1405187830
| 21> *
| 22>
| 23>                          ****END OF INPUT****

CARTESIAN COORDINATES (ANGSTROEM)
---------------------------------
  O     -0.055854    1.367734    0.131722
  N      0.057694   -0.021464    0.094945
  C     -1.077495   -0.610469   -0.041809
  C     -1.075268   -2.118522   -0.076585
  C     -2.090016   -2.646331   -1.103144
  C     -3.468489   -2.016710   -0.934261
  O     -4.494076   -2.612949   -1.193293
  C     -3.486607   -0.604554   -0.486519
  C     -2.373103    0.057166   -0.120885
  H      0.856517    1.644775    0.267556
  H     -0.066336   -2.480923   -0.284301
  H     -1.354462   -2.487918    0.919599
  H     -1.750273   -2.401077   -2.119000
  H     -2.195953   -3.732127   -1.051770
  H     -4.458469   -0.120987   -0.497216
  H     -2.407416    1.108390    0.140519

 Total Charge           Charge          ....    0
 Multiplicity           Mult            ....    1
 Number of Electrons    NEL             ....   66
 Basis Dimension        Dim             ....  321

ORBITAL ENERGIES
----------------

  NO   OCC          E(Eh)            E(eV)
   0   2.0000     -20.608546      -560.7870
   1   2.0000     -20.552410      -559.2595
   2   2.0000     -15.636882      -425.5012
   3   2.0000     -11.339704      -308.5690
   4   2.0000     -11.297237      -307.4134
   5   2.0000     -11.274556      -306.7963
   6   2.0000     -11.263084      -306.4841
   7   2.0000     -11.254708      -306.2562
   8   2.0000     -11.250199      -306.1335
   9   2.0000      -1.439782       -39.1785
  10   2.0000      -1.393086       -37.9078
  11   2.0000      -1.196922       -32.5699
  12   2.0000      -1.106140       -30.0996
  13   2.0000      -1.050894       -28.5963
  14   2.0000      -0.941669       -25.6241
  15   2.0000      -0.875209       -23.8157
  16   2.0000      -0.797230       -21.6937
  17   2.0000      -0.730141       -19.8682
  18   2.0000      -0.709012       -19.2932
  19   2.0000      -0.690615       -18.7926
  20   2.0000      -0.652595       -17.7580
  21   2.0000      -0.640127       -17.4187
  22   2.0000      -0.615986       -16.7618
  23   2.0000      -0.609517       -16.5858
  24   2.0000      -0.598117       -16.2756
  25   2.0000      -0.567328       -15.4378
  26   2.0000      -0.549221       -14.9451
  27   2.0000      -0.532637       -14.4938
  28   2.0000      -0.507642       -13.8136
  29   2.0000      -0.453017       -12.3272
  30   2.0000      -0.441889       -12.0244
  31   2.0000      -0.420178       -11.4336
  32   2.0000      -0.364811        -9.9270
  33   0.0000       0.050685         1.3792
  34   0.0000       0.131773         3.5857
  35   0.0000       0.143853         3.9144
  36   0.0000       0.151434         4.1207
  37   0.0000       0.171531         4.6676

MULLIKEN ATOMIC CHARGES
-----------------------
   0 O :   -0.364620
   1 N :   -0.067009
   2 C :    0.063053
   3 C :   -0.213590
   4 C :   -0.210149
   5 C :    0.193856
   6 O :   -0.280585
   7 C :   -0.168777
   8 C :   -0.161423
   9 H :    0.342864
  10 H :    0.141897
  11 H :    0.136569
  12 H :    0.139929
  13 H :    0.145538
  14 H :    0.145724
  15 H :    0.156722
Sum of atomic charges:    0.0000000

LOEWDIN ATOMIC CHARGES
----------------------
   0 O :   -0.064513
   1 N :    0.037021
   2 C :   -0.277624
   3 C :   -0.210702
   4 C :   -0.214065
   5 C :   -0.322840
   6 O :    0.151939
   7 C :   -0.103391
   8 C :   -0.095502
   9 H :    0.174407
  10 H :    0.149864
  11 H :    0.154114
  12 H :    0.158707
  13 H :    0.150143
  14 H :    0.154660
  15 H :    0.157784

  Mayer bond orders larger than 0.1
B(  0-O ,  1-N ) :   0.8215 B(  0-O ,  9-H ) :   0.8413 B(  1-N ,  2-C ) :   1.8074
B(  2-C ,  3-C ) :   0.9256 B(  2-C ,  8-C ) :   1.0167 B(  3-C ,  4-C ) :   0.8869
B(  3-C , 10-H ) :   0.9208 B(  3-C , 11-H ) :   0.9182 B(  4-C ,  5-C ) :   0.9152
B(  4-C , 12-H ) :   0.9010 B(  4-C , 13-H ) :   0.9253 B(  5-C ,  6-O ) :   1.9566
B(  5-C ,  7-C ) :   0.9813 B(  7-C ,  8-C ) :   1.6044 B(  7-C , 14-H ) :   0.9238
B(  8-C , 15-H ) :   0.9112

MP2 TOTAL ENERGY:     -437.150260291 Eh
FINAL SINGLE POINT ENERGY      -437.150260290659

DIPOLE MOMENT
-------------
                                X             Y             Z
Electronic contribution:     -1.35097       1.94927       0.03400
Nuclear contribution   :      2.26413      -1.41553       0.23927
                        -----------------------------------------
Total Dipole Moment    :      0.91316       0.53374       0.27326
                        -----------------------------------------
Magnitude (a.u.)       :      1.09244
Magnitude (Debye)      :      2.77675

                             ****ORCA TERMINATED NORMALLY****
TOTAL RUN TIME: 0 days 0 hours 15 minutes 14 seconds 763 msec
