                         Program Version 3.0.3 - RELEASE   -
|  1> ! RI-MP2 RIJK def2-TZVP def2-TZVP/C def2-TZVP/JK TIGHTSCF
|  2> % maxcore 2000
|  3> % mp2 density relaxed end
|  4> *xyz 0 1
|  5>  C        0.1323907457     1.3330295896    -0.2541167320
|  6>  N        0.0030498884    -0.0736189666     0.0958833585
|  7>  C        0.6265397808    -0.3519051857     1.3853455654
|  8>  C       -1.3840662322    -0.5705489992     0.0524133904
|  9>  C       -2.1757754721    -0.1166864663    -1.1488219029
| 10>  C       -2.4079070609    -1.0982124586    -2.0221122696
| 11>  C       -1.8308305522    -2.4152792502    -1.5854557131
| 12>  C       -1.3366521511    -2.1078851978    -0.1653174894
| 13>  O       -0.9867986309    -2.9237024402     0.6464212217
| 14>  H        1.1900839390     1.6105019840    -0.2119190611
| 15>  H       -0.2199715689     1.5101578136    -1.2731634267
| 16>  H       -0.4191166722     2.0090284784     0.4281303134
| 17>  H        0.1713460461     0.2325735096     2.2085892202
| 18>  H        0.5294063990    -1.4108506754     1.6275399827
| 19>  H        1.6899636597    -0.0981180264     1.3362006396
| 20>  H       -1.9162382486    -0.3378856309     0.9958100495
| 21>  H       -2.5309271415     0.9006869885    -1.2579648764
| 22>  H       -2.9716515526    -0.9847886372    -2.9412599356
| 23>  H       -2.5538745700    -3.2389472585    -1.5636718097
| 24>  H       -0.9942758956    -2.7540973106    -2.2108627149
| 25> *
| 26>
| 27>                          ****END OF INPUT****

CARTESIAN COORDINATES (ANGSTROEM)
---------------------------------
  C      0.132391    1.333030   -0.254117
  N      0.003050   -0.073619    0.095883
  C      0.626540   -0.351905    1.385346
  C     -1.384066   -0.570549    0.052413
  C     -2.175775   -0.116686   -1.148822
  C     -2.407907   -1.098212   -2.022112
  C     -1.830831   -2.415279   -1.585456
  C     -1.336652   -2.107885   -0.165317
  O     -0.986799   -2.923702    0.646421
  H      1.190084    1.610502   -0.211919
  H     -0.219972    1.510158   -1.273163
  H     -0.419117    2.009028    0.428130
  H      0.171346    0.232574    2.208589
  H      0.529406   -1.410851    1.627540
  H      1.689964   -0.098118    1.336201
  H     -1.916238   -0.337886    0.995810
  H     -2.530927    0.900687   -1.257965
  H     -2.971652   -0.984789   -2.941260
  H     -2.553875   -3.238947   -1.563672
  H     -0.994276   -2.754097   -2.210863

 Total Charge           Charge          ....    0
 Multiplicity           Mult            ....    1
 Number of Electrons    NEL             ....   68
 Basis Dimension        Dim             ....  345

ORBITAL ENERGIES
----------------

  NO   OCC          E(Eh)            E(eV)
   0   2.0000     -20.548284      -559.1472
   1   2.0000     -15.557196      -423.3328
   2   2.0000     -11.331080      -308.3343
   3   2.0000     -11.273251      -306.7607
   4   2.0000     -11.247790      -306.0679
   5   2.0000     -11.247497      -306.0600
   6   2.0000     -11.243677      -305.9560
   7   2.0000     -11.240861      -305.8794
   8   2.0000     -11.236684      -305.7657
   9   2.0000      -1.393736       -37.9255
  10   2.0000      -1.235422       -33.6175
  11   2.0000      -1.132565       -30.8187
  12   2.0000      -0.982742       -26.7418
  13   2.0000      -0.958831       -26.0911
  14   2.0000      -0.939728       -25.5713
  15   2.0000      -0.835337       -22.7307
  16   2.0000      -0.761097       -20.7105
  17   2.0000      -0.742867       -20.2144
  18   2.0000      -0.688158       -18.7257
  19   2.0000      -0.660310       -17.9679
  20   2.0000      -0.631025       -17.1711
  21   2.0000      -0.617015       -16.7898
  22   2.0000      -0.603320       -16.4172
  23   2.0000      -0.588986       -16.0271
  24   2.0000      -0.569568       -15.4987
  25   2.0000      -0.553259       -15.0549
  26   2.0000      -0.545903       -14.8548
  27   2.0000      -0.533163       -14.5081
  28   2.0000      -0.515300       -14.0220
  29   2.0000      -0.500000       -13.6057
  30   2.0000      -0.493862       -13.4387
  31   2.0000      -0.406662       -11.0658
  32   2.0000      -0.375209       -10.2100
  33   2.0000      -0.354698        -9.6518
  34   0.0000       0.132914         3.6168
  35   0.0000       0.136225         3.7069
  36   0.0000       0.145942         3.9713
  37   0.0000       0.153846         4.1864
  38   0.0000       0.167768         4.5652

MULLIKEN ATOMIC CHARGES
-----------------------
   0 C :   -0.334914
   1 N :   -0.190442
   2 C :   -0.335403
   3 C :    0.159532
   4 C :   -0.251132
   5 C :   -0.158298
   6 C :   -0.166809
   7 C :    0.104114
   8 O :   -0.269559
   9 H :    0.136407
  10 H :    0.142878
  11 H :    0.107698
  12 H :    0.102935
  13 H :    0.167080
  14 H :    0.130455
  15 H :    0.090035
  16 H :    0.146123
  17 H :    0.136593
  18 H :    0.140381
  19 H :    0.142326
Sum of atomic charges:    0.0000000

LOEWDIN ATOMIC CHARGES
----------------------
   0 C :   -0.327790
   1 N :    0.059965
   2 C :   -0.324170
   3 C :   -0.234476
   4 C :   -0.141901
   5 C :   -0.142338
   6 C :   -0.212473
   7 C :   -0.261926
   8 O :    0.160553
   9 H :    0.120329
  10 H :    0.119714
  11 H :    0.102495
  12 H :    0.102352
  13 H :    0.125483
  14 H :    0.117175
  15 H :    0.146126
  16 H :    0.140807
  17 H :    0.139339
  18 H :    0.153118
  19 H :    0.157617

  Mayer bond orders larger than 0.1
B(  0-C ,  1-N ) :   0.9132 B(  0-C ,  9-H ) :   0.9371 B(  0-C , 10-H ) :   0.9354
B(  0-C , 11-H ) :   0.9250 B(  1-N ,  2-C ) :   0.9062 B(  1-N ,  3-C ) :   0.8346
B(  2-C , 12-H ) :   0.9307 B(  2-C , 13-H ) :   0.9279 B(  2-C , 14-H ) :   0.9356
B(  3-C ,  4-C ) :   0.8789 B(  3-C ,  6-C ) :  -0.1180 B(  3-C ,  7-C ) :   0.8403
B(  3-C , 15-H ) :   0.8817 B(  4-C ,  5-C ) :   1.7528 B(  4-C , 16-H ) :   0.9168
B(  5-C ,  6-C ) :   0.9374 B(  5-C , 17-H ) :   0.9221 B(  6-C ,  7-C ) :   0.9653
B(  6-C , 18-H ) :   0.9011 B(  6-C , 19-H ) :   0.8891 B(  7-C ,  8-O ) :   2.0385

MP2 TOTAL ENERGY:     -402.454660278 Eh
FINAL SINGLE POINT ENERGY      -402.454660278120

DIPOLE MOMENT
-------------
                                X             Y             Z
Electronic contribution:     -3.08735      -6.25139      -0.88230
Nuclear contribution   :      2.73635       7.00165       0.30653
                        -----------------------------------------
Total Dipole Moment    :     -0.35100       0.75025      -0.57578
                        -----------------------------------------
Magnitude (a.u.)       :      1.00876
Magnitude (Debye)      :      2.56406

                             ****ORCA TERMINATED NORMALLY****
TOTAL RUN TIME: 0 days 0 hours 22 minutes 57 seconds 928 msec
