                         Program Version 3.0.3 - RELEASE   -
|  1> ! RI-MP2 RIJK def2-TZVP def2-TZVP/C def2-TZVP/JK TIGHTSCF
|  2> % maxcore 2000
|  3> % mp2 density relaxed end
|  4> *xyz 0 1
|  5>  C       -0.0400430086     1.4818092508     0.0201867318
|  6>  C        0.1005125281    -0.0062148810    -0.0536210886
|  7>  C        0.0215250332    -0.8934975486    -1.2873031329
|  8>  C       -0.2677691899    -2.0163297373    -0.2756775026
|  9>  C        1.0337620673    -2.2285202965     0.5146516523
| 10>  C        0.7556217555    -0.8268995992     1.0383497180
| 11>  C        1.2777425619    -0.2384005665     2.2317426544
| 12>  N        1.7331318011     0.2323332075     3.1857620588
| 13>  N       -0.7364430674    -0.9418768350     0.7655520144
| 14>  H        0.8340985084     1.9740035049    -0.4192591094
| 15>  H       -0.9294975908     1.8077151880    -0.5277735273
| 16>  H       -0.1335210740     1.8165520880     1.0565928258
| 17>  H       -0.8657043218    -0.6397012964    -1.8734765825
| 18>  H        0.8897700561    -0.9902007383    -1.9464899203
| 19>  H       -0.9302907394    -2.8459233743    -0.5082500327
| 20>  H        0.9110936112    -2.9654006916     1.3110135933
| 21>  H        1.9596890491    -2.4154688744    -0.0366422223
| 22> *
| 23>
| 24>                          ****END OF INPUT****

CARTESIAN COORDINATES (ANGSTROEM)
---------------------------------
  C     -0.040043    1.481809    0.020187
  C      0.100513   -0.006215   -0.053621
  C      0.021525   -0.893498   -1.287303
  C     -0.267769   -2.016330   -0.275678
  C      1.033762   -2.228520    0.514652
  C      0.755622   -0.826900    1.038350
  C      1.277743   -0.238401    2.231743
  N      1.733132    0.232333    3.185762
  N     -0.736443   -0.941877    0.765552
  H      0.834099    1.974004   -0.419259
  H     -0.929498    1.807715   -0.527774
  H     -0.133521    1.816552    1.056593
  H     -0.865704   -0.639701   -1.873477
  H      0.889770   -0.990201   -1.946490
  H     -0.930291   -2.845923   -0.508250
  H      0.911094   -2.965401    1.311014
  H      1.959689   -2.415469   -0.036642

 Total Charge           Charge          ....    0
 Multiplicity           Mult            ....    1
 Number of Electrons    NEL             ....   64
 Basis Dimension        Dim             ....  327

ORBITAL ENERGIES
----------------

  NO   OCC          E(Eh)            E(eV)
   0   2.0000     -15.591202      -424.2582
   1   2.0000     -15.575695      -423.8362
   2   2.0000     -11.313917      -307.8673
   3   2.0000     -11.301651      -307.5336
   4   2.0000     -11.292335      -307.2801
   5   2.0000     -11.277279      -306.8704
   6   2.0000     -11.261389      -306.4380
   7   2.0000     -11.254585      -306.2528
   8   2.0000     -11.238310      -305.8100
   9   2.0000      -1.348008       -36.6812
  10   2.0000      -1.219267       -33.1779
  11   2.0000      -1.051590       -28.6152
  12   2.0000      -1.033137       -28.1131
  13   2.0000      -0.995502       -27.0890
  14   2.0000      -0.924135       -25.1470
  15   2.0000      -0.825538       -22.4640
  16   2.0000      -0.753752       -20.5106
  17   2.0000      -0.714873       -19.4527
  18   2.0000      -0.667504       -18.1637
  19   2.0000      -0.642947       -17.4955
  20   2.0000      -0.599679       -16.3181
  21   2.0000      -0.584407       -15.9025
  22   2.0000      -0.577767       -15.7218
  23   2.0000      -0.560302       -15.2466
  24   2.0000      -0.555845       -15.1253
  25   2.0000      -0.533077       -14.5058
  26   2.0000      -0.509949       -13.8764
  27   2.0000      -0.492895       -13.4123
  28   2.0000      -0.467104       -12.7106
  29   2.0000      -0.442817       -12.0497
  30   2.0000      -0.424034       -11.5385
  31   2.0000      -0.392665       -10.6850
  32   0.0000       0.128689         3.5018
  33   0.0000       0.136172         3.7054
  34   0.0000       0.146434         3.9847
  35   0.0000       0.164553         4.4777
  36   0.0000       0.171628         4.6702

MULLIKEN ATOMIC CHARGES
-----------------------
   0 C :   -0.410596
   1 C :    0.025427
   2 C :   -0.170007
   3 C :   -0.054427
   4 C :   -0.184354
   5 C :    0.182834
   6 C :   -0.257382
   7 N :   -0.042789
   8 N :   -0.204682
   9 H :    0.143981
  10 H :    0.141228
  11 H :    0.161793
  12 H :    0.126782
  13 H :    0.125142
  14 H :    0.148983
  15 H :    0.139682
  16 H :    0.128384
Sum of atomic charges:   -0.0000000

LOEWDIN ATOMIC CHARGES
----------------------
   0 C :   -0.257518
   1 C :   -0.239777
   2 C :   -0.181465
   3 C :   -0.174839
   4 C :   -0.166432
   5 C :   -0.219202
   6 C :   -0.150332
   7 N :    0.079015
   8 N :    0.196321
   9 H :    0.136778
  10 H :    0.134312
  11 H :    0.142943
  12 H :    0.148205
  13 H :    0.133045
  14 H :    0.132635
  15 H :    0.151180
  16 H :    0.135133

  Mayer bond orders larger than 0.1
B(  0-C ,  1-C ) :   0.8862 B(  0-C ,  9-H ) :   0.9345 B(  0-C , 10-H ) :   0.9348
B(  0-C , 11-H ) :   0.9283 B(  1-C ,  2-C ) :   0.9182 B(  1-C ,  5-C ) :   0.8641
B(  1-C ,  8-N ) :   0.8650 B(  2-C ,  3-C ) :   0.9394 B(  2-C , 12-H ) :   0.9158
B(  2-C , 13-H ) :   0.9045 B(  3-C ,  4-C ) :   0.9491 B(  3-C ,  8-N ) :   0.9166
B(  3-C , 14-H ) :   0.9036 B(  4-C ,  5-C ) :   0.9003 B(  4-C , 15-H ) :   0.9158
B(  4-C , 16-H ) :   0.9042 B(  5-C ,  6-C ) :   0.8667 B(  5-C ,  8-N ) :   0.8491
B(  6-C ,  7-N ) :   2.8711

MP2 TOTAL ENERGY:     -380.161156653 Eh
FINAL SINGLE POINT ENERGY      -380.161156653056

DIPOLE MOMENT
-------------
                                X             Y             Z
Electronic contribution:      1.39249      -1.02014       5.86254
Nuclear contribution   :     -1.51388       0.44365      -7.66130
                        -----------------------------------------
Total Dipole Moment    :     -0.12139      -0.57649      -1.79876
                        -----------------------------------------
Magnitude (a.u.)       :      1.89278
Magnitude (Debye)      :      4.81107

                             ****ORCA TERMINATED NORMALLY****
TOTAL RUN TIME: 0 days 0 hours 18 minutes 9 seconds 299 msec
