                         Program Version 3.0.3 - RELEASE   -
|  1> ! RI-MP2 RIJK def2-TZVP def2-TZVP/C def2-TZVP/JK TIGHTSCF
|  2> % maxcore 2000
|  3> % mp2 density relaxed end
|  4> *xyz 0 1
|  5>  C        0.1854857523     1.5255439020    -0.0179984885
|  6>  C       -0.1108384317     0.0176428350    -0.0353302187
|  7>  O       -1.4938444801    -0.2425394780    -0.0011159659
|  8>  C        0.5977087551    -0.6933334032    -1.1974183693
|  9>  O        1.9464221378    -0.8659037312    -0.7462871753
| 10>  C        1.9054580122    -1.2274306253     0.6229520476
| 11>  C        0.5929394002    -0.6620391239     1.1501528144
| 12>  O        0.1144591408    -0.7735691897     2.2493047067
| 13>  H        1.2545216028     1.7208026038    -0.1452900558
| 14>  H       -0.3612724356     2.0024181432    -0.8364321179
| 15>  H       -0.1448562496     1.9682362737     0.9263742112
| 16>  H       -1.7347170409    -0.3094433429     0.9341411159
| 17>  H        0.1072439401    -1.6586743993    -1.3912811558
| 18>  H        0.6347639651    -0.1143235510    -2.1219958231
| 19>  H        1.9028854903    -2.3203640135     0.7664620152
| 20>  H        2.7783671111    -0.8178049397     1.1406440192
| 21> *
| 22>
| 23>                          ****END OF INPUT****

CARTESIAN COORDINATES (ANGSTROEM)
---------------------------------
  C      0.185486    1.525544   -0.017998
  C     -0.110838    0.017643   -0.035330
  O     -1.493844   -0.242539   -0.001116
  C      0.597709   -0.693333   -1.197418
  O      1.946422   -0.865904   -0.746287
  C      1.905458   -1.227431    0.622952
  C      0.592939   -0.662039    1.150153
  O      0.114459   -0.773569    2.249305
  H      1.254522    1.720803   -0.145290
  H     -0.361272    2.002418   -0.836432
  H     -0.144856    1.968236    0.926374
  H     -1.734717   -0.309443    0.934141
  H      0.107244   -1.658674   -1.391281
  H      0.634764   -0.114324   -2.121996
  H      1.902885   -2.320364    0.766462
  H      2.778367   -0.817805    1.140644

 Total Charge           Charge          ....    0
 Multiplicity           Mult            ....    1
 Number of Electrons    NEL             ....   62
 Basis Dimension        Dim             ....  296

ORBITAL ENERGIES
----------------

  NO   OCC          E(Eh)            E(eV)
   0   2.0000     -20.580691      -560.0291
   1   2.0000     -20.574085      -559.8493
   2   2.0000     -20.571780      -559.7866
   3   2.0000     -11.347352      -308.7772
   4   2.0000     -11.307745      -307.6994
   5   2.0000     -11.304030      -307.5983
   6   2.0000     -11.293701      -307.3172
   7   2.0000     -11.234927      -305.7179
   8   2.0000      -1.428666       -38.8760
   9   2.0000      -1.399718       -38.0883
  10   2.0000      -1.377126       -37.4735
  11   2.0000      -1.068707       -29.0810
  12   2.0000      -1.010356       -27.4932
  13   2.0000      -0.949291       -25.8315
  14   2.0000      -0.838924       -22.8283
  15   2.0000      -0.778234       -21.1768
  16   2.0000      -0.705996       -19.2111
  17   2.0000      -0.702118       -19.1056
  18   2.0000      -0.688265       -18.7286
  19   2.0000      -0.649616       -17.6770
  20   2.0000      -0.618731       -16.8365
  21   2.0000      -0.608148       -16.5486
  22   2.0000      -0.585394       -15.9294
  23   2.0000      -0.569568       -15.4987
  24   2.0000      -0.558589       -15.2000
  25   2.0000      -0.547360       -14.8944
  26   2.0000      -0.535058       -14.5597
  27   2.0000      -0.518049       -14.0968
  28   2.0000      -0.470024       -12.7900
  29   2.0000      -0.443151       -12.0587
  30   2.0000      -0.408790       -11.1237
  31   0.0000       0.116927         3.1818
  32   0.0000       0.130100         3.5402
  33   0.0000       0.163591         4.4515
  34   0.0000       0.176537         4.8038
  35   0.0000       0.181857         4.9486

MULLIKEN ATOMIC CHARGES
-----------------------
   0 C :   -0.432443
   1 C :    0.230831
   2 O :   -0.468149
   3 C :   -0.046281
   4 O :   -0.322096
   5 C :   -0.041479
   6 C :    0.095670
   7 O :   -0.285011
   8 H :    0.146947
   9 H :    0.144388
  10 H :    0.134864
  11 H :    0.333804
  12 H :    0.111569
  13 H :    0.126920
  14 H :    0.123982
  15 H :    0.146483
Sum of atomic charges:   -0.0000000

LOEWDIN ATOMIC CHARGES
----------------------
   0 C :   -0.261408
   1 C :   -0.394632
   2 O :    0.023365
   3 C :   -0.248187
   4 O :    0.152186
   5 C :   -0.274666
   6 C :   -0.290597
   7 O :    0.161539
   8 H :    0.134152
   9 H :    0.133419
  10 H :    0.130005
  11 H :    0.186973
  12 H :    0.130244
  13 H :    0.134210
  14 H :    0.140809
  15 H :    0.142590

  Mayer bond orders larger than 0.1
B(  0-C ,  1-C ) :   0.8808 B(  0-C ,  8-H ) :   0.9193 B(  0-C ,  9-H ) :   0.9326
B(  0-C , 10-H ) :   0.9250 B(  1-C ,  2-O ) :   1.0485 B(  1-C ,  3-C ) :   0.8894
B(  1-C ,  6-C ) :   0.8467 B(  2-O , 11-H ) :   0.8173 B(  3-C ,  4-O ) :   0.8947
B(  3-C , 12-H ) :   0.9261 B(  3-C , 13-H ) :   0.9182 B(  4-O ,  5-C ) :   0.9513
B(  5-C ,  6-C ) :   0.9373 B(  5-C , 14-H ) :   0.9057 B(  5-C , 15-H ) :   0.9043
B(  6-C ,  7-O ) :   1.9678

MP2 TOTAL ENERGY:     -420.232490452 Eh
FINAL SINGLE POINT ENERGY      -420.232490451646

DIPOLE MOMENT
-------------
                                X             Y             Z
Electronic contribution:     -0.51153      -2.99293       2.46445
Nuclear contribution   :      0.81418       3.15268      -2.58280
                        -----------------------------------------
Total Dipole Moment    :      0.30265       0.15975      -0.11835
                        -----------------------------------------
Magnitude (a.u.)       :      0.36211
Magnitude (Debye)      :      0.92040

                             ****ORCA TERMINATED NORMALLY****
TOTAL RUN TIME: 0 days 0 hours 11 minutes 55 seconds 79 msec
