                         Program Version 3.0.3 - RELEASE   -
|  1> ! RI-MP2 RIJK def2-TZVP def2-TZVP/C def2-TZVP/JK TIGHTSCF
|  2> % maxcore 2000
|  3> % mp2 density relaxed end
|  4> *xyz 0 1
|  5>  O        0.4548985715     1.0264460658    -0.1651670117
|  6>  C        0.2111957449    -0.3348116821    -0.5043777879
|  7>  C       -1.2475967364    -0.7033197623    -0.3481521130
|  8>  C       -1.7341886802    -2.1126425366    -0.2755013737
|  9>  C       -0.7889674433    -3.3074338980    -0.3121650146
| 10>  C        0.0330433489    -3.4829919932     0.9328780897
| 11>  C       -0.0479916577    -2.6713565373     1.9823305603
| 12>  C       -0.9716696368    -1.4878462466     2.0554818248
| 13>  N       -1.8285015996    -1.2297533252     0.8965266987
| 14>  H        0.1649161180     1.1608679714     0.7424760305
| 15>  H        0.4913923298    -0.4209156067    -1.5605764194
| 16>  H        0.8612945436    -1.0127927806     0.0629353966
| 17>  H       -1.8971036346     0.0270960017    -0.8314764853
| 18>  H       -2.7044259062    -2.3151341586    -0.7261601120
| 19>  H       -1.3846225297    -4.2165237709    -0.4690549642
| 20>  H       -0.1298938017    -3.2472955576    -1.1899948803
| 21>  H        0.7079858484    -4.3346891019     0.9512654503
| 22>  H        0.5520790167    -2.8570629424     2.8700872435
| 23>  H       -1.6359721748    -1.6224027877     2.9216882195
| 24>  H       -0.3914762408    -0.5807715012     2.2830986882
| 25> *
| 26>
| 27>                          ****END OF INPUT****

CARTESIAN COORDINATES (ANGSTROEM)
---------------------------------
  O      0.454899    1.026446   -0.165167
  C      0.211196   -0.334812   -0.504378
  C     -1.247597   -0.703320   -0.348152
  C     -1.734189   -2.112643   -0.275501
  C     -0.788967   -3.307434   -0.312165
  C      0.033043   -3.482992    0.932878
  C     -0.047992   -2.671357    1.982331
  C     -0.971670   -1.487846    2.055482
  N     -1.828502   -1.229753    0.896527
  H      0.164916    1.160868    0.742476
  H      0.491392   -0.420916   -1.560576
  H      0.861295   -1.012793    0.062935
  H     -1.897104    0.027096   -0.831476
  H     -2.704426   -2.315134   -0.726160
  H     -1.384623   -4.216524   -0.469055
  H     -0.129894   -3.247296   -1.189995
  H      0.707986   -4.334689    0.951265
  H      0.552079   -2.857063    2.870087
  H     -1.635972   -1.622403    2.921688
  H     -0.391476   -0.580772    2.283099

 Total Charge           Charge          ....    0
 Multiplicity           Mult            ....    1
 Number of Electrons    NEL             ....   68
 Basis Dimension        Dim             ....  345

ORBITAL ENERGIES
----------------

  NO   OCC          E(Eh)            E(eV)
   0   2.0000     -20.555467      -559.3427
   1   2.0000     -15.557982      -423.3542
   2   2.0000     -11.277350      -306.8723
   3   2.0000     -11.263235      -306.4882
   4   2.0000     -11.263081      -306.4840
   5   2.0000     -11.254742      -306.2571
   6   2.0000     -11.239900      -305.8532
   7   2.0000     -11.234652      -305.7104
   8   2.0000     -11.232104      -305.6411
   9   2.0000      -1.359491       -36.9936
  10   2.0000      -1.274306       -34.6756
  11   2.0000      -1.087553       -29.5938
  12   2.0000      -1.038914       -28.2703
  13   2.0000      -0.967608       -26.3299
  14   2.0000      -0.907852       -24.7039
  15   2.0000      -0.841096       -22.8874
  16   2.0000      -0.788433       -21.4544
  17   2.0000      -0.712810       -19.3965
  18   2.0000      -0.685338       -18.6490
  19   2.0000      -0.671466       -18.2715
  20   2.0000      -0.656433       -17.8624
  21   2.0000      -0.617855       -16.8127
  22   2.0000      -0.612909       -16.6781
  23   2.0000      -0.595546       -16.2056
  24   2.0000      -0.577826       -15.7234
  25   2.0000      -0.554146       -15.0791
  26   2.0000      -0.535074       -14.5601
  27   2.0000      -0.527077       -14.3425
  28   2.0000      -0.499628       -13.5956
  29   2.0000      -0.462130       -12.5752
  30   2.0000      -0.443917       -12.0796
  31   2.0000      -0.431471       -11.7409
  32   2.0000      -0.364838        -9.9277
  33   2.0000      -0.355502        -9.6737
  34   0.0000       0.130524         3.5517
  35   0.0000       0.141170         3.8414
  36   0.0000       0.156772         4.2660
  37   0.0000       0.167979         4.5709
  38   0.0000       0.173616         4.7243

MULLIKEN ATOMIC CHARGES
-----------------------
   0 O :   -0.464300
   1 C :   -0.054102
   2 C :   -0.107303
   3 C :   -0.085831
   4 C :   -0.131115
   5 C :   -0.223673
   6 C :   -0.191174
   7 C :   -0.080173
   8 N :   -0.226425
   9 H :    0.313513
  10 H :    0.117287
  11 H :    0.142145
  12 H :    0.120762
  13 H :    0.124190
  14 H :    0.133105
  15 H :    0.127989
  16 H :    0.124422
  17 H :    0.121556
  18 H :    0.142894
  19 H :    0.096232
Sum of atomic charges:   -0.0000000

LOEWDIN ATOMIC CHARGES
----------------------
   0 O :   -0.048229
   1 C :   -0.326789
   2 C :   -0.251686
   3 C :   -0.217490
   4 C :   -0.237901
   5 C :   -0.179259
   6 C :   -0.185539
   7 C :   -0.280837
   8 N :    0.130805
   9 H :    0.169685
  10 H :    0.135780
  11 H :    0.130169
  12 H :    0.146081
  13 H :    0.143284
  14 H :    0.152118
  15 H :    0.150679
  16 H :    0.143861
  17 H :    0.144989
  18 H :    0.145833
  19 H :    0.134446

  Mayer bond orders larger than 0.1
B(  0-O ,  1-C ) :   0.9039 B(  0-O ,  9-H ) :   0.8479 B(  1-C ,  2-C ) :   0.9215
B(  1-C , 10-H ) :   0.9233 B(  1-C , 11-H ) :   0.9223 B(  2-C ,  3-C ) :   0.9043
B(  2-C ,  8-N ) :   0.8877 B(  2-C , 12-H ) :   0.9287 B(  3-C ,  4-C ) :   0.9195
B(  3-C ,  8-N ) :   0.9227 B(  3-C , 13-H ) :   0.9161 B(  4-C ,  5-C ) :   0.9600
B(  4-C , 14-H ) :   0.9153 B(  4-C , 15-H ) :   0.9069 B(  5-C ,  6-C ) :   1.8028
B(  5-C , 16-H ) :   0.9353 B(  6-C ,  7-C ) :   0.9402 B(  6-C , 17-H ) :   0.9244
B(  7-C ,  8-N ) :   0.9432 B(  7-C , 18-H ) :   0.9135 B(  7-C , 19-H ) :   0.9311

MP2 TOTAL ENERGY:     -402.424142820 Eh
FINAL SINGLE POINT ENERGY      -402.424142820488

DIPOLE MOMENT
-------------
                                X             Y             Z
Electronic contribution:     -1.28504       1.79643       0.20214
Nuclear contribution   :      1.43471      -2.53658       0.00135
                        -----------------------------------------
Total Dipole Moment    :      0.14966      -0.74015       0.20349
                        -----------------------------------------
Magnitude (a.u.)       :      0.78207
Magnitude (Debye)      :      1.98786

                             ****ORCA TERMINATED NORMALLY****
TOTAL RUN TIME: 0 days 0 hours 28 minutes 59 seconds 734 msec
