                         Program Version 3.0.3 - RELEASE   -
|  1> ! RI-MP2 RIJK def2-TZVP def2-TZVP/C def2-TZVP/JK TIGHTSCF
|  2> % maxcore 2000
|  3> % mp2 density relaxed end
|  4> *xyz 0 1
|  5>  C       -0.1404624757     1.5447027516    -0.0068212632
|  6>  C        0.0528716805     0.0174553179    -0.0208103527
|  7>  C        0.7522255261    -0.5129487725     1.1936597106
|  8>  C        2.0376073588    -0.9179670089     1.3513472559
|  9>  O        2.2751020764    -1.3356668488     2.6013093211
| 10>  N        1.0973076343    -1.2029267741     3.3474361973
| 11>  C        0.2068331716    -0.7281045643     2.5046678046
| 12>  N       -1.1176697307    -0.5601933638     2.8801424402
| 13>  H        0.8241757258     2.0591968725     0.0347700886
| 14>  H       -0.6700244536     1.8791124695    -0.9042084344
| 15>  H       -0.7211022158     1.8726184126     0.8625733588
| 16>  H       -0.9250618306    -0.4714504121    -0.1141175887
| 17>  H        0.6201752029    -0.2634245965    -0.9145711840
| 18>  H        2.8737736808    -0.9732347830     0.6698958219
| 19>  H       -1.2471284863    -0.6245746616     3.8815787383
| 20>  H       -1.5526880445     0.2708007914     2.5052223457
| 21> *
| 22>
| 23>                          ****END OF INPUT****

CARTESIAN COORDINATES (ANGSTROEM)
---------------------------------
  C     -0.140462    1.544703   -0.006821
  C      0.052872    0.017455   -0.020810
  C      0.752226   -0.512949    1.193660
  C      2.037607   -0.917967    1.351347
  O      2.275102   -1.335667    2.601309
  N      1.097308   -1.202927    3.347436
  C      0.206833   -0.728105    2.504668
  N     -1.117670   -0.560193    2.880142
  H      0.824176    2.059197    0.034770
  H     -0.670024    1.879112   -0.904208
  H     -0.721102    1.872618    0.862573
  H     -0.925062   -0.471450   -0.114118
  H      0.620175   -0.263425   -0.914571
  H      2.873774   -0.973235    0.669896
  H     -1.247128   -0.624575    3.881579
  H     -1.552688    0.270801    2.505222

 Total Charge           Charge          ....    0
 Multiplicity           Mult            ....    1
 Number of Electrons    NEL             ....   60
 Basis Dimension        Dim             ....  296

ORBITAL ENERGIES
----------------

  NO   OCC          E(Eh)            E(eV)
   0   2.0000     -20.627363      -561.2991
   1   2.0000     -15.593802      -424.3289
   2   2.0000     -15.580180      -423.9583
   3   2.0000     -11.309666      -307.7517
   4   2.0000     -11.305682      -307.6433
   5   2.0000     -11.247477      -306.0594
   6   2.0000     -11.236712      -305.7665
   7   2.0000     -11.231632      -305.6282
   8   2.0000      -1.476467       -40.1767
   9   2.0000      -1.247434       -33.9444
  10   2.0000      -1.111084       -30.2341
  11   2.0000      -1.098941       -29.9037
  12   2.0000      -1.013635       -27.5824
  13   2.0000      -0.878046       -23.8929
  14   2.0000      -0.817966       -22.2580
  15   2.0000      -0.791971       -21.5506
  16   2.0000      -0.712681       -19.3930
  17   2.0000      -0.685580       -18.6556
  18   2.0000      -0.653135       -17.7727
  19   2.0000      -0.635291       -17.2871
  20   2.0000      -0.614729       -16.7276
  21   2.0000      -0.587533       -15.9876
  22   2.0000      -0.560106       -15.2413
  23   2.0000      -0.540851       -14.7173
  24   2.0000      -0.519893       -14.1470
  25   2.0000      -0.509999       -13.8778
  26   2.0000      -0.501953       -13.6588
  27   2.0000      -0.461050       -12.5458
  28   2.0000      -0.363418        -9.8891
  29   2.0000      -0.354231        -9.6391
  30   0.0000       0.117608         3.2003
  31   0.0000       0.132706         3.6111
  32   0.0000       0.152010         4.1364
  33   0.0000       0.167208         4.5500
  34   0.0000       0.182998         4.9796

MULLIKEN ATOMIC CHARGES
-----------------------
   0 C :   -0.366899
   1 C :   -0.261160
   2 C :   -0.060069
   3 C :   -0.010180
   4 O :   -0.116692
   5 N :   -0.154816
   6 C :    0.176013
   7 N :   -0.516048
   8 H :    0.133210
   9 H :    0.135907
  10 H :    0.107862
  11 H :    0.142516
  12 H :    0.128512
  13 H :    0.152592
  14 H :    0.257035
  15 H :    0.252217
Sum of atomic charges:    0.0000000

LOEWDIN ATOMIC CHARGES
----------------------
   0 C :   -0.307704
   1 C :   -0.252851
   2 C :   -0.183377
   3 C :   -0.247319
   4 O :    0.264843
   5 N :    0.020816
   6 C :   -0.368426
   7 N :   -0.066444
   8 H :    0.124112
   9 H :    0.122288
  10 H :    0.115602
  11 H :    0.148355
  12 H :    0.147456
  13 H :    0.138258
  14 H :    0.175789
  15 H :    0.168603

  Mayer bond orders larger than 0.1
B(  0-C ,  1-C ) :   0.9112 B(  0-C ,  8-H ) :   0.9364 B(  0-C ,  9-H ) :   0.9358
B(  0-C , 10-H ) :   0.9378 B(  1-C ,  2-C ) :   0.8721 B(  1-C , 11-H ) :   0.9426
B(  1-C , 12-H ) :   0.9364 B(  2-C ,  3-C ) :   1.5427 B(  2-C ,  6-C ) :   1.1726
B(  3-C ,  4-O ) :   1.1302 B(  3-C ,  5-N ) :   0.1023 B(  3-C , 13-H ) :   0.9217
B(  4-O ,  5-N ) :   0.8642 B(  5-N ,  6-C ) :   1.6149 B(  6-C ,  7-N ) :   1.0394
B(  7-N , 14-H ) :   0.8730 B(  7-N , 15-H ) :   0.8694

MP2 TOTAL ENERGY:     -379.281716828 Eh
FINAL SINGLE POINT ENERGY      -379.281716827741

DIPOLE MOMENT
-------------
                                X             Y             Z
Electronic contribution:      4.84753      -5.94516       6.47685
Nuclear contribution   :     -5.43333       6.80940      -7.39121
                        -----------------------------------------
Total Dipole Moment    :     -0.58580       0.86425      -0.91436
                        -----------------------------------------
Magnitude (a.u.)       :      1.38785
Magnitude (Debye)      :      3.52764

                             ****ORCA TERMINATED NORMALLY****
TOTAL RUN TIME: 0 days 0 hours 11 minutes 32 seconds 94 msec
