                         Program Version 3.0.3 - RELEASE   -
|  1> ! RI-MP2 RIJK def2-TZVP def2-TZVP/C def2-TZVP/JK TIGHTSCF
|  2> % maxcore 2000
|  3> % mp2 density relaxed end
|  4> *xyz 0 1
|  5>  O       -0.0597196579     1.3291999138     0.0097810004
|  6>  C        1.2173922407     1.8129869018     0.0000546358
|  7>  C        2.1480937322     0.8288181777    -0.0140795527
|  8>  C        1.4083738469    -0.4076128540    -0.0137799076
|  9>  C        0.0567156946    -0.0306801617     0.0012518949
| 10>  C       -0.9677540306    -0.9642416257     0.0060001831
| 11>  N       -0.6857241928    -2.2657568159    -0.0038099730
| 12>  C        0.6058225385    -2.6442028762    -0.0182826653
| 13>  C        1.6908362782    -1.7771356745    -0.0239639913
| 14>  H        1.2974414417     2.8887195392     0.0050866784
| 15>  H        3.2183385968     0.9616470754    -0.0235749039
| 16>  H       -2.0127911162    -0.6669831522     0.0176578954
| 17>  H        0.7765482955    -3.7175401122    -0.0257552869
| 18>  H        2.7061354724    -2.1568954755    -0.0357563073
| 19> *
| 20>
| 21>                          ****END OF INPUT****

CARTESIAN COORDINATES (ANGSTROEM)
---------------------------------
  O     -0.059720    1.329200    0.009781
  C      1.217392    1.812987    0.000055
  C      2.148094    0.828818   -0.014080
  C      1.408374   -0.407613   -0.013780
  C      0.056716   -0.030680    0.001252
  C     -0.967754   -0.964242    0.006000
  N     -0.685724   -2.265757   -0.003810
  C      0.605823   -2.644203   -0.018283
  C      1.690836   -1.777136   -0.023964
  H      1.297441    2.888720    0.005087
  H      3.218339    0.961647   -0.023575
  H     -2.012791   -0.666983    0.017658
  H      0.776548   -3.717540   -0.025755
  H      2.706135   -2.156895   -0.035756

 Total Charge           Charge          ....    0
 Multiplicity           Mult            ....    1
 Number of Electrons    NEL             ....   62
 Basis Dimension        Dim             ....  309

ORBITAL ENERGIES
----------------

  NO   OCC          E(Eh)            E(eV)
   0   2.0000     -20.633723      -561.4722
   1   2.0000     -15.564798      -423.5397
   2   2.0000     -11.319114      -308.0087
   3   2.0000     -11.298255      -307.4411
   4   2.0000     -11.278136      -306.8937
   5   2.0000     -11.268436      -306.6297
   6   2.0000     -11.262735      -306.4746
   7   2.0000     -11.248407      -306.0847
   8   2.0000     -11.244860      -305.9882
   9   2.0000      -1.472728       -40.0750
  10   2.0000      -1.255520       -34.1644
  11   2.0000      -1.121740       -30.5241
  12   2.0000      -1.046692       -28.4819
  13   2.0000      -1.030562       -28.0430
  14   2.0000      -0.886715       -24.1288
  15   2.0000      -0.843189       -22.9443
  16   2.0000      -0.817098       -22.2344
  17   2.0000      -0.739453       -20.1215
  18   2.0000      -0.697872       -18.9901
  19   2.0000      -0.667616       -18.1668
  20   2.0000      -0.657325       -17.8867
  21   2.0000      -0.630118       -17.1464
  22   2.0000      -0.619044       -16.8451
  23   2.0000      -0.588558       -16.0155
  24   2.0000      -0.556209       -15.1352
  25   2.0000      -0.530489       -14.4353
  26   2.0000      -0.522674       -14.2227
  27   2.0000      -0.432945       -11.7810
  28   2.0000      -0.421771       -11.4770
  29   2.0000      -0.339273        -9.2321
  30   2.0000      -0.333212        -9.0672
  31   0.0000       0.086408         2.3513
  32   0.0000       0.133412         3.6303
  33   0.0000       0.160527         4.3682
  34   0.0000       0.166817         4.5393
  35   0.0000       0.176982         4.8159

MULLIKEN ATOMIC CHARGES
-----------------------
   0 O :   -0.225137
   1 C :    0.062960
   2 C :   -0.290764
   3 C :    0.089831
   4 C :    0.189540
   5 C :   -0.098418
   6 N :   -0.244513
   7 C :   -0.027019
   8 C :   -0.160478
   9 H :    0.156620
  10 H :    0.148971
  11 H :    0.137179
  12 H :    0.129983
  13 H :    0.131244
Sum of atomic charges:    0.0000000

LOEWDIN ATOMIC CHARGES
----------------------
   0 O :    0.347638
   1 C :   -0.208446
   2 C :   -0.142561
   3 C :   -0.124368
   4 C :   -0.193282
   5 C :   -0.189616
   6 N :    0.129471
   7 C :   -0.222493
   8 C :   -0.116279
   9 H :    0.137439
  10 H :    0.148944
  11 H :    0.144090
  12 H :    0.139136
  13 H :    0.150325

  Mayer bond orders larger than 0.1
B(  0-O ,  1-C ) :   1.0163 B(  0-O ,  4-C ) :   1.0508 B(  1-C ,  2-C ) :   1.5750
B(  1-C ,  9-H ) :   0.9341 B(  2-C ,  3-C ) :   1.1261 B(  2-C , 10-H ) :   0.9132
B(  3-C ,  4-C ) :   1.2154 B(  3-C ,  8-C ) :   1.2333 B(  4-C ,  5-C ) :   1.2364
B(  5-C ,  6-N ) :   1.4493 B(  5-C , 11-H ) :   0.9516 B(  6-N ,  7-C ) :   1.3345
B(  7-C ,  8-C ) :   1.3889 B(  7-C , 12-H ) :   0.9425 B(  8-C , 13-H ) :   0.9166

MP2 TOTAL ENERGY:     -398.918845296 Eh
FINAL SINGLE POINT ENERGY      -398.918845296402

DIPOLE MOMENT
-------------
                                X             Y             Z
Electronic contribution:     -1.91756       1.23567       0.02512
Nuclear contribution   :      2.86410      -0.48457      -0.03013
                        -----------------------------------------
Total Dipole Moment    :      0.94655       0.75110      -0.00500
                        -----------------------------------------
Magnitude (a.u.)       :      1.20836
Magnitude (Debye)      :      3.07141

                             ****ORCA TERMINATED NORMALLY****
TOTAL RUN TIME: 0 days 0 hours 16 minutes 20 seconds 364 msec
