                         Program Version 3.0.3 - RELEASE   -
|  1> ! RI-MP2 RIJK def2-TZVP def2-TZVP/C def2-TZVP/JK TIGHTSCF
|  2> % maxcore 2000
|  3> % mp2 density relaxed end
|  4> *xyz 0 1
|  5>  C        0.0254407949     1.6102515500    -0.0416750945
|  6>  C        0.1215335289     0.0830782344    -0.0387970770
|  7>  C        0.8334151583    -0.5337418761    -1.2387689266
|  8>  C        2.3469996511    -0.5436235940    -1.2485622832
|  9>  C        1.5862887444    -1.7677351699    -0.7897746460
| 10>  C        1.6417306371    -3.0386383547    -1.6033845146
| 11>  C        1.3648528908    -1.8923300896     0.7163274612
| 12>  C        0.8384491898    -0.5196970080     1.1976140214
| 13>  O        1.8893444074     0.3616499228     1.5957559488
| 14>  H        1.0176602470     2.0657019690    -0.0496980898
| 15>  H       -0.5197926076     1.9555815667    -0.9262220085
| 16>  H       -0.5043784789     1.9772158727     0.8436290723
| 17>  H       -0.8993118282    -0.3247144687    -0.0285440361
| 18>  H        0.3168137283    -0.5184374734    -2.1938821801
| 19>  H        2.8260292406    -0.6088978790    -2.2207053638
| 20>  H        2.8776489263     0.0544685996    -0.5180641419
| 21>  H        1.7137916902    -2.8208877345    -2.6739174325
| 22>  H        2.5119122966    -3.6497724375    -1.3336668661
| 23>  H        0.7466839839    -3.6535018612    -1.4470887166
| 24>  H        0.6068334775    -2.6639737919     0.9058507977
| 25>  H        2.2656018575    -2.1896487732     1.2692854356
| 26>  H        0.1336483956    -0.6360217419     2.0334524564
| 27>  H        2.3591014787    -0.0551468818     2.3245461138
| 28> *
| 29>
| 30>                          ****END OF INPUT****

CARTESIAN COORDINATES (ANGSTROEM)
---------------------------------
  C      0.025441    1.610252   -0.041675
  C      0.121534    0.083078   -0.038797
  C      0.833415   -0.533742   -1.238769
  C      2.347000   -0.543624   -1.248562
  C      1.586289   -1.767735   -0.789775
  C      1.641731   -3.038638   -1.603385
  C      1.364853   -1.892330    0.716327
  C      0.838449   -0.519697    1.197614
  O      1.889344    0.361650    1.595756
  H      1.017660    2.065702   -0.049698
  H     -0.519793    1.955582   -0.926222
  H     -0.504378    1.977216    0.843629
  H     -0.899312   -0.324714   -0.028544
  H      0.316814   -0.518437   -2.193882
  H      2.826029   -0.608898   -2.220705
  H      2.877649    0.054469   -0.518064
  H      1.713792   -2.820888   -2.673917
  H      2.511912   -3.649772   -1.333667
  H      0.746684   -3.653502   -1.447089
  H      0.606833   -2.663974    0.905851
  H      2.265602   -2.189649    1.269285
  H      0.133648   -0.636022    2.033452
  H      2.359101   -0.055147    2.324546

 Total Charge           Charge          ....    0
 Multiplicity           Mult            ....    1
 Number of Electrons    NEL             ....   70
 Basis Dimension        Dim             ....  363

ORBITAL ENERGIES
----------------

  NO   OCC          E(Eh)            E(eV)
   0   2.0000     -20.550555      -559.2090
   1   2.0000     -11.275820      -306.8307
   2   2.0000     -11.227077      -305.5043
   3   2.0000     -11.222949      -305.3920
   4   2.0000     -11.220819      -305.3340
   5   2.0000     -11.216281      -305.2105
   6   2.0000     -11.213798      -305.1429
   7   2.0000     -11.208301      -304.9934
   8   2.0000     -11.200755      -304.7880
   9   2.0000      -1.358005       -36.9532
  10   2.0000      -1.168437       -31.7948
  11   2.0000      -1.036747       -28.2113
  12   2.0000      -0.992867       -27.0173
  13   2.0000      -0.951819       -25.9003
  14   2.0000      -0.872650       -23.7460
  15   2.0000      -0.829192       -22.5634
  16   2.0000      -0.742682       -20.2094
  17   2.0000      -0.732770       -19.9397
  18   2.0000      -0.696543       -18.9539
  19   2.0000      -0.651697       -17.7336
  20   2.0000      -0.615420       -16.7464
  21   2.0000      -0.589538       -16.0422
  22   2.0000      -0.584435       -15.9033
  23   2.0000      -0.564546       -15.3621
  24   2.0000      -0.552849       -15.0438
  25   2.0000      -0.545936       -14.8557
  26   2.0000      -0.533101       -14.5064
  27   2.0000      -0.512959       -13.9583
  28   2.0000      -0.509277       -13.8581
  29   2.0000      -0.487716       -13.2714
  30   2.0000      -0.470145       -12.7933
  31   2.0000      -0.443428       -12.0663
  32   2.0000      -0.421481       -11.4691
  33   2.0000      -0.390622       -10.6294
  34   2.0000      -0.374398       -10.1879
  35   0.0000       0.128174         3.4878
  36   0.0000       0.151300         4.1171
  37   0.0000       0.161086         4.3834
  38   0.0000       0.172049         4.6817
  39   0.0000       0.186694         5.0802

MULLIKEN ATOMIC CHARGES
-----------------------
   0 C :   -0.399502
   1 C :   -0.046434
   2 C :   -0.136051
   3 C :   -0.336092
   4 C :    0.159112
   5 C :   -0.424206
   6 C :   -0.297291
   7 C :    0.073621
   8 O :   -0.472982
   9 H :    0.142635
  10 H :    0.124389
  11 H :    0.122756
  12 H :    0.090684
  13 H :    0.115245
  14 H :    0.123419
  15 H :    0.150533
  16 H :    0.128025
  17 H :    0.131141
  18 H :    0.124391
  19 H :    0.107528
  20 H :    0.112859
  21 H :    0.096376
  22 H :    0.309841
Sum of atomic charges:   -0.0000000

LOEWDIN ATOMIC CHARGES
----------------------
   0 C :   -0.288778
   1 C :   -0.233450
   2 C :   -0.162143
   3 C :   -0.185996
   4 C :   -0.248608
   5 C :   -0.272316
   6 C :   -0.198485
   7 C :   -0.298131
   8 O :   -0.019472
   9 H :    0.128067
  10 H :    0.121944
  11 H :    0.123298
  12 H :    0.158685
  13 H :    0.143671
  14 H :    0.133503
  15 H :    0.138456
  16 H :    0.128157
  17 H :    0.126152
  18 H :    0.124406
  19 H :    0.144162
  20 H :    0.135650
  21 H :    0.130106
  22 H :    0.171123

  Mayer bond orders larger than 0.1
B(  0-C ,  1-C ) :   0.9015 B(  0-C ,  9-H ) :   0.9348 B(  0-C , 10-H ) :   0.9392
B(  0-C , 11-H ) :   0.9379 B(  1-C ,  2-C ) :   0.9529 B(  1-C ,  7-C ) :   0.8964
B(  1-C , 12-H ) :   0.9247 B(  2-C ,  3-C ) :   0.8787 B(  2-C ,  4-C ) :   0.8335
B(  2-C , 13-H ) :   0.9255 B(  3-C ,  4-C ) :   0.8867 B(  3-C , 14-H ) :   0.9325
B(  3-C , 15-H ) :   0.9083 B(  4-C ,  5-C ) :   0.8989 B(  4-C ,  6-C ) :   0.9422
B(  5-C , 16-H ) :   0.9363 B(  5-C , 17-H ) :   0.9439 B(  5-C , 18-H ) :   0.9383
B(  6-C ,  7-C ) :   0.9428 B(  6-C , 19-H ) :   0.9186 B(  6-C , 20-H ) :   0.9242
B(  7-C ,  8-O ) :   0.9608 B(  7-C , 21-H ) :   0.9357 B(  8-O , 22-H ) :   0.8457

MP2 TOTAL ENERGY:     -387.629494716 Eh
FINAL SINGLE POINT ENERGY      -387.629494715925

DIPOLE MOMENT
-------------
                                X             Y             Z
Electronic contribution:      1.09267       1.00742       2.44518
Nuclear contribution   :     -1.20897      -1.55601      -2.16836
                        -----------------------------------------
Total Dipole Moment    :     -0.11630      -0.54859       0.27682
                        -----------------------------------------
Magnitude (a.u.)       :      0.62538
Magnitude (Debye)      :      1.58959

                             ****ORCA TERMINATED NORMALLY****
TOTAL RUN TIME: 0 days 0 hours 21 minutes 14 seconds 862 msec
