                         Program Version 3.0.3 - RELEASE   -
|  1> ! RI-MP2 RIJK def2-TZVP def2-TZVP/C def2-TZVP/JK TIGHTSCF
|  2> % maxcore 2000
|  3> % mp2 density relaxed end
|  4> *xyz 0 1
|  5>  O       -0.1613366179     0.1962020648     0.5623841958
|  6>  C        0.0694987254     1.1145078898    -0.1750241875
|  7>  C        1.3801341956     1.8818030186    -0.1432970104
|  8>  O        1.2959677902     2.8947442421    -1.1484467635
|  9>  C        2.3435483383     3.6976218874    -1.3070991869
| 10>  C        2.5325925813     4.7317583492    -2.1764564325
| 11>  C        3.8372507116     5.1697125279    -1.8428576641
| 12>  N        4.3902229597     4.4801858489    -0.8737545729
| 13>  O        3.4123947256     3.5189111193    -0.5252642790
| 14>  H       -0.6531532115     1.4769055743    -0.9375962331
| 15>  H        1.5308392999     2.3225019134     0.8491227408
| 16>  H        2.2163282607     1.2004280797    -0.3391170315
| 17>  H        1.8515945243     5.1051996025    -2.9199255728
| 18>  H        4.4037822770     5.9788724321    -2.2832768623
| 19> *
| 20>
| 21>                          ****END OF INPUT****

CARTESIAN COORDINATES (ANGSTROEM)
---------------------------------
  O     -0.161337    0.196202    0.562384
  C      0.069499    1.114508   -0.175024
  C      1.380134    1.881803   -0.143297
  O      1.295968    2.894744   -1.148447
  C      2.343548    3.697622   -1.307099
  C      2.532593    4.731758   -2.176456
  C      3.837251    5.169713   -1.842858
  N      4.390223    4.480186   -0.873755
  O      3.412395    3.518911   -0.525264
  H     -0.653153    1.476906   -0.937596
  H      1.530839    2.322502    0.849123
  H      2.216328    1.200428   -0.339117
  H      1.851595    5.105200   -2.919926
  H      4.403782    5.978872   -2.283277

 Total Charge           Charge          ....    0
 Multiplicity           Mult            ....    1
 Number of Electrons    NEL             ....   66
 Basis Dimension        Dim             ....  309

ORBITAL ENERGIES
----------------

  NO   OCC          E(Eh)            E(eV)
   0   2.0000     -20.656622      -562.0953
   1   2.0000     -20.641315      -561.6787
   2   2.0000     -20.580513      -560.0242
   3   2.0000     -15.625004      -425.1780
   4   2.0000     -11.395277      -310.0813
   5   2.0000     -11.356317      -309.0211
   6   2.0000     -11.328932      -308.2759
   7   2.0000     -11.294245      -307.3320
   8   2.0000     -11.239708      -305.8480
   9   2.0000      -1.525770       -41.5183
  10   2.0000      -1.452844       -39.5339
  11   2.0000      -1.420360       -38.6499
  12   2.0000      -1.176218       -32.0065
  13   2.0000      -1.092457       -29.7273
  14   2.0000      -1.020670       -27.7738
  15   2.0000      -0.859126       -23.3780
  16   2.0000      -0.829906       -22.5829
  17   2.0000      -0.819785       -22.3075
  18   2.0000      -0.774766       -21.0825
  19   2.0000      -0.725908       -19.7530
  20   2.0000      -0.692978       -18.8569
  21   2.0000      -0.666483       -18.1359
  22   2.0000      -0.656929       -17.8760
  23   2.0000      -0.648507       -17.6468
  24   2.0000      -0.616210       -16.7679
  25   2.0000      -0.590420       -16.0662
  26   2.0000      -0.576167       -15.6783
  27   2.0000      -0.570711       -15.5298
  28   2.0000      -0.517693       -14.0871
  29   2.0000      -0.486870       -13.2484
  30   2.0000      -0.448713       -12.2101
  31   2.0000      -0.445174       -12.1138
  32   2.0000      -0.355612        -9.6767
  33   0.0000       0.106078         2.8865
  34   0.0000       0.130686         3.5562
  35   0.0000       0.142701         3.8831
  36   0.0000       0.164312         4.4711
  37   0.0000       0.174208         4.7404

MULLIKEN ATOMIC CHARGES
-----------------------
   0 O :   -0.249600
   1 C :    0.087079
   2 C :   -0.035585
   3 O :   -0.267763
   4 C :    0.322062
   5 C :   -0.273125
   6 C :   -0.040061
   7 N :   -0.152857
   8 O :   -0.119729
   9 H :    0.108169
  10 H :    0.155172
  11 H :    0.155210
  12 H :    0.158399
  13 H :    0.152628
Sum of atomic charges:    0.0000000

LOEWDIN ATOMIC CHARGES
----------------------
   0 O :    0.150644
   1 C :   -0.286352
   2 C :   -0.275273
   3 O :    0.270045
   4 C :   -0.406717
   5 C :   -0.190360
   6 C :   -0.269759
   7 N :    0.028986
   8 O :    0.277483
   9 H :    0.116818
  10 H :    0.145833
  11 H :    0.145867
  12 H :    0.149235
  13 H :    0.143550

  Mayer bond orders larger than 0.1
B(  0-O ,  1-C ) :   1.9950 B(  1-C ,  2-C ) :   0.8750 B(  1-C ,  9-H ) :   0.9325
B(  2-C ,  3-O ) :   0.8201 B(  2-C , 10-H ) :   0.9046 B(  2-C , 11-H ) :   0.9046
B(  3-O ,  4-C ) :   1.1184 B(  4-C ,  5-C ) :   1.4836 B(  4-C ,  8-O ) :   1.1198
B(  5-C ,  6-C ) :   1.2281 B(  5-C , 12-H ) :   0.9187 B(  6-C ,  7-N ) :   1.5968
B(  6-C , 13-H ) :   0.9227 B(  7-N ,  8-O ) :   0.8492

MP2 TOTAL ENERGY:     -473.040852528 Eh
FINAL SINGLE POINT ENERGY      -473.040852527554

DIPOLE MOMENT
-------------
                                X             Y             Z
Electronic contribution:      0.62091      -0.34514       0.68455
Nuclear contribution   :     -1.04900       0.88720      -1.44364
                        -----------------------------------------
Total Dipole Moment    :     -0.42809       0.54206      -0.75910
                        -----------------------------------------
Magnitude (a.u.)       :      1.02631
Magnitude (Debye)      :      2.60868

                             ****ORCA TERMINATED NORMALLY****
TOTAL RUN TIME: 0 days 0 hours 13 minutes 31 seconds 503 msec
