                         Program Version 3.0.3 - RELEASE   -
|  1> ! RI-MP2 RIJK def2-TZVP def2-TZVP/C def2-TZVP/JK TIGHTSCF
|  2> % maxcore 2000
|  3> % mp2 density relaxed end
|  4> *xyz 0 1
|  5>  O       -0.2217186693     0.1533150681     0.4663613310
|  6>  C       -0.0893916809     1.2581281275    -0.0030613639
|  7>  C        1.2161152649     1.9612393086    -0.0587764780
|  8>  C        1.5747801500     2.9058436726    -1.2181418922
|  9>  C        0.5729900222     3.2485499454    -2.3132752511
| 10>  N       -0.5369476070     4.1056622727    -1.9176666589
| 11>  C       -0.6326282222     4.5028890922    -0.7253914509
| 12>  O        0.1595047624     4.2322568764     0.3504755955
| 13>  C        1.3193029744     3.4716635329     0.1301488536
| 14>  H       -0.9571515724     1.8047728179    -0.4262382948
| 15>  H        2.0297306164     1.3793802147     0.3610644894
| 16>  H        2.6093210963     2.8476743790    -1.5394394370
| 17>  H        1.1091678887     3.7686427289    -3.1154857578
| 18>  H        0.1560880703     2.3450732324    -2.7747129055
| 19>  H       -1.4468453804     5.1523183123    -0.4129048715
| 20>  H        2.1285408966     3.8412617884     0.7486233720
| 21> *
| 22>
| 23>                          ****END OF INPUT****

CARTESIAN COORDINATES (ANGSTROEM)
---------------------------------
  O     -0.221719    0.153315    0.466361
  C     -0.089392    1.258128   -0.003061
  C      1.216115    1.961239   -0.058776
  C      1.574780    2.905844   -1.218142
  C      0.572990    3.248550   -2.313275
  N     -0.536948    4.105662   -1.917667
  C     -0.632628    4.502889   -0.725391
  O      0.159505    4.232257    0.350476
  C      1.319303    3.471664    0.130149
  H     -0.957152    1.804773   -0.426238
  H      2.029731    1.379380    0.361064
  H      2.609321    2.847674   -1.539439
  H      1.109168    3.768643   -3.115486
  H      0.156088    2.345073   -2.774713
  H     -1.446845    5.152318   -0.412905
  H      2.128541    3.841262    0.748623

 Total Charge           Charge          ....    0
 Multiplicity           Mult            ....    1
 Number of Electrons    NEL             ....   66
 Basis Dimension        Dim             ....  321

ORBITAL ENERGIES
----------------

  NO   OCC          E(Eh)            E(eV)
   0   2.0000     -20.621119      -561.1292
   1   2.0000     -20.556559      -559.3724
   2   2.0000     -15.564879      -423.5419
   3   2.0000     -11.349417      -308.8333
   4   2.0000     -11.337560      -308.5107
   5   2.0000     -11.326502      -308.2098
   6   2.0000     -11.281153      -306.9758
   7   2.0000     -11.271700      -306.7186
   8   2.0000     -11.260228      -306.4064
   9   2.0000      -1.455634       -39.6098
  10   2.0000      -1.395074       -37.9619
  11   2.0000      -1.238078       -33.6898
  12   2.0000      -1.181277       -32.1442
  13   2.0000      -0.991934       -26.9919
  14   2.0000      -0.930395       -25.3173
  15   2.0000      -0.908103       -24.7107
  16   2.0000      -0.791704       -21.5434
  17   2.0000      -0.752936       -20.4884
  18   2.0000      -0.732494       -19.9322
  19   2.0000      -0.698558       -19.0087
  20   2.0000      -0.689185       -18.7537
  21   2.0000      -0.636654       -17.3242
  22   2.0000      -0.632790       -17.2191
  23   2.0000      -0.621368       -16.9083
  24   2.0000      -0.607691       -16.5361
  25   2.0000      -0.578631       -15.7453
  26   2.0000      -0.559123       -15.2145
  27   2.0000      -0.540127       -14.6976
  28   2.0000      -0.472445       -12.8559
  29   2.0000      -0.439631       -11.9630
  30   2.0000      -0.425476       -11.5778
  31   2.0000      -0.420612       -11.4454
  32   2.0000      -0.400100       -10.8873
  33   0.0000       0.115956         3.1553
  34   0.0000       0.129398         3.5211
  35   0.0000       0.151299         4.1170
  36   0.0000       0.162511         4.4221
  37   0.0000       0.178012         4.8439

MULLIKEN ATOMIC CHARGES
-----------------------
   0 O :   -0.263286
   1 C :    0.064224
   2 C :   -0.116569
   3 C :   -0.144538
   4 C :   -0.138493
   5 N :   -0.260024
   6 C :    0.073491
   7 O :   -0.257293
   8 C :    0.055614
   9 H :    0.110551
  10 H :    0.144269
  11 H :    0.147639
  12 H :    0.142655
  13 H :    0.146168
  14 H :    0.144590
  15 H :    0.151001
Sum of atomic charges:    0.0000000

LOEWDIN ATOMIC CHARGES
----------------------
   0 O :    0.132968
   1 C :   -0.280121
   2 C :   -0.174632
   3 C :   -0.179217
   4 C :   -0.270329
   5 N :    0.075297
   6 C :   -0.353121
   7 O :    0.260640
   8 C :   -0.231093
   9 H :    0.124294
  10 H :    0.161125
  11 H :    0.157966
  12 H :    0.147658
  13 H :    0.142953
  14 H :    0.137085
  15 H :    0.148526

  Mayer bond orders larger than 0.1
B(  0-O ,  1-C ) :   1.9735 B(  1-C ,  2-C ) :   0.9102 B(  1-C ,  9-H ) :   0.9320
B(  2-C ,  3-C ) :   0.8025 B(  2-C ,  8-C ) :   0.8076 B(  2-C , 10-H ) :   0.9107
B(  3-C ,  4-C ) :   0.9308 B(  3-C ,  8-C ) :   0.8918 B(  3-C , 11-H ) :   0.9140
B(  4-C ,  5-N ) :   0.9305 B(  4-C , 12-H ) :   0.9229 B(  4-C , 13-H ) :   0.9274
B(  5-N ,  6-C ) :   1.8396 B(  6-C ,  7-O ) :   1.0380 B(  6-C , 14-H ) :   0.9266
B(  7-O ,  8-C ) :   0.9121 B(  8-C , 15-H ) :   0.9374

MP2 TOTAL ENERGY:     -437.152537789 Eh
FINAL SINGLE POINT ENERGY      -437.152537788918

DIPOLE MOMENT
-------------
                                X             Y             Z
Electronic contribution:     -1.89066      -0.30740       2.68616
Nuclear contribution   :      2.91653       1.06405      -2.95196
                        -----------------------------------------
Total Dipole Moment    :      1.02587       0.75666      -0.26580
                        -----------------------------------------
Magnitude (a.u.)       :      1.30215
Magnitude (Debye)      :      3.30980

                             ****ORCA TERMINATED NORMALLY****
TOTAL RUN TIME: 0 days 0 hours 15 minutes 16 seconds 220 msec
