                         Program Version 3.0.3 - RELEASE   -
|  1> ! RI-MP2 RIJK def2-TZVP def2-TZVP/C def2-TZVP/JK TIGHTSCF
|  2> % maxcore 2000
|  3> % mp2 density relaxed end
|  4> *xyz 0 1
|  5>  C       -0.0760601158     1.4470390450     0.1835542339
|  6>  O       -0.0105903591     0.0417128183     0.2161680580
|  7>  C       -1.2460281743    -0.5691529174    -0.0960730703
|  8>  C       -1.0848387652    -2.0451800767    -0.0939473597
|  9>  C       -2.0876324880    -3.1964067172     0.0175150325
| 10>  C       -1.5373791453    -3.8631275105    -1.2438437405
| 11>  C       -0.2322113928    -3.0912362008    -0.9210237390
| 12>  O        0.2368610293    -3.7104925065     0.3090665863
| 13>  C       -0.8686856044    -3.0843991514     0.9527647766
| 14>  H        0.9184385755     1.8261077138     0.4302005209
| 15>  H       -0.3628419726     1.8220797452    -0.8123000607
| 16>  H       -0.7985230410     1.8413567249     0.9164684492
| 17>  H       -2.0200321135    -0.2852684255     0.6396799671
| 18>  H       -1.6046649748    -0.2188231441    -1.0807665810
| 19>  H       -3.1070363487    -3.1553764097     0.3806782061
| 20>  H       -1.4595822922    -4.9540969779    -1.2818134963
| 21>  H       -2.0248265403    -3.4788032745    -2.1435873820
| 22>  H        0.5579665435    -2.9066989194    -1.6451052208
| 23>  H       -0.9082172502    -3.0540039355     2.0335250496
| 24> *
| 25>
| 26>                          ****END OF INPUT****

CARTESIAN COORDINATES (ANGSTROEM)
---------------------------------
  C     -0.076060    1.447039    0.183554
  O     -0.010590    0.041713    0.216168
  C     -1.246028   -0.569153   -0.096073
  C     -1.084839   -2.045180   -0.093947
  C     -2.087632   -3.196407    0.017515
  C     -1.537379   -3.863128   -1.243844
  C     -0.232211   -3.091236   -0.921024
  O      0.236861   -3.710493    0.309067
  C     -0.868686   -3.084399    0.952765
  H      0.918439    1.826108    0.430201
  H     -0.362842    1.822080   -0.812300
  H     -0.798523    1.841357    0.916468
  H     -2.020032   -0.285268    0.639680
  H     -1.604665   -0.218823   -1.080767
  H     -3.107036   -3.155376    0.380678
  H     -1.459582   -4.954097   -1.281813
  H     -2.024827   -3.478803   -2.143587
  H      0.557967   -2.906699   -1.645105
  H     -0.908217   -3.054004    2.033525

 Total Charge           Charge          ....    0
 Multiplicity           Mult            ....    1
 Number of Electrons    NEL             ....   68
 Basis Dimension        Dim             ....  339

ORBITAL ENERGIES
----------------

  NO   OCC          E(Eh)            E(eV)
   0   2.0000     -20.558930      -559.4369
   1   2.0000     -20.547812      -559.1344
   2   2.0000     -11.290834      -307.2392
   3   2.0000     -11.289232      -307.1956
   4   2.0000     -11.285578      -307.0962
   5   2.0000     -11.273629      -306.7711
   6   2.0000     -11.241062      -305.8848
   7   2.0000     -11.240384      -305.8664
   8   2.0000     -11.230261      -305.5909
   9   2.0000      -1.400133       -38.0996
  10   2.0000      -1.379385       -37.5350
  11   2.0000      -1.152379       -31.3578
  12   2.0000      -1.004671       -27.3385
  13   2.0000      -0.970391       -26.4057
  14   2.0000      -0.897659       -24.4265
  15   2.0000      -0.863004       -23.4835
  16   2.0000      -0.772898       -21.0316
  17   2.0000      -0.726043       -19.7566
  18   2.0000      -0.710753       -19.3406
  19   2.0000      -0.673260       -18.3203
  20   2.0000      -0.655743       -17.8437
  21   2.0000      -0.634867       -17.2756
  22   2.0000      -0.619768       -16.8648
  23   2.0000      -0.599267       -16.3069
  24   2.0000      -0.564481       -15.3603
  25   2.0000      -0.548882       -14.9358
  26   2.0000      -0.539374       -14.6771
  27   2.0000      -0.519008       -14.1229
  28   2.0000      -0.492712       -13.4074
  29   2.0000      -0.471934       -12.8420
  30   2.0000      -0.436559       -11.8794
  31   2.0000      -0.418799       -11.3961
  32   2.0000      -0.388143       -10.5619
  33   2.0000      -0.373058       -10.1514
  34   0.0000       0.136896         3.7251
  35   0.0000       0.157940         4.2978
  36   0.0000       0.169738         4.6188
  37   0.0000       0.179964         4.8971
  38   0.0000       0.180823         4.9204

MULLIKEN ATOMIC CHARGES
-----------------------
   0 C :   -0.225500
   1 O :   -0.286128
   2 C :   -0.099892
   3 C :    0.031897
   4 C :   -0.153393
   5 C :   -0.200625
   6 C :    0.051169
   7 O :   -0.315814
   8 C :   -0.003109
   9 H :    0.143434
  10 H :    0.110406
  11 H :    0.110200
  12 H :    0.096251
  13 H :    0.098684
  14 H :    0.136709
  15 H :    0.116236
  16 H :    0.116655
  17 H :    0.133348
  18 H :    0.139473
Sum of atomic charges:    0.0000000

LOEWDIN ATOMIC CHARGES
----------------------
   0 C :   -0.362744
   1 O :    0.140969
   2 C :   -0.302654
   3 C :   -0.151776
   4 C :   -0.150231
   5 C :   -0.204183
   6 C :   -0.175126
   7 O :    0.172445
   8 C :   -0.212295
   9 H :    0.114763
  10 H :    0.100673
  11 H :    0.100913
  12 H :    0.130200
  13 H :    0.127289
  14 H :    0.136775
  15 H :    0.127529
  16 H :    0.140662
  17 H :    0.130241
  18 H :    0.136550

  Mayer bond orders larger than 0.1
B(  0-C ,  1-O ) :   0.9218 B(  0-C ,  9-H ) :   0.9393 B(  0-C , 10-H ) :   0.9377
B(  0-C , 11-H ) :   0.9370 B(  1-O ,  2-C ) :   1.0216 B(  1-O ,  3-C ) :  -0.1107
B(  2-C ,  3-C ) :   0.8871 B(  2-C , 12-H ) :   0.9102 B(  2-C , 13-H ) :   0.9165
B(  3-C ,  4-C ) :   0.7514 B(  3-C ,  6-C ) :   0.9047 B(  3-C ,  8-C ) :   0.9250
B(  4-C ,  5-C ) :   0.9408 B(  4-C ,  8-C ) :   0.8491 B(  4-C , 14-H ) :   0.9211
B(  5-C ,  6-C ) :   0.9440 B(  5-C , 15-H ) :   0.9209 B(  5-C , 16-H ) :   0.9251
B(  6-C ,  7-O ) :   0.9041 B(  6-C , 17-H ) :   0.9167 B(  7-O ,  8-C ) :   0.9916
B(  8-C , 18-H ) :   0.9191

MP2 TOTAL ENERGY:     -422.228349318 Eh
FINAL SINGLE POINT ENERGY      -422.228349318149

DIPOLE MOMENT
-------------
                                X             Y             Z
Electronic contribution:      2.31466      -5.63669       1.44614
Nuclear contribution   :     -3.20364       6.38771      -1.75477
                        -----------------------------------------
Total Dipole Moment    :     -0.88898       0.75102      -0.30863
                        -----------------------------------------
Magnitude (a.u.)       :      1.20398
Magnitude (Debye)      :      3.06028

                             ****ORCA TERMINATED NORMALLY****
TOTAL RUN TIME: 0 days 0 hours 15 minutes 15 seconds 895 msec
