                         Program Version 3.0.3 - RELEASE   -
|  1> ! RI-MP2 RIJK def2-TZVP def2-TZVP/C def2-TZVP/JK TIGHTSCF
|  2> % maxcore 2000
|  3> % mp2 density relaxed end
|  4> *xyz 0 1
|  5>  C       -0.0050943574     1.5510781703    -0.1434152242
|  6>  C        0.1144203760     0.0282057103    -0.0598190019
|  7>  C        0.6497076398    -0.4645435768     1.2920816661
|  8>  O       -0.1723044141    -0.0150061855     2.3747564946
|  9>  C        0.8231227945    -1.9709585801     1.3051502794
| 10>  C        2.1721451989    -2.6067183596     1.0570919948
| 11>  C        1.5402183089    -2.6922286065     2.4224370416
| 12>  C        2.1268296747    -1.9639278049     3.6034506910
| 13>  O        3.1411324540    -2.7935312238     4.1605429829
| 14>  H        0.9776300099     2.0282086674    -0.0576728175
| 15>  H       -0.4451135367     1.8635406055    -1.0952162216
| 16>  H       -0.6295482527     1.9313048319     0.6691121558
| 17>  H       -0.8683337318    -0.4349697837    -0.2328503571
| 18>  H        0.7719573548    -0.3493021181    -0.8527233486
| 19>  H        1.6172655114     0.0165539142     1.4780403939
| 20>  H       -1.0109282925    -0.4862700896     2.3155388024
| 21>  H       -0.0323016749    -2.5029826053     0.8903354871
| 22>  H        2.2274263408    -3.5009326859     0.4465352483
| 23>  H        3.0221968644    -1.9401833730     0.9448812292
| 24>  H        1.1286234556    -3.6609852162     2.6930483130
| 25>  H        2.5392036314    -0.9928692781     3.2922025470
| 26>  H        1.3359161100    -1.7544134264     4.3390818114
| 27>  H        3.4564544451    -2.3725133860     4.9657388325
| 28> *
| 29>
| 30>                          ****END OF INPUT****

CARTESIAN COORDINATES (ANGSTROEM)
---------------------------------
  C     -0.005094    1.551078   -0.143415
  C      0.114420    0.028206   -0.059819
  C      0.649708   -0.464544    1.292082
  O     -0.172304   -0.015006    2.374756
  C      0.823123   -1.970959    1.305150
  C      2.172145   -2.606718    1.057092
  C      1.540218   -2.692229    2.422437
  C      2.126830   -1.963928    3.603451
  O      3.141132   -2.793531    4.160543
  H      0.977630    2.028209   -0.057673
  H     -0.445114    1.863541   -1.095216
  H     -0.629548    1.931305    0.669112
  H     -0.868334   -0.434970   -0.232850
  H      0.771957   -0.349302   -0.852723
  H      1.617266    0.016554    1.478040
  H     -1.010928   -0.486270    2.315539
  H     -0.032302   -2.502983    0.890335
  H      2.227426   -3.500933    0.446535
  H      3.022197   -1.940183    0.944881
  H      1.128623   -3.660985    2.693048
  H      2.539204   -0.992869    3.292203
  H      1.335916   -1.754413    4.339082
  H      3.456454   -2.372513    4.965739

 Total Charge           Charge          ....    0
 Multiplicity           Mult            ....    1
 Number of Electrons    NEL             ....   72
 Basis Dimension        Dim             ....  363

ORBITAL ENERGIES
----------------

  NO   OCC          E(Eh)            E(eV)
   0   2.0000     -20.551837      -559.2439
   1   2.0000     -20.549200      -559.1721
   2   2.0000     -11.280113      -306.9475
   3   2.0000     -11.271586      -306.7155
   4   2.0000     -11.230934      -305.6093
   5   2.0000     -11.227690      -305.5210
   6   2.0000     -11.225009      -305.4480
   7   2.0000     -11.222354      -305.3758
   8   2.0000     -11.210216      -305.0455
   9   2.0000      -1.357498       -36.9394
  10   2.0000      -1.352526       -36.8041
  11   2.0000      -1.149285       -31.2736
  12   2.0000      -1.047702       -28.5094
  13   2.0000      -0.951309       -25.8864
  14   2.0000      -0.922900       -25.1134
  15   2.0000      -0.824100       -22.4249
  16   2.0000      -0.804539       -21.8926
  17   2.0000      -0.767562       -20.8864
  18   2.0000      -0.695460       -18.9244
  19   2.0000      -0.674831       -18.3631
  20   2.0000      -0.650439       -17.6993
  21   2.0000      -0.635227       -17.2854
  22   2.0000      -0.625254       -17.0140
  23   2.0000      -0.599838       -16.3224
  24   2.0000      -0.573389       -15.6027
  25   2.0000      -0.562078       -15.2949
  26   2.0000      -0.541238       -14.7278
  27   2.0000      -0.525850       -14.3091
  28   2.0000      -0.519308       -14.1311
  29   2.0000      -0.487976       -13.2785
  30   2.0000      -0.483247       -13.1498
  31   2.0000      -0.466002       -12.6806
  32   2.0000      -0.454043       -12.3551
  33   2.0000      -0.440445       -11.9851
  34   2.0000      -0.413264       -11.2455
  35   2.0000      -0.398753       -10.8506
  36   0.0000       0.131714         3.5841
  37   0.0000       0.140731         3.8295
  38   0.0000       0.149568         4.0700
  39   0.0000       0.165354         4.4995
  40   0.0000       0.180247         4.9048

MULLIKEN ATOMIC CHARGES
-----------------------
   0 C :   -0.375906
   1 C :   -0.214264
   2 C :    0.063099
   3 O :   -0.477261
   4 C :   -0.141194
   5 C :   -0.294298
   6 C :   -0.019056
   7 C :   -0.068383
   8 O :   -0.462279
   9 H :    0.118581
  10 H :    0.131840
  11 H :    0.136088
  12 H :    0.097875
  13 H :    0.119628
  14 H :    0.080922
  15 H :    0.308772
  16 H :    0.115870
  17 H :    0.132168
  18 H :    0.126740
  19 H :    0.118072
  20 H :    0.088461
  21 H :    0.100879
  22 H :    0.313648
Sum of atomic charges:   -0.0000000

LOEWDIN ATOMIC CHARGES
----------------------
   0 C :   -0.319856
   1 C :   -0.280214
   2 C :   -0.334071
   3 O :   -0.021424
   4 C :   -0.202447
   5 C :   -0.197517
   6 C :   -0.208951
   7 C :   -0.328488
   8 O :   -0.051376
   9 H :    0.120774
  10 H :    0.119823
  11 H :    0.124049
  12 H :    0.134582
  13 H :    0.142599
  14 H :    0.146499
  15 H :    0.173836
  16 H :    0.149675
  17 H :    0.132006
  18 H :    0.137945
  19 H :    0.151453
  20 H :    0.119880
  21 H :    0.120950
  22 H :    0.170273

  Mayer bond orders larger than 0.1
B(  0-C ,  1-C ) :   0.9264 B(  0-C ,  9-H ) :   0.9382 B(  0-C , 10-H ) :   0.9421
B(  0-C , 11-H ) :   0.9353 B(  1-C ,  2-C ) :   0.9431 B(  1-C , 12-H ) :   0.9155
B(  1-C , 13-H ) :   0.9331 B(  2-C ,  3-O ) :   0.8846 B(  2-C ,  4-C ) :   0.9302
B(  2-C , 14-H ) :   0.9214 B(  3-O , 15-H ) :   0.8453 B(  4-C ,  5-C ) :   0.9103
B(  4-C ,  6-C ) :   0.8371 B(  4-C , 16-H ) :   0.9088 B(  5-C ,  6-C ) :   0.8864
B(  5-C , 17-H ) :   0.9240 B(  5-C , 18-H ) :   0.9233 B(  6-C ,  7-C ) :   0.9537
B(  6-C , 19-H ) :   0.9283 B(  7-C ,  8-O ) :   1.0236 B(  7-C , 20-H ) :   0.9163
B(  7-C , 21-H ) :   0.9347 B(  8-O , 22-H ) :   0.8496

MP2 TOTAL ENERGY:     -424.708899356 Eh
FINAL SINGLE POINT ENERGY      -424.708899355829

DIPOLE MOMENT
-------------
                                X             Y             Z
Electronic contribution:      1.63446      -4.10531       5.24625
Nuclear contribution   :     -1.98910       4.19742      -5.43132
                        -----------------------------------------
Total Dipole Moment    :     -0.35464       0.09210      -0.18507
                        -----------------------------------------
Magnitude (a.u.)       :      0.41049
Magnitude (Debye)      :      1.04338

                             ****ORCA TERMINATED NORMALLY****
TOTAL RUN TIME: 0 days 0 hours 17 minutes 29 seconds 206 msec
