                         Program Version 3.0.3 - RELEASE   -
|  1> ! RI-MP2 RIJK def2-TZVP def2-TZVP/C def2-TZVP/JK TIGHTSCF
|  2> % maxcore 2000
|  3> % mp2 density relaxed end
|  4> *xyz 0 1
|  5>  O        0.1131096037     1.3000789032     0.1391574596
|  6>  C        0.0748382769    -0.0311567618     0.0158774978
|  7>  N        0.1039161624    -0.7240078244    -1.0862327936
|  8>  C        0.0398149877    -2.0477159637    -0.6594602712
|  9>  C       -0.0267660306    -2.1168831251     0.7087323037
| 10>  N       -0.0035851992    -0.8052052044     1.1344479463
| 11>  C        0.0461750544    -3.1412489283    -1.5631307859
| 12>  N        0.0502378646    -4.0463804179    -2.2851164396
| 13>  H        0.1672100460     1.6616812914    -0.7551425290
| 14>  H       -0.0862484333    -2.9484260693     1.3890546499
| 15>  H       -0.0374455525    -0.4719034198     2.0834521422
| 16> *
| 17>
| 18>                          ****END OF INPUT****

CARTESIAN COORDINATES (ANGSTROEM)
---------------------------------
  O      0.113110    1.300079    0.139157
  C      0.074838   -0.031157    0.015877
  N      0.103916   -0.724008   -1.086233
  C      0.039815   -2.047716   -0.659460
  C     -0.026766   -2.116883    0.708732
  N     -0.003585   -0.805205    1.134448
  C      0.046175   -3.141249   -1.563131
  N      0.050238   -4.046380   -2.285116
  H      0.167210    1.661681   -0.755143
  H     -0.086248   -2.948426    1.389055
  H     -0.037446   -0.471903    2.083452

 Total Charge           Charge          ....    0
 Multiplicity           Mult            ....    1
 Number of Electrons    NEL             ....   56
 Basis Dimension        Dim             ....  266

ORBITAL ENERGIES
----------------

  NO   OCC          E(Eh)            E(eV)
   0   2.0000     -20.636856      -561.5574
   1   2.0000     -15.652097      -425.9152
   2   2.0000     -15.573981      -423.7896
   3   2.0000     -15.569302      -423.6623
   4   2.0000     -11.393888      -310.0435
   5   2.0000     -11.306739      -307.6720
   6   2.0000     -11.303696      -307.5892
   7   2.0000     -11.273837      -306.7767
   8   2.0000      -1.475384       -40.1473
   9   2.0000      -1.363446       -37.1013
  10   2.0000      -1.222067       -33.2541
  11   2.0000      -1.203101       -32.7380
  12   2.0000      -1.051781       -28.6204
  13   2.0000      -0.906116       -24.6567
  14   2.0000      -0.871153       -23.7053
  15   2.0000      -0.805898       -21.9296
  16   2.0000      -0.736975       -20.0541
  17   2.0000      -0.683436       -18.5972
  18   2.0000      -0.680766       -18.5246
  19   2.0000      -0.661575       -18.0024
  20   2.0000      -0.613836       -16.7033
  21   2.0000      -0.579682       -15.7739
  22   2.0000      -0.555328       -15.1112
  23   2.0000      -0.501584       -13.6488
  24   2.0000      -0.486239       -13.2312
  25   2.0000      -0.463003       -12.5990
  26   2.0000      -0.430437       -11.7128
  27   2.0000      -0.338130        -9.2010
  28   0.0000       0.110246         2.9999
  29   0.0000       0.110836         3.0160
  30   0.0000       0.134106         3.6492
  31   0.0000       0.160027         4.3546
  32   0.0000       0.182545         4.9673

MULLIKEN ATOMIC CHARGES
-----------------------
   0 O :   -0.420490
   1 C :    0.351527
   2 N :   -0.314877
   3 C :    0.193827
   4 C :   -0.084152
   5 N :   -0.272842
   6 C :   -0.206478
   7 N :   -0.052493
   8 H :    0.363158
   9 H :    0.175518
  10 H :    0.267302
Sum of atomic charges:   -0.0000000

LOEWDIN ATOMIC CHARGES
----------------------
   0 O :    0.090568
   1 C :   -0.463537
   2 N :    0.124372
   3 C :   -0.261192
   4 C :   -0.175314
   5 N :    0.200374
   6 C :   -0.152140
   7 N :    0.073825
   8 H :    0.214452
   9 H :    0.145506
  10 H :    0.203085

  Mayer bond orders larger than 0.1
B(  0-O ,  1-C ) :   1.1302 B(  0-O ,  8-H ) :   0.8071 B(  1-C ,  2-N ) :   1.5643
B(  1-C ,  5-N ) :   1.1751 B(  2-N ,  3-C ) :   1.2067 B(  3-C ,  4-C ) :   1.5023
B(  3-C ,  6-C ) :   0.9140 B(  4-C ,  5-N ) :   1.1144 B(  4-C ,  9-H ) :   0.8968
B(  5-N , 10-H ) :   0.8598 B(  6-C ,  7-N ) :   2.8623

MP2 TOTAL ENERGY:     -392.989276380 Eh
FINAL SINGLE POINT ENERGY      -392.989276379950

DIPOLE MOMENT
-------------
                                X             Y             Z
Electronic contribution:      0.05358      -0.78597      -1.69130
Nuclear contribution   :     -0.10205       2.17856       3.69633
                        -----------------------------------------
Total Dipole Moment    :     -0.04847       1.39259       2.00503
                        -----------------------------------------
Magnitude (a.u.)       :      2.44168
Magnitude (Debye)      :      6.20625

                             ****ORCA TERMINATED NORMALLY****
TOTAL RUN TIME: 0 days 0 hours 8 minutes 40 seconds 47 msec
