                         Program Version 3.0.3 - RELEASE   -
|  1> ! RI-MP2 RIJK def2-TZVP def2-TZVP/C def2-TZVP/JK TIGHTSCF
|  2> % maxcore 2000
|  3> % mp2 density relaxed end
|  4> *xyz 0 1
|  5>  C        0.3445051322     1.5510508230    -0.1524247073
|  6>  C        0.1418926248     0.0669205258     0.0683701594
|  7>  O        0.9668997725    -0.7558480168    -0.7991988243
|  8>  C        1.3054464460    -1.6539743235     0.2837793189
|  9>  C        0.8962603346    -3.0763941748    -0.0015502223
| 10>  C        2.7086786619    -1.3610221708     0.8705328323
| 11>  O        3.6699196917    -1.0074678934    -0.0890569436
| 12>  C        2.0922343868    -0.2530650801     1.7852036683
| 13>  C        0.6688400377    -0.6647071386     1.3179963433
| 14>  H        1.3912122141     1.8402469646    -0.0326851692
| 15>  H        0.0399676630     1.8163875272    -1.1698761108
| 16>  H       -0.2678981989     2.1301753906     0.5474828587
| 17>  H       -0.9193295776    -0.1786400624    -0.0961690282
| 18>  H        1.4617772002    -3.4591741295    -0.8585085453
| 19>  H        1.0943737449    -3.7253448181     0.8577384901
| 20>  H       -0.1686847550    -3.1355531143    -0.2454602484
| 21>  H        3.0409764574    -2.2196325752     1.4748181446
| 22>  H        4.5153350250    -0.8992164025     0.3573909003
| 23>  H        2.2773690723    -0.3930465910     2.8527600074
| 24>  H        2.3932902780     0.7595074304     1.5096185568
| 25>  H       -0.0505086715    -0.9554458806     2.0827349094
| 26> *
| 27>
| 28>                          ****END OF INPUT****

CARTESIAN COORDINATES (ANGSTROEM)
---------------------------------
  C      0.344505    1.551051   -0.152425
  C      0.141893    0.066921    0.068370
  O      0.966900   -0.755848   -0.799199
  C      1.305446   -1.653974    0.283779
  C      0.896260   -3.076394   -0.001550
  C      2.708679   -1.361022    0.870533
  O      3.669920   -1.007468   -0.089057
  C      2.092234   -0.253065    1.785204
  C      0.668840   -0.664707    1.317996
  H      1.391212    1.840247   -0.032685
  H      0.039968    1.816388   -1.169876
  H     -0.267898    2.130175    0.547483
  H     -0.919330   -0.178640   -0.096169
  H      1.461777   -3.459174   -0.858509
  H      1.094374   -3.725345    0.857738
  H     -0.168685   -3.135553   -0.245460
  H      3.040976   -2.219633    1.474818
  H      4.515335   -0.899216    0.357391
  H      2.277369   -0.393047    2.852760
  H      2.393290    0.759507    1.509619
  H     -0.050509   -0.955446    2.082735

 Total Charge           Charge          ....    0
 Multiplicity           Mult            ....    1
 Number of Electrons    NEL             ....   70
 Basis Dimension        Dim             ....  351

ORBITAL ENERGIES
----------------

  NO   OCC          E(Eh)            E(eV)
   0   2.0000     -20.555075      -559.3320
   1   2.0000     -20.536533      -558.8275
   2   2.0000     -11.280255      -306.9513
   3   2.0000     -11.279144      -306.9211
   4   2.0000     -11.278539      -306.9047
   5   2.0000     -11.229607      -305.5731
   6   2.0000     -11.223643      -305.4108
   7   2.0000     -11.214214      -305.1543
   8   2.0000     -11.211705      -305.0860
   9   2.0000      -1.379523       -37.5387
  10   2.0000      -1.355338       -36.8806
  11   2.0000      -1.100607       -29.9490
  12   2.0000      -1.027523       -27.9603
  13   2.0000      -0.974584       -26.5198
  14   2.0000      -0.912060       -24.8184
  15   2.0000      -0.852785       -23.2055
  16   2.0000      -0.798799       -21.7364
  17   2.0000      -0.705979       -19.2107
  18   2.0000      -0.697857       -18.9896
  19   2.0000      -0.676309       -18.4033
  20   2.0000      -0.641565       -17.4579
  21   2.0000      -0.616128       -16.7657
  22   2.0000      -0.601478       -16.3670
  23   2.0000      -0.573291       -15.6000
  24   2.0000      -0.557392       -15.1674
  25   2.0000      -0.551218       -14.9994
  26   2.0000      -0.539658       -14.6848
  27   2.0000      -0.534667       -14.5490
  28   2.0000      -0.517865       -14.0918
  29   2.0000      -0.495349       -13.4791
  30   2.0000      -0.477970       -13.0062
  31   2.0000      -0.444204       -12.0874
  32   2.0000      -0.430240       -11.7074
  33   2.0000      -0.400650       -10.9022
  34   2.0000      -0.388626       -10.5751
  35   0.0000       0.131411         3.5759
  36   0.0000       0.145611         3.9623
  37   0.0000       0.153462         4.1759
  38   0.0000       0.171936         4.6786
  39   0.0000       0.181414         4.9365

MULLIKEN ATOMIC CHARGES
-----------------------
   0 C :   -0.405295
   1 C :    0.052967
   2 O :   -0.335552
   3 C :    0.269024
   4 C :   -0.403282
   5 C :   -0.056492
   6 O :   -0.430380
   7 C :   -0.241936
   8 C :   -0.064344
   9 H :    0.129721
  10 H :    0.140912
  11 H :    0.126256
  12 H :    0.076321
  13 H :    0.146486
  14 H :    0.120483
  15 H :    0.134232
  16 H :    0.073515
  17 H :    0.315926
  18 H :    0.120894
  19 H :    0.110588
  20 H :    0.119957
Sum of atomic charges:   -0.0000000

LOEWDIN ATOMIC CHARGES
----------------------
   0 C :   -0.295549
   1 C :   -0.287350
   2 O :    0.188470
   3 C :   -0.285436
   4 C :   -0.274390
   5 C :   -0.299351
   6 O :   -0.004673
   7 C :   -0.204925
   8 C :   -0.154170
   9 H :    0.123834
  10 H :    0.130694
  11 H :    0.127964
  12 H :    0.136744
  13 H :    0.136812
  14 H :    0.126664
  15 H :    0.129759
  16 H :    0.132086
  17 H :    0.176438
  18 H :    0.128703
  19 H :    0.133241
  20 H :    0.134437

  Mayer bond orders larger than 0.1
B(  0-C ,  1-C ) :   0.9041 B(  0-C ,  9-H ) :   0.9402 B(  0-C , 10-H ) :   0.9342
B(  0-C , 11-H ) :   0.9289 B(  1-C ,  2-O ) :   0.9288 B(  1-C ,  8-C ) :   0.9375
B(  1-C , 12-H ) :   0.9185 B(  2-O ,  3-C ) :   0.8941 B(  3-C ,  4-C ) :   0.9064
B(  3-C ,  5-C ) :   0.8643 B(  3-C ,  6-O ) :  -0.1337 B(  3-C ,  8-C ) :   0.8759
B(  4-C , 13-H ) :   0.9343 B(  4-C , 14-H ) :   0.9312 B(  4-C , 15-H ) :   0.9373
B(  5-C ,  6-O ) :   1.2012 B(  5-C ,  7-C ) :   0.9254 B(  5-C , 16-H ) :   0.9517
B(  6-O , 17-H ) :   0.8437 B(  7-C ,  8-C ) :   0.9225 B(  7-C , 18-H ) :   0.9126
B(  7-C , 19-H ) :   0.9094 B(  8-C , 20-H ) :   0.9029

MP2 TOTAL ENERGY:     -423.494157290 Eh
FINAL SINGLE POINT ENERGY      -423.494157289914

DIPOLE MOMENT
-------------
                                X             Y             Z
Electronic contribution:      2.54383      -1.07279      -1.85822
Nuclear contribution   :     -2.51599       1.00934       3.00899
                        -----------------------------------------
Total Dipole Moment    :      0.02784      -0.06344       1.15077
                        -----------------------------------------
Magnitude (a.u.)       :      1.15285
Magnitude (Debye)      :      2.93032

                             ****ORCA TERMINATED NORMALLY****
TOTAL RUN TIME: 0 days 0 hours 19 minutes 2 seconds 354 msec
