                         Program Version 3.0.3 - RELEASE   -
|  1> ! RI-MP2 RIJK def2-TZVP def2-TZVP/C def2-TZVP/JK TIGHTSCF
|  2> % maxcore 2000
|  3> % mp2 density relaxed end
|  4> *xyz 0 1
|  5>  C       -0.0192265940     1.6413979054     0.0943019183
|  6>  C        0.0050054177     0.1099953200     0.0062685337
|  7>  C       -1.3928100834    -0.5369133027    -0.0702567879
|  8>  C       -2.1481321638    -0.0887735603    -1.3347383516
|  9>  C       -1.3666682061    -2.0982972069     0.0687901673
| 10>  C       -0.6857820807    -2.8135146563    -1.1046789770
| 11>  C       -0.7149726137    -2.5274041855     1.4059538860
| 12>  C       -2.8194005130    -2.5497958373     0.1826451448
| 13>  O       -3.3614814820    -3.3721432396    -0.5093657039
| 14>  H        0.9927270505     2.0350572978     0.2313385934
| 15>  H       -0.4288871180     2.1014082100    -0.8093027021
| 16>  H       -0.6237736170     1.9791979719     0.9438800147
| 17>  H        0.5949815540    -0.1909710393    -0.8686455280
| 18>  H        0.5387878315    -0.2718288411     0.8821732339
| 19>  H       -1.9611874195    -0.1700211528     0.7989626990
| 20>  H       -3.1122036543    -0.5965559875    -1.4373566678
| 21>  H       -2.3479490229     0.9854257931    -1.3116088025
| 22>  H       -1.5693304668    -0.2970273916    -2.2407103444
| 23>  H        0.3648507953    -2.5212168473    -1.1866143040
| 24>  H       -0.7270268467    -3.8967101890    -0.9626718398
| 25>  H       -1.1825427764    -2.5988054272    -2.0532228737
| 26>  H       -1.1541273781    -1.9974551106     2.2582728647
| 27>  H       -0.8472378939    -3.6017391033     1.5710369456
| 28>  H        0.3592906367    -2.3286449332     1.4015128682
| 29>  H       -3.3748415152    -2.0512805567     1.0144420030
| 30> *
| 31>
| 32>                          ****END OF INPUT****

CARTESIAN COORDINATES (ANGSTROEM)
---------------------------------
  C     -0.019227    1.641398    0.094302
  C      0.005005    0.109995    0.006269
  C     -1.392810   -0.536913   -0.070257
  C     -2.148132   -0.088774   -1.334738
  C     -1.366668   -2.098297    0.068790
  C     -0.685782   -2.813515   -1.104679
  C     -0.714973   -2.527404    1.405954
  C     -2.819401   -2.549796    0.182645
  O     -3.361481   -3.372143   -0.509366
  H      0.992727    2.035057    0.231339
  H     -0.428887    2.101408   -0.809303
  H     -0.623774    1.979198    0.943880
  H      0.594982   -0.190971   -0.868646
  H      0.538788   -0.271829    0.882173
  H     -1.961187   -0.170021    0.798963
  H     -3.112204   -0.596556   -1.437357
  H     -2.347949    0.985426   -1.311609
  H     -1.569330   -0.297027   -2.240710
  H      0.364851   -2.521217   -1.186614
  H     -0.727027   -3.896710   -0.962672
  H     -1.182543   -2.598805   -2.053223
  H     -1.154127   -1.997455    2.258273
  H     -0.847238   -3.601739    1.571037
  H      0.359291   -2.328645    1.401513
  H     -3.374842   -2.051281    1.014442

 Total Charge           Charge          ....    0
 Multiplicity           Mult            ....    1
 Number of Electrons    NEL             ....   72
 Basis Dimension        Dim             ....  375

ORBITAL ENERGIES
----------------

  NO   OCC          E(Eh)            E(eV)
   0   2.0000     -20.551852      -559.2443
   1   2.0000     -11.324039      -308.1428
   2   2.0000     -11.249638      -306.1182
   3   2.0000     -11.241329      -305.8921
   4   2.0000     -11.229200      -305.5621
   5   2.0000     -11.226891      -305.4992
   6   2.0000     -11.219307      -305.2929
   7   2.0000     -11.218122      -305.2606
   8   2.0000     -11.213971      -305.1477
   9   2.0000      -1.392139       -37.8820
  10   2.0000      -1.128046       -30.6957
  11   2.0000      -1.048505       -28.5313
  12   2.0000      -0.982973       -26.7481
  13   2.0000      -0.941577       -25.6216
  14   2.0000      -0.887805       -24.1584
  15   2.0000      -0.878132       -23.8952
  16   2.0000      -0.787593       -21.4315
  17   2.0000      -0.735776       -20.0215
  18   2.0000      -0.665215       -18.1014
  19   2.0000      -0.648377       -17.6432
  20   2.0000      -0.635350       -17.2888
  21   2.0000      -0.628845       -17.1117
  22   2.0000      -0.587171       -15.9777
  23   2.0000      -0.580311       -15.7911
  24   2.0000      -0.562032       -15.2937
  25   2.0000      -0.543950       -14.8016
  26   2.0000      -0.534662       -14.5489
  27   2.0000      -0.531707       -14.4685
  28   2.0000      -0.521140       -14.1810
  29   2.0000      -0.514671       -14.0049
  30   2.0000      -0.511806       -13.9269
  31   2.0000      -0.485914       -13.2224
  32   2.0000      -0.470766       -12.8102
  33   2.0000      -0.460627       -12.5343
  34   2.0000      -0.447698       -12.1825
  35   2.0000      -0.403303       -10.9744
  36   0.0000       0.126036         3.4296
  37   0.0000       0.136404         3.7117
  38   0.0000       0.153100         4.1661
  39   0.0000       0.159774         4.3477
  40   0.0000       0.168849         4.5946

MULLIKEN ATOMIC CHARGES
-----------------------
   0 C :   -0.412018
   1 C :   -0.216204
   2 C :   -0.080529
   3 C :   -0.453974
   4 C :    0.212712
   5 C :   -0.462065
   6 C :   -0.450829
   7 C :    0.036012
   8 O :   -0.255803
   9 H :    0.138091
  10 H :    0.133847
  11 H :    0.124817
  12 H :    0.116260
  13 H :    0.114204
  14 H :    0.087625
  15 H :    0.149644
  16 H :    0.142737
  17 H :    0.135616
  18 H :    0.136547
  19 H :    0.142744
  20 H :    0.146427
  21 H :    0.138462
  22 H :    0.149835
  23 H :    0.145884
  24 H :    0.079958
Sum of atomic charges:    0.0000000

LOEWDIN ATOMIC CHARGES
----------------------
   0 C :   -0.316718
   1 C :   -0.268607
   2 C :   -0.240918
   3 C :   -0.285352
   4 C :   -0.305150
   5 C :   -0.263692
   6 C :   -0.264796
   7 C :   -0.264699
   8 O :    0.141184
   9 H :    0.122232
  10 H :    0.119920
  11 H :    0.121537
  12 H :    0.138288
  13 H :    0.138580
  14 H :    0.155884
  15 H :    0.129409
  16 H :    0.124358
  17 H :    0.126392
  18 H :    0.125324
  19 H :    0.132368
  20 H :    0.130623
  21 H :    0.127953
  22 H :    0.131171
  23 H :    0.127766
  24 H :    0.116942

  Mayer bond orders larger than 0.1
B(  0-C ,  1-C ) :   0.9164 B(  0-C ,  9-H ) :   0.9423 B(  0-C , 10-H ) :   0.9435
B(  0-C , 11-H ) :   0.9382 B(  1-C ,  2-C ) :   0.9087 B(  1-C , 12-H ) :   0.9280
B(  1-C , 13-H ) :   0.9366 B(  2-C ,  3-C ) :   0.9037 B(  2-C ,  4-C ) :   0.8603
B(  2-C , 14-H ) :   0.9222 B(  3-C , 15-H ) :   0.9332 B(  3-C , 16-H ) :   0.9406
B(  3-C , 17-H ) :   0.9337 B(  4-C ,  5-C ) :   0.8930 B(  4-C ,  6-C ) :   0.8851
B(  4-C ,  7-C ) :   0.8054 B(  5-C , 18-H ) :   0.9368 B(  5-C , 19-H ) :   0.9292
B(  5-C , 20-H ) :   0.9330 B(  6-C , 21-H ) :   0.9270 B(  6-C , 22-H ) :   0.9345
B(  6-C , 23-H ) :   0.9348 B(  7-C ,  8-O ) :   2.0296 B(  7-C , 24-H ) :   0.9549

MP2 TOTAL ENERGY:     -388.838450886 Eh
FINAL SINGLE POINT ENERGY      -388.838450886188

DIPOLE MOMENT
-------------
                                X             Y             Z
Electronic contribution:     -6.56685      -7.03473      -0.11488
Nuclear contribution   :      7.24786       7.74247       0.55532
                        -----------------------------------------
Total Dipole Moment    :      0.68101       0.70774       0.44045
                        -----------------------------------------
Magnitude (a.u.)       :      1.07641
Magnitude (Debye)      :      2.73603

                             ****ORCA TERMINATED NORMALLY****
TOTAL RUN TIME: 0 days 0 hours 23 minutes 45 seconds 423 msec
