                         Program Version 3.0.3 - RELEASE   -
|  1> ! RI-MP2 RIJK def2-TZVP def2-TZVP/C def2-TZVP/JK TIGHTSCF
|  2> % maxcore 2000
|  3> % mp2 density relaxed end
|  4> *xyz 0 1
|  5>  O       -0.0248656783     1.3964380314    -0.0487092265
|  6>  C       -0.0211526053    -0.0013161872    -0.0077312924
|  7>  C       -0.4180965059    -0.7664307109    -1.2498590587
|  8>  C       -1.3548390220    -0.6660835237    -0.0589940901
|  9>  C       -1.5454299409    -1.8424557727     0.8705062838
| 10>  O       -0.3811628253    -2.6719187703     0.9787595411
| 11>  C        0.8602526755    -2.1107385176     1.0831102504
| 12>  N        1.8907210337    -2.8281981516     1.2475147797
| 13>  C        0.9637000469    -0.6072393111     0.9759307591
| 14>  H        0.7859373493     1.6834266044    -0.4844004281
| 15>  H       -0.6800208465    -0.1706924041    -2.1165425566
| 16>  H        0.0597683521    -1.7151662895    -1.4692446372
| 17>  H       -2.2226288601    -0.0231870688    -0.1643208439
| 18>  H       -1.8345506848    -1.4890839046     1.8706353754
| 19>  H       -2.3311235302    -2.5146173115     0.5136615739
| 20>  H        1.6216858483    -3.8121528096     1.3190632674
| 21>  H        2.0006130586    -0.3723465185     0.7214587373
| 22>  H        0.7656365648    -0.1624084242     1.9607077252
| 23> *
| 24>
| 25>                          ****END OF INPUT****

CARTESIAN COORDINATES (ANGSTROEM)
---------------------------------
  O     -0.024866    1.396438   -0.048709
  C     -0.021153   -0.001316   -0.007731
  C     -0.418097   -0.766431   -1.249859
  C     -1.354839   -0.666084   -0.058994
  C     -1.545430   -1.842456    0.870506
  O     -0.381163   -2.671919    0.978760
  C      0.860253   -2.110739    1.083110
  N      1.890721   -2.828198    1.247515
  C      0.963700   -0.607239    0.975931
  H      0.785937    1.683427   -0.484400
  H     -0.680021   -0.170692   -2.116543
  H      0.059768   -1.715166   -1.469245
  H     -2.222629   -0.023187   -0.164321
  H     -1.834551   -1.489084    1.870635
  H     -2.331124   -2.514617    0.513662
  H      1.621686   -3.812153    1.319063
  H      2.000613   -0.372347    0.721459
  H      0.765637   -0.162408    1.960708

 Total Charge           Charge          ....    0
 Multiplicity           Mult            ....    1
 Number of Electrons    NEL             ....   68
 Basis Dimension        Dim             ....  333

ORBITAL ENERGIES
----------------

  NO   OCC          E(Eh)            E(eV)
   0   2.0000     -20.593872      -560.3878
   1   2.0000     -20.576347      -559.9109
   2   2.0000     -15.528607      -422.5549
   3   2.0000     -11.339441      -308.5619
   4   2.0000     -11.303040      -307.5713
   5   2.0000     -11.301828      -307.5384
   6   2.0000     -11.246663      -306.0372
   7   2.0000     -11.245650      -306.0097
   8   2.0000     -11.238018      -305.8020
   9   2.0000      -1.426031       -38.8043
  10   2.0000      -1.387731       -37.7621
  11   2.0000      -1.195545       -32.5324
  12   2.0000      -1.159772       -31.5590
  13   2.0000      -1.017827       -27.6965
  14   2.0000      -0.970657       -26.4129
  15   2.0000      -0.836574       -22.7643
  16   2.0000      -0.824541       -22.4369
  17   2.0000      -0.728349       -19.8194
  18   2.0000      -0.721251       -19.6262
  19   2.0000      -0.706709       -19.2305
  20   2.0000      -0.678388       -18.4599
  21   2.0000      -0.667963       -18.1762
  22   2.0000      -0.619918       -16.8688
  23   2.0000      -0.610557       -16.6141
  24   2.0000      -0.586890       -15.9701
  25   2.0000      -0.568217       -15.4620
  26   2.0000      -0.550975       -14.9928
  27   2.0000      -0.536173       -14.5900
  28   2.0000      -0.506914       -13.7938
  29   2.0000      -0.490707       -13.3528
  30   2.0000      -0.438448       -11.9308
  31   2.0000      -0.423385       -11.5209
  32   2.0000      -0.408557       -11.1174
  33   2.0000      -0.387923       -10.5559
  34   0.0000       0.127838         3.4786
  35   0.0000       0.144869         3.9421
  36   0.0000       0.168128         4.5750
  37   0.0000       0.173034         4.7085
  38   0.0000       0.175238         4.7685

MULLIKEN ATOMIC CHARGES
-----------------------
   0 O :   -0.455964
   1 C :    0.167772
   2 C :   -0.332548
   3 C :   -0.114044
   4 C :   -0.059643
   5 O :   -0.260146
   6 C :    0.084121
   7 N :   -0.364502
   8 C :   -0.158773
   9 H :    0.325127
  10 H :    0.142650
  11 H :    0.151022
  12 H :    0.135535
  13 H :    0.117779
  14 H :    0.131706
  15 H :    0.218118
  16 H :    0.130957
  17 H :    0.140831
Sum of atomic charges:    0.0000000

LOEWDIN ATOMIC CHARGES
----------------------
   0 O :    0.029332
   1 C :   -0.355608
   2 C :   -0.184413
   3 C :   -0.195324
   4 C :   -0.259271
   5 O :    0.237174
   6 C :   -0.409006
   7 N :   -0.060287
   8 C :   -0.185377
   9 H :    0.184446
  10 H :    0.140155
  11 H :    0.142210
  12 H :    0.159781
  13 H :    0.132970
  14 H :    0.136539
  15 H :    0.166064
  16 H :    0.158224
  17 H :    0.162389

  Mayer bond orders larger than 0.1
B(  0-O ,  1-C ) :   1.0055 B(  0-O ,  9-H ) :   0.8379 B(  1-C ,  2-C ) :   0.8970
B(  1-C ,  3-C ) :   0.8447 B(  1-C ,  8-C ) :   0.9459 B(  2-C ,  3-C ) :   0.8935
B(  2-C , 10-H ) :   0.9255 B(  2-C , 11-H ) :   0.8990 B(  3-C ,  4-C ) :   0.9366
B(  3-C , 12-H ) :   0.9086 B(  4-C ,  5-O ) :   0.8864 B(  4-C , 13-H ) :   0.9333
B(  4-C , 14-H ) :   0.9305 B(  5-O ,  6-C ) :   1.0761 B(  6-C ,  7-N ) :   2.0685
B(  6-C ,  8-C ) :   0.8919 B(  7-N , 15-H ) :   0.8574 B(  8-C , 16-H ) :   0.8986
B(  8-C , 17-H ) :   0.9138

MP2 TOTAL ENERGY:     -438.367414290 Eh
FINAL SINGLE POINT ENERGY      -438.367414290430

DIPOLE MOMENT
-------------
                                X             Y             Z
Electronic contribution:      1.02873      -0.93301       1.15822
Nuclear contribution   :     -1.71248       1.29981      -1.55541
                        -----------------------------------------
Total Dipole Moment    :     -0.68375       0.36680      -0.39719
                        -----------------------------------------
Magnitude (a.u.)       :      0.87168
Magnitude (Debye)      :      2.21562

                             ****ORCA TERMINATED NORMALLY****
TOTAL RUN TIME: 0 days 0 hours 17 minutes 4 seconds 205 msec
