                         Program Version 3.0.3 - RELEASE   -
|  1> ! RI-MP2 RIJK def2-TZVP def2-TZVP/C def2-TZVP/JK TIGHTSCF
|  2> % maxcore 2000
|  3> % mp2 density relaxed end
|  4> *xyz 0 1
|  5>  C        0.1387528668     1.3821833908    -0.9086304530
|  6>  N        0.0089212893    -0.0153904055    -0.5337975181
|  7>  C       -1.0295707545    -0.5064545830    -0.0225449539
|  8>  O       -1.0805613074    -1.8496290451     0.3135308373
|  9>  C        0.0884299011    -2.5368899988     0.5362434036
| 10>  O        0.0783538066    -3.7149792428     0.7050275828
| 11>  C       -2.3619593701     0.1688425648     0.2860931464
| 12>  C       -3.4192497735    -0.6495769029     0.9865913016
| 13>  O       -2.5245593518     1.3226006051    -0.0391270564
| 14>  H        1.1745387469     1.5600931920    -1.2067887277
| 15>  H       -0.5179533360     1.6218095346    -1.7513463783
| 16>  H       -0.1311603714     2.0630524497    -0.0960857699
| 17>  H        0.9646219051    -1.8766392835     0.5505464468
| 18>  H       -3.6730314946    -1.5326511259     0.3920610161
| 19>  H       -3.0415004031    -1.0243623153     1.9434154817
| 20>  H       -4.3020516936    -0.0297686842     1.1441576908
| 21> *
| 22>
| 23>                          ****END OF INPUT****

CARTESIAN COORDINATES (ANGSTROEM)
---------------------------------
  C      0.138753    1.382183   -0.908630
  N      0.008921   -0.015390   -0.533798
  C     -1.029571   -0.506455   -0.022545
  O     -1.080561   -1.849629    0.313531
  C      0.088430   -2.536890    0.536243
  O      0.078354   -3.714979    0.705028
  C     -2.361959    0.168843    0.286093
  C     -3.419250   -0.649577    0.986591
  O     -2.524559    1.322601   -0.039127
  H      1.174539    1.560093   -1.206789
  H     -0.517953    1.621810   -1.751346
  H     -0.131160    2.063052   -0.096086
  H      0.964622   -1.876639    0.550546
  H     -3.673031   -1.532651    0.392061
  H     -3.041500   -1.024362    1.943415
  H     -4.302052   -0.029769    1.144158

 Total Charge           Charge          ....    0
 Multiplicity           Mult            ....    1
 Number of Electrons    NEL             ....   68
 Basis Dimension        Dim             ....  321

ORBITAL ENERGIES
----------------

  NO   OCC          E(Eh)            E(eV)
   0   2.0000     -20.636882      -561.5581
   1   2.0000     -20.583829      -560.1145
   2   2.0000     -20.570451      -559.7504
   3   2.0000     -15.591357      -424.2624
   4   2.0000     -11.397370      -310.1382
   5   2.0000     -11.372205      -309.4534
   6   2.0000     -11.370032      -309.3943
   7   2.0000     -11.263737      -306.5019
   8   2.0000     -11.252841      -306.2054
   9   2.0000      -1.493059       -40.6282
  10   2.0000      -1.427728       -38.8505
  11   2.0000      -1.400756       -38.1165
  12   2.0000      -1.251291       -34.0493
  13   2.0000      -1.051536       -28.6137
  14   2.0000      -0.986393       -26.8411
  15   2.0000      -0.925338       -25.1797
  16   2.0000      -0.839102       -22.8331
  17   2.0000      -0.796514       -21.6742
  18   2.0000      -0.723721       -19.6934
  19   2.0000      -0.700950       -19.0738
  20   2.0000      -0.685710       -18.6591
  21   2.0000      -0.659239       -17.9388
  22   2.0000      -0.644130       -17.5277
  23   2.0000      -0.621230       -16.9045
  24   2.0000      -0.609096       -16.5743
  25   2.0000      -0.600444       -16.3389
  26   2.0000      -0.589801       -16.0493
  27   2.0000      -0.564688       -15.3659
  28   2.0000      -0.532215       -14.4823
  29   2.0000      -0.520613       -14.1666
  30   2.0000      -0.493352       -13.4248
  31   2.0000      -0.483809       -13.1651
  32   2.0000      -0.425761       -11.5856
  33   2.0000      -0.415313       -11.3012
  34   0.0000       0.059698         1.6245
  35   0.0000       0.126145         3.4326
  36   0.0000       0.147350         4.0096
  37   0.0000       0.155325         4.2266
  38   0.0000       0.183805         5.0016

MULLIKEN ATOMIC CHARGES
-----------------------
   0 C :   -0.279527
   1 N :   -0.235816
   2 C :    0.208062
   3 O :   -0.217629
   4 C :    0.200920
   5 O :   -0.248518
   6 C :    0.181500
   7 C :   -0.368229
   8 O :   -0.271611
   9 H :    0.145367
  10 H :    0.148102
  11 H :    0.144204
  12 H :    0.124265
  13 H :    0.160332
  14 H :    0.152466
  15 H :    0.156112
Sum of atomic charges:    0.0000000

LOEWDIN ATOMIC CHARGES
----------------------
   0 C :   -0.319648
   1 N :    0.115671
   2 C :   -0.323220
   3 O :    0.280873
   4 C :   -0.397414
   5 O :    0.142245
   6 C :   -0.312574
   7 C :   -0.271495
   8 O :    0.181346
   9 H :    0.115433
  10 H :    0.126281
  11 H :    0.121249
  12 H :    0.117001
  13 H :    0.145619
  14 H :    0.143251
  15 H :    0.135382

  Mayer bond orders larger than 0.1
B(  0-C ,  1-N ) :   0.8769 B(  0-C ,  9-H ) :   0.9343 B(  0-C , 10-H ) :   0.9267
B(  0-C , 11-H ) :   0.9285 B(  1-N ,  2-C ) :   1.8181 B(  2-C ,  3-O ) :   0.9702
B(  2-C ,  6-C ) :   0.8965 B(  3-O ,  4-C ) :   0.9666 B(  4-C ,  5-O ) :   2.0453
B(  4-C , 12-H ) :   0.9162 B(  6-C ,  7-C ) :   0.9434 B(  6-C ,  8-O ) :   1.9410
B(  7-C , 13-H ) :   0.9028 B(  7-C , 14-H ) :   0.9091 B(  7-C , 15-H ) :   0.9309

MP2 TOTAL ENERGY:     -474.292361764 Eh
FINAL SINGLE POINT ENERGY      -474.292361763788

DIPOLE MOMENT
-------------
                                X             Y             Z
Electronic contribution:      1.39686      -4.66405       0.26014
Nuclear contribution   :     -1.55959       5.43775      -0.08345
                        -----------------------------------------
Total Dipole Moment    :     -0.16273       0.77369       0.17669
                        -----------------------------------------
Magnitude (a.u.)       :      0.81012
Magnitude (Debye)      :      2.05917

                             ****ORCA TERMINATED NORMALLY****
TOTAL RUN TIME: 0 days 0 hours 13 minutes 14 seconds 997 msec
