                         Program Version 3.0.3 - RELEASE   -
|  1> ! RI-MP2 RIJK def2-TZVP def2-TZVP/C def2-TZVP/JK TIGHTSCF
|  2> % maxcore 2000
|  3> % mp2 density relaxed end
|  4> *xyz 0 1
|  5>  C        0.1126206247     1.5610533376    -0.0298281507
|  6>  C       -0.0115425597     0.0556509937    -0.0121426406
|  7>  C        0.4535769377    -0.7452463615    -1.2641654305
|  8>  C       -0.7014942207    -1.7455741090    -1.0393141850
|  9>  O       -0.4039318560    -2.6727413503     0.0266741123
| 10>  C       -0.8033003248    -1.7061661470     1.0376024285
| 11>  C       -1.5419806624    -2.3489222001     2.1786531247
| 12>  C        0.3488397788    -0.7017142889     1.2998482176
| 13>  C       -1.3758134211    -0.7518457890    -0.0563285382
| 14>  H        1.1655360161     1.8669102349     0.0095352305
| 15>  H       -0.3212237584     1.9882399019    -0.9411388119
| 16>  H       -0.3948908693     2.0148867117     0.8291296206
| 17>  H        0.2816284241    -0.1610800333    -2.1756612534
| 18>  H        1.4692374741    -1.1515800311    -1.2781525429
| 19>  H       -1.1642301061    -2.2403685906    -1.8955919828
| 20>  H       -0.8841006282    -3.0478597699     2.7080016108
| 21>  H       -1.8858824629    -1.5956995343     2.8945382241
| 22>  H       -2.4077871222    -2.9089367359     1.8130756857
| 23>  H        1.3542472069    -1.1217815610     1.3976504479
| 24>  H        0.1284213045    -0.0792725863     2.1748489785
| 25>  H       -2.3824897652    -0.3431603615    -0.1096870753
| 26> *
| 27>
| 28>                          ****END OF INPUT****

CARTESIAN COORDINATES (ANGSTROEM)
---------------------------------
  C      0.112621    1.561053   -0.029828
  C     -0.011543    0.055651   -0.012143
  C      0.453577   -0.745246   -1.264165
  C     -0.701494   -1.745574   -1.039314
  O     -0.403932   -2.672741    0.026674
  C     -0.803300   -1.706166    1.037602
  C     -1.541981   -2.348922    2.178653
  C      0.348840   -0.701714    1.299848
  C     -1.375813   -0.751846   -0.056329
  H      1.165536    1.866910    0.009535
  H     -0.321224    1.988240   -0.941139
  H     -0.394891    2.014887    0.829130
  H      0.281628   -0.161080   -2.175661
  H      1.469237   -1.151580   -1.278153
  H     -1.164230   -2.240369   -1.895592
  H     -0.884101   -3.047860    2.708002
  H     -1.885882   -1.595700    2.894538
  H     -2.407787   -2.908937    1.813076
  H      1.354247   -1.121782    1.397650
  H      0.128421   -0.079273    2.174849
  H     -2.382490   -0.343160   -0.109687

 Total Charge           Charge          ....    0
 Multiplicity           Mult            ....    1
 Number of Electrons    NEL             ....   68
 Basis Dimension        Dim             ....  351

ORBITAL ENERGIES
----------------

  NO   OCC          E(Eh)            E(eV)
   0   2.0000     -20.539059      -558.8962
   1   2.0000     -11.283192      -307.0313
   2   2.0000     -11.277076      -306.8648
   3   2.0000     -11.238907      -305.8262
   4   2.0000     -11.225905      -305.4724
   5   2.0000     -11.219330      -305.2935
   6   2.0000     -11.218552      -305.2723
   7   2.0000     -11.217072      -305.2321
   8   2.0000     -11.214540      -305.1631
   9   2.0000      -1.378687       -37.5160
  10   2.0000      -1.141419       -31.0596
  11   2.0000      -1.037305       -28.2265
  12   2.0000      -0.979946       -26.6657
  13   2.0000      -0.944468       -25.7003
  14   2.0000      -0.902903       -24.5692
  15   2.0000      -0.812226       -22.1018
  16   2.0000      -0.761376       -20.7181
  17   2.0000      -0.701944       -19.1009
  18   2.0000      -0.650703       -17.7065
  19   2.0000      -0.643698       -17.5159
  20   2.0000      -0.631032       -17.1713
  21   2.0000      -0.588868       -16.0239
  22   2.0000      -0.583773       -15.8853
  23   2.0000      -0.558170       -15.1886
  24   2.0000      -0.556183       -15.1345
  25   2.0000      -0.551174       -14.9982
  26   2.0000      -0.535817       -14.5803
  27   2.0000      -0.521988       -14.2040
  28   2.0000      -0.501386       -13.6434
  29   2.0000      -0.443022       -12.0552
  30   2.0000      -0.440404       -11.9840
  31   2.0000      -0.409567       -11.1449
  32   2.0000      -0.392903       -10.6914
  33   2.0000      -0.383510       -10.4358
  34   0.0000       0.133678         3.6376
  35   0.0000       0.153175         4.1681
  36   0.0000       0.167238         4.5508
  37   0.0000       0.183084         4.9820
  38   0.0000       0.185641         5.0515

MULLIKEN ATOMIC CHARGES
-----------------------
   0 C :   -0.396336
   1 C :    0.141330
   2 C :   -0.250035
   3 C :    0.029748
   4 O :   -0.324282
   5 C :    0.175497
   6 C :   -0.406601
   7 C :   -0.268980
   8 C :   -0.166008
   9 H :    0.134724
  10 H :    0.126717
  11 H :    0.126099
  12 H :    0.106145
  13 H :    0.110987
  14 H :    0.112168
  15 H :    0.139138
  16 H :    0.123934
  17 H :    0.134708
  18 H :    0.110863
  19 H :    0.107367
  20 H :    0.132819
Sum of atomic charges:    0.0000000

LOEWDIN ATOMIC CHARGES
----------------------
   0 C :   -0.281976
   1 C :   -0.230982
   2 C :   -0.182707
   3 C :   -0.233404
   4 O :    0.176078
   5 C :   -0.295925
   6 C :   -0.275146
   7 C :   -0.157534
   8 C :   -0.089236
   9 H :    0.129517
  10 H :    0.125550
  11 H :    0.125456
  12 H :    0.141220
  13 H :    0.129313
  14 H :    0.123358
  15 H :    0.133796
  16 H :    0.128949
  17 H :    0.130019
  18 H :    0.131090
  19 H :    0.141650
  20 H :    0.130915

  Mayer bond orders larger than 0.1
B(  0-C ,  1-C ) :   0.8731 B(  0-C ,  9-H ) :   0.9404 B(  0-C , 10-H ) :   0.9369
B(  0-C , 11-H ) :   0.9373 B(  1-C ,  2-C ) :   0.9492 B(  1-C ,  7-C ) :   0.9625
B(  1-C ,  8-C ) :   0.9347 B(  2-C ,  3-C ) :   0.9253 B(  2-C , 12-H ) :   0.9088
B(  2-C , 13-H ) :   0.9015 B(  3-C ,  4-O ) :   0.9527 B(  3-C ,  8-C ) :   0.9450
B(  3-C , 14-H ) :   0.9257 B(  4-O ,  5-C ) :   0.9442 B(  5-C ,  6-C ) :   0.8659
B(  5-C ,  7-C ) :   0.9539 B(  5-C ,  8-C ) :   0.9154 B(  6-C , 15-H ) :   0.9389
B(  6-C , 16-H ) :   0.9345 B(  6-C , 17-H ) :   0.9404 B(  7-C , 18-H ) :   0.8956
B(  7-C , 19-H ) :   0.9134 B(  8-C , 20-H ) :   0.8844

MP2 TOTAL ENERGY:     -386.378784823 Eh
FINAL SINGLE POINT ENERGY      -386.378784823043

DIPOLE MOMENT
-------------
                                X             Y             Z
Electronic contribution:     -0.38394      -4.37749      -2.20140
Nuclear contribution   :      0.14907       5.06123       2.25089
                        -----------------------------------------
Total Dipole Moment    :     -0.23487       0.68374       0.04949
                        -----------------------------------------
Magnitude (a.u.)       :      0.72465
Magnitude (Debye)      :      1.84191

                             ****ORCA TERMINATED NORMALLY****
TOTAL RUN TIME: 0 days 0 hours 20 minutes 1 seconds 230 msec
