                         Program Version 3.0.3 - RELEASE   -
|  1> ! RI-MP2 RIJK def2-TZVP def2-TZVP/C def2-TZVP/JK TIGHTSCF
|  2> % maxcore 2000
|  3> % mp2 density relaxed end
|  4> *xyz 0 1
|  5>  O       -0.1209941278    -0.0525672660    -0.1000738879
|  6>  C       -0.0643743455     1.1577076273    -0.0215793439
|  7>  C        1.1743092238     1.9165221976    -0.0014531351
|  8>  C        1.1830651199     3.2590302201     0.0806416564
|  9>  N        2.3706070184     3.9454537808     0.0662180416
| 10>  C        3.5768513593     3.3767246381    -0.3662380598
| 11>  O        4.5525381778     4.0453968294    -0.5674259687
| 12>  O        3.5474458830     2.0549716542    -0.5919870885
| 13>  C        2.4996832129     1.2157659187    -0.0481139515
| 14>  H       -0.9867651930     1.7778919005     0.0458485586
| 15>  H        0.2788342559     3.8546496106     0.1516668531
| 16>  H        2.3906617980     4.9519044379     0.1138137836
| 17>  H        2.8157729134     0.8836473139     0.9496094110
| 18>  H        2.4562341639     0.3369040470    -0.6930920089
| 19> *
| 20>
| 21>                          ****END OF INPUT****

CARTESIAN COORDINATES (ANGSTROEM)
---------------------------------
  O     -0.120994   -0.052567   -0.100074
  C     -0.064374    1.157708   -0.021579
  C      1.174309    1.916522   -0.001453
  C      1.183065    3.259030    0.080642
  N      2.370607    3.945454    0.066218
  C      3.576851    3.376725   -0.366238
  O      4.552538    4.045397   -0.567426
  O      3.547446    2.054972   -0.591987
  C      2.499683    1.215766   -0.048114
  H     -0.986765    1.777892    0.045849
  H      0.278834    3.854650    0.151667
  H      2.390662    4.951904    0.113814
  H      2.815773    0.883647    0.949609
  H      2.456234    0.336904   -0.693092

 Total Charge           Charge          ....    0
 Multiplicity           Mult            ....    1
 Number of Electrons    NEL             ....   66
 Basis Dimension        Dim             ....  309

ORBITAL ENERGIES
----------------

  NO   OCC          E(Eh)            E(eV)
   0   2.0000     -20.621689      -561.1447
   1   2.0000     -20.560276      -559.4735
   2   2.0000     -20.548188      -559.1446
   3   2.0000     -15.640950      -425.6119
   4   2.0000     -11.430932      -311.0515
   5   2.0000     -11.347711      -308.7869
   6   2.0000     -11.341519      -308.6184
   7   2.0000     -11.321189      -308.0652
   8   2.0000     -11.262057      -306.4561
   9   2.0000      -1.486873       -40.4599
  10   2.0000      -1.398712       -38.0609
  11   2.0000      -1.384147       -37.6646
  12   2.0000      -1.297290       -35.3011
  13   2.0000      -1.118364       -30.4322
  14   2.0000      -0.983534       -26.7633
  15   2.0000      -0.930196       -25.3119
  16   2.0000      -0.866435       -23.5769
  17   2.0000      -0.769614       -20.9423
  18   2.0000      -0.753852       -20.5133
  19   2.0000      -0.733648       -19.9636
  20   2.0000      -0.704790       -19.1783
  21   2.0000      -0.676043       -18.3961
  22   2.0000      -0.661215       -17.9926
  23   2.0000      -0.645736       -17.5714
  24   2.0000      -0.613935       -16.7060
  25   2.0000      -0.603732       -16.4284
  26   2.0000      -0.572615       -15.5816
  27   2.0000      -0.536564       -14.6007
  28   2.0000      -0.525567       -14.3014
  29   2.0000      -0.480224       -13.0675
  30   2.0000      -0.473119       -12.8742
  31   2.0000      -0.441855       -12.0235
  32   2.0000      -0.364288        -9.9128
  33   0.0000       0.070397         1.9156
  34   0.0000       0.110915         3.0181
  35   0.0000       0.142896         3.8884
  36   0.0000       0.150364         4.0916
  37   0.0000       0.170896         4.6503

MULLIKEN ATOMIC CHARGES
-----------------------
   0 O :   -0.296342
   1 C :    0.064257
   2 C :   -0.023876
   3 C :   -0.017877
   4 N :   -0.305487
   5 C :    0.352940
   6 O :   -0.308137
   7 O :   -0.217012
   8 C :   -0.052704
   9 H :    0.076137
  10 H :    0.159922
  11 H :    0.267720
  12 H :    0.135313
  13 H :    0.165146
Sum of atomic charges:   -0.0000000

LOEWDIN ATOMIC CHARGES
----------------------
   0 O :    0.115727
   1 C :   -0.289783
   2 C :   -0.211764
   3 C :   -0.155456
   4 N :    0.147231
   5 C :   -0.559326
   6 O :    0.120005
   7 O :    0.271185
   8 C :   -0.208094
   9 H :    0.118497
  10 H :    0.153496
  11 H :    0.207188
  12 H :    0.141067
  13 H :    0.150028

  Mayer bond orders larger than 0.1
B(  0-O ,  1-C ) :   1.9470 B(  1-C ,  2-C ) :   0.9107 B(  1-C ,  9-H ) :   0.9805
B(  2-C ,  3-C ) :   1.6079 B(  2-C ,  8-C ) :   0.9224 B(  2-C ,  9-H ) :  -0.1113
B(  3-C ,  4-N ) :   1.0863 B(  3-C , 10-H ) :   0.9016 B(  4-N ,  5-C ) :   1.0182
B(  4-N , 11-H ) :   0.8612 B(  5-C ,  6-O ) :   2.0098 B(  5-C ,  7-O ) :   1.1504
B(  7-O ,  8-C ) :   0.8320 B(  8-C , 12-H ) :   0.9232 B(  8-C , 13-H ) :   0.9246

MP2 TOTAL ENERGY:     -473.126327703 Eh
FINAL SINGLE POINT ENERGY      -473.126327703339

DIPOLE MOMENT
-------------
                                X             Y             Z
Electronic contribution:      2.32003       0.87685      -0.84009
Nuclear contribution   :     -3.35533       0.17728       1.36996
                        -----------------------------------------
Total Dipole Moment    :     -1.03530       1.05413       0.52987
                        -----------------------------------------
Magnitude (a.u.)       :      1.56965
Magnitude (Debye)      :      3.98973

                             ****ORCA TERMINATED NORMALLY****
TOTAL RUN TIME: 0 days 0 hours 13 minutes 26 seconds 681 msec
