                         Program Version 3.0.3 - RELEASE   -
|  1> ! RI-MP2 RIJK def2-TZVP def2-TZVP/C def2-TZVP/JK TIGHTSCF
|  2> % maxcore 2000
|  3> % mp2 density relaxed end
|  4> *xyz 0 1
|  5>  C        0.0790383982     1.4583976659    -0.0147074691
|  6>  O        0.2309308933     0.0637532670     0.1129150345
|  7>  C        0.5480779336    -0.5604295388    -1.1127533848
|  8>  C        0.6350550406    -2.0367570843    -0.8850986712
|  9>  N        1.5825257774    -2.7378236975    -1.4589631889
| 10>  O        1.3524043208    -4.0577921689    -1.0757070476
| 11>  C        0.2740314466    -4.1076520642    -0.2691744917
| 12>  C       -0.1116727271    -5.4467872215     0.2511321811
| 13>  C       -0.2314094744    -2.8559320772    -0.1084194291
| 14>  H        1.0045448773     1.9392073343    -0.3677504721
| 15>  H       -0.7309828793     1.7185973889    -0.7147459572
| 16>  H       -0.1679342157     1.8500895085     0.9746361495
| 17>  H       -0.2333031410    -0.3434417462    -1.8624993241
| 18>  H        1.5023663689    -0.1957988099    -1.5214984665
| 19>  H       -0.3271320214    -6.1391603708    -0.5692052777
| 20>  H        0.6969470482    -5.8836900625     0.8463324472
| 21>  H       -1.0001170646    -5.3644202180     0.8797235217
| 22>  H       -1.0782880815    -2.5481876248     0.4804655760
| 23> *
| 24>
| 25>                          ****END OF INPUT****

CARTESIAN COORDINATES (ANGSTROEM)
---------------------------------
  C      0.079038    1.458398   -0.014707
  O      0.230931    0.063753    0.112915
  C      0.548078   -0.560430   -1.112753
  C      0.635055   -2.036757   -0.885099
  N      1.582526   -2.737824   -1.458963
  O      1.352404   -4.057792   -1.075707
  C      0.274031   -4.107652   -0.269174
  C     -0.111673   -5.446787    0.251132
  C     -0.231409   -2.855932   -0.108419
  H      1.004545    1.939207   -0.367750
  H     -0.730983    1.718597   -0.714746
  H     -0.167934    1.850090    0.974636
  H     -0.233303   -0.343442   -1.862499
  H      1.502366   -0.195799   -1.521498
  H     -0.327132   -6.139160   -0.569205
  H      0.696947   -5.883690    0.846332
  H     -1.000117   -5.364420    0.879724
  H     -1.078288   -2.548188    0.480466

 Total Charge           Charge          ....    0
 Multiplicity           Mult            ....    1
 Number of Electrons    NEL             ....   68
 Basis Dimension        Dim             ....  333

ORBITAL ENERGIES
----------------

  NO   OCC          E(Eh)            E(eV)
   0   2.0000     -20.631724      -561.4178
   1   2.0000     -20.568761      -559.7044
   2   2.0000     -15.608865      -424.7388
   3   2.0000     -11.314052      -307.8710
   4   2.0000     -11.294747      -307.3457
   5   2.0000     -11.279623      -306.9341
   6   2.0000     -11.276994      -306.8626
   7   2.0000     -11.245977      -306.0186
   8   2.0000     -11.224715      -305.4400
   9   2.0000      -1.482841       -40.3502
  10   2.0000      -1.389960       -37.8227
  11   2.0000      -1.167812       -31.7778
  12   2.0000      -1.085397       -29.5352
  13   2.0000      -0.990165       -26.9438
  14   2.0000      -0.976032       -26.5592
  15   2.0000      -0.897198       -24.4140
  16   2.0000      -0.802036       -21.8245
  17   2.0000      -0.771087       -20.9824
  18   2.0000      -0.697572       -18.9819
  19   2.0000      -0.677720       -18.4417
  20   2.0000      -0.661212       -17.9925
  21   2.0000      -0.650632       -17.7046
  22   2.0000      -0.637373       -17.3438
  23   2.0000      -0.593681       -16.1549
  24   2.0000      -0.580532       -15.7971
  25   2.0000      -0.575119       -15.6498
  26   2.0000      -0.563888       -15.3442
  27   2.0000      -0.539194       -14.6722
  28   2.0000      -0.531648       -14.4669
  29   2.0000      -0.497067       -13.5259
  30   2.0000      -0.467591       -12.7238
  31   2.0000      -0.442170       -12.0321
  32   2.0000      -0.407538       -11.0897
  33   2.0000      -0.351812        -9.5733
  34   0.0000       0.131195         3.5700
  35   0.0000       0.138565         3.7705
  36   0.0000       0.143440         3.9032
  37   0.0000       0.178754         4.8641
  38   0.0000       0.181221         4.9313

MULLIKEN ATOMIC CHARGES
-----------------------
   0 C :   -0.214397
   1 O :   -0.299578
   2 C :   -0.112389
   3 C :    0.144108
   4 N :   -0.120253
   5 O :   -0.115406
   6 C :    0.197294
   7 C :   -0.430956
   8 C :   -0.267960
   9 H :    0.116086
  10 H :    0.112274
  11 H :    0.141628
  12 H :    0.110341
  13 H :    0.125524
  14 H :    0.155834
  15 H :    0.156635
  16 H :    0.150162
  17 H :    0.151052
Sum of atomic charges:    0.0000000

LOEWDIN ATOMIC CHARGES
----------------------
   0 C :   -0.357317
   1 O :    0.139939
   2 C :   -0.286559
   3 C :   -0.284654
   4 N :    0.058636
   5 O :    0.287863
   6 C :   -0.296153
   7 C :   -0.267650
   8 C :   -0.145795
   9 H :    0.103580
  10 H :    0.101770
  11 H :    0.114657
  12 H :    0.129866
  13 H :    0.134442
  14 H :    0.138607
  15 H :    0.138969
  16 H :    0.138865
  17 H :    0.150935

  Mayer bond orders larger than 0.1
B(  0-C ,  1-O ) :   0.9156 B(  0-C ,  9-H ) :   0.9370 B(  0-C , 10-H ) :   0.9366
B(  0-C , 11-H ) :   0.9385 B(  1-O ,  2-C ) :   0.9881 B(  2-C ,  3-C ) :   0.9107
B(  2-C , 12-H ) :   0.9134 B(  2-C , 13-H ) :   0.9333 B(  3-C ,  4-N ) :   1.6324
B(  3-C ,  8-C ) :   1.1976 B(  4-N ,  5-O ) :   0.8873 B(  5-O ,  6-C ) :   1.1185
B(  6-C ,  7-C ) :   0.8664 B(  6-C ,  8-C ) :   1.5274 B(  7-C , 14-H ) :   0.9310
B(  7-C , 15-H ) :   0.9298 B(  7-C , 16-H ) :   0.9500 B(  8-C , 17-H ) :   0.9121

MP2 TOTAL ENERGY:     -438.344525996 Eh
FINAL SINGLE POINT ENERGY      -438.344525995845

DIPOLE MOMENT
-------------
                                X             Y             Z
Electronic contribution:      3.44586      -4.32802      -2.11312
Nuclear contribution   :     -4.38180       4.56145       2.46578
                        -----------------------------------------
Total Dipole Moment    :     -0.93594       0.23343       0.35266
                        -----------------------------------------
Magnitude (a.u.)       :      1.02706
Magnitude (Debye)      :      2.61057

                             ****ORCA TERMINATED NORMALLY****
TOTAL RUN TIME: 0 days 0 hours 16 minutes 18 seconds 117 msec
