                         Program Version 3.0.3 - RELEASE   -
|  1> ! RI-MP2 RIJK def2-TZVP def2-TZVP/C def2-TZVP/JK TIGHTSCF
|  2> % maxcore 2000
|  3> % mp2 density relaxed end
|  4> *xyz 0 1
|  5>  C       -0.0429523204     1.6543291243     0.5668004208
|  6>  N       -0.0166769321     0.2045958445     0.4217843218
|  7>  C        1.1701665442    -0.3894146746    -0.1730820276
|  8>  C        0.8476831641    -0.6206828026     1.2656912316
|  9>  C        1.7705684758    -0.0884855999     2.3332589929
| 10>  O        1.0946356610    -0.0700933095     3.6098640258
| 11>  C        0.8019664396     1.1338031892     4.1504366210
| 12>  C        0.0702416193     0.9540635927     5.4586501732
| 13>  O        1.0873466194     2.1933629413     3.6514789981
| 14>  H        0.9361052425     2.1182666892     0.7549172099
| 15>  H       -0.4475838639     2.0792398251    -0.3572988931
| 16>  H       -0.7060482475     1.9292570294     1.3911773780
| 17>  H        1.0107542811    -1.1721778041    -0.9103036587
| 18>  H        2.0123643774     0.2698980784    -0.3877550689
| 19>  H        0.3879648162    -1.5685388588     1.5423596072
| 20>  H        2.6150727092    -0.7731636751     2.4600171280
| 21>  H        2.1479634369     0.9098796182     2.1127416522
| 22>  H       -0.8886372392     0.4584740883     5.2802912219
| 23>  H        0.6471671189     0.3122948687     6.1297568365
| 24>  H       -0.0967708123     1.9272607452     5.9183293295
| 25> *
| 26>
| 27>                          ****END OF INPUT****

CARTESIAN COORDINATES (ANGSTROEM)
---------------------------------
  C     -0.042952    1.654329    0.566800
  N     -0.016677    0.204596    0.421784
  C      1.170167   -0.389415   -0.173082
  C      0.847683   -0.620683    1.265691
  C      1.770568   -0.088486    2.333259
  O      1.094636   -0.070093    3.609864
  C      0.801966    1.133803    4.150437
  C      0.070242    0.954064    5.458650
  O      1.087347    2.193363    3.651479
  H      0.936105    2.118267    0.754917
  H     -0.447584    2.079240   -0.357299
  H     -0.706048    1.929257    1.391177
  H      1.010754   -1.172178   -0.910304
  H      2.012364    0.269898   -0.387755
  H      0.387965   -1.568539    1.542360
  H      2.615073   -0.773164    2.460017
  H      2.147963    0.909880    2.112742
  H     -0.888637    0.458474    5.280291
  H      0.647167    0.312295    6.129757
  H     -0.096771    1.927261    5.918329

 Total Charge           Charge          ....    0
 Multiplicity           Mult            ....    1
 Number of Electrons    NEL             ....   70
 Basis Dimension        Dim             ....  345

ORBITAL ENERGIES
----------------

  NO   OCC          E(Eh)            E(eV)
   0   2.0000     -20.601178      -560.5866
   1   2.0000     -20.543484      -559.0166
   2   2.0000     -15.559497      -423.3954
   3   2.0000     -11.382722      -309.7396
   4   2.0000     -11.293535      -307.3127
   5   2.0000     -11.263186      -306.4869
   6   2.0000     -11.256214      -306.2972
   7   2.0000     -11.241498      -305.8967
   8   2.0000     -11.239963      -305.8549
   9   2.0000      -1.458483       -39.6873
  10   2.0000      -1.361615       -37.0514
  11   2.0000      -1.273846       -34.6631
  12   2.0000      -1.043943       -28.4071
  13   2.0000      -1.000748       -27.2317
  14   2.0000      -0.958369       -26.0786
  15   2.0000      -0.835844       -22.7445
  16   2.0000      -0.806447       -21.9445
  17   2.0000      -0.773406       -21.0454
  18   2.0000      -0.703164       -19.1341
  19   2.0000      -0.681579       -18.5467
  20   2.0000      -0.678761       -18.4700
  21   2.0000      -0.653113       -17.7721
  22   2.0000      -0.626773       -17.0554
  23   2.0000      -0.601285       -16.3618
  24   2.0000      -0.583779       -15.8854
  25   2.0000      -0.571215       -15.5436
  26   2.0000      -0.556504       -15.1432
  27   2.0000      -0.545938       -14.8557
  28   2.0000      -0.529095       -14.3974
  29   2.0000      -0.514159       -13.9910
  30   2.0000      -0.478200       -13.0125
  31   2.0000      -0.453565       -12.3421
  32   2.0000      -0.451055       -12.2738
  33   2.0000      -0.443054       -12.0561
  34   2.0000      -0.371379       -10.1057
  35   0.0000       0.137778         3.7491
  36   0.0000       0.155971         4.2442
  37   0.0000       0.166870         4.5408
  38   0.0000       0.174213         4.7406
  39   0.0000       0.183006         4.9798

MULLIKEN ATOMIC CHARGES
-----------------------
   0 C :   -0.284840
   1 N :   -0.214888
   2 C :   -0.185757
   3 C :   -0.066846
   4 C :   -0.084819
   5 O :   -0.261275
   6 C :    0.335254
   7 C :   -0.395731
   8 O :   -0.343710
   9 H :    0.115488
  10 H :    0.141608
  11 H :    0.133108
  12 H :    0.128784
  13 H :    0.118245
  14 H :    0.125258
  15 H :    0.134126
  16 H :    0.151578
  17 H :    0.151449
  18 H :    0.150184
  19 H :    0.152784
Sum of atomic charges:   -0.0000000

LOEWDIN ATOMIC CHARGES
----------------------
   0 C :   -0.328713
   1 N :    0.090098
   2 C :   -0.245073
   3 C :   -0.267875
   4 C :   -0.265236
   5 O :    0.247340
   6 C :   -0.503604
   7 C :   -0.271791
   8 O :    0.114352
   9 H :    0.106802
  10 H :    0.118867
  11 H :    0.119552
  12 H :    0.124629
  13 H :    0.125054
  14 H :    0.145733
  15 H :    0.137912
  16 H :    0.137364
  17 H :    0.140465
  18 H :    0.138703
  19 H :    0.135422

  Mayer bond orders larger than 0.1
B(  0-C ,  1-N ) :   0.8871 B(  0-C ,  9-H ) :   0.9287 B(  0-C , 10-H ) :   0.9317
B(  0-C , 11-H ) :   0.9376 B(  1-N ,  2-C ) :   0.9016 B(  1-N ,  3-C ) :   0.9171
B(  2-C ,  3-C ) :   0.9163 B(  2-C , 12-H ) :   0.9198 B(  2-C , 13-H ) :   0.9172
B(  3-C ,  4-C ) :   0.9589 B(  3-C , 14-H ) :   0.9160 B(  4-C ,  5-O ) :   0.8031
B(  4-C , 15-H ) :   0.9260 B(  4-C , 16-H ) :   0.9324 B(  5-O ,  6-C ) :   1.1051
B(  6-C ,  7-C ) :   0.9248 B(  6-C ,  8-O ) :   1.9242 B(  7-C , 17-H ) :   0.9130
B(  7-C , 18-H ) :   0.9173 B(  7-C , 19-H ) :   0.9426

MP2 TOTAL ENERGY:     -439.559737121 Eh
FINAL SINGLE POINT ENERGY      -439.559737121349

DIPOLE MOMENT
-------------
                                X             Y             Z
Electronic contribution:      0.99538      -0.55449       2.42816
Nuclear contribution   :     -0.66281       0.09848      -2.25550
                        -----------------------------------------
Total Dipole Moment    :      0.33257      -0.45601       0.17266
                        -----------------------------------------
Magnitude (a.u.)       :      0.59022
Magnitude (Debye)      :      1.50021

                             ****ORCA TERMINATED NORMALLY****
TOTAL RUN TIME: 0 days 0 hours 16 minutes 16 seconds 233 msec
