                         Program Version 3.0.3 - RELEASE   -
|  1> ! RI-MP2 RIJK def2-TZVP def2-TZVP/C def2-TZVP/JK TIGHTSCF
|  2> % maxcore 2000
|  3> % mp2 density relaxed end
|  4> *xyz 0 1
|  5>  C        0.0819944412     1.5282084960     0.1007645934
|  6>  N        0.2381126824     0.0857750829    -0.0244256174
|  7>  C        0.5389826127    -0.5920586288     0.9795924309
|  8>  O        0.7517335333    -0.2266799485     2.3035488978
|  9>  C        1.0723926975    -1.6006457274     2.6785083410
| 10>  C        0.7847494693    -2.0724139724     1.2388334186
| 11>  C       -0.2475960009    -3.1444158441     0.8403833941
| 12>  C        0.9136306194    -3.7454411556     0.0248383121
| 13>  O        1.8255924202    -2.7366099807     0.5230649842
| 14>  H        0.7422302349     2.0204242923    -0.6212744878
| 15>  H       -0.9445598771     1.8011241481    -0.1681612752
| 16>  H        0.2986329886     1.9172675843     1.1022234183
| 17>  H        2.1193023975    -1.7012188261     2.9754629595
| 18>  H        0.4036549937    -1.9639006508     3.4634543293
| 19>  H       -0.6041702149    -3.7600731068     1.6679959043
| 20>  H       -1.0937101213    -2.7695752782     0.2645364661
| 21>  H        1.2369716740    -4.7544886925     0.3018064191
| 22>  H        0.8020793194    -3.6837755218    -1.0626639082
| 23> *
| 24>
| 25>                          ****END OF INPUT****

CARTESIAN COORDINATES (ANGSTROEM)
---------------------------------
  C      0.081994    1.528208    0.100765
  N      0.238113    0.085775   -0.024426
  C      0.538983   -0.592059    0.979592
  O      0.751734   -0.226680    2.303549
  C      1.072393   -1.600646    2.678508
  C      0.784749   -2.072414    1.238833
  C     -0.247596   -3.144416    0.840383
  C      0.913631   -3.745441    0.024838
  O      1.825592   -2.736610    0.523065
  H      0.742230    2.020424   -0.621274
  H     -0.944560    1.801124   -0.168161
  H      0.298633    1.917268    1.102223
  H      2.119302   -1.701219    2.975463
  H      0.403655   -1.963901    3.463454
  H     -0.604170   -3.760073    1.667996
  H     -1.093710   -2.769575    0.264536
  H      1.236972   -4.754489    0.301806
  H      0.802079   -3.683776   -1.062664

 Total Charge           Charge          ....    0
 Multiplicity           Mult            ....    1
 Number of Electrons    NEL             ....   68
 Basis Dimension        Dim             ....  333

ORBITAL ENERGIES
----------------

  NO   OCC          E(Eh)            E(eV)
   0   2.0000     -20.588707      -560.2472
   1   2.0000     -20.566899      -559.6538
   2   2.0000     -15.544914      -422.9986
   3   2.0000     -11.328047      -308.2518
   4   2.0000     -11.312201      -307.8206
   5   2.0000     -11.297780      -307.4282
   6   2.0000     -11.291376      -307.2540
   7   2.0000     -11.247105      -306.0493
   8   2.0000     -11.242106      -305.9133
   9   2.0000      -1.433606       -39.0104
  10   2.0000      -1.393655       -37.9233
  11   2.0000      -1.216332       -33.0981
  12   2.0000      -1.040926       -28.3250
  13   2.0000      -1.001748       -27.2589
  14   2.0000      -0.952207       -25.9109
  15   2.0000      -0.886646       -24.1269
  16   2.0000      -0.829071       -22.5602
  17   2.0000      -0.714920       -19.4540
  18   2.0000      -0.700874       -19.0717
  19   2.0000      -0.685744       -18.6600
  20   2.0000      -0.676443       -18.4070
  21   2.0000      -0.640419       -17.4267
  22   2.0000      -0.621059       -16.8999
  23   2.0000      -0.585822       -15.9410
  24   2.0000      -0.571733       -15.5576
  25   2.0000      -0.570026       -15.5112
  26   2.0000      -0.555773       -15.1234
  27   2.0000      -0.533253       -14.5105
  28   2.0000      -0.511021       -13.9056
  29   2.0000      -0.479978       -13.0609
  30   2.0000      -0.471690       -12.8353
  31   2.0000      -0.433195       -11.7878
  32   2.0000      -0.403722       -10.9858
  33   2.0000      -0.385130       -10.4799
  34   0.0000       0.139608         3.7989
  35   0.0000       0.150253         4.0886
  36   0.0000       0.152144         4.1401
  37   0.0000       0.163375         4.4456
  38   0.0000       0.183690         4.9984

MULLIKEN ATOMIC CHARGES
-----------------------
   0 C :   -0.278181
   1 N :   -0.241357
   2 C :    0.083690
   3 O :   -0.283546
   4 C :   -0.027859
   5 C :    0.262936
   6 C :   -0.302571
   7 C :   -0.020605
   8 O :   -0.323440
   9 H :    0.140386
  10 H :    0.136450
  11 H :    0.132665
  12 H :    0.120274
  13 H :    0.112824
  14 H :    0.129418
  15 H :    0.146134
  16 H :    0.103676
  17 H :    0.109107
Sum of atomic charges:   -0.0000000

LOEWDIN ATOMIC CHARGES
----------------------
   0 C :   -0.323081
   1 N :    0.087512
   2 C :   -0.334701
   3 O :    0.204393
   4 C :   -0.197999
   5 C :   -0.277911
   6 C :   -0.196219
   7 C :   -0.254823
   8 O :    0.174467
   9 H :    0.120301
  10 H :    0.119546
  11 H :    0.111484
  12 H :    0.129384
  13 H :    0.123262
  14 H :    0.135265
  15 H :    0.141125
  16 H :    0.116528
  17 H :    0.121467

  Mayer bond orders larger than 0.1
B(  0-C ,  1-N ) :   0.8533 B(  0-C ,  9-H ) :   0.9344 B(  0-C , 10-H ) :   0.9334
B(  0-C , 11-H ) :   0.9321 B(  1-N ,  2-C ) :   2.0055 B(  2-C ,  3-O ) :   1.0532
B(  2-C ,  5-C ) :   0.8722 B(  3-O ,  4-C ) :   0.9112 B(  4-C ,  5-C ) :   0.9468
B(  4-C , 12-H ) :   0.9088 B(  4-C , 13-H ) :   0.9118 B(  5-C ,  6-C ) :   0.8914
B(  5-C ,  8-O ) :   0.9816 B(  6-C ,  7-C ) :   0.9931 B(  6-C , 14-H ) :   0.9243
B(  6-C , 15-H ) :   0.9179 B(  7-C ,  8-O ) :   0.9328 B(  7-C , 16-H ) :   0.9171
B(  7-C , 17-H ) :   0.9138

MP2 TOTAL ENERGY:     -438.322459317 Eh
FINAL SINGLE POINT ENERGY      -438.322459317040

DIPOLE MOMENT
-------------
                                X             Y             Z
Electronic contribution:      2.35646      -0.21890       1.22515
Nuclear contribution   :     -2.87272      -0.48149      -0.74635
                        -----------------------------------------
Total Dipole Moment    :     -0.51626      -0.70038       0.47880
                        -----------------------------------------
Magnitude (a.u.)       :      0.99314
Magnitude (Debye)      :      2.52435

                             ****ORCA TERMINATED NORMALLY****
TOTAL RUN TIME: 0 days 0 hours 15 minutes 30 seconds 943 msec
