                         Program Version 3.0.3 - RELEASE   -
|  1> ! RI-MP2 RIJK def2-TZVP def2-TZVP/C def2-TZVP/JK TIGHTSCF
|  2> % maxcore 2000
|  3> % mp2 density relaxed end
|  4> *xyz 0 1
|  5>  C       -0.2485382730     1.5425443827    -0.1894677961
|  6>  C        0.1161450323     0.0798680089    -0.0404414077
|  7>  C       -0.8567672362    -0.7608439118     0.7607080487
|  8>  C        0.9195769783    -0.5887282472    -1.1329274696
|  9>  N        1.5396126615    -0.1879585944     0.1156635579
| 10>  C        2.1543491371    -0.9701393578     1.0554063191
| 11>  O        1.9524203851    -0.9389506485     2.2471398804
| 12>  C        3.2028191495    -1.8384273198     0.4765152056
| 13>  N        4.0082483748    -2.5480433478     0.0482579790
| 14>  H        0.5208224818     2.0843535325    -0.7443287356
| 15>  H       -1.2008217570     1.6434660837    -0.7197674201
| 16>  H       -0.3564008791     2.0114653829     0.7936407881
| 17>  H       -1.8598299955    -0.6747730151     0.3317372356
| 18>  H       -0.5732664757    -1.8162860272     0.7638715405
| 19>  H       -0.8950293153    -0.4211881257     1.7993976262
| 20>  H        0.7724442776    -1.6528438457    -1.3008741325
| 21>  H        1.2191223841    -0.0200685195    -2.0089480994
| 22> *
| 23>
| 24>                          ****END OF INPUT****

CARTESIAN COORDINATES (ANGSTROEM)
---------------------------------
  C     -0.248538    1.542544   -0.189468
  C      0.116145    0.079868   -0.040441
  C     -0.856767   -0.760844    0.760708
  C      0.919577   -0.588728   -1.132927
  N      1.539613   -0.187959    0.115664
  C      2.154349   -0.970139    1.055406
  O      1.952420   -0.938951    2.247140
  C      3.202819   -1.838427    0.476515
  N      4.008248   -2.548043    0.048258
  H      0.520822    2.084354   -0.744329
  H     -1.200822    1.643466   -0.719767
  H     -0.356401    2.011465    0.793641
  H     -1.859830   -0.674773    0.331737
  H     -0.573266   -1.816286    0.763872
  H     -0.895029   -0.421188    1.799398
  H      0.772444   -1.652844   -1.300874
  H      1.219122   -0.020069   -2.008948

 Total Charge           Charge          ....    0
 Multiplicity           Mult            ....    1
 Number of Electrons    NEL             ....   66
 Basis Dimension        Dim             ....  327

ORBITAL ENERGIES
----------------

  NO   OCC          E(Eh)            E(eV)
   0   2.0000     -20.572851      -559.8157
   1   2.0000     -15.613135      -424.8550
   2   2.0000     -15.604719      -424.6260
   3   2.0000     -11.415420      -310.6294
   4   2.0000     -11.313484      -307.8555
   5   2.0000     -11.299248      -307.4682
   6   2.0000     -11.295453      -307.3649
   7   2.0000     -11.244177      -305.9696
   8   2.0000     -11.242526      -305.9247
   9   2.0000      -1.434823       -39.0435
  10   2.0000      -1.326029       -36.0831
  11   2.0000      -1.241543       -33.7841
  12   2.0000      -1.081029       -29.4163
  13   2.0000      -0.996445       -27.1146
  14   2.0000      -0.969488       -26.3811
  15   2.0000      -0.896903       -24.4060
  16   2.0000      -0.804844       -21.9009
  17   2.0000      -0.726321       -19.7642
  18   2.0000      -0.694983       -18.9114
  19   2.0000      -0.681100       -18.5337
  20   2.0000      -0.628122       -17.0921
  21   2.0000      -0.609537       -16.5863
  22   2.0000      -0.599272       -16.3070
  23   2.0000      -0.590594       -16.0709
  24   2.0000      -0.567883       -15.4529
  25   2.0000      -0.559064       -15.2129
  26   2.0000      -0.528387       -14.3781
  27   2.0000      -0.522707       -14.2236
  28   2.0000      -0.515551       -14.0289
  29   2.0000      -0.488668       -13.2973
  30   2.0000      -0.483491       -13.1565
  31   2.0000      -0.462296       -12.5797
  32   2.0000      -0.417064       -11.3489
  33   0.0000       0.075735         2.0609
  34   0.0000       0.123060         3.3486
  35   0.0000       0.149471         4.0673
  36   0.0000       0.162655         4.4261
  37   0.0000       0.168689         4.5903

MULLIKEN ATOMIC CHARGES
-----------------------
   0 C :   -0.396822
   1 C :    0.131689
   2 C :   -0.375232
   3 C :   -0.190998
   4 N :   -0.180867
   5 C :    0.316135
   6 O :   -0.278926
   7 C :   -0.142064
   8 N :   -0.051526
   9 H :    0.143148
  10 H :    0.136883
  11 H :    0.146698
  12 H :    0.144607
  13 H :    0.136515
  14 H :    0.159865
  15 H :    0.156338
  16 H :    0.144557
Sum of atomic charges:   -0.0000000

LOEWDIN ATOMIC CHARGES
----------------------
   0 C :   -0.255537
   1 C :   -0.296985
   2 C :   -0.257513
   3 C :   -0.179502
   4 N :    0.232869
   5 C :   -0.443448
   6 O :    0.163177
   7 C :   -0.131664
   8 N :    0.090366
   9 H :    0.133715
  10 H :    0.132003
  11 H :    0.135285
  12 H :    0.134645
  13 H :    0.133037
  14 H :    0.138656
  15 H :    0.136738
  16 H :    0.134158

  Mayer bond orders larger than 0.1
B(  0-C ,  1-C ) :   0.9093 B(  0-C ,  9-H ) :   0.9307 B(  0-C , 10-H ) :   0.9335
B(  0-C , 11-H ) :   0.9352 B(  1-C ,  2-C ) :   0.9473 B(  1-C ,  3-C ) :   0.9097
B(  1-C ,  4-N ) :   0.7889 B(  2-C , 12-H ) :   0.9285 B(  2-C , 13-H ) :   0.9220
B(  2-C , 14-H ) :   0.9300 B(  3-C ,  4-N ) :   0.8512 B(  3-C , 15-H ) :   0.9143
B(  3-C , 16-H ) :   0.9136 B(  4-N ,  5-C ) :   1.1119 B(  5-C ,  6-O ) :   1.9537
B(  5-C ,  7-C ) :   0.8780 B(  7-C ,  8-N ) :   2.7903

MP2 TOTAL ENERGY:     -417.307954413 Eh
FINAL SINGLE POINT ENERGY      -417.307954413149

DIPOLE MOMENT
-------------
                                X             Y             Z
Electronic contribution:     10.80847      -5.26787       2.99425
Nuclear contribution   :    -12.48380       6.06715      -3.91551
                        -----------------------------------------
Total Dipole Moment    :     -1.67533       0.79928      -0.92126
                        -----------------------------------------
Magnitude (a.u.)       :      2.07227
Magnitude (Debye)      :      5.26730

                             ****ORCA TERMINATED NORMALLY****
TOTAL RUN TIME: 0 days 0 hours 18 minutes 56 seconds 853 msec
