                         Program Version 3.0.3 - RELEASE   -
|  1> ! RI-MP2 RIJK def2-TZVP def2-TZVP/C def2-TZVP/JK TIGHTSCF
|  2> % maxcore 2000
|  3> % mp2 density relaxed end
|  4> *xyz 0 1
|  5>  O       -1.7986311383     1.3990411936    -1.2894882229
|  6>  C       -1.7171185252    -0.0155734629    -1.3881785575
|  7>  C       -1.5846826294    -0.5650890414     0.0299311854
|  8>  C       -1.6169999535    -2.0817487111     0.1161923799
|  9>  C       -0.4703675649    -2.8226054269    -0.5789792074
| 10>  C        0.8490678635    -2.4711082563    -0.0602482765
| 11>  C        1.9279882739    -2.1671600594     0.3741868495
| 12>  C       -2.1523783795    -2.6999157861     1.3828016977
| 13>  C       -2.9632313518    -2.7686495190     0.1098422259
| 14>  H       -1.8253299115     1.7613166641    -2.1796565241
| 15>  H       -2.6167510121    -0.4356054078    -1.8672706710
| 16>  H       -0.8502351975    -0.3166324303    -1.9966702598
| 17>  H       -0.6540606772    -0.1868625223     0.4678962349
| 18>  H       -2.4063019547    -0.1505813511     0.6247230567
| 19>  H       -0.6251925688    -3.9031110878    -0.4683068759
| 20>  H       -0.4966689378    -2.6270115486    -1.6590882961
| 21>  H        2.8835458768    -1.9055892023     0.7559122646
| 22>  H       -1.6873723026    -3.6117598240     1.7426077913
| 23>  H       -2.4907650557    -2.0352972632     2.1703765732
| 24>  H       -3.8499385858    -2.1480078929     0.0346837194
| 25>  H       -3.0534929078    -3.7285362143    -0.3883731072
| 26> *
| 27>
| 28>                          ****END OF INPUT****

CARTESIAN COORDINATES (ANGSTROEM)
---------------------------------
  O     -1.798631    1.399041   -1.289488
  C     -1.717119   -0.015573   -1.388179
  C     -1.584683   -0.565089    0.029931
  C     -1.617000   -2.081749    0.116192
  C     -0.470368   -2.822605   -0.578979
  C      0.849068   -2.471108   -0.060248
  C      1.927988   -2.167160    0.374187
  C     -2.152378   -2.699916    1.382802
  C     -2.963231   -2.768650    0.109842
  H     -1.825330    1.761317   -2.179657
  H     -2.616751   -0.435605   -1.867271
  H     -0.850235   -0.316632   -1.996670
  H     -0.654061   -0.186863    0.467896
  H     -2.406302   -0.150581    0.624723
  H     -0.625193   -3.903111   -0.468307
  H     -0.496669   -2.627012   -1.659088
  H      2.883546   -1.905589    0.755912
  H     -1.687372   -3.611760    1.742608
  H     -2.490765   -2.035297    2.170377
  H     -3.849939   -2.148008    0.034684
  H     -3.053493   -3.728536   -0.388373

 Total Charge           Charge          ....    0
 Multiplicity           Mult            ....    1
 Number of Electrons    NEL             ....   68
 Basis Dimension        Dim             ....  351

ORBITAL ENERGIES
----------------

  NO   OCC          E(Eh)            E(eV)
   0   2.0000     -20.553577      -559.2913
   1   2.0000     -11.273321      -306.7627
   2   2.0000     -11.255567      -306.2796
   3   2.0000     -11.246028      -306.0200
   4   2.0000     -11.231960      -305.6372
   5   2.0000     -11.227696      -305.5211
   6   2.0000     -11.225384      -305.4582
   7   2.0000     -11.218681      -305.2758
   8   2.0000     -11.218496      -305.2708
   9   2.0000      -1.357364       -36.9357
  10   2.0000      -1.165620       -31.7181
  11   2.0000      -1.054191       -28.6860
  12   2.0000      -1.012680       -27.5564
  13   2.0000      -0.961206       -26.1557
  14   2.0000      -0.855515       -23.2797
  15   2.0000      -0.826600       -22.4929
  16   2.0000      -0.758745       -20.6465
  17   2.0000      -0.716353       -19.4930
  18   2.0000      -0.695595       -18.9281
  19   2.0000      -0.664918       -18.0933
  20   2.0000      -0.643416       -17.5082
  21   2.0000      -0.624748       -17.0003
  22   2.0000      -0.621538       -16.9129
  23   2.0000      -0.581875       -15.8336
  24   2.0000      -0.567992       -15.4559
  25   2.0000      -0.528178       -14.3724
  26   2.0000      -0.516958       -14.0672
  27   2.0000      -0.496140       -13.5006
  28   2.0000      -0.493716       -13.4347
  29   2.0000      -0.442265       -12.0347
  30   2.0000      -0.419989       -11.4285
  31   2.0000      -0.403176       -10.9710
  32   2.0000      -0.383741       -10.4421
  33   2.0000      -0.383029       -10.4227
  34   0.0000       0.131144         3.5686
  35   0.0000       0.145520         3.9598
  36   0.0000       0.160093         4.3563
  37   0.0000       0.165669         4.5081
  38   0.0000       0.168488         4.5848

MULLIKEN ATOMIC CHARGES
-----------------------
   0 O :   -0.462311
   1 C :   -0.116783
   2 C :   -0.160077
   3 C :    0.100473
   4 C :   -0.356914
   5 C :   -0.020453
   6 C :   -0.175269
   7 C :   -0.287927
   8 C :   -0.290036
   9 H :    0.314851
  10 H :    0.100357
  11 H :    0.102838
  12 H :    0.137456
  13 H :    0.108717
  14 H :    0.144416
  15 H :    0.151196
  16 H :    0.187970
  17 H :    0.131559
  18 H :    0.131055
  19 H :    0.132286
  20 H :    0.126597
Sum of atomic charges:   -0.0000000

LOEWDIN ATOMIC CHARGES
----------------------
   0 O :   -0.050257
   1 C :   -0.344163
   2 C :   -0.221253
   3 C :   -0.242523
   4 C :   -0.207282
   5 C :   -0.103355
   6 C :   -0.105824
   7 C :   -0.202262
   8 C :   -0.209667
   9 H :    0.171536
  10 H :    0.115228
  11 H :    0.114818
  12 H :    0.150805
  13 H :    0.149054
  14 H :    0.163185
  15 H :    0.158549
  16 H :    0.126087
  17 H :    0.135391
  18 H :    0.134801
  19 H :    0.134818
  20 H :    0.132315

  Mayer bond orders larger than 0.1
B(  0-O ,  1-C ) :   1.0243 B(  0-O ,  9-H ) :   0.8492 B(  1-C ,  2-C ) :   0.9190
B(  1-C , 10-H ) :   0.9300 B(  1-C , 11-H ) :   0.9319 B(  2-C ,  3-C ) :   0.9114
B(  2-C , 12-H ) :   0.9208 B(  2-C , 13-H ) :   0.9128 B(  3-C ,  4-C ) :   0.8791
B(  3-C ,  7-C ) :   0.8679 B(  3-C ,  8-C ) :   0.8673 B(  4-C ,  5-C ) :   1.0795
B(  4-C , 14-H ) :   0.9191 B(  4-C , 15-H ) :   0.9386 B(  5-C ,  6-C ) :   2.6169
B(  6-C , 16-H ) :   0.9054 B(  7-C ,  8-C ) :   0.9178 B(  7-C , 17-H ) :   0.9265
B(  7-C , 18-H ) :   0.9252 B(  8-C , 19-H ) :   0.9247 B(  8-C , 20-H ) :   0.9222

MP2 TOTAL ENERGY:     -386.358513516 Eh
FINAL SINGLE POINT ENERGY      -386.358513516184

DIPOLE MOMENT
-------------
                                X             Y             Z
Electronic contribution:      3.76617       1.04497      -0.09249
Nuclear contribution   :     -3.95161      -1.34149      -0.47005
                        -----------------------------------------
Total Dipole Moment    :     -0.18544      -0.29651      -0.56254
                        -----------------------------------------
Magnitude (a.u.)       :      0.66239
Magnitude (Debye)      :      1.68366

                             ****ORCA TERMINATED NORMALLY****
TOTAL RUN TIME: 0 days 0 hours 16 minutes 32 seconds 141 msec
