                         Program Version 3.0.3 - RELEASE   -
|  1> ! RI-MP2 RIJK def2-TZVP def2-TZVP/C def2-TZVP/JK TIGHTSCF
|  2> % maxcore 2000
|  3> % mp2 density relaxed end
|  4> *xyz 0 1
|  5>  C       -0.8114305361     1.4778028772     0.4892044112
|  6>  C       -0.1157882731     0.1631377142     0.1450881074
|  7>  C       -1.0000976968    -1.0488511808     0.4726290741
|  8>  C        0.5671556222     0.0515836771    -1.2685204105
|  9>  C        1.9073230266    -0.4088297770    -0.6121249422
| 10>  C        3.2251623523     0.3050489379    -0.9217045406
| 11>  O        4.2213981758    -0.0562603257     0.0115602234
| 12>  C        1.2993617828     0.0003121131     0.7304342711
| 13>  O        1.7991370659     0.2779396586     1.7903416037
| 14>  H       -0.1817397411     2.3399402086     0.2484153117
| 15>  H       -1.7495449313     1.5765068424    -0.0678643573
| 16>  H       -1.0434867100     1.5222921443     1.5578448764
| 17>  H       -1.9234543198    -1.0095144105    -0.1154092226
| 18>  H       -0.4973491711    -1.9944054268     0.2452029362
| 19>  H       -1.2698842817    -1.0567939725     1.5332248537
| 20>  H        0.1066730823    -0.6537137298    -1.9621661574
| 21>  H        0.6599575174     1.0243293180    -1.7593456795
| 22>  H        2.0592593307    -1.4919209378    -0.6705561500
| 23>  H        3.5967564369     0.0246390789    -1.9131648666
| 24>  H        3.0535932794     1.3948964856    -0.9341844892
| 25>  H        3.8588902586     0.1298955950     0.8883452470
| 26> *
| 27>
| 28>                          ****END OF INPUT****

CARTESIAN COORDINATES (ANGSTROEM)
---------------------------------
  C     -0.811431    1.477803    0.489204
  C     -0.115788    0.163138    0.145088
  C     -1.000098   -1.048851    0.472629
  C      0.567156    0.051584   -1.268520
  C      1.907323   -0.408830   -0.612125
  C      3.225162    0.305049   -0.921705
  O      4.221398   -0.056260    0.011560
  C      1.299362    0.000312    0.730434
  O      1.799137    0.277940    1.790342
  H     -0.181740    2.339940    0.248415
  H     -1.749545    1.576507   -0.067864
  H     -1.043487    1.522292    1.557845
  H     -1.923454   -1.009514   -0.115409
  H     -0.497349   -1.994405    0.245203
  H     -1.269884   -1.056794    1.533225
  H      0.106673   -0.653714   -1.962166
  H      0.659958    1.024329   -1.759346
  H      2.059259   -1.491921   -0.670556
  H      3.596756    0.024639   -1.913165
  H      3.053593    1.394896   -0.934184
  H      3.858890    0.129896    0.888345

 Total Charge           Charge          ....    0
 Multiplicity           Mult            ....    1
 Number of Electrons    NEL             ....   70
 Basis Dimension        Dim             ....  351

ORBITAL ENERGIES
----------------

  NO   OCC          E(Eh)            E(eV)
   0   2.0000     -20.562131      -559.5240
   1   2.0000     -20.548909      -559.1642
   2   2.0000     -11.333894      -308.4109
   3   2.0000     -11.283770      -307.0470
   4   2.0000     -11.258548      -306.3607
   5   2.0000     -11.245907      -306.0167
   6   2.0000     -11.244442      -305.9768
   7   2.0000     -11.236775      -305.7682
   8   2.0000     -11.230349      -305.5933
   9   2.0000      -1.403581       -38.1934
  10   2.0000      -1.356409       -36.9098
  11   2.0000      -1.160207       -31.5708
  12   2.0000      -1.041081       -28.3293
  13   2.0000      -0.951144       -25.8819
  14   2.0000      -0.936346       -25.4793
  15   2.0000      -0.870092       -23.6764
  16   2.0000      -0.820661       -22.3313
  17   2.0000      -0.710173       -19.3248
  18   2.0000      -0.697264       -18.9735
  19   2.0000      -0.664936       -18.0938
  20   2.0000      -0.651764       -17.7354
  21   2.0000      -0.630887       -17.1673
  22   2.0000      -0.602684       -16.3999
  23   2.0000      -0.600565       -16.3422
  24   2.0000      -0.574272       -15.6267
  25   2.0000      -0.564278       -15.3548
  26   2.0000      -0.559090       -15.2136
  27   2.0000      -0.535312       -14.5666
  28   2.0000      -0.532849       -14.4996
  29   2.0000      -0.511515       -13.9190
  30   2.0000      -0.495571       -13.4852
  31   2.0000      -0.480290       -13.0694
  32   2.0000      -0.459573       -12.5056
  33   2.0000      -0.437745       -11.9116
  34   2.0000      -0.391174       -10.6444
  35   0.0000       0.115256         3.1363
  36   0.0000       0.129579         3.5260
  37   0.0000       0.150140         4.0855
  38   0.0000       0.164763         4.4834
  39   0.0000       0.171911         4.6779

MULLIKEN ATOMIC CHARGES
-----------------------
   0 C :   -0.407438
   1 C :    0.244734
   2 C :   -0.434491
   3 C :   -0.352401
   4 C :   -0.052873
   5 C :   -0.036332
   6 O :   -0.473912
   7 C :    0.027687
   8 O :   -0.292836
   9 H :    0.132174
  10 H :    0.137487
  11 H :    0.145008
  12 H :    0.140712
  13 H :    0.139471
  14 H :    0.145160
  15 H :    0.133512
  16 H :    0.132259
  17 H :    0.128670
  18 H :    0.117986
  19 H :    0.094065
  20 H :    0.331357
Sum of atomic charges:   -0.0000000

LOEWDIN ATOMIC CHARGES
----------------------
   0 C :   -0.264904
   1 C :   -0.268642
   2 C :   -0.257823
   3 C :   -0.165130
   4 C :   -0.209805
   5 C :   -0.328074
   6 O :   -0.039077
   7 C :   -0.261849
   8 O :    0.151077
   9 H :    0.128042
  10 H :    0.129121
  11 H :    0.133549
  12 H :    0.129782
  13 H :    0.129481
  14 H :    0.132060
  15 H :    0.132628
  16 H :    0.139125
  17 H :    0.163653
  18 H :    0.129585
  19 H :    0.119588
  20 H :    0.177616

  Mayer bond orders larger than 0.1
B(  0-C ,  1-C ) :   0.8923 B(  0-C ,  9-H ) :   0.9300 B(  0-C , 10-H ) :   0.9377
B(  0-C , 11-H ) :   0.9335 B(  1-C ,  2-C ) :   0.8908 B(  1-C ,  3-C ) :   0.8944
B(  1-C ,  4-C ) :  -0.1073 B(  1-C ,  7-C ) :   0.8190 B(  2-C , 12-H ) :   0.9380
B(  2-C , 13-H ) :   0.9259 B(  2-C , 14-H ) :   0.9353 B(  3-C ,  4-C ) :   0.9313
B(  3-C , 15-H ) :   0.9249 B(  3-C , 16-H ) :   0.9111 B(  4-C ,  5-C ) :   0.9092
B(  4-C ,  7-C ) :   0.8685 B(  4-C , 17-H ) :   0.8836 B(  5-C ,  6-O ) :   0.9380
B(  5-C , 18-H ) :   0.9342 B(  5-C , 19-H ) :   0.9165 B(  6-O , 20-H ) :   0.8245
B(  7-C ,  8-O ) :   1.9642

MP2 TOTAL ENERGY:     -423.535301224 Eh
FINAL SINGLE POINT ENERGY      -423.535301223571

DIPOLE MOMENT
-------------
                                X             Y             Z
Electronic contribution:      6.88484      -0.66583       3.26677
Nuclear contribution   :     -8.09332       0.65367      -3.99692
                        -----------------------------------------
Total Dipole Moment    :     -1.20848      -0.01216      -0.73015
                        -----------------------------------------
Magnitude (a.u.)       :      1.41198
Magnitude (Debye)      :      3.58897

                             ****ORCA TERMINATED NORMALLY****
TOTAL RUN TIME: 0 days 0 hours 33 minutes 50 seconds 110 msec
