                         Program Version 3.0.3 - RELEASE   -
|  1> ! RI-MP2 RIJK def2-TZVP def2-TZVP/C def2-TZVP/JK TIGHTSCF
|  2> % maxcore 2000
|  3> % mp2 density relaxed end
|  4> *xyz 0 1
|  5>  C       -0.1084569691     1.5801980737    -0.0094054057
|  6>  C        0.0019012250     0.0765414066     0.0304116211
|  7>  O       -1.1200955117    -0.6270301148    -0.3982908796
|  8>  C        1.3415775555    -0.6142802132    -0.2336566092
|  9>  C        2.5328514213     0.1381485524    -0.4939358637
| 10>  N        3.4829595704     0.7546668845    -0.7291383832
| 11>  C        0.6960097951    -0.6280798867     1.1687762351
| 12>  C        1.2739715458     0.1083816771     2.2560800175
| 13>  N        1.7254156906     0.7036190058     3.1384431807
| 14>  H        0.7884441273     2.0640683607     0.3811396311
| 15>  H       -0.2503932358     1.9195145364    -1.0415664402
| 16>  H       -0.9685881002     1.9004606261     0.5846717307
| 17>  H       -1.3511142200    -0.3205834690    -1.2832031105
| 18>  H        1.2742404445    -1.5633709331    -0.7538920132
| 19>  H        0.2643096814    -1.5842393865     1.4441549693
| 20> *
| 21>
| 22>                          ****END OF INPUT****

CARTESIAN COORDINATES (ANGSTROEM)
---------------------------------
  C     -0.108457    1.580198   -0.009405
  C      0.001901    0.076541    0.030412
  O     -1.120096   -0.627030   -0.398291
  C      1.341578   -0.614280   -0.233657
  C      2.532851    0.138149   -0.493936
  N      3.482960    0.754667   -0.729138
  C      0.696010   -0.628080    1.168776
  C      1.273972    0.108382    2.256080
  N      1.725416    0.703619    3.138443
  H      0.788444    2.064068    0.381140
  H     -0.250393    1.919515   -1.041566
  H     -0.968588    1.900461    0.584672
  H     -1.351114   -0.320583   -1.283203
  H      1.274240   -1.563371   -0.753892
  H      0.264310   -1.584239    1.444155

 Total Charge           Charge          ....    0
 Multiplicity           Mult            ....    1
 Number of Electrons    NEL             ....   64
 Basis Dimension        Dim             ....  315

ORBITAL ENERGIES
----------------

  NO   OCC          E(Eh)            E(eV)
   0   2.0000     -20.612502      -560.8947
   1   2.0000     -15.588467      -424.1838
   2   2.0000     -15.588091      -424.1735
   3   2.0000     -11.361039      -309.1496
   4   2.0000     -11.319068      -308.0075
   5   2.0000     -11.317766      -307.9721
   6   2.0000     -11.292231      -307.2772
   7   2.0000     -11.291503      -307.2574
   8   2.0000     -11.258613      -306.3624
   9   2.0000      -1.430428       -38.9239
  10   2.0000      -1.249497       -34.0005
  11   2.0000      -1.232305       -33.5327
  12   2.0000      -1.194358       -32.5001
  13   2.0000      -1.023529       -27.8516
  14   2.0000      -0.972442       -26.4615
  15   2.0000      -0.884160       -24.0592
  16   2.0000      -0.764475       -20.8024
  17   2.0000      -0.758990       -20.6532
  18   2.0000      -0.698007       -18.9937
  19   2.0000      -0.659981       -17.9590
  20   2.0000      -0.639112       -17.3911
  21   2.0000      -0.612290       -16.6613
  22   2.0000      -0.587282       -15.9808
  23   2.0000      -0.573978       -15.6187
  24   2.0000      -0.569147       -15.4873
  25   2.0000      -0.564458       -15.3597
  26   2.0000      -0.534038       -14.5319
  27   2.0000      -0.517936       -14.0938
  28   2.0000      -0.486848       -13.2478
  29   2.0000      -0.484622       -13.1872
  30   2.0000      -0.438128       -11.9221
  31   2.0000      -0.426430       -11.6037
  32   0.0000       0.102257         2.7826
  33   0.0000       0.123213         3.3528
  34   0.0000       0.130742         3.5577
  35   0.0000       0.149840         4.0774
  36   0.0000       0.162722         4.4279

MULLIKEN ATOMIC CHARGES
-----------------------
   0 C :   -0.404489
   1 C :    0.173944
   2 O :   -0.431160
   3 C :   -0.025405
   4 C :   -0.202515
   5 N :   -0.039389
   6 C :    0.006788
   7 C :   -0.201279
   8 N :   -0.036472
   9 H :    0.167857
  10 H :    0.139684
  11 H :    0.163024
  12 H :    0.332334
  13 H :    0.176440
  14 H :    0.180639
Sum of atomic charges:   -0.0000000

LOEWDIN ATOMIC CHARGES
----------------------
   0 C :   -0.250862
   1 C :   -0.330159
   2 O :    0.050411
   3 C :   -0.141735
   4 C :   -0.174000
   5 N :    0.082827
   6 C :   -0.134036
   7 C :   -0.166645
   8 N :    0.086049
   9 H :    0.147458
  10 H :    0.135258
  11 H :    0.141040
  12 H :    0.191311
  13 H :    0.179155
  14 H :    0.183927

  Mayer bond orders larger than 0.1
B(  0-C ,  1-C ) :   0.9763 B(  0-C ,  9-H ) :   0.9142 B(  0-C , 10-H ) :   0.9162
B(  0-C , 11-H ) :   0.9301 B(  1-C ,  2-O ) :   1.0559 B(  1-C ,  3-C ) :   0.8091
B(  1-C ,  6-C ) :   0.8289 B(  2-O , 12-H ) :   0.8309 B(  3-C ,  4-C ) :   0.9338
B(  3-C ,  6-C ) :   0.8146 B(  3-C , 13-H ) :   0.9068 B(  4-C ,  5-N ) :   2.8248
B(  6-C ,  7-C ) :   0.9555 B(  6-C , 14-H ) :   0.9004 B(  7-C ,  8-N ) :   2.8271

MP2 TOTAL ENERGY:     -416.115465478 Eh
FINAL SINGLE POINT ENERGY      -416.115465478176

DIPOLE MOMENT
-------------
                                X             Y             Z
Electronic contribution:      4.22435      -2.06678       2.13781
Nuclear contribution   :     -5.94391       1.30364      -3.36807
                        -----------------------------------------
Total Dipole Moment    :     -1.71957      -0.76314      -1.23025
                        -----------------------------------------
Magnitude (a.u.)       :      2.24785
Magnitude (Debye)      :      5.71357

                             ****ORCA TERMINATED NORMALLY****
TOTAL RUN TIME: 0 days 0 hours 17 minutes 18 seconds 759 msec
