                         Program Version 3.0.3 - RELEASE   -
|  1> ! RI-MP2 RIJK def2-TZVP def2-TZVP/C def2-TZVP/JK TIGHTSCF
|  2> % maxcore 2000
|  3> % mp2 density relaxed end
|  4> *xyz 0 1
|  5>  N       -0.1784431614     1.2675122195    -0.3309081994
|  6>  C       -0.0724476594     0.0326465949    -0.0679104906
|  7>  C       -1.3256430964    -0.7802293072     0.2009372279
|  8>  C       -1.1550288809    -1.9279642925     1.1995492813
|  9>  C        0.0453674866    -2.7812876422     0.7891448355
| 10>  C        1.2981910100    -1.9131907865     0.7598590653
| 11>  N        1.1481057341    -0.7217323065    -0.0958522195
| 12>  C        2.2769217692    -0.2687972911    -0.7443772647
| 13>  O        2.4020916384     0.7741156586    -1.3474190090
| 14>  H        0.7231264627     1.6720944319    -0.5817755606
| 15>  H       -2.1005963696    -0.0747520369     0.5044503916
| 16>  H       -1.6399704905    -1.2013877409    -0.7648585591
| 17>  H       -0.9933204385    -1.5301284575     2.2098293069
| 18>  H       -2.0690516296    -2.5284537941     1.2377642365
| 19>  H        0.2080157802    -3.6079074191     1.4884100881
| 20>  H       -0.1259124061    -3.2192745189    -0.2019522139
| 21>  H        1.5358672997    -1.5927100105     1.7844263442
| 22>  H        2.1592076186    -2.4788276580     0.3923592017
| 23>  H        3.1018274430    -1.0036930531    -0.6678699421
| 24> *
| 25>
| 26>                          ****END OF INPUT****

CARTESIAN COORDINATES (ANGSTROEM)
---------------------------------
  N     -0.178443    1.267512   -0.330908
  C     -0.072448    0.032647   -0.067910
  C     -1.325643   -0.780229    0.200937
  C     -1.155029   -1.927964    1.199549
  C      0.045367   -2.781288    0.789145
  C      1.298191   -1.913191    0.759859
  N      1.148106   -0.721732   -0.095852
  C      2.276922   -0.268797   -0.744377
  O      2.402092    0.774116   -1.347419
  H      0.723126    1.672094   -0.581776
  H     -2.100596   -0.074752    0.504450
  H     -1.639970   -1.201388   -0.764859
  H     -0.993320   -1.530128    2.209829
  H     -2.069052   -2.528454    1.237764
  H      0.208016   -3.607907    1.488410
  H     -0.125912   -3.219275   -0.201952
  H      1.535867   -1.592710    1.784426
  H      2.159208   -2.478828    0.392359
  H      3.101827   -1.003693   -0.667870

 Total Charge           Charge          ....    0
 Multiplicity           Mult            ....    1
 Number of Electrons    NEL             ....   68
 Basis Dimension        Dim             ....  339

ORBITAL ENERGIES
----------------

  NO   OCC          E(Eh)            E(eV)
   0   2.0000     -20.544090      -559.0331
   1   2.0000     -15.613404      -424.8623
   2   2.0000     -15.529721      -422.5852
   3   2.0000     -11.365633      -309.2746
   4   2.0000     -11.319384      -308.0161
   5   2.0000     -11.292032      -307.2718
   6   2.0000     -11.247678      -306.0649
   7   2.0000     -11.242351      -305.9199
   8   2.0000     -11.238798      -305.8233
   9   2.0000      -1.404490       -38.2181
  10   2.0000      -1.289451       -35.0877
  11   2.0000      -1.185021       -32.2461
  12   2.0000      -1.101010       -29.9600
  13   2.0000      -1.011440       -27.5227
  14   2.0000      -0.922437       -25.1008
  15   2.0000      -0.883076       -24.0297
  16   2.0000      -0.826228       -22.4828
  17   2.0000      -0.744237       -20.2517
  18   2.0000      -0.710378       -19.3304
  19   2.0000      -0.680242       -18.5103
  20   2.0000      -0.650434       -17.6992
  21   2.0000      -0.635657       -17.2971
  22   2.0000      -0.629650       -17.1336
  23   2.0000      -0.611920       -16.6512
  24   2.0000      -0.594677       -16.1820
  25   2.0000      -0.570868       -15.5341
  26   2.0000      -0.541273       -14.7288
  27   2.0000      -0.509280       -13.8582
  28   2.0000      -0.501596       -13.6491
  29   2.0000      -0.488597       -13.2954
  30   2.0000      -0.468284       -12.7427
  31   2.0000      -0.451126       -12.2758
  32   2.0000      -0.407221       -11.0811
  33   2.0000      -0.377164       -10.2631
  34   0.0000       0.113543         3.0897
  35   0.0000       0.126980         3.4553
  36   0.0000       0.147292         4.0080
  37   0.0000       0.157817         4.2944
  38   0.0000       0.172118         4.6836

MULLIKEN ATOMIC CHARGES
-----------------------
   0 N :   -0.317971
   1 C :   -0.003602
   2 C :   -0.184245
   3 C :   -0.209168
   4 C :   -0.211584
   5 C :   -0.195323
   6 N :   -0.069393
   7 C :    0.164256
   8 O :   -0.347971
   9 H :    0.243479
  10 H :    0.150107
  11 H :    0.128047
  12 H :    0.119665
  13 H :    0.132326
  14 H :    0.131903
  15 H :    0.117636
  16 H :    0.130078
  17 H :    0.135669
  18 H :    0.086090
Sum of atomic charges:    0.0000000

LOEWDIN ATOMIC CHARGES
----------------------
   0 N :   -0.013338
   1 C :   -0.315871
   2 C :   -0.220258
   3 C :   -0.263103
   4 C :   -0.264613
   5 C :   -0.245227
   6 N :    0.196187
   7 C :   -0.387433
   8 O :    0.079266
   9 H :    0.165914
  10 H :    0.154040
  11 H :    0.154702
  12 H :    0.141058
  13 H :    0.140127
  14 H :    0.143125
  15 H :    0.142115
  16 H :    0.136613
  17 H :    0.138622
  18 H :    0.118073

  Mayer bond orders larger than 0.1
B(  0-N ,  1-C ) :   2.0799 B(  0-N ,  9-H ) :   0.8484 B(  1-C ,  2-C ) :   0.9241
B(  1-C ,  6-N ) :   0.9493 B(  2-C ,  3-C ) :   0.9134 B(  2-C , 10-H ) :   0.9221
B(  2-C , 11-H ) :   0.9258 B(  3-C ,  4-C ) :   0.9134 B(  3-C , 12-H ) :   0.9278
B(  3-C , 13-H ) :   0.9334 B(  4-C ,  5-C ) :   0.9452 B(  4-C , 14-H ) :   0.9254
B(  4-C , 15-H ) :   0.9265 B(  5-C ,  6-N ) :   0.8875 B(  5-C , 16-H ) :   0.9280
B(  5-C , 17-H ) :   0.9208 B(  6-N ,  7-C ) :   1.0883 B(  7-C ,  8-O ) :   1.8674
B(  7-C , 18-H ) :   0.9303

MP2 TOTAL ENERGY:     -418.546737391 Eh
FINAL SINGLE POINT ENERGY      -418.546737390632

DIPOLE MOMENT
-------------
                                X             Y             Z
Electronic contribution:      4.12709       6.21649      -3.86484
Nuclear contribution   :     -4.10398      -8.07024       4.77773
                        -----------------------------------------
Total Dipole Moment    :      0.02311      -1.85375       0.91290
                        -----------------------------------------
Magnitude (a.u.)       :      2.06647
Magnitude (Debye)      :      5.25254

                             ****ORCA TERMINATED NORMALLY****
TOTAL RUN TIME: 0 days 0 hours 18 minutes 40 seconds 408 msec
