                         Program Version 3.0.3 - RELEASE   -
|  1> ! RI-MP2 RIJK def2-TZVP def2-TZVP/C def2-TZVP/JK TIGHTSCF
|  2> % maxcore 2000
|  3> % mp2 density relaxed end
|  4> *xyz 0 1
|  5>  C        0.0274415638     1.5429665245     0.0669109843
|  6>  C       -0.0464616242     0.0256089947    -0.0572150621
|  7>  C        0.7522060359    -0.5007277663    -1.2556204371
|  8>  C        0.2765271967    -1.8625007320    -1.7919334740
|  9>  C       -0.1211197008    -2.8613292922    -0.6927467337
| 10>  C        0.8183478664    -2.8422261550     0.5258005267
| 11>  C        0.5247597164    -1.7800386132     1.5640326120
| 12>  N        0.4411063854    -2.1125345708     2.7865024437
| 13>  O        0.4453717255    -0.4618557009     1.2115576434
| 14>  H        1.0700158277     1.8709103920     0.1281475481
| 15>  H       -0.4361529448     2.0179604884    -0.8024798338
| 16>  H       -0.4912277715     1.8782698430     0.9682293358
| 17>  H       -1.1002709599    -0.2732875886    -0.1502825751
| 18>  H        0.7021409888     0.2385557708    -2.0625066385
| 19>  H        1.8044337331    -0.5451411419    -0.9515691546
| 20>  H       -0.5768763966    -1.7150717469    -2.4644597118
| 21>  H        1.0756033914    -2.2933795821    -2.4068411615
| 22>  H       -1.1469473273    -2.6701179831    -0.3564427464
| 23>  H       -0.1326410754    -3.8712941234    -1.1151452280
| 24>  H        0.7661987925    -3.7880711638     1.0664888476
| 25>  H        1.8572069757    -2.7269741015     0.1882706017
| 26>  H        0.2601128113    -1.2802258816     3.3529461931
| 27> *
| 28>
| 29>                          ****END OF INPUT****

CARTESIAN COORDINATES (ANGSTROEM)
---------------------------------
  C      0.027442    1.542967    0.066911
  C     -0.046462    0.025609   -0.057215
  C      0.752206   -0.500728   -1.255620
  C      0.276527   -1.862501   -1.791933
  C     -0.121120   -2.861329   -0.692747
  C      0.818348   -2.842226    0.525801
  C      0.524760   -1.780039    1.564033
  N      0.441106   -2.112535    2.786502
  O      0.445372   -0.461856    1.211558
  H      1.070016    1.870910    0.128148
  H     -0.436153    2.017960   -0.802480
  H     -0.491228    1.878270    0.968229
  H     -1.100271   -0.273288   -0.150283
  H      0.702141    0.238556   -2.062507
  H      1.804434   -0.545141   -0.951569
  H     -0.576876   -1.715072   -2.464460
  H      1.075603   -2.293380   -2.406841
  H     -1.146947   -2.670118   -0.356443
  H     -0.132641   -3.871294   -1.115145
  H      0.766199   -3.788071    1.066489
  H      1.857207   -2.726974    0.188271
  H      0.260113   -1.280226    3.352946

 Total Charge           Charge          ....    0
 Multiplicity           Mult            ....    1
 Number of Electrons    NEL             ....   70
 Basis Dimension        Dim             ....  357

ORBITAL ENERGIES
----------------

  NO   OCC          E(Eh)            E(eV)
   0   2.0000     -20.577384      -559.9391
   1   2.0000     -15.521138      -422.3516
   2   2.0000     -11.327267      -308.2306
   3   2.0000     -11.298323      -307.4430
   4   2.0000     -11.233880      -305.6894
   5   2.0000     -11.233187      -305.6705
   6   2.0000     -11.232406      -305.6493
   7   2.0000     -11.231713      -305.6305
   8   2.0000     -11.223474      -305.4062
   9   2.0000      -1.408156       -38.3179
  10   2.0000      -1.187228       -32.3061
  11   2.0000      -1.100539       -29.9472
  12   2.0000      -1.049272       -28.5521
  13   2.0000      -0.982428       -26.7332
  14   2.0000      -0.916247       -24.9323
  15   2.0000      -0.855901       -23.2902
  16   2.0000      -0.787684       -21.4340
  17   2.0000      -0.759792       -20.6750
  18   2.0000      -0.693488       -18.8708
  19   2.0000      -0.666644       -18.1403
  20   2.0000      -0.640550       -17.4303
  21   2.0000      -0.630008       -17.1434
  22   2.0000      -0.599129       -16.3031
  23   2.0000      -0.571251       -15.5445
  24   2.0000      -0.565144       -15.3784
  25   2.0000      -0.552554       -15.0358
  26   2.0000      -0.546939       -14.8830
  27   2.0000      -0.531024       -14.4499
  28   2.0000      -0.510498       -13.8913
  29   2.0000      -0.492191       -13.3932
  30   2.0000      -0.466653       -12.6983
  31   2.0000      -0.462513       -12.5856
  32   2.0000      -0.452106       -12.3024
  33   2.0000      -0.424610       -11.5542
  34   2.0000      -0.386765       -10.5244
  35   0.0000       0.125361         3.4113
  36   0.0000       0.148344         4.0366
  37   0.0000       0.149027         4.0552
  38   0.0000       0.163687         4.4542
  39   0.0000       0.180581         4.9138

MULLIKEN ATOMIC CHARGES
-----------------------
   0 C :   -0.372122
   1 C :    0.056308
   2 C :   -0.228706
   3 C :   -0.268804
   4 C :   -0.217856
   5 C :   -0.142094
   6 C :    0.058313
   7 N :   -0.364754
   8 O :   -0.255142
   9 H :    0.131922
  10 H :    0.125810
  11 H :    0.142611
  12 H :    0.093691
  13 H :    0.130500
  14 H :    0.125278
  15 H :    0.119915
  16 H :    0.122176
  17 H :    0.124055
  18 H :    0.134633
  19 H :    0.147568
  20 H :    0.123384
  21 H :    0.213316
Sum of atomic charges:   -0.0000000

LOEWDIN ATOMIC CHARGES
----------------------
   0 C :   -0.290300
   1 C :   -0.312653
   2 C :   -0.250760
   3 C :   -0.271617
   4 C :   -0.264570
   5 C :   -0.224829
   6 C :   -0.412213
   7 N :   -0.060262
   8 O :    0.244421
   9 H :    0.128407
  10 H :    0.126163
  11 H :    0.127199
  12 H :    0.142596
  13 H :    0.146001
  14 H :    0.145045
  15 H :    0.137581
  16 H :    0.139019
  17 H :    0.139535
  18 H :    0.140886
  19 H :    0.156548
  20 H :    0.151104
  21 H :    0.162697

  Mayer bond orders larger than 0.1
B(  0-C ,  1-C ) :   0.9209 B(  0-C ,  9-H ) :   0.9335 B(  0-C , 10-H ) :   0.9338
B(  0-C , 11-H ) :   0.9401 B(  1-C ,  2-C ) :   0.8902 B(  1-C ,  8-O ) :   0.8686
B(  1-C , 12-H ) :   0.9406 B(  2-C ,  3-C ) :   0.9245 B(  2-C , 13-H ) :   0.9238
B(  2-C , 14-H ) :   0.9183 B(  3-C ,  4-C ) :   0.9209 B(  3-C , 15-H ) :   0.9354
B(  3-C , 16-H ) :   0.9370 B(  4-C ,  5-C ) :   0.8928 B(  4-C , 17-H ) :   0.9288
B(  4-C , 18-H ) :   0.9332 B(  5-C ,  6-C ) :   0.9144 B(  5-C , 19-H ) :   0.9141
B(  5-C , 20-H ) :   0.9218 B(  6-C ,  7-N ) :   2.0672 B(  6-C ,  8-O ) :   1.0959
B(  7-N , 21-H ) :   0.8599

MP2 TOTAL ENERGY:     -403.680288376 Eh
FINAL SINGLE POINT ENERGY      -403.680288375806

DIPOLE MOMENT
-------------
                                X             Y             Z
Electronic contribution:      0.57777      -1.50841       6.30881
Nuclear contribution   :     -0.77125       2.01352      -7.55961
                        -----------------------------------------
Total Dipole Moment    :     -0.19349       0.50511      -1.25080
                        -----------------------------------------
Magnitude (a.u.)       :      1.36275
Magnitude (Debye)      :      3.46383

                             ****ORCA TERMINATED NORMALLY****
TOTAL RUN TIME: 0 days 0 hours 20 minutes 31 seconds 669 msec
