                         Program Version 3.0.3 - RELEASE   -
|  1> ! RI-MP2 RIJK def2-TZVP def2-TZVP/C def2-TZVP/JK TIGHTSCF
|  2> % maxcore 2000
|  3> % mp2 density relaxed end
|  4> *xyz 0 1
|  5>  C        0.0302384574     1.4821992465    -0.2384266902
|  6>  O        1.4381636756     1.5786365690     0.1727992986
|  7>  C        1.2941217871     0.3429270416     0.8721779252
|  8>  C        1.9980158110    -1.0114176969     1.0195014253
|  9>  C        0.7349825591    -1.2528471297     1.9104051419
| 10>  C        0.7586775198     0.2265874894     2.3605661335
| 11>  C       -0.7634051724     0.2005404303     2.3177548000
| 12>  N       -0.6544060083    -0.8232808004     1.2106397444
| 13>  C        0.0272698675    -0.0303525398     0.1462311444
| 14>  H       -0.6001846981     2.1582075716     0.3458496312
| 15>  H       -0.0854757395     1.6947394189    -1.3043314313
| 16>  H        2.1786265812    -1.5995804865     0.1170180953
| 17>  H        2.8726248093    -1.0305149678     1.6775161210
| 18>  H        0.6248694796    -2.1051343526     2.5750157820
| 19>  H        1.3850130642     0.6062666305     3.1678429638
| 20>  H       -1.1931563207    -0.2710014762     3.2063089261
| 21>  H       -1.3455067511     1.0916189634     2.0702825896
| 22>  H        0.1698904882    -0.6533457711    -0.7379668710
| 23> *
| 24>
| 25>                          ****END OF INPUT****

CARTESIAN COORDINATES (ANGSTROEM)
---------------------------------
  C      0.030238    1.482199   -0.238427
  O      1.438164    1.578637    0.172799
  C      1.294122    0.342927    0.872178
  C      1.998016   -1.011418    1.019501
  C      0.734983   -1.252847    1.910405
  C      0.758678    0.226587    2.360566
  C     -0.763405    0.200540    2.317755
  N     -0.654406   -0.823281    1.210640
  C      0.027270   -0.030353    0.146231
  H     -0.600185    2.158208    0.345850
  H     -0.085476    1.694739   -1.304331
  H      2.178627   -1.599580    0.117018
  H      2.872625   -1.030515    1.677516
  H      0.624869   -2.105134    2.575016
  H      1.385013    0.606267    3.167843
  H     -1.193156   -0.271001    3.206309
  H     -1.345507    1.091619    2.070283
  H      0.169890   -0.653346   -0.737967

 Total Charge           Charge          ....    0
 Multiplicity           Mult            ....    1
 Number of Electrons    NEL             ....   66
 Basis Dimension        Dim             ....  333

ORBITAL ENERGIES
----------------

  NO   OCC          E(Eh)            E(eV)
   0   2.0000     -20.560113      -559.4691
   1   2.0000     -15.568411      -423.6380
   2   2.0000     -11.290767      -307.2374
   3   2.0000     -11.289848      -307.2124
   4   2.0000     -11.277268      -306.8701
   5   2.0000     -11.256423      -306.3028
   6   2.0000     -11.251989      -306.1822
   7   2.0000     -11.245429      -306.0037
   8   2.0000     -11.240422      -305.8674
   9   2.0000      -1.389909       -37.8213
  10   2.0000      -1.277267       -34.7562
  11   2.0000      -1.076502       -29.2931
  12   2.0000      -1.010202       -27.4890
  13   2.0000      -0.941174       -25.6107
  14   2.0000      -0.896411       -24.3926
  15   2.0000      -0.854328       -23.2474
  16   2.0000      -0.764357       -20.7992
  17   2.0000      -0.729564       -19.8524
  18   2.0000      -0.682444       -18.5703
  19   2.0000      -0.662225       -18.0201
  20   2.0000      -0.656798       -17.8724
  21   2.0000      -0.616296       -16.7703
  22   2.0000      -0.597285       -16.2530
  23   2.0000      -0.581650       -15.8275
  24   2.0000      -0.525988       -14.3129
  25   2.0000      -0.516804       -14.0630
  26   2.0000      -0.506498       -13.7825
  27   2.0000      -0.492614       -13.4047
  28   2.0000      -0.457904       -12.4602
  29   2.0000      -0.439142       -11.9497
  30   2.0000      -0.433883       -11.8066
  31   2.0000      -0.406510       -11.0617
  32   2.0000      -0.364251        -9.9118
  33   0.0000       0.146755         3.9934
  34   0.0000       0.150609         4.0983
  35   0.0000       0.162187         4.4133
  36   0.0000       0.169172         4.6034
  37   0.0000       0.183826         5.0022

MULLIKEN ATOMIC CHARGES
-----------------------
   0 C :   -0.021691
   1 O :   -0.318356
   2 C :    0.148507
   3 C :   -0.210746
   4 C :   -0.101233
   5 C :   -0.118767
   6 C :   -0.182211
   7 N :   -0.189221
   8 C :   -0.077104
   9 H :    0.096668
  10 H :    0.117263
  11 H :    0.127376
  12 H :    0.129889
  13 H :    0.135963
  14 H :    0.127149
  15 H :    0.123628
  16 H :    0.116538
  17 H :    0.096349
Sum of atomic charges:   -0.0000000

LOEWDIN ATOMIC CHARGES
----------------------
   0 C :   -0.218359
   1 O :    0.152706
   2 C :   -0.299839
   3 C :   -0.181137
   4 C :   -0.132849
   5 C :   -0.155666
   6 C :   -0.244162
   7 N :    0.105677
   8 C :   -0.220468
   9 H :    0.119361
  10 H :    0.121506
  11 H :    0.130435
  12 H :    0.146769
  13 H :    0.134285
  14 H :    0.138046
  15 H :    0.135247
  16 H :    0.120457
  17 H :    0.147989

  Mayer bond orders larger than 0.1
B(  0-C ,  1-O ) :   0.9163 B(  0-C ,  8-C ) :   0.9487 B(  0-C ,  9-H ) :   0.8945
B(  0-C , 10-H ) :   0.9107 B(  1-O ,  2-C ) :   0.9888 B(  2-C ,  3-C ) :   0.9317
B(  2-C ,  5-C ) :   0.8519 B(  2-C ,  8-C ) :   0.9118 B(  3-C ,  4-C ) :   0.9154
B(  3-C , 11-H ) :   0.9119 B(  3-C , 12-H ) :   0.9130 B(  4-C ,  5-C ) :   0.8935
B(  4-C ,  7-N ) :   0.8754 B(  4-C , 13-H ) :   0.9135 B(  5-C ,  6-C ) :   0.9504
B(  5-C , 14-H ) :   0.9171 B(  6-C ,  7-N ) :   0.9238 B(  6-C , 15-H ) :   0.9202
B(  6-C , 16-H ) :   0.9267 B(  7-N ,  8-C ) :   0.9562 B(  8-C , 17-H ) :   0.9255

MP2 TOTAL ENERGY:     -401.145778118 Eh
FINAL SINGLE POINT ENERGY      -401.145778117596

DIPOLE MOMENT
-------------
                                X             Y             Z
Electronic contribution:      0.84392       0.86539      -1.06265
Nuclear contribution   :     -0.82007      -0.98396       1.38971
                        -----------------------------------------
Total Dipole Moment    :      0.02385      -0.11857       0.32706
                        -----------------------------------------
Magnitude (a.u.)       :      0.34870
Magnitude (Debye)      :      0.88634

                             ****ORCA TERMINATED NORMALLY****
TOTAL RUN TIME: 0 days 0 hours 19 minutes 42 seconds 222 msec
