                         Program Version 3.0.3 - RELEASE   -
|  1> ! RI-MP2 RIJK def2-TZVP def2-TZVP/C def2-TZVP/JK TIGHTSCF
|  2> % maxcore 2000
|  3> % mp2 density relaxed end
|  4> *xyz 0 1
|  5>  N       -0.0596239348     1.3215341119     0.0067142840
|  6>  C        0.0263079995    -0.0290967468     0.0014025917
|  7>  O        1.0618649832    -0.6720607763    -0.0091682900
|  8>  C       -1.2834012573    -0.7305596066     0.0097191946
|  9>  N       -2.4613326378    -0.1777425440     0.0210571787
| 10>  N       -3.3232004031    -1.2373731542     0.0245826364
| 11>  C       -2.6986639109    -2.4817681835     0.0153632060
| 12>  O       -3.1895349597    -3.5852496809     0.0157809884
| 13>  N       -1.3558041365    -2.0959828063     0.0058758001
| 14>  H        0.7880860325     1.8626767349     0.0012119171
| 15>  H       -0.9558004465     1.7795168449     0.0151040100
| 16>  H       -4.3174608966    -1.0875863151     0.0331120818
| 17>  H       -0.5608025120    -2.7133127681    -0.0025282088
| 18> *
| 19>
| 20>                          ****END OF INPUT****

CARTESIAN COORDINATES (ANGSTROEM)
---------------------------------
  N     -0.059624    1.321534    0.006714
  C      0.026308   -0.029097    0.001403
  O      1.061865   -0.672061   -0.009168
  C     -1.283401   -0.730560    0.009719
  N     -2.461333   -0.177743    0.021057
  N     -3.323200   -1.237373    0.024583
  C     -2.698664   -2.481768    0.015363
  O     -3.189535   -3.585250    0.015781
  N     -1.355804   -2.095983    0.005876
  H      0.788086    1.862677    0.001212
  H     -0.955800    1.779517    0.015104
  H     -4.317461   -1.087586    0.033112
  H     -0.560803   -2.713313   -0.002528

 Total Charge           Charge          ....    0
 Multiplicity           Mult            ....    1
 Number of Electrons    NEL             ....   66
 Basis Dimension        Dim             ....  303

ORBITAL ENERGIES
----------------

  NO   OCC          E(Eh)            E(eV)
   0   2.0000     -20.553928      -559.3008
   1   2.0000     -20.531799      -558.6986
   2   2.0000     -15.647086      -425.7788
   3   2.0000     -15.638687      -425.5503
   4   2.0000     -15.634773      -425.4438
   5   2.0000     -15.609399      -424.7533
   6   2.0000     -11.402687      -310.2829
   7   2.0000     -11.393184      -310.0243
   8   2.0000     -11.346785      -308.7617
   9   2.0000      -1.453916       -39.5631
  10   2.0000      -1.415742       -38.5243
  11   2.0000      -1.374343       -37.3978
  12   2.0000      -1.250667       -34.0324
  13   2.0000      -1.244205       -33.8565
  14   2.0000      -1.133253       -30.8374
  15   2.0000      -0.942577       -25.6488
  16   2.0000      -0.898801       -24.4576
  17   2.0000      -0.828107       -22.5339
  18   2.0000      -0.780008       -21.2251
  19   2.0000      -0.730152       -19.8684
  20   2.0000      -0.702451       -19.1147
  21   2.0000      -0.701875       -19.0990
  22   2.0000      -0.688495       -18.7349
  23   2.0000      -0.641573       -17.4581
  24   2.0000      -0.633223       -17.2309
  25   2.0000      -0.607117       -16.5205
  26   2.0000      -0.543207       -14.7814
  27   2.0000      -0.529237       -14.4013
  28   2.0000      -0.490145       -13.3375
  29   2.0000      -0.475963       -12.9516
  30   2.0000      -0.451372       -12.2825
  31   2.0000      -0.443122       -12.0580
  32   2.0000      -0.361335        -9.8324
  33   0.0000       0.084279         2.2933
  34   0.0000       0.125675         3.4198
  35   0.0000       0.136310         3.7092
  36   0.0000       0.159736         4.3466
  37   0.0000       0.181068         4.9271

MULLIKEN ATOMIC CHARGES
-----------------------
   0 N :   -0.455983
   1 C :    0.224415
   2 O :   -0.356918
   3 C :    0.222554
   4 N :   -0.206954
   5 N :   -0.190845
   6 C :    0.295121
   7 O :   -0.348153
   8 N :   -0.290185
   9 H :    0.268412
  10 H :    0.282415
  11 H :    0.270996
  12 H :    0.285124
Sum of atomic charges:   -0.0000000

LOEWDIN ATOMIC CHARGES
----------------------
   0 N :    0.015380
   1 C :   -0.463933
   2 O :    0.088946
   3 C :   -0.313266
   4 N :    0.051825
   5 N :    0.107872
   6 C :   -0.520040
   7 O :    0.066711
   8 N :    0.203632
   9 H :    0.179831
  10 H :    0.182192
  11 H :    0.191080
  12 H :    0.209772

  Mayer bond orders larger than 0.1
B(  0-N ,  1-C ) :   1.2395 B(  0-N ,  9-H ) :   0.8571 B(  0-N , 10-H ) :   0.8540
B(  1-C ,  2-O ) :   1.9470 B(  1-C ,  3-C ) :   0.9037 B(  3-C ,  4-N ) :   1.6246
B(  3-C ,  8-N ) :   1.1294 B(  4-N ,  5-N ) :   0.9879 B(  5-N ,  6-C ) :   1.0841
B(  5-N , 11-H ) :   0.8672 B(  6-C ,  7-O ) :   2.0112 B(  6-C ,  8-N ) :   1.0460
B(  8-N , 12-H ) :   0.8452

MP2 TOTAL ENERGY:     -485.383301544 Eh
FINAL SINGLE POINT ENERGY      -485.383301543730

DIPOLE MOMENT
-------------
                                X             Y             Z
Electronic contribution:     -0.90863      -2.25912      -0.00011
Nuclear contribution   :      0.76332       3.87097       0.00620
                        -----------------------------------------
Total Dipole Moment    :     -0.14532       1.61185       0.00609
                        -----------------------------------------
Magnitude (a.u.)       :      1.61840
Magnitude (Debye)      :      4.11365

                             ****ORCA TERMINATED NORMALLY****
TOTAL RUN TIME: 0 days 0 hours 12 minutes 50 seconds 53 msec
