                         Program Version 3.0.3 - RELEASE   -
|  1> ! RI-MP2 RIJK def2-TZVP def2-TZVP/C def2-TZVP/JK TIGHTSCF
|  2> % maxcore 2000
|  3> % mp2 density relaxed end
|  4> *xyz 0 1
|  5>  C       -0.0123088818    -1.1622998459     0.1034901096
|  6>  C       -0.0245446641     0.0398072652     0.0669526243
|  7>  C       -0.0014587860     1.4685681272    -0.0078590662
|  8>  C       -0.8622204199     2.2427534702    -1.0316342197
|  9>  C       -0.0929451812     3.5632416596    -0.8150454342
| 10>  N        1.2967007696     3.2626527511    -1.2617099427
| 11>  C        1.3600474290     2.3635680080    -0.1201359064
| 12>  C        0.4144384195     3.2634991776     0.6787805708
| 13>  O       -0.3419738404     2.1890267124     1.2248448514
| 14>  H       -0.0092175211    -2.2236208132     0.1429983693
| 15>  H       -0.7847981481     1.8800244756    -2.0599850453
| 16>  H       -1.9058563224     2.2536188532    -0.7123802114
| 17>  H       -0.5359053841     4.5049956179    -1.1339320845
| 18>  H        1.3641298868     2.8252869245    -2.1803667649
| 19>  H        2.3000581280     1.9263957942     0.2107800464
| 20>  H        0.6750439761     4.0679268524     1.3609888434
| 21> *
| 22>
| 23>                          ****END OF INPUT****

CARTESIAN COORDINATES (ANGSTROEM)
---------------------------------
  C     -0.012309   -1.162300    0.103490
  C     -0.024545    0.039807    0.066953
  C     -0.001459    1.468568   -0.007859
  C     -0.862220    2.242753   -1.031634
  C     -0.092945    3.563242   -0.815045
  N      1.296701    3.262653   -1.261710
  C      1.360047    2.363568   -0.120136
  C      0.414438    3.263499    0.678781
  O     -0.341974    2.189027    1.224845
  H     -0.009218   -2.223621    0.142998
  H     -0.784798    1.880024   -2.059985
  H     -1.905856    2.253619   -0.712380
  H     -0.535905    4.504996   -1.133932
  H      1.364130    2.825287   -2.180367
  H      2.300058    1.926396    0.210780
  H      0.675044    4.067927    1.360989

 Total Charge           Charge          ....    0
 Multiplicity           Mult            ....    1
 Number of Electrons    NEL             ....   64
 Basis Dimension        Dim             ....  321

ORBITAL ENERGIES
----------------

  NO   OCC          E(Eh)            E(eV)
   0   2.0000     -20.563974      -559.5742
   1   2.0000     -15.562097      -423.4662
   2   2.0000     -11.321021      -308.0606
   3   2.0000     -11.296266      -307.3870
   4   2.0000     -11.278587      -306.9059
   5   2.0000     -11.276082      -306.8378
   6   2.0000     -11.242711      -305.9297
   7   2.0000     -11.240114      -305.8590
   8   2.0000     -11.237611      -305.7909
   9   2.0000      -1.413476       -38.4626
  10   2.0000      -1.255002       -34.1503
  11   2.0000      -1.067339       -29.0438
  12   2.0000      -1.018169       -27.7058
  13   2.0000      -0.959585       -26.1116
  14   2.0000      -0.947969       -25.7955
  15   2.0000      -0.820414       -22.3246
  16   2.0000      -0.771150       -20.9841
  17   2.0000      -0.735110       -20.0033
  18   2.0000      -0.708705       -19.2848
  19   2.0000      -0.693995       -18.8846
  20   2.0000      -0.650915       -17.7123
  21   2.0000      -0.626426       -17.0459
  22   2.0000      -0.569831       -15.5059
  23   2.0000      -0.548554       -14.9269
  24   2.0000      -0.518775       -14.1166
  25   2.0000      -0.511351       -13.9146
  26   2.0000      -0.487234       -13.2583
  27   2.0000      -0.471891       -12.8408
  28   2.0000      -0.432086       -11.7577
  29   2.0000      -0.413359       -11.2481
  30   2.0000      -0.401671       -10.9300
  31   2.0000      -0.362937        -9.8760
  32   0.0000       0.135540         3.6882
  33   0.0000       0.148272         4.0347
  34   0.0000       0.155814         4.2399
  35   0.0000       0.164420         4.4741
  36   0.0000       0.171774         4.6742

MULLIKEN ATOMIC CHARGES
-----------------------
   0 C :   -0.079846
   1 C :    0.033704
   2 C :   -0.043521
   3 C :   -0.259845
   4 C :   -0.035529
   5 N :   -0.309327
   6 C :   -0.086842
   7 C :   -0.004996
   8 O :   -0.294063
   9 H :    0.197008
  10 H :    0.127062
  11 H :    0.130851
  12 H :    0.139367
  13 H :    0.206149
  14 H :    0.140080
  15 H :    0.139749
Sum of atomic charges:    0.0000000

LOEWDIN ATOMIC CHARGES
----------------------
   0 C :   -0.065890
   1 C :   -0.067969
   2 C :   -0.260190
   3 C :   -0.186647
   4 C :   -0.218694
   5 N :    0.038005
   6 C :   -0.189242
   7 C :   -0.223021
   8 O :    0.198181
   9 H :    0.129439
  10 H :    0.139885
  11 H :    0.146978
  12 H :    0.130580
  13 H :    0.159455
  14 H :    0.136061
  15 H :    0.133070

  Mayer bond orders larger than 0.1
B(  0-C ,  1-C ) :   2.6229 B(  0-C ,  2-C ) :  -0.1780 B(  0-C ,  9-H ) :   0.8664
B(  1-C ,  2-C ) :   1.1831 B(  2-C ,  3-C ) :   0.9234 B(  2-C ,  6-C ) :   0.7824
B(  2-C ,  8-O ) :   0.9418 B(  3-C ,  4-C ) :   0.9398 B(  3-C , 10-H ) :   0.9225
B(  3-C , 11-H ) :   0.9141 B(  4-C ,  5-N ) :   0.9672 B(  4-C ,  7-C ) :   0.8539
B(  4-C , 12-H ) :   0.9131 B(  5-N ,  6-C ) :   1.0144 B(  5-N , 13-H ) :   0.8706
B(  6-C ,  7-C ) :   0.9242 B(  6-C , 14-H ) :   0.9171 B(  7-C ,  8-O ) :   0.9783
B(  7-C , 15-H ) :   0.9000

MP2 TOTAL ENERGY:     -399.961787808 Eh
FINAL SINGLE POINT ENERGY      -399.961787808100

DIPOLE MOMENT
-------------
                                X             Y             Z
Electronic contribution:      0.25882      -1.55482       2.54193
Nuclear contribution   :     -0.22346       1.42472      -3.22030
                        -----------------------------------------
Total Dipole Moment    :      0.03536      -0.13010      -0.67838
                        -----------------------------------------
Magnitude (a.u.)       :      0.69164
Magnitude (Debye)      :      1.75801

                             ****ORCA TERMINATED NORMALLY****
TOTAL RUN TIME: 0 days 0 hours 17 minutes 28 seconds 862 msec
