                         Program Version 3.0.3 - RELEASE   -
|  1> ! RI-MP2 RIJK def2-TZVP def2-TZVP/C def2-TZVP/JK TIGHTSCF
|  2> % maxcore 2000
|  3> % mp2 density relaxed end
|  4> *xyz 0 1
|  5>  C        0.0947847887     1.3602409254    -0.1135784680
|  6>  O       -0.0336917526    -0.0136959905     0.2011144666
|  7>  C       -1.3105100332    -0.5443064075     0.0797627280
|  8>  C       -1.3330280276    -2.0749337188    -0.0658491489
|  9>  O       -2.2413186786    -1.9848646266    -1.1967582901
| 10>  C       -2.1866999765    -0.5366445680    -1.1984899170
| 11>  C       -3.3166314227     0.1984049689    -0.4373087940
| 12>  C       -3.7692713487    -0.6138858319     0.7383124401
| 13>  C       -2.4751959769     0.1451667467     0.8504024190
| 14>  H        1.1536244127     1.6063636709    -0.0102908881
| 15>  H       -0.2189634232     1.5700565554    -1.1458205314
| 16>  H       -0.4855746951     2.0004296310     0.5632646672
| 17>  H       -0.3577585923    -2.4758183524    -0.3638979024
| 18>  H       -1.7477017050    -2.6654447859     0.7578572716
| 19>  H       -1.8846310686    -0.1206745454    -2.1619878298
| 20>  H       -3.9059294324     1.0112842606    -0.8446832477
| 21>  H       -4.5914684879    -0.1865365509     1.3036977565
| 22>  H       -3.7941863137    -1.6953076860     0.6650709663
| 23>  H       -2.3327335765     0.9014505049     1.6127605722
| 24> *
| 25>
| 26>                          ****END OF INPUT****

CARTESIAN COORDINATES (ANGSTROEM)
---------------------------------
  C      0.094785    1.360241   -0.113578
  O     -0.033692   -0.013696    0.201114
  C     -1.310510   -0.544306    0.079763
  C     -1.333028   -2.074934   -0.065849
  O     -2.241319   -1.984865   -1.196758
  C     -2.186700   -0.536645   -1.198490
  C     -3.316631    0.198405   -0.437309
  C     -3.769271   -0.613886    0.738312
  C     -2.475196    0.145167    0.850402
  H      1.153624    1.606364   -0.010291
  H     -0.218963    1.570057   -1.145821
  H     -0.485575    2.000430    0.563265
  H     -0.357759   -2.475818   -0.363898
  H     -1.747702   -2.665445    0.757857
  H     -1.884631   -0.120675   -2.161988
  H     -3.905929    1.011284   -0.844683
  H     -4.591468   -0.186537    1.303698
  H     -3.794186   -1.695308    0.665071
  H     -2.332734    0.901451    1.612761

 Total Charge           Charge          ....    0
 Multiplicity           Mult            ....    1
 Number of Electrons    NEL             ....   68
 Basis Dimension        Dim             ....  339

ORBITAL ENERGIES
----------------

  NO   OCC          E(Eh)            E(eV)
   0   2.0000     -20.568916      -559.7086
   1   2.0000     -20.547812      -559.1344
   2   2.0000     -11.293255      -307.3051
   3   2.0000     -11.282607      -307.0153
   4   2.0000     -11.278884      -306.9140
   5   2.0000     -11.273088      -306.7563
   6   2.0000     -11.241700      -305.9022
   7   2.0000     -11.239097      -305.8314
   8   2.0000     -11.234722      -305.7123
   9   2.0000      -1.400479       -38.1090
  10   2.0000      -1.367199       -37.2034
  11   2.0000      -1.176514       -32.0146
  12   2.0000      -1.002546       -27.2807
  13   2.0000      -0.948230       -25.8027
  14   2.0000      -0.916339       -24.9349
  15   2.0000      -0.842906       -22.9366
  16   2.0000      -0.797304       -21.6957
  17   2.0000      -0.725636       -19.7456
  18   2.0000      -0.716350       -19.4929
  19   2.0000      -0.683982       -18.6121
  20   2.0000      -0.654665       -17.8143
  21   2.0000      -0.639623       -17.4050
  22   2.0000      -0.620017       -16.8715
  23   2.0000      -0.592546       -16.1240
  24   2.0000      -0.565899       -15.3989
  25   2.0000      -0.559232       -15.2175
  26   2.0000      -0.545635       -14.8475
  27   2.0000      -0.509284       -13.8583
  28   2.0000      -0.494555       -13.4575
  29   2.0000      -0.469102       -12.7649
  30   2.0000      -0.433892       -11.8068
  31   2.0000      -0.414028       -11.2663
  32   2.0000      -0.405481       -11.0337
  33   2.0000      -0.368174       -10.0185
  34   0.0000       0.137666         3.7461
  35   0.0000       0.159203         4.3321
  36   0.0000       0.161428         4.3927
  37   0.0000       0.172426         4.6919
  38   0.0000       0.193390         5.2624

MULLIKEN ATOMIC CHARGES
-----------------------
   0 C :   -0.216912
   1 O :   -0.302661
   2 C :    0.255523
   3 C :   -0.046479
   4 O :   -0.339661
   5 C :    0.031003
   6 C :   -0.163406
   7 C :   -0.250239
   8 C :   -0.232561
   9 H :    0.146609
  10 H :    0.115688
  11 H :    0.118672
  12 H :    0.109623
  13 H :    0.107053
  14 H :    0.112600
  15 H :    0.135849
  16 H :    0.132482
  17 H :    0.154633
  18 H :    0.132184
Sum of atomic charges:    0.0000000

LOEWDIN ATOMIC CHARGES
----------------------
   0 C :   -0.336626
   1 O :    0.195289
   2 C :   -0.311375
   3 C :   -0.222974
   4 O :    0.131213
   5 C :   -0.203837
   6 C :   -0.162140
   7 C :   -0.197574
   8 C :   -0.147796
   9 H :    0.115589
  10 H :    0.104868
  11 H :    0.104941
  12 H :    0.126001
  13 H :    0.119023
  14 H :    0.132785
  15 H :    0.134384
  16 H :    0.141675
  17 H :    0.139032
  18 H :    0.137522

  Mayer bond orders larger than 0.1
B(  0-C ,  1-O ) :   0.8920 B(  0-C ,  9-H ) :   0.9403 B(  0-C , 10-H ) :   0.9318
B(  0-C , 11-H ) :   0.9330 B(  1-O ,  2-C ) :   1.0371 B(  2-C ,  3-C ) :   0.9736
B(  2-C ,  5-C ) :   0.9898 B(  2-C ,  8-C ) :   0.8824 B(  3-C ,  4-O ) :   0.9339
B(  3-C , 12-H ) :   0.9000 B(  3-C , 13-H ) :   0.9215 B(  4-O ,  5-C ) :   0.9615
B(  5-C ,  6-C ) :   0.8677 B(  5-C , 14-H ) :   0.9200 B(  6-C ,  7-C ) :   0.8842
B(  6-C ,  8-C ) :   0.8646 B(  6-C , 15-H ) :   0.9184 B(  7-C ,  8-C ) :   0.8909
B(  7-C , 16-H ) :   0.9304 B(  7-C , 17-H ) :   0.9176 B(  8-C , 18-H ) :   0.9213

MP2 TOTAL ENERGY:     -422.235434598 Eh
FINAL SINGLE POINT ENERGY      -422.235434598292

DIPOLE MOMENT
-------------
                                X             Y             Z
Electronic contribution:      0.15307      -3.25607      -1.34558
Nuclear contribution   :     -0.18434       4.16023       1.62957
                        -----------------------------------------
Total Dipole Moment    :     -0.03127       0.90415       0.28399
                        -----------------------------------------
Magnitude (a.u.)       :      0.94822
Magnitude (Debye)      :      2.41018

                             ****ORCA TERMINATED NORMALLY****
TOTAL RUN TIME: 0 days 0 hours 17 minutes 17 seconds 325 msec
