                         Program Version 3.0.3 - RELEASE   -
|  1> ! RI-MP2 RIJK def2-TZVP def2-TZVP/C def2-TZVP/JK TIGHTSCF
|  2> % maxcore 2000
|  3> % mp2 density relaxed end
|  4> *xyz 0 1
|  5>  O        0.2069491487    -0.0344415548    -0.0005374461
|  6>  C        0.0734362869     1.1597247455     0.0080864766
|  7>  C       -1.1128085708     2.1542872440     0.0310574971
|  8>  C       -0.0380330889     3.2819253944     0.0215642411
|  9>  C        0.0423332306     4.2326500378    -1.1984826463
| 10>  C        0.7612568288     5.4395547477    -0.6448210642
| 11>  C        0.7808344207     5.4321174853     0.6882185462
| 12>  C        0.0782815395     4.2189938362     1.2492548210
| 13>  N        0.9676778435     2.2008008569     0.0007622667
| 14>  H       -1.7524190388     2.1084696273    -0.8525015775
| 15>  H       -1.7262040447     2.0985106776     0.9324522059
| 16>  H        0.5501404376     3.7542532487    -2.0427247722
| 17>  H       -0.9633158370     4.5059588321    -1.5485394510
| 18>  H        1.1675310304     6.2215560292    -1.2760471169
| 19>  H        1.2055978352     6.2070949843     1.3159262717
| 20>  H       -0.9166095029     4.4882160239     1.6317188856
| 21>  H        0.6105826449     3.7312919816     2.0728316697
| 22>  H        1.9773821766     2.2214089824    -0.0139528875
| 23> *
| 24>
| 25>                          ****END OF INPUT****

CARTESIAN COORDINATES (ANGSTROEM)
---------------------------------
  O      0.206949   -0.034442   -0.000537
  C      0.073436    1.159725    0.008086
  C     -1.112809    2.154287    0.031057
  C     -0.038033    3.281925    0.021564
  C      0.042333    4.232650   -1.198483
  C      0.761257    5.439555   -0.644821
  C      0.780834    5.432117    0.688219
  C      0.078282    4.218994    1.249255
  N      0.967678    2.200801    0.000762
  H     -1.752419    2.108470   -0.852502
  H     -1.726204    2.098511    0.932452
  H      0.550140    3.754253   -2.042725
  H     -0.963316    4.505959   -1.548539
  H      1.167531    6.221556   -1.276047
  H      1.205598    6.207095    1.315926
  H     -0.916610    4.488216    1.631719
  H      0.610583    3.731292    2.072832
  H      1.977382    2.221409   -0.013953

 Total Charge           Charge          ....    0
 Multiplicity           Mult            ....    1
 Number of Electrons    NEL             ....   66
 Basis Dimension        Dim             ....  333

ORBITAL ENERGIES
----------------

  NO   OCC          E(Eh)            E(eV)
   0   2.0000     -20.520211      -558.3833
   1   2.0000     -15.578407      -423.9100
   2   2.0000     -11.347574      -308.7832
   3   2.0000     -11.293043      -307.2993
   4   2.0000     -11.245619      -306.0088
   5   2.0000     -11.239695      -305.8476
   6   2.0000     -11.239518      -305.8428
   7   2.0000     -11.239028      -305.8295
   8   2.0000     -11.237497      -305.7878
   9   2.0000      -1.382755       -37.6267
  10   2.0000      -1.270288       -34.5663
  11   2.0000      -1.135032       -30.8858
  12   2.0000      -1.007754       -27.4224
  13   2.0000      -0.977781       -26.6068
  14   2.0000      -0.943356       -25.6700
  15   2.0000      -0.794816       -21.6280
  16   2.0000      -0.781302       -21.2603
  17   2.0000      -0.751031       -20.4366
  18   2.0000      -0.697112       -18.9694
  19   2.0000      -0.660192       -17.9647
  20   2.0000      -0.636240       -17.3130
  21   2.0000      -0.635247       -17.2860
  22   2.0000      -0.598649       -16.2901
  23   2.0000      -0.576891       -15.6980
  24   2.0000      -0.552172       -15.0254
  25   2.0000      -0.526925       -14.3384
  26   2.0000      -0.526587       -14.3292
  27   2.0000      -0.510692       -13.8966
  28   2.0000      -0.495840       -13.4925
  29   2.0000      -0.491089       -13.3632
  30   2.0000      -0.412543       -11.2259
  31   2.0000      -0.390418       -10.6238
  32   2.0000      -0.361884        -9.8474
  33   0.0000       0.123664         3.3651
  34   0.0000       0.141946         3.8626
  35   0.0000       0.161390         4.3916
  36   0.0000       0.163623         4.4524
  37   0.0000       0.164083         4.4649

MULLIKEN ATOMIC CHARGES
-----------------------
   0 O :   -0.314640
   1 C :    0.190807
   2 C :   -0.216508
   3 C :    0.248687
   4 C :   -0.219129
   5 C :   -0.195595
   6 C :   -0.195595
   7 C :   -0.219129
   8 N :   -0.365919
   9 H :    0.133520
  10 H :    0.133520
  11 H :    0.135442
  12 H :    0.124373
  13 H :    0.132627
  14 H :    0.132627
  15 H :    0.124373
  16 H :    0.135442
  17 H :    0.235099
Sum of atomic charges:   -0.0000000

LOEWDIN ATOMIC CHARGES
----------------------
   0 O :    0.097430
   1 C :   -0.440874
   2 C :   -0.165448
   3 C :   -0.238682
   4 C :   -0.203929
   5 C :   -0.161860
   6 C :   -0.161860
   7 C :   -0.203929
   8 N :    0.162611
   9 H :    0.142849
  10 H :    0.142849
  11 H :    0.143408
  12 H :    0.148021
  13 H :    0.137254
  14 H :    0.137254
  15 H :    0.148021
  16 H :    0.143408
  17 H :    0.173479

  Mayer bond orders larger than 0.1
B(  0-O ,  1-C ) :   2.0373 B(  1-C ,  2-C ) :   0.8928 B(  1-C ,  8-N ) :   1.1618
B(  2-C ,  3-C ) :   0.8485 B(  2-C ,  9-H ) :   0.9028 B(  2-C , 10-H ) :   0.9028
B(  3-C ,  4-C ) :   0.9071 B(  3-C ,  7-C ) :   0.9071 B(  3-C ,  8-N ) :   0.8684
B(  4-C ,  5-C ) :   0.9412 B(  4-C , 11-H ) :   0.9254 B(  4-C , 12-H ) :   0.9045
B(  5-C ,  6-C ) :   1.7838 B(  5-C , 13-H ) :   0.9287 B(  6-C ,  7-C ) :   0.9412
B(  6-C , 14-H ) :   0.9287 B(  7-C , 15-H ) :   0.9045 B(  7-C , 16-H ) :   0.9254
B(  8-N , 17-H ) :   0.8561

MP2 TOTAL ENERGY:     -401.285975199 Eh
FINAL SINGLE POINT ENERGY      -401.285975198892

DIPOLE MOMENT
-------------
                                X             Y             Z
Electronic contribution:      1.52698      -5.62332      -0.05380
Nuclear contribution   :     -1.50116       7.23971       0.06244
                        -----------------------------------------
Total Dipole Moment    :      0.02582       1.61640       0.00864
                        -----------------------------------------
Magnitude (a.u.)       :      1.61663
Magnitude (Debye)      :      4.10914

                             ****ORCA TERMINATED NORMALLY****
TOTAL RUN TIME: 0 days 0 hours 16 minutes 50 seconds 825 msec
