                         Program Version 3.0.3 - RELEASE   -
|  1> ! RI-MP2 RIJK def2-TZVP def2-TZVP/C def2-TZVP/JK TIGHTSCF
|  2> % maxcore 2000
|  3> % mp2 density relaxed end
|  4> *xyz 0 1
|  5>  O       -0.0264493949    -0.0220092317     0.1622651992
|  6>  C       -0.0063766278     1.1754742485     0.0684975343
|  7>  N       -1.1477232134     1.9564130077     0.0102896526
|  8>  C       -1.1056306523     3.3245540768    -0.0962386299
|  9>  N       -0.0530372496     4.0469066421    -0.1545338125
| 10>  O        1.1745887776     3.3553693109    -0.1032453190
| 11>  C        1.2871978786     1.9904656435     0.0023202171
| 12>  O        2.3676614978     1.4905804548     0.0401786212
| 13>  H       -2.0348237175     1.4708177141     0.0500359733
| 14>  H       -2.0537110382     3.8487854733    -0.1349715261
| 15> *
| 16>
| 17>                          ****END OF INPUT****

CARTESIAN COORDINATES (ANGSTROEM)
---------------------------------
  O     -0.026449   -0.022009    0.162265
  C     -0.006377    1.175474    0.068498
  N     -1.147723    1.956413    0.010290
  C     -1.105631    3.324554   -0.096239
  N     -0.053037    4.046907   -0.154534
  O      1.174589    3.355369   -0.103245
  C      1.287198    1.990466    0.002320
  O      2.367661    1.490580    0.040179
  H     -2.034824    1.470818    0.050036
  H     -2.053711    3.848785   -0.134972

 Total Charge           Charge          ....    0
 Multiplicity           Mult            ....    1
 Number of Electrons    NEL             ....   58
 Basis Dimension        Dim             ....  260

ORBITAL ENERGIES
----------------

  NO   OCC          E(Eh)            E(eV)
   0   2.0000     -20.662386      -562.2521
   1   2.0000     -20.590906      -560.3070
   2   2.0000     -20.584702      -560.1382
   3   2.0000     -15.669979      -426.4018
   4   2.0000     -15.665948      -426.2921
   5   2.0000     -11.422948      -310.8342
   6   2.0000     -11.419894      -310.7511
   7   2.0000     -11.375309      -309.5379
   8   2.0000      -1.516801       -41.2742
   9   2.0000      -1.452074       -39.5130
  10   2.0000      -1.422182       -38.6995
  11   2.0000      -1.326656       -36.1001
  12   2.0000      -1.200444       -32.6657
  13   2.0000      -0.983118       -26.7520
  14   2.0000      -0.941216       -25.6118
  15   2.0000      -0.823796       -22.4166
  16   2.0000      -0.789519       -21.4839
  17   2.0000      -0.741897       -20.1880
  18   2.0000      -0.706941       -19.2368
  19   2.0000      -0.690235       -18.7823
  20   2.0000      -0.679755       -18.4971
  21   2.0000      -0.627040       -17.0626
  22   2.0000      -0.607053       -16.5188
  23   2.0000      -0.580826       -15.8051
  24   2.0000      -0.554221       -15.0811
  25   2.0000      -0.506878       -13.7929
  26   2.0000      -0.503948       -13.7131
  27   2.0000      -0.464214       -12.6319
  28   2.0000      -0.412484       -11.2243
  29   0.0000       0.058323         1.5870
  30   0.0000       0.100819         2.7434
  31   0.0000       0.113618         3.0917
  32   0.0000       0.158007         4.2996
  33   0.0000       0.164661         4.4806

MULLIKEN ATOMIC CHARGES
-----------------------
   0 O :   -0.255175
   1 C :    0.208289
   2 N :   -0.266941
   3 C :    0.069297
   4 N :   -0.114561
   5 O :   -0.109538
   6 C :    0.251687
   7 O :   -0.226254
   8 H :    0.266812
   9 H :    0.176382
Sum of atomic charges:   -0.0000000

LOEWDIN ATOMIC CHARGES
----------------------
   0 O :    0.172015
   1 C :   -0.402191
   2 N :    0.160351
   3 C :   -0.320228
   4 N :    0.038878
   5 O :    0.231473
   6 C :   -0.443385
   7 O :    0.199828
   8 H :    0.209835
   9 H :    0.153424

  Mayer bond orders larger than 0.1
B(  0-O ,  1-C ) :   1.9983 B(  1-C ,  2-N ) :   1.0628 B(  1-C ,  6-C ) :   0.8775
B(  2-N ,  3-C ) :   1.0585 B(  2-N ,  8-H ) :   0.8448 B(  3-C ,  4-N ) :   1.7487
B(  3-C ,  9-H ) :   0.9079 B(  4-N ,  5-O ) :   0.7838 B(  5-O ,  6-C ) :   1.0924
B(  6-C ,  7-O ) :   2.0215

MP2 TOTAL ENERGY:     -449.903112392 Eh
FINAL SINGLE POINT ENERGY      -449.903112392455

DIPOLE MOMENT
-------------
                                X             Y             Z
Electronic contribution:      2.22020      -0.54847       0.03715
Nuclear contribution   :     -4.42402       0.95279      -0.06505
                        -----------------------------------------
Total Dipole Moment    :     -2.20382       0.40431      -0.02790
                        -----------------------------------------
Magnitude (a.u.)       :      2.24078
Magnitude (Debye)      :      5.69560

                             ****ORCA TERMINATED NORMALLY****
TOTAL RUN TIME: 0 days 0 hours 7 minutes 50 seconds 469 msec
