                         Program Version 3.0.3 - RELEASE   -
|  1> ! RI-MP2 RIJK def2-TZVP def2-TZVP/C def2-TZVP/JK TIGHTSCF
|  2> % maxcore 2000
|  3> % mp2 density relaxed end
|  4> *xyz 0 1
|  5>  O       -0.1207210243     0.2586669191     0.8175069053
|  6>  C       -0.0753789428     1.2496853645     0.1193212508
|  7>  C       -1.3020441887     1.7895986091    -0.5338389451
|  8>  C       -1.6698283863     3.0791217696    -0.5135441834
|  9>  C       -0.9255412026     4.2215279597     0.0219379318
| 10>  C        0.3987245154     4.3340827053     0.1887943831
| 11>  C        1.4056805575     3.3145728070    -0.1931927906
| 12>  C        2.0539175039     2.3959822336     0.8201626314
| 13>  N        1.1194541294     1.8996621741    -0.1596815388
| 14>  H       -1.9927079624     1.0312117269    -0.8877670001
| 15>  H       -2.6634767203     3.3205513188    -0.8853535856
| 16>  H       -1.5384713171     5.0794055287     0.2886744222
| 17>  H        0.8030202607     5.2689425297     0.5709136815
| 18>  H        2.0393025041     3.6123962610    -1.0315575908
| 19>  H        3.0926206834     2.1033706183     0.6937008874
| 20>  H        1.7054904401     2.4515922245     1.8480070210
| 21> *
| 22>
| 23>                          ****END OF INPUT****

CARTESIAN COORDINATES (ANGSTROEM)
---------------------------------
  O     -0.120721    0.258667    0.817507
  C     -0.075379    1.249685    0.119321
  C     -1.302044    1.789599   -0.533839
  C     -1.669828    3.079122   -0.513544
  C     -0.925541    4.221528    0.021938
  C      0.398725    4.334083    0.188794
  C      1.405681    3.314573   -0.193193
  C      2.053918    2.395982    0.820163
  N      1.119454    1.899662   -0.159682
  H     -1.992708    1.031212   -0.887767
  H     -2.663477    3.320551   -0.885354
  H     -1.538471    5.079406    0.288674
  H      0.803020    5.268943    0.570914
  H      2.039303    3.612396   -1.031558
  H      3.092621    2.103371    0.693701
  H      1.705490    2.451592    1.848007

 Total Charge           Charge          ....    0
 Multiplicity           Mult            ....    1
 Number of Electrons    NEL             ....   64
 Basis Dimension        Dim             ....  321

ORBITAL ENERGIES
----------------

  NO   OCC          E(Eh)            E(eV)
   0   2.0000     -20.530578      -558.6654
   1   2.0000     -15.587625      -424.1608
   2   2.0000     -11.357462      -309.0522
   3   2.0000     -11.294172      -307.3300
   4   2.0000     -11.280612      -306.9611
   5   2.0000     -11.264211      -306.5148
   6   2.0000     -11.260857      -306.4235
   7   2.0000     -11.256998      -306.3185
   8   2.0000     -11.250778      -306.1492
   9   2.0000      -1.393215       -37.9113
  10   2.0000      -1.299924       -35.3727
  11   2.0000      -1.118909       -30.4471
  12   2.0000      -1.060270       -28.8514
  13   2.0000      -0.967193       -26.3187
  14   2.0000      -0.920757       -25.0551
  15   2.0000      -0.844976       -22.9930
  16   2.0000      -0.771405       -20.9910
  17   2.0000      -0.742443       -20.2029
  18   2.0000      -0.709634       -19.3101
  19   2.0000      -0.677400       -18.4330
  20   2.0000      -0.641489       -17.4558
  21   2.0000      -0.627440       -17.0735
  22   2.0000      -0.608596       -16.5607
  23   2.0000      -0.568239       -15.4626
  24   2.0000      -0.540936       -14.7196
  25   2.0000      -0.535947       -14.5838
  26   2.0000      -0.509656       -13.8684
  27   2.0000      -0.489532       -13.3208
  28   2.0000      -0.460000       -12.5172
  29   2.0000      -0.425875       -11.5886
  30   2.0000      -0.395405       -10.7595
  31   2.0000      -0.339726        -9.2444
  32   0.0000       0.066208         1.8016
  33   0.0000       0.140531         3.8240
  34   0.0000       0.155302         4.2260
  35   0.0000       0.169630         4.6159
  36   0.0000       0.175277         4.7695

MULLIKEN ATOMIC CHARGES
-----------------------
   0 O :   -0.308064
   1 C :    0.241219
   2 C :   -0.160873
   3 C :   -0.120798
   4 C :   -0.113094
   5 C :   -0.198939
   6 C :    0.009871
   7 C :   -0.157079
   8 N :   -0.158531
   9 H :    0.146416
  10 H :    0.135374
  11 H :    0.132962
  12 H :    0.135007
  13 H :    0.140206
  14 H :    0.137129
  15 H :    0.139197
Sum of atomic charges:   -0.0000000

LOEWDIN ATOMIC CHARGES
----------------------
   0 O :    0.133171
   1 C :   -0.415631
   2 C :   -0.112336
   3 C :   -0.140054
   4 C :   -0.150477
   5 C :   -0.140104
   6 C :   -0.217627
   7 C :   -0.200556
   8 N :    0.208952
   9 H :    0.156991
  10 H :    0.154025
  11 H :    0.153568
  12 H :    0.152354
  13 H :    0.153974
  14 H :    0.129312
  15 H :    0.134441

  Mayer bond orders larger than 0.1
B(  0-O ,  1-C ) :   1.9628 B(  1-C ,  2-C ) :   0.9366 B(  1-C ,  8-N ) :   1.0403
B(  2-C ,  3-C ) :   1.7169 B(  2-C ,  9-H ) :   0.9164 B(  3-C ,  4-C ) :   0.9794
B(  3-C , 10-H ) :   0.9200 B(  4-C ,  5-C ) :   1.7777 B(  4-C , 11-H ) :   0.9217
B(  5-C ,  6-C ) :   0.9421 B(  5-C , 12-H ) :   0.9182 B(  6-C ,  7-C ) :   0.9152
B(  6-C ,  8-N ) :   0.8814 B(  6-C , 13-H ) :   0.9089 B(  7-C ,  8-N ) :   0.8781
B(  7-C , 14-H ) :   0.9182 B(  7-C , 15-H ) :   0.9165

MP2 TOTAL ENERGY:     -400.043072321 Eh
FINAL SINGLE POINT ENERGY      -400.043072321348

DIPOLE MOMENT
-------------
                                X             Y             Z
Electronic contribution:     -0.49293      -3.75998      -0.27755
Nuclear contribution   :      0.60863       5.22818       0.00764
                        -----------------------------------------
Total Dipole Moment    :      0.11570       1.46820      -0.26991
                        -----------------------------------------
Magnitude (a.u.)       :      1.49728
Magnitude (Debye)      :      3.80578

                             ****ORCA TERMINATED NORMALLY****
TOTAL RUN TIME: 0 days 0 hours 17 minutes 6 seconds 410 msec
