                         Program Version 3.0.3 - RELEASE   -
|  1> ! RI-MP2 RIJK def2-TZVP def2-TZVP/C def2-TZVP/JK TIGHTSCF
|  2> % maxcore 2000
|  3> % mp2 density relaxed end
|  4> *xyz 0 1
|  5>  O        0.0178808756     1.4337228041     0.2125225609
|  6>  C       -0.0428422693     0.0380320645     0.0573489680
|  7>  C       -1.4580191490    -0.5591920816    -0.1721221871
|  8>  C       -2.2044050789     0.2382879063    -1.2561369707
|  9>  C       -1.4808711427    -0.2542167639    -2.5457101591
| 10>  C       -0.4479007266    -1.2333550849    -1.9515660721
| 11>  O       -1.1298320035    -1.7989931675    -0.8251950221
| 12>  C        0.6886370043    -0.4573879480    -1.2516956932
| 13>  O        1.1553400043     0.6351213990    -2.0394531962
| 14>  H        0.3231236006     1.7763360443    -0.6410416056
| 15>  H        0.4012657616    -0.4263629264     0.9437643602
| 16>  H       -2.0204047805    -0.7647210210     0.7382595866
| 17>  H       -3.2651532899    -0.0200133782    -1.2648281451
| 18>  H       -2.1128662807     1.3130787028    -1.0909301072
| 19>  H       -2.1625284126    -0.7894857424    -3.2099974144
| 20>  H       -1.0086402611     0.5487977719    -3.1129339709
| 21>  H       -0.1140377345    -2.0285210164    -2.6178775091
| 22>  H        1.5155122365    -1.1323479988    -1.0142233812
| 23>  H        2.0758543465     0.7999838665    -1.8153430615
| 24> *
| 25>
| 26>                          ****END OF INPUT****

CARTESIAN COORDINATES (ANGSTROEM)
---------------------------------
  O      0.017881    1.433723    0.212523
  C     -0.042842    0.038032    0.057349
  C     -1.458019   -0.559192   -0.172122
  C     -2.204405    0.238288   -1.256137
  C     -1.480871   -0.254217   -2.545710
  C     -0.447901   -1.233355   -1.951566
  O     -1.129832   -1.798993   -0.825195
  C      0.688637   -0.457388   -1.251696
  O      1.155340    0.635121   -2.039453
  H      0.323124    1.776336   -0.641042
  H      0.401266   -0.426363    0.943764
  H     -2.020405   -0.764721    0.738260
  H     -3.265153   -0.020013   -1.264828
  H     -2.112866    1.313079   -1.090930
  H     -2.162528   -0.789486   -3.209997
  H     -1.008640    0.548798   -3.112934
  H     -0.114038   -2.028521   -2.617878
  H      1.515512   -1.132348   -1.014223
  H      2.075854    0.799984   -1.815343

 Total Charge           Charge          ....    0
 Multiplicity           Mult            ....    1
 Number of Electrons    NEL             ....   70
 Basis Dimension        Dim             ....  339

ORBITAL ENERGIES
----------------

  NO   OCC          E(Eh)            E(eV)
   0   2.0000     -20.584689      -560.1379
   1   2.0000     -20.555824      -559.3524
   2   2.0000     -20.552240      -559.2549
   3   2.0000     -11.293430      -307.3099
   4   2.0000     -11.281361      -306.9815
   5   2.0000     -11.279873      -306.9409
   6   2.0000     -11.274425      -306.7927
   7   2.0000     -11.221362      -305.3488
   8   2.0000     -11.219201      -305.2900
   9   2.0000      -1.406641       -38.2766
  10   2.0000      -1.381709       -37.5982
  11   2.0000      -1.354921       -36.8693
  12   2.0000      -1.063690       -28.9445
  13   2.0000      -1.005638       -27.3648
  14   2.0000      -0.998261       -27.1641
  15   2.0000      -0.839372       -22.8405
  16   2.0000      -0.790407       -21.5081
  17   2.0000      -0.781258       -21.2591
  18   2.0000      -0.732504       -19.9324
  19   2.0000      -0.717385       -19.5210
  20   2.0000      -0.673987       -18.3401
  21   2.0000      -0.663884       -18.0652
  22   2.0000      -0.625863       -17.0306
  23   2.0000      -0.586732       -15.9658
  24   2.0000      -0.579572       -15.7709
  25   2.0000      -0.554109       -15.0781
  26   2.0000      -0.547964       -14.9109
  27   2.0000      -0.524692       -14.2776
  28   2.0000      -0.512880       -13.9562
  29   2.0000      -0.498968       -13.5776
  30   2.0000      -0.487190       -13.2571
  31   2.0000      -0.482621       -13.1328
  32   2.0000      -0.442150       -12.0315
  33   2.0000      -0.431682       -11.7467
  34   2.0000      -0.406641       -11.0653
  35   0.0000       0.118367         3.2209
  36   0.0000       0.156153         4.2491
  37   0.0000       0.164616         4.4794
  38   0.0000       0.173955         4.7336
  39   0.0000       0.194263         5.2862

MULLIKEN ATOMIC CHARGES
-----------------------
   0 O :   -0.484186
   1 C :    0.014943
   2 C :    0.166591
   3 C :   -0.338942
   4 C :   -0.247791
   5 C :    0.099529
   6 O :   -0.324565
   7 C :   -0.033153
   8 O :   -0.498621
   9 H :    0.331689
  10 H :    0.102443
  11 H :    0.129831
  12 H :    0.120872
  13 H :    0.134227
  14 H :    0.122698
  15 H :    0.129525
  16 H :    0.125252
  17 H :    0.112155
  18 H :    0.337504
Sum of atomic charges:   -0.0000000

LOEWDIN ATOMIC CHARGES
----------------------
   0 O :   -0.014222
   1 C :   -0.310069
   2 C :   -0.274777
   3 C :   -0.231810
   4 C :   -0.228737
   5 C :   -0.280657
   6 O :    0.194702
   7 C :   -0.293248
   8 O :   -0.017041
   9 H :    0.171856
  10 H :    0.138247
  11 H :    0.138818
  12 H :    0.135774
  13 H :    0.139460
  14 H :    0.136503
  15 H :    0.139993
  16 H :    0.139401
  17 H :    0.135249
  18 H :    0.180557

  Mayer bond orders larger than 0.1
B(  0-O ,  1-C ) :   1.0620 B(  0-O ,  2-C ) :  -0.1304 B(  0-O ,  9-H ) :   0.8087
B(  1-C ,  2-C ) :   0.8567 B(  1-C ,  7-C ) :   0.9436 B(  1-C ,  8-O ) :  -0.1004
B(  1-C , 10-H ) :   0.9399 B(  2-C ,  3-C ) :   0.9048 B(  2-C ,  6-O ) :   0.9183
B(  2-C , 11-H ) :   0.9074 B(  3-C ,  4-C ) :   0.9831 B(  3-C , 12-H ) :   0.9185
B(  3-C , 13-H ) :   0.9272 B(  4-C ,  5-C ) :   0.9497 B(  4-C , 14-H ) :   0.9219
B(  4-C , 15-H ) :   0.9102 B(  5-C ,  6-O ) :   0.9411 B(  5-C ,  7-C ) :   0.9378
B(  5-C , 16-H ) :   0.9063 B(  7-C ,  8-O ) :   1.0697 B(  7-C , 17-H ) :   0.9383
B(  8-O , 18-H ) :   0.8362

MP2 TOTAL ENERGY:     -459.451281325 Eh
FINAL SINGLE POINT ENERGY      -459.451281325167

DIPOLE MOMENT
-------------
                                X             Y             Z
Electronic contribution:      1.92740      -0.98183       1.65791
Nuclear contribution   :     -1.25669       1.00364      -2.09291
                        -----------------------------------------
Total Dipole Moment    :      0.67071       0.02182      -0.43500
                        -----------------------------------------
Magnitude (a.u.)       :      0.79972
Magnitude (Debye)      :      2.03273

                             ****ORCA TERMINATED NORMALLY****
TOTAL RUN TIME: 0 days 0 hours 17 minutes 22 seconds 273 msec
