                         Program Version 3.0.3 - RELEASE   -
|  1> ! RI-MP2 RIJK def2-TZVP def2-TZVP/C def2-TZVP/JK TIGHTSCF
|  2> % maxcore 2000
|  3> % mp2 density relaxed end
|  4> *xyz 0 1
|  5>  C        0.2776468843     1.3703293144     0.6577964492
|  6>  C        0.1548405683     0.0323830572    -0.0726912771
|  7>  N       -1.2086621504    -0.4809720609     0.0368729371
|  8>  C       -1.8157823329    -0.8378024832    -0.9956887438
|  9>  C       -3.1899327475    -1.3972471281    -1.2900900051
| 10>  C       -2.7034306110    -1.3974545971    -2.7563037279
| 11>  C       -3.4018195654    -0.4869196972    -3.7465531870
| 12>  C       -2.6273269103    -0.3328543292    -5.0584583456
| 13>  O       -1.4076077240    -0.8524182358    -2.3231521354
| 14>  H        1.3122757989     1.7277107552     0.6385426504
| 15>  H       -0.3550203342     2.1298049515     0.1877050486
| 16>  H       -0.0376812882     1.2681576257     1.7001226146
| 17>  H        0.4809622345     0.1377762791    -1.1157348905
| 18>  H        0.8228088256    -0.6982597729     0.4019406864
| 19>  H       -3.3926186618    -2.3738907250    -0.8475494755
| 20>  H       -4.0178951039    -0.7194250283    -1.0708716785
| 21>  H       -2.5448340643    -2.3954318771    -3.1797588946
| 22>  H       -4.4009810771    -0.9000197128    -3.9379979156
| 23>  H       -3.5497150454     0.4937788251    -3.2775074718
| 24>  H       -1.6268408169     0.0654878925    -4.8677547961
| 25>  H       -2.5142385617    -1.2959972144    -5.5680979992
| 26>  H       -3.1421370067     0.3486205414    -5.7415916426
| 27> *
| 28>
| 29>                          ****END OF INPUT****

CARTESIAN COORDINATES (ANGSTROEM)
---------------------------------
  C      0.277647    1.370329    0.657796
  C      0.154841    0.032383   -0.072691
  N     -1.208662   -0.480972    0.036873
  C     -1.815782   -0.837802   -0.995689
  C     -3.189933   -1.397247   -1.290090
  C     -2.703431   -1.397455   -2.756304
  C     -3.401820   -0.486920   -3.746553
  C     -2.627327   -0.332854   -5.058458
  O     -1.407608   -0.852418   -2.323152
  H      1.312276    1.727711    0.638543
  H     -0.355020    2.129805    0.187705
  H     -0.037681    1.268158    1.700123
  H      0.480962    0.137776   -1.115735
  H      0.822809   -0.698260    0.401941
  H     -3.392619   -2.373891   -0.847549
  H     -4.017895   -0.719425   -1.070872
  H     -2.544834   -2.395432   -3.179759
  H     -4.400981   -0.900020   -3.937998
  H     -3.549715    0.493779   -3.277507
  H     -1.626841    0.065488   -4.867755
  H     -2.514239   -1.295997   -5.568098
  H     -3.142137    0.348621   -5.741592

 Total Charge           Charge          ....    0
 Multiplicity           Mult            ....    1
 Number of Electrons    NEL             ....   70
 Basis Dimension        Dim             ....  357

ORBITAL ENERGIES
----------------

  NO   OCC          E(Eh)            E(eV)
   0   2.0000     -20.580146      -560.0142
   1   2.0000     -15.532388      -422.6578
   2   2.0000     -11.327748      -308.2437
   3   2.0000     -11.300335      -307.4977
   4   2.0000     -11.245686      -306.0107
   5   2.0000     -11.241102      -305.8859
   6   2.0000     -11.235829      -305.7424
   7   2.0000     -11.221148      -305.3430
   8   2.0000     -11.203263      -304.8563
   9   2.0000      -1.421637       -38.6847
  10   2.0000      -1.210534       -32.9403
  11   2.0000      -1.072169       -29.1752
  12   2.0000      -1.026652       -27.9366
  13   2.0000      -0.994619       -27.0649
  14   2.0000      -0.902202       -24.5502
  15   2.0000      -0.838946       -22.8289
  16   2.0000      -0.807089       -21.9620
  17   2.0000      -0.730254       -19.8712
  18   2.0000      -0.694706       -18.9039
  19   2.0000      -0.664610       -18.0849
  20   2.0000      -0.650090       -17.6898
  21   2.0000      -0.609238       -16.5782
  22   2.0000      -0.595479       -16.2038
  23   2.0000      -0.585563       -15.9340
  24   2.0000      -0.550687       -14.9850
  25   2.0000      -0.545144       -14.8341
  26   2.0000      -0.531760       -14.4699
  27   2.0000      -0.516853       -14.0643
  28   2.0000      -0.507809       -13.8182
  29   2.0000      -0.493500       -13.4288
  30   2.0000      -0.485979       -13.2242
  31   2.0000      -0.480082       -13.0637
  32   2.0000      -0.470692       -12.8082
  33   2.0000      -0.400543       -10.8993
  34   2.0000      -0.375553       -10.2193
  35   0.0000       0.131587         3.5807
  36   0.0000       0.152339         4.1454
  37   0.0000       0.154003         4.1906
  38   0.0000       0.165318         4.4985
  39   0.0000       0.177927         4.8417

MULLIKEN ATOMIC CHARGES
-----------------------
   0 C :   -0.367541
   1 C :   -0.073732
   2 N :   -0.255554
   3 C :    0.131910
   4 C :   -0.221207
   5 C :    0.100610
   6 C :   -0.210237
   7 C :   -0.403650
   8 O :   -0.299923
   9 H :    0.119068
  10 H :    0.119169
  11 H :    0.126373
  12 H :    0.110480
  13 H :    0.112602
  14 H :    0.139791
  15 H :    0.133484
  16 H :    0.102399
  17 H :    0.114784
  18 H :    0.116387
  19 H :    0.146369
  20 H :    0.122085
  21 H :    0.136335
Sum of atomic charges:   -0.0000000

LOEWDIN ATOMIC CHARGES
----------------------
   0 C :   -0.319977
   1 C :   -0.311196
   2 N :    0.095673
   3 C :   -0.363176
   4 C :   -0.182213
   5 C :   -0.248568
   6 C :   -0.279515
   7 C :   -0.313974
   8 O :    0.218638
   9 H :    0.119545
  10 H :    0.119286
  11 H :    0.122089
  12 H :    0.124253
  13 H :    0.131954
  14 H :    0.144124
  15 H :    0.145888
  16 H :    0.139190
  17 H :    0.143773
  18 H :    0.142898
  19 H :    0.127283
  20 H :    0.121601
  21 H :    0.122423

  Mayer bond orders larger than 0.1
B(  0-C ,  1-C ) :   0.9357 B(  0-C ,  9-H ) :   0.9366 B(  0-C , 10-H ) :   0.9365
B(  0-C , 11-H ) :   0.9366 B(  1-C ,  2-N ) :   0.8326 B(  1-C , 12-H ) :   0.9244
B(  1-C , 13-H ) :   0.9277 B(  2-N ,  3-C ) :   2.0016 B(  3-C ,  4-C ) :   0.9360
B(  3-C ,  8-O ) :   1.0327 B(  4-C ,  5-C ) :   0.9283 B(  4-C , 14-H ) :   0.9118
B(  4-C , 15-H ) :   0.9049 B(  5-C ,  6-C ) :   0.9344 B(  5-C ,  8-O ) :   0.8739
B(  5-C , 16-H ) :   0.9174 B(  6-C ,  7-C ) :   0.9241 B(  6-C , 17-H ) :   0.9251
B(  6-C , 18-H ) :   0.9231 B(  7-C , 19-H ) :   0.9361 B(  7-C , 20-H ) :   0.9362
B(  7-C , 21-H ) :   0.9389

MP2 TOTAL ENERGY:     -403.658105562 Eh
FINAL SINGLE POINT ENERGY      -403.658105561962

DIPOLE MOMENT
-------------
                                X             Y             Z
Electronic contribution:     -0.36771      -3.82407       2.95886
Nuclear contribution   :     -0.21004       3.59921      -3.65971
                        -----------------------------------------
Total Dipole Moment    :     -0.57775      -0.22486      -0.70086
                        -----------------------------------------
Magnitude (a.u.)       :      0.93571
Magnitude (Debye)      :      2.37839

                             ****ORCA TERMINATED NORMALLY****
TOTAL RUN TIME: 0 days 0 hours 17 minutes 3 seconds 242 msec
