                         Program Version 3.0.3 - RELEASE   -
|  1> ! RI-MP2 RIJK def2-TZVP def2-TZVP/C def2-TZVP/JK TIGHTSCF
|  2> % maxcore 2000
|  3> % mp2 density relaxed end
|  4> *xyz 0 1
|  5>  O        0.2710352508     0.0544264750    -0.2556390332
|  6>  C        0.3031577515     1.2447025946    -0.3329436878
|  7>  O        0.7762276234     2.0284489820     0.6544185807
|  8>  C        0.8084470819     3.4433134880     0.4363202054
|  9>  C        2.2396594586     3.9154028673     0.2064648435
| 10>  C        2.3178991825     5.4494784401     0.0728593808
| 11>  C        3.6772306960     5.9243072499    -0.1508106265
| 12>  C        4.8063246692     6.2912932434    -0.3354609370
| 13>  H       -0.0540572539     1.8260837952    -1.2066975112
| 14>  H        0.1650499246     3.7064852038    -0.4145296032
| 15>  H        0.3811356079     3.9030376918     1.3332180022
| 16>  H        2.8656459023     3.5838399327     1.0403590251
| 17>  H        2.6401134128     3.4463485964    -0.6985784486
| 18>  H        1.6753540104     5.7822699221    -0.7534701258
| 19>  H        1.9118820491     5.9180750823     0.9792961173
| 20>  H        5.8008363030     6.6259510753    -0.4979845317
| 21> *
| 22>
| 23>                          ****END OF INPUT****

CARTESIAN COORDINATES (ANGSTROEM)
---------------------------------
  O      0.271035    0.054426   -0.255639
  C      0.303158    1.244703   -0.332944
  O      0.776228    2.028449    0.654419
  C      0.808447    3.443313    0.436320
  C      2.239659    3.915403    0.206465
  C      2.317899    5.449478    0.072859
  C      3.677231    5.924307   -0.150811
  C      4.806325    6.291293   -0.335461
  H     -0.054057    1.826084   -1.206698
  H      0.165050    3.706485   -0.414530
  H      0.381136    3.903038    1.333218
  H      2.865646    3.583840    1.040359
  H      2.640113    3.446349   -0.698578
  H      1.675354    5.782270   -0.753470
  H      1.911882    5.918075    0.979296
  H      5.800836    6.625951   -0.497985

 Total Charge           Charge          ....    0
 Multiplicity           Mult            ....    1
 Number of Electrons    NEL             ....   60
 Basis Dimension        Dim             ....  296

ORBITAL ENERGIES
----------------

  NO   OCC          E(Eh)            E(eV)
   0   2.0000     -20.613627      -560.9253
   1   2.0000     -20.553405      -559.2866
   2   2.0000     -11.387053      -309.8575
   3   2.0000     -11.314811      -307.8917
   4   2.0000     -11.272729      -306.7465
   5   2.0000     -11.253208      -306.2153
   6   2.0000     -11.243893      -305.9619
   7   2.0000     -11.230848      -305.6069
   8   2.0000      -1.466778       -39.9131
   9   2.0000      -1.377316       -37.4787
  10   2.0000      -1.112842       -30.2820
  11   2.0000      -1.038041       -28.2465
  12   2.0000      -0.966452       -26.2985
  13   2.0000      -0.870580       -23.6897
  14   2.0000      -0.846029       -23.0216
  15   2.0000      -0.742572       -20.2064
  16   2.0000      -0.722460       -19.6591
  17   2.0000      -0.696670       -18.9573
  18   2.0000      -0.667013       -18.1503
  19   2.0000      -0.654091       -17.7987
  20   2.0000      -0.638857       -17.3842
  21   2.0000      -0.593968       -16.1627
  22   2.0000      -0.566923       -15.4268
  23   2.0000      -0.553290       -15.0558
  24   2.0000      -0.537204       -14.6181
  25   2.0000      -0.512229       -13.9385
  26   2.0000      -0.464568       -12.6416
  27   2.0000      -0.461235       -12.5508
  28   2.0000      -0.396727       -10.7955
  29   2.0000      -0.396253       -10.7826
  30   0.0000       0.116897         3.1809
  31   0.0000       0.138819         3.7775
  32   0.0000       0.152374         4.1463
  33   0.0000       0.162301         4.4164
  34   0.0000       0.166995         4.5442

MULLIKEN ATOMIC CHARGES
-----------------------
   0 O :   -0.268553
   1 C :    0.200855
   2 O :   -0.202728
   3 C :   -0.102094
   4 C :   -0.170493
   5 C :   -0.402329
   6 C :   -0.023186
   7 C :   -0.106514
   8 H :    0.071218
   9 H :    0.115378
  10 H :    0.135935
  11 H :    0.139898
  12 H :    0.126287
  13 H :    0.145367
  14 H :    0.146756
  15 H :    0.194201
Sum of atomic charges:   -0.0000000

LOEWDIN ATOMIC CHARGES
----------------------
   0 O :    0.122060
   1 C :   -0.454281
   2 O :    0.246256
   3 C :   -0.295706
   4 C :   -0.251611
   5 C :   -0.247392
   6 C :   -0.113805
   7 C :   -0.099832
   8 H :    0.100692
   9 H :    0.123936
  10 H :    0.133506
  11 H :    0.148736
  12 H :    0.144599
  13 H :    0.157106
  14 H :    0.158190
  15 H :    0.127545

  Mayer bond orders larger than 0.1
B(  0-O ,  1-C ) :   2.0231 B(  1-C ,  2-O ) :   1.0714 B(  1-C ,  8-H ) :   0.9132
B(  2-O ,  3-C ) :   0.8664 B(  3-C ,  4-C ) :   0.9228 B(  3-C ,  9-H ) :   0.9495
B(  3-C , 10-H ) :   0.9269 B(  4-C ,  5-C ) :   0.9262 B(  4-C , 11-H ) :   0.9209
B(  4-C , 12-H ) :   0.9213 B(  5-C ,  6-C ) :   1.1203 B(  5-C ,  7-C ) :  -0.1203
B(  5-C , 13-H ) :   0.9208 B(  5-C , 14-H ) :   0.9176 B(  6-C ,  7-C ) :   2.6169
B(  7-C , 15-H ) :   0.8938

MP2 TOTAL ENERGY:     -383.081311793 Eh
FINAL SINGLE POINT ENERGY      -383.081311793228

DIPOLE MOMENT
-------------
                                X             Y             Z
Electronic contribution:     -0.96336      -5.36004       0.26183
Nuclear contribution   :      0.85889       6.87353      -0.52934
                        -----------------------------------------
Total Dipole Moment    :     -0.10448       1.51349      -0.26751
                        -----------------------------------------
Magnitude (a.u.)       :      1.54050
Magnitude (Debye)      :      3.91563

                             ****ORCA TERMINATED NORMALLY****
TOTAL RUN TIME: 0 days 0 hours 8 minutes 26 seconds 448 msec
