                         Program Version 3.0.3 - RELEASE   -
|  1> ! RI-MP2 RIJK def2-TZVP def2-TZVP/C def2-TZVP/JK TIGHTSCF
|  2> % maxcore 2000
|  3> % mp2 density relaxed end
|  4> *xyz 0 1
|  5>  C       -0.0555091293     1.3817510631     0.0249488556
|  6>  O       -0.0031913095    -0.0325085936     0.0686458473
|  7>  C        0.6670335477    -0.5409864367     1.1507994099
|  8>  C        0.3685283127    -0.3301991987     2.6604608609
|  9>  C        1.5385370890    -1.3352650097     2.5983213645
| 10>  C        0.8714824021    -2.0777092950     1.3798061439
| 11>  C        1.9996478854    -2.5259327436     0.4690280805
| 12>  C        2.8772428935    -1.5197798574     0.5193144265
| 13>  C        2.2355779265    -0.5149682771     1.4538676938
| 14>  H        0.9497584003     1.8205924767    -0.0425716709
| 15>  H       -0.6215934178     1.6523482368    -0.8686330143
| 16>  H       -0.5606533254     1.7955381064     0.9085300737
| 17>  H        0.5929194063     0.6526289608     3.0840541329
| 18>  H       -0.5888602933    -0.7115195236     3.0265245130
| 19>  H        2.0487327539    -1.8145310196     3.4334300634
| 20>  H       -0.0001093976    -2.7115486628     1.5467880223
| 21>  H        2.0428626692    -3.4520718357    -0.0861482662
| 22>  H        3.8235821492    -1.4064659729     0.0094615441
| 23>  H        2.7339649170     0.4242160225     1.6969879491
| 24> *
| 25>
| 26>                          ****END OF INPUT****

CARTESIAN COORDINATES (ANGSTROEM)
---------------------------------
  C     -0.055509    1.381751    0.024949
  O     -0.003191   -0.032509    0.068646
  C      0.667034   -0.540986    1.150799
  C      0.368528   -0.330199    2.660461
  C      1.538537   -1.335265    2.598321
  C      0.871482   -2.077709    1.379806
  C      1.999648   -2.525933    0.469028
  C      2.877243   -1.519780    0.519314
  C      2.235578   -0.514968    1.453868
  H      0.949758    1.820592   -0.042572
  H     -0.621593    1.652348   -0.868633
  H     -0.560653    1.795538    0.908530
  H      0.592919    0.652629    3.084054
  H     -0.588860   -0.711520    3.026525
  H      2.048733   -1.814531    3.433430
  H     -0.000109   -2.711549    1.546788
  H      2.042863   -3.452072   -0.086148
  H      3.823582   -1.406466    0.009462
  H      2.733965    0.424216    1.696988

 Total Charge           Charge          ....    0
 Multiplicity           Mult            ....    1
 Number of Electrons    NEL             ....   66
 Basis Dimension        Dim             ....  339

ORBITAL ENERGIES
----------------

  NO   OCC          E(Eh)            E(eV)
   0   2.0000     -20.561588      -559.5093
   1   2.0000     -11.297833      -307.4297
   2   2.0000     -11.273463      -306.7665
   3   2.0000     -11.244094      -305.9674
   4   2.0000     -11.236325      -305.7560
   5   2.0000     -11.235127      -305.7234
   6   2.0000     -11.225695      -305.4667
   7   2.0000     -11.219585      -305.3004
   8   2.0000     -11.217871      -305.2538
   9   2.0000      -1.388862       -37.7928
  10   2.0000      -1.223306       -33.2878
  11   2.0000      -1.050206       -28.5776
  12   2.0000      -0.949720       -25.8432
  13   2.0000      -0.920946       -25.0602
  14   2.0000      -0.875038       -23.8110
  15   2.0000      -0.823994       -22.4220
  16   2.0000      -0.736556       -20.0427
  17   2.0000      -0.718210       -19.5435
  18   2.0000      -0.700116       -19.0511
  19   2.0000      -0.669587       -18.2204
  20   2.0000      -0.640319       -17.4240
  21   2.0000      -0.625216       -17.0130
  22   2.0000      -0.577384       -15.7114
  23   2.0000      -0.543607       -14.7923
  24   2.0000      -0.532248       -14.4832
  25   2.0000      -0.519149       -14.1268
  26   2.0000      -0.490193       -13.3388
  27   2.0000      -0.481698       -13.1077
  28   2.0000      -0.465636       -12.6706
  29   2.0000      -0.438490       -11.9319
  30   2.0000      -0.432547       -11.7702
  31   2.0000      -0.402728       -10.9588
  32   2.0000      -0.321623        -8.7518
  33   0.0000       0.138712         3.7746
  34   0.0000       0.141338         3.8460
  35   0.0000       0.167062         4.5460
  36   0.0000       0.176073         4.7912
  37   0.0000       0.179831         4.8935

MULLIKEN ATOMIC CHARGES
-----------------------
   0 C :   -0.224654
   1 O :   -0.301233
   2 C :    0.141503
   3 C :   -0.232853
   4 C :   -0.128469
   5 C :   -0.010689
   6 C :   -0.222629
   7 C :   -0.237481
   8 C :   -0.051068
   9 H :    0.120258
  10 H :    0.145463
  11 H :    0.121504
  12 H :    0.118361
  13 H :    0.116707
  14 H :    0.136025
  15 H :    0.122593
  16 H :    0.131103
  17 H :    0.130639
  18 H :    0.124921
Sum of atomic charges:   -0.0000000

LOEWDIN ATOMIC CHARGES
----------------------
   0 C :   -0.335570
   1 O :    0.202757
   2 C :   -0.280509
   3 C :   -0.191790
   4 C :   -0.123932
   5 C :   -0.123477
   6 C :   -0.132939
   7 C :   -0.137644
   8 C :   -0.136278
   9 H :    0.105022
  10 H :    0.114984
  11 H :    0.105372
  12 H :    0.127924
  13 H :    0.129588
  14 H :    0.130637
  15 H :    0.140985
  16 H :    0.133932
  17 H :    0.133518
  18 H :    0.137419

  Mayer bond orders larger than 0.1
B(  0-C ,  1-O ) :   0.8855 B(  0-C ,  9-H ) :   0.9345 B(  0-C , 10-H ) :   0.9406
B(  0-C , 11-H ) :   0.9338 B(  1-O ,  2-C ) :   1.0151 B(  2-C ,  3-C ) :   0.9054
B(  2-C ,  5-C ) :   0.8629 B(  2-C ,  8-C ) :   0.8519 B(  3-C ,  4-C ) :   0.9168
B(  3-C , 12-H ) :   0.9275 B(  3-C , 13-H ) :   0.9281 B(  4-C ,  5-C ) :   0.8796
B(  4-C ,  8-C ) :   0.8822 B(  4-C , 14-H ) :   0.8890 B(  5-C ,  6-C ) :   0.9414
B(  5-C , 15-H ) :   0.9141 B(  6-C ,  7-C ) :   1.7712 B(  6-C , 16-H ) :   0.9290
B(  7-C ,  8-C ) :   0.9271 B(  7-C , 17-H ) :   0.9280 B(  8-C , 18-H ) :   0.9053

MP2 TOTAL ENERGY:     -385.149001997 Eh
FINAL SINGLE POINT ENERGY      -385.149001997241

DIPOLE MOMENT
-------------
                                X             Y             Z
Electronic contribution:      0.78663      -3.27020      -1.08891
Nuclear contribution   :     -0.73028       3.70606       1.37864
                        -----------------------------------------
Total Dipole Moment    :      0.05635       0.43586       0.28973
                        -----------------------------------------
Magnitude (a.u.)       :      0.52640
Magnitude (Debye)      :      1.33799

                             ****ORCA TERMINATED NORMALLY****
TOTAL RUN TIME: 0 days 0 hours 19 minutes 36 seconds 29 msec
