                         Program Version 3.0.3 - RELEASE   -
|  1> ! RI-MP2 RIJK def2-TZVP def2-TZVP/C def2-TZVP/JK TIGHTSCF
|  2> % maxcore 2000
|  3> % mp2 density relaxed end
|  4> *xyz 0 1
|  5>  C       -0.3687694029     1.3533284774    -0.0624126760
|  6>  N       -0.0893366566    -0.0642467363     0.0120534992
|  7>  C        0.6141227441    -0.6350948141    -0.8733958414
|  8>  O        0.9061855882    -1.9591398096    -0.8214864900
|  9>  C        0.3565374554    -2.6817207301     0.2599916952
| 10>  C       -0.9208749610    -3.4321484829     0.0332917461
| 11>  C        0.4057937888    -4.1656169253     0.1096251048
| 12>  C        1.2166686594    -0.0290501350    -2.0318822608
| 13>  C        1.7031798789     0.5105351185    -2.9900003688
| 14>  H        0.0091680896     1.8407098406     0.8439997520
| 15>  H        0.0620284889     1.8577286092    -0.9367382609
| 16>  H       -1.4545782223     1.5034044128    -0.0704821189
| 17>  H        0.5324186556    -2.2184553953     1.2233822817
| 18>  H       -1.6206354824    -3.5131561354     0.8572916386
| 19>  H       -1.3762225262    -3.3398500617    -0.9459496899
| 20>  H        0.8129366784    -4.5494380835    -0.8187838921
| 21>  H        0.6303910317    -4.7619261011     0.9865953324
| 22>  H        2.1378006527     0.9780241017    -3.8394584711
| 23> *
| 24>
| 25>                          ****END OF INPUT****

CARTESIAN COORDINATES (ANGSTROEM)
---------------------------------
  C     -0.368769    1.353328   -0.062413
  N     -0.089337   -0.064247    0.012053
  C      0.614123   -0.635095   -0.873396
  O      0.906186   -1.959140   -0.821486
  C      0.356537   -2.681721    0.259992
  C     -0.920875   -3.432148    0.033292
  C      0.405794   -4.165617    0.109625
  C      1.216669   -0.029050   -2.031882
  C      1.703180    0.510535   -2.990000
  H      0.009168    1.840710    0.844000
  H      0.062028    1.857729   -0.936738
  H     -1.454578    1.503404   -0.070482
  H      0.532419   -2.218455    1.223382
  H     -1.620635   -3.513156    0.857292
  H     -1.376223   -3.339850   -0.945950
  H      0.812937   -4.549438   -0.818784
  H      0.630391   -4.761926    0.986595
  H      2.137801    0.978024   -3.839458

 Total Charge           Charge          ....    0
 Multiplicity           Mult            ....    1
 Number of Electrons    NEL             ....   66
 Basis Dimension        Dim             ....  333

ORBITAL ENERGIES
----------------

  NO   OCC          E(Eh)            E(eV)
   0   2.0000     -20.594083      -560.3935
   1   2.0000     -15.553324      -423.2275
   2   2.0000     -11.358495      -309.0804
   3   2.0000     -11.285546      -307.0953
   4   2.0000     -11.255581      -306.2799
   5   2.0000     -11.251573      -306.1709
   6   2.0000     -11.247600      -306.0628
   7   2.0000     -11.226691      -305.4938
   8   2.0000     -11.225273      -305.4552
   9   2.0000      -1.432391       -38.9773
  10   2.0000      -1.228023       -33.4162
  11   2.0000      -1.135318       -30.8936
  12   2.0000      -1.054102       -28.6836
  13   2.0000      -0.957470       -26.0541
  14   2.0000      -0.890151       -24.2222
  15   2.0000      -0.830076       -22.5875
  16   2.0000      -0.793994       -21.6057
  17   2.0000      -0.744158       -20.2496
  18   2.0000      -0.712074       -19.3765
  19   2.0000      -0.677798       -18.4438
  20   2.0000      -0.663790       -18.0627
  21   2.0000      -0.616689       -16.7810
  22   2.0000      -0.613831       -16.7032
  23   2.0000      -0.573101       -15.5949
  24   2.0000      -0.560584       -15.2543
  25   2.0000      -0.537385       -14.6230
  26   2.0000      -0.517162       -14.0727
  27   2.0000      -0.458191       -12.4680
  28   2.0000      -0.429642       -11.6912
  29   2.0000      -0.426474       -11.6050
  30   2.0000      -0.414565       -11.2809
  31   2.0000      -0.404518       -11.0075
  32   2.0000      -0.370985       -10.0950
  33   0.0000       0.108699         2.9579
  34   0.0000       0.154850         4.2137
  35   0.0000       0.157780         4.2934
  36   0.0000       0.163464         4.4481
  37   0.0000       0.168375         4.5817

MULLIKEN ATOMIC CHARGES
-----------------------
   0 C :   -0.292854
   1 N :   -0.262916
   2 C :    0.052797
   3 O :   -0.239852
   4 C :    0.034044
   5 C :   -0.258257
   6 C :   -0.234845
   7 C :    0.041375
   8 C :   -0.084894
   9 H :    0.138983
  10 H :    0.116440
  11 H :    0.140001
  12 H :    0.117386
  13 H :    0.129105
  14 H :    0.133844
  15 H :    0.137524
  16 H :    0.132118
  17 H :    0.200002
Sum of atomic charges:   -0.0000000

LOEWDIN ATOMIC CHARGES
----------------------
   0 C :   -0.326494
   1 N :    0.102137
   2 C :   -0.375089
   3 O :    0.291954
   4 C :   -0.287210
   5 C :   -0.225670
   6 C :   -0.225371
   7 C :   -0.064436
   8 C :   -0.055368
   9 H :    0.119997
  10 H :    0.112922
  11 H :    0.120139
  12 H :    0.139640
  13 H :    0.132440
  14 H :    0.137830
  15 H :    0.138988
  16 H :    0.132539
  17 H :    0.131053

  Mayer bond orders larger than 0.1
B(  0-C ,  1-N ) :   0.8860 B(  0-C ,  9-H ) :   0.9326 B(  0-C , 10-H ) :   0.9251
B(  0-C , 11-H ) :   0.9333 B(  1-N ,  2-C ) :   1.7948 B(  2-C ,  3-O ) :   1.1391
B(  2-C ,  7-C ) :   1.1457 B(  2-C ,  8-C ) :  -0.1422 B(  3-O ,  4-C ) :   0.8971
B(  4-C ,  5-C ) :   0.9129 B(  4-C ,  6-C ) :   0.8811 B(  4-C , 12-H ) :   0.9316
B(  5-C ,  6-C ) :   0.9108 B(  5-C , 13-H ) :   0.9206 B(  5-C , 14-H ) :   0.9222
B(  6-C , 15-H ) :   0.9173 B(  6-C , 16-H ) :   0.9268 B(  7-C ,  8-C ) :   2.5969
B(  8-C , 17-H ) :   0.8816

MP2 TOTAL ENERGY:     -401.182215313 Eh
FINAL SINGLE POINT ENERGY      -401.182215312568

DIPOLE MOMENT
-------------
                                X             Y             Z
Electronic contribution:      3.59702       1.19201      -3.28738
Nuclear contribution   :     -3.61109      -0.92150       3.11867
                        -----------------------------------------
Total Dipole Moment    :     -0.01407       0.27051      -0.16871
                        -----------------------------------------
Magnitude (a.u.)       :      0.31912
Magnitude (Debye)      :      0.81113

                             ****ORCA TERMINATED NORMALLY****
TOTAL RUN TIME: 0 days 0 hours 16 minutes 58 seconds 72 msec
