                         Program Version 3.0.3 - RELEASE   -
|  1> ! RI-MP2 RIJK def2-TZVP def2-TZVP/C def2-TZVP/JK TIGHTSCF
|  2> % maxcore 2000
|  3> % mp2 density relaxed end
|  4> *xyz 0 1
|  5>  C       -0.0588829191     1.5050308015    -0.0339022157
|  6>  C        0.0113493657    -0.0061643937     0.0271959092
|  7>  O        0.6138797802    -0.4556885850    -1.1775515883
|  8>  C        0.7908546042    -1.8782871357    -1.1862741119
|  9>  C        0.0440527056    -2.4724482438     0.0077767568
| 10>  N        0.7481367303    -2.0314972401     1.2188823484
| 11>  C        0.8158388112    -0.5508161583     1.2232387470
| 12>  C       -1.3852275979    -1.9148133369    -0.0202823083
| 13>  O       -1.3238468388    -0.4917215985     0.1189882515
| 14>  H        0.9472131956     1.9307481709    -0.0448419749
| 15>  H       -0.5794058352     1.8046625747    -0.9459194271
| 16>  H       -0.6060210663     1.8902107082     0.8293446880
| 17>  H        0.3906815905    -2.2633723310    -2.1313593496
| 18>  H        1.8591583473    -2.1233190090    -1.1274631271
| 19>  H        0.0426822183    -3.5652078879    -0.0437571323
| 20>  H        0.2391446610    -2.3525182392     2.0348896139
| 21>  H        1.8571264166    -0.2147595551     1.1364312125
| 22>  H        0.4068437503    -0.1415147637     2.1520861283
| 23>  H       -1.8969302942    -2.1700682549    -0.9604413225
| 24>  H       -1.9807553354    -2.3200248326     0.8089375920
| 25> *
| 26>
| 27>                          ****END OF INPUT****

CARTESIAN COORDINATES (ANGSTROEM)
---------------------------------
  C     -0.058883    1.505031   -0.033902
  C      0.011349   -0.006164    0.027196
  O      0.613880   -0.455689   -1.177552
  C      0.790855   -1.878287   -1.186274
  C      0.044053   -2.472448    0.007777
  N      0.748137   -2.031497    1.218882
  C      0.815839   -0.550816    1.223239
  C     -1.385228   -1.914813   -0.020282
  O     -1.323847   -0.491722    0.118988
  H      0.947213    1.930748   -0.044842
  H     -0.579406    1.804663   -0.945919
  H     -0.606021    1.890211    0.829345
  H      0.390682   -2.263372   -2.131359
  H      1.859158   -2.123319   -1.127463
  H      0.042682   -3.565208   -0.043757
  H      0.239145   -2.352518    2.034890
  H      1.857126   -0.214760    1.136431
  H      0.406844   -0.141515    2.152086
  H     -1.896930   -2.170068   -0.960441
  H     -1.980755   -2.320025    0.808938

 Total Charge           Charge          ....    0
 Multiplicity           Mult            ....    1
 Number of Electrons    NEL             ....   70
 Basis Dimension        Dim             ....  345

ORBITAL ENERGIES
----------------

  NO   OCC          E(Eh)            E(eV)
   0   2.0000     -20.554708      -559.3220
   1   2.0000     -20.554143      -559.3067
   2   2.0000     -15.550535      -423.1516
   3   2.0000     -11.334282      -308.4215
   4   2.0000     -11.278287      -306.8978
   5   2.0000     -11.276739      -306.8557
   6   2.0000     -11.265072      -306.5382
   7   2.0000     -11.251785      -306.1766
   8   2.0000     -11.212664      -305.1121
   9   2.0000      -1.421177       -38.6722
  10   2.0000      -1.335919       -36.3522
  11   2.0000      -1.211841       -32.9759
  12   2.0000      -1.074333       -29.2341
  13   2.0000      -0.973656       -26.4945
  14   2.0000      -0.920606       -25.0509
  15   2.0000      -0.911059       -24.7912
  16   2.0000      -0.848907       -23.0999
  17   2.0000      -0.716952       -19.5093
  18   2.0000      -0.705840       -19.2069
  19   2.0000      -0.693411       -18.8687
  20   2.0000      -0.687610       -18.7108
  21   2.0000      -0.629349       -17.1255
  22   2.0000      -0.603781       -16.4297
  23   2.0000      -0.581983       -15.8366
  24   2.0000      -0.567406       -15.4399
  25   2.0000      -0.563722       -15.3397
  26   2.0000      -0.549503       -14.9527
  27   2.0000      -0.540009       -14.6944
  28   2.0000      -0.532561       -14.4917
  29   2.0000      -0.524770       -14.2797
  30   2.0000      -0.495817       -13.4919
  31   2.0000      -0.477660       -12.9978
  32   2.0000      -0.426527       -11.6064
  33   2.0000      -0.418650       -11.3921
  34   2.0000      -0.366941        -9.9850
  35   0.0000       0.127317         3.4645
  36   0.0000       0.155860         4.2412
  37   0.0000       0.165683         4.5085
  38   0.0000       0.185137         5.0378
  39   0.0000       0.191188         5.2025

MULLIKEN ATOMIC CHARGES
-----------------------
   0 C :   -0.406333
   1 C :    0.333794
   2 O :   -0.310164
   3 C :   -0.070006
   4 C :   -0.019356
   5 N :   -0.334624
   6 C :   -0.190290
   7 C :   -0.085755
   8 O :   -0.309865
   9 H :    0.133007
  10 H :    0.142144
  11 H :    0.135092
  12 H :    0.110996
  13 H :    0.105177
  14 H :    0.128215
  15 H :    0.204052
  16 H :    0.109820
  17 H :    0.124678
  18 H :    0.095258
  19 H :    0.104160
Sum of atomic charges:   -0.0000000

LOEWDIN ATOMIC CHARGES
----------------------
   0 C :   -0.260066
   1 C :   -0.473131
   2 O :    0.188493
   3 C :   -0.270157
   4 C :   -0.324195
   5 N :   -0.002112
   6 C :   -0.250576
   7 C :   -0.281974
   8 O :    0.185194
   9 H :    0.131502
  10 H :    0.134174
  11 H :    0.131207
  12 H :    0.128315
  13 H :    0.128356
  14 H :    0.151892
  15 H :    0.167661
  16 H :    0.134022
  17 H :    0.133651
  18 H :    0.125530
  19 H :    0.122216

  Mayer bond orders larger than 0.1
B(  0-C ,  1-C ) :   0.8519 B(  0-C ,  9-H ) :   0.9418 B(  0-C , 10-H ) :   0.9459
B(  0-C , 11-H ) :   0.9442 B(  1-C ,  2-O ) :   0.9726 B(  1-C ,  6-C ) :   0.9449
B(  1-C ,  8-O ) :   0.9448 B(  2-O ,  3-C ) :   0.9309 B(  3-C ,  4-C ) :   0.9401
B(  3-C , 12-H ) :   0.9219 B(  3-C , 13-H ) :   0.9244 B(  4-C ,  5-N ) :   0.9862
B(  4-C ,  7-C ) :   0.9781 B(  4-C , 14-H ) :   0.9074 B(  5-N ,  6-C ) :   0.9835
B(  5-N , 15-H ) :   0.8821 B(  6-C , 16-H ) :   0.9248 B(  6-C , 17-H ) :   0.9291
B(  7-C ,  8-O ) :   0.9322 B(  7-C , 18-H ) :   0.9240 B(  7-C , 19-H ) :   0.9200

MP2 TOTAL ENERGY:     -439.578006624 Eh
FINAL SINGLE POINT ENERGY      -439.578006624463

DIPOLE MOMENT
-------------
                                X             Y             Z
Electronic contribution:     -0.57437      -0.93893      -1.05109
Nuclear contribution   :      0.43701       0.42535       1.42728
                        -----------------------------------------
Total Dipole Moment    :     -0.13735      -0.51358       0.37619
                        -----------------------------------------
Magnitude (a.u.)       :      0.65127
Magnitude (Debye)      :      1.65539

                             ****ORCA TERMINATED NORMALLY****
TOTAL RUN TIME: 0 days 0 hours 19 minutes 0 seconds 212 msec
