                         Program Version 3.0.3 - RELEASE   -
|  1> ! RI-MP2 RIJK def2-TZVP def2-TZVP/C def2-TZVP/JK TIGHTSCF
|  2> % maxcore 2000
|  3> % mp2 density relaxed end
|  4> *xyz 0 1
|  5>  C       -0.0072667693     1.4238997020    -0.1630400567
|  6>  N       -0.0393587464     0.0456979008     0.2921737666
|  7>  C       -1.1078726487    -0.6096183983     0.2566647891
|  8>  N       -1.2782286125    -1.9091958399     0.7244087340
|  9>  C       -2.4594206870    -2.4928098037     0.1171453142
| 10>  C       -3.2961427694    -1.2053111085    -0.0671312529
| 11>  O       -2.3274505153    -0.1678501415    -0.2292706122
| 12>  C       -4.1917412921    -1.2454977196    -1.2248145834
| 13>  N       -4.9162192259    -1.3035685515    -2.1218808914
| 14>  H        0.7571910961     1.5292320064    -0.9411241092
| 15>  H       -0.9604266761     1.7899134109    -0.5614487712
| 16>  H        0.2939753516     2.0740996955     0.6666734896
| 17>  H       -0.4305395125    -2.4533486066     0.7772264633
| 18>  H       -2.2687492413    -2.9742353789    -0.8519882928
| 19>  H       -2.9584022204    -3.2063928943     0.7766277814
| 20>  H       -3.8900419708    -1.0013584329     0.8325691917
| 21> *
| 22>
| 23>                          ****END OF INPUT****

CARTESIAN COORDINATES (ANGSTROEM)
---------------------------------
  C     -0.007267    1.423900   -0.163040
  N     -0.039359    0.045698    0.292174
  C     -1.107873   -0.609618    0.256665
  N     -1.278229   -1.909196    0.724409
  C     -2.459421   -2.492810    0.117145
  C     -3.296143   -1.205311   -0.067131
  O     -2.327451   -0.167850   -0.229271
  C     -4.191741   -1.245498   -1.224815
  N     -4.916219   -1.303569   -2.121881
  H      0.757191    1.529232   -0.941124
  H     -0.960427    1.789913   -0.561449
  H      0.293975    2.074100    0.666673
  H     -0.430540   -2.453349    0.777226
  H     -2.268749   -2.974235   -0.851988
  H     -2.958402   -3.206393    0.776628
  H     -3.890042   -1.001358    0.832569

 Total Charge           Charge          ....    0
 Multiplicity           Mult            ....    1
 Number of Electrons    NEL             ....   66
 Basis Dimension        Dim             ....  321

ORBITAL ENERGIES
----------------

  NO   OCC          E(Eh)            E(eV)
   0   2.0000     -20.625849      -561.2579
   1   2.0000     -15.600530      -424.5120
   2   2.0000     -15.595601      -424.3779
   3   2.0000     -15.537165      -422.7878
   4   2.0000     -11.377027      -309.5846
   5   2.0000     -11.368012      -309.3393
   6   2.0000     -11.311279      -307.7956
   7   2.0000     -11.292668      -307.2891
   8   2.0000     -11.243070      -305.9395
   9   2.0000      -1.472208       -40.0608
  10   2.0000      -1.268000       -34.5040
  11   2.0000      -1.240694       -33.7610
  12   2.0000      -1.214446       -33.0468
  13   2.0000      -1.069733       -29.1089
  14   2.0000      -0.945705       -25.7339
  15   2.0000      -0.915542       -24.9132
  16   2.0000      -0.826873       -22.5004
  17   2.0000      -0.772309       -21.0156
  18   2.0000      -0.745032       -20.2734
  19   2.0000      -0.680622       -18.5207
  20   2.0000      -0.643673       -17.5152
  21   2.0000      -0.634536       -17.2666
  22   2.0000      -0.618454       -16.8290
  23   2.0000      -0.605166       -16.4674
  24   2.0000      -0.583045       -15.8654
  25   2.0000      -0.566189       -15.4068
  26   2.0000      -0.559461       -15.2237
  27   2.0000      -0.549792       -14.9606
  28   2.0000      -0.491211       -13.3665
  29   2.0000      -0.483042       -13.1442
  30   2.0000      -0.462594       -12.5878
  31   2.0000      -0.417717       -11.3667
  32   2.0000      -0.369138       -10.0448
  33   0.0000       0.113459         3.0874
  34   0.0000       0.133392         3.6298
  35   0.0000       0.142548         3.8789
  36   0.0000       0.162381         4.4186
  37   0.0000       0.170196         4.6313

MULLIKEN ATOMIC CHARGES
-----------------------
   0 C :   -0.266385
   1 N :   -0.274740
   2 C :    0.245360
   3 N :   -0.331214
   4 C :   -0.150744
   5 C :    0.196824
   6 O :   -0.270835
   7 C :   -0.176309
   8 N :   -0.046568
   9 H :    0.133527
  10 H :    0.128312
  11 H :    0.133656
  12 H :    0.252155
  13 H :    0.142977
  14 H :    0.144411
  15 H :    0.139573
Sum of atomic charges:    0.0000000

LOEWDIN ATOMIC CHARGES
----------------------
   0 C :   -0.331884
   1 N :    0.053665
   2 C :   -0.452366
   3 N :    0.077637
   4 C :   -0.239955
   5 C :   -0.270160
   6 O :    0.257318
   7 C :   -0.158361
   8 N :    0.087198
   9 H :    0.117550
  10 H :    0.109550
  11 H :    0.117508
  12 H :    0.191259
  13 H :    0.135349
  14 H :    0.139061
  15 H :    0.166632

  Mayer bond orders larger than 0.1
B(  0-C ,  1-N ) :   0.8691 B(  0-C ,  9-H ) :   0.9358 B(  0-C , 10-H ) :   0.9315
B(  0-C , 11-H ) :   0.9348 B(  1-N ,  2-C ) :   1.9611 B(  2-C ,  3-N ) :   1.0777
B(  2-C ,  6-O ) :   1.0094 B(  3-N ,  4-C ) :   0.9349 B(  3-N , 12-H ) :   0.8665
B(  4-C ,  5-C ) :   0.9089 B(  4-C , 13-H ) :   0.9310 B(  4-C , 14-H ) :   0.9140
B(  5-C ,  6-O ) :   0.9387 B(  5-C ,  7-C ) :   0.9078 B(  5-C , 15-H ) :   0.9134
B(  7-C ,  8-N ) :   2.8330

MP2 TOTAL ENERGY:     -433.360962016 Eh
FINAL SINGLE POINT ENERGY      -433.360962015823

DIPOLE MOMENT
-------------
                                X             Y             Z
Electronic contribution:     -4.90357      -2.10367      -1.50271
Nuclear contribution   :      5.13642       1.32207       2.30337
                        -----------------------------------------
Total Dipole Moment    :      0.23285      -0.78160       0.80066
                        -----------------------------------------
Magnitude (a.u.)       :      1.14288
Magnitude (Debye)      :      2.90498

                             ****ORCA TERMINATED NORMALLY****
TOTAL RUN TIME: 0 days 0 hours 15 minutes 17 seconds 699 msec
