                         Program Version 3.0.3 - RELEASE   -
|  1> ! RI-MP2 RIJK def2-TZVP def2-TZVP/C def2-TZVP/JK TIGHTSCF
|  2> % maxcore 2000
|  3> % mp2 density relaxed end
|  4> *xyz 0 1
|  5>  O       -0.0672646142     0.0390841644    -0.7895397496
|  6>  C       -0.0302874126     1.1127043603    -0.2393024297
|  7>  C        1.2291999499     1.8592865790     0.0087834143
|  8>  C        1.2031330324     3.3597520205    -0.1216783645
|  9>  N        1.4080082864     2.7539542198     1.1690206534
| 10>  C        0.3620725661     2.8817295620     2.1737829506
| 11>  C        0.2749028995     1.7595558973     3.2370356583
| 12>  C        0.0644751587     2.8594334248     4.3145873255
| 13>  C        0.6542354956     3.8918662183     3.3149547052
| 14>  H       -0.9613871302     1.6143134949     0.1046724200
| 15>  H        2.1230639770     1.3164852324    -0.2868180393
| 16>  H        2.0558617039     3.8574582366    -0.5752371871
| 17>  H        0.2369072127     3.8225745657    -0.3262446801
| 18>  H       -0.6278919675     3.0858382633     1.7397726088
| 19>  H       -0.4973276344     0.9967633868     3.1127161757
| 20>  H        1.2464977172     1.2701424186     3.3462566713
| 21>  H       -0.9955040517     3.0391186723     4.5134203164
| 22>  H        0.5791823930     2.7324606247     5.2685682498
| 23>  H        1.7338620387     4.0072361500     3.4417422868
| 24>  H        0.1915703395     4.8794330883     3.2533567144
| 25> *
| 26>
| 27>                          ****END OF INPUT****

CARTESIAN COORDINATES (ANGSTROEM)
---------------------------------
  O     -0.067265    0.039084   -0.789540
  C     -0.030287    1.112704   -0.239302
  C      1.229200    1.859287    0.008783
  C      1.203133    3.359752   -0.121678
  N      1.408008    2.753954    1.169021
  C      0.362073    2.881730    2.173783
  C      0.274903    1.759556    3.237036
  C      0.064475    2.859433    4.314587
  C      0.654235    3.891866    3.314955
  H     -0.961387    1.614313    0.104672
  H      2.123064    1.316485   -0.286818
  H      2.055862    3.857458   -0.575237
  H      0.236907    3.822575   -0.326245
  H     -0.627892    3.085838    1.739773
  H     -0.497328    0.996763    3.112716
  H      1.246498    1.270142    3.346257
  H     -0.995504    3.039119    4.513420
  H      0.579182    2.732461    5.268568
  H      1.733862    4.007236    3.441742
  H      0.191570    4.879433    3.253357

 Total Charge           Charge          ....    0
 Multiplicity           Mult            ....    1
 Number of Electrons    NEL             ....   68
 Basis Dimension        Dim             ....  345

ORBITAL ENERGIES
----------------

  NO   OCC          E(Eh)            E(eV)
   0   2.0000     -20.558162      -559.4160
   1   2.0000     -15.581982      -424.0073
   2   2.0000     -11.336589      -308.4843
   3   2.0000     -11.279806      -306.9391
   4   2.0000     -11.276525      -306.8499
   5   2.0000     -11.269596      -306.6613
   6   2.0000     -11.228732      -305.5493
   7   2.0000     -11.227602      -305.5186
   8   2.0000     -11.226316      -305.4836
   9   2.0000      -1.396943       -38.0128
  10   2.0000      -1.296155       -35.2702
  11   2.0000      -1.137118       -30.9426
  12   2.0000      -0.978787       -26.6341
  13   2.0000      -0.923081       -25.1183
  14   2.0000      -0.904354       -24.6087
  15   2.0000      -0.848733       -23.0952
  16   2.0000      -0.803019       -21.8513
  17   2.0000      -0.751451       -20.4480
  18   2.0000      -0.704635       -19.1741
  19   2.0000      -0.682841       -18.5810
  20   2.0000      -0.656203       -17.8562
  21   2.0000      -0.636205       -17.3120
  22   2.0000      -0.598426       -16.2840
  23   2.0000      -0.576675       -15.6921
  24   2.0000      -0.562907       -15.3175
  25   2.0000      -0.547815       -14.9068
  26   2.0000      -0.545039       -14.8313
  27   2.0000      -0.501333       -13.6420
  28   2.0000      -0.475690       -12.9442
  29   2.0000      -0.466105       -12.6834
  30   2.0000      -0.460348       -12.5267
  31   2.0000      -0.439502       -11.9595
  32   2.0000      -0.424326       -11.5465
  33   2.0000      -0.381596       -10.3838
  34   0.0000       0.119767         3.2590
  35   0.0000       0.131869         3.5883
  36   0.0000       0.148563         4.0426
  37   0.0000       0.163441         4.4474
  38   0.0000       0.167466         4.5570

MULLIKEN ATOMIC CHARGES
-----------------------
   0 O :   -0.265252
   1 C :    0.071291
   2 C :   -0.022434
   3 C :   -0.192930
   4 N :   -0.181850
   5 C :   -0.072565
   6 C :   -0.229247
   7 C :   -0.214713
   8 C :   -0.201073
   9 H :    0.085146
  10 H :    0.141066
  11 H :    0.145769
  12 H :    0.129769
  13 H :    0.085344
  14 H :    0.124467
  15 H :    0.123935
  16 H :    0.115953
  17 H :    0.121647
  18 H :    0.118901
  19 H :    0.116775
Sum of atomic charges:    0.0000000

LOEWDIN ATOMIC CHARGES
----------------------
   0 O :    0.131770
   1 C :   -0.297278
   2 C :   -0.240050
   3 C :   -0.228231
   4 N :    0.145410
   5 C :   -0.279069
   6 C :   -0.220188
   7 C :   -0.241336
   8 C :   -0.217817
   9 H :    0.115236
  10 H :    0.150729
  11 H :    0.131044
  12 H :    0.128314
  13 H :    0.134701
  14 H :    0.124889
  15 H :    0.142111
  16 H :    0.132713
  17 H :    0.124433
  18 H :    0.139971
  19 H :    0.122649

  Mayer bond orders larger than 0.1
B(  0-O ,  1-C ) :   1.9759 B(  1-C ,  2-C ) :   0.8862 B(  1-C ,  9-H ) :   0.9476
B(  2-C ,  3-C ) :   0.8699 B(  2-C ,  4-N ) :   0.8586 B(  2-C , 10-H ) :   0.9148
B(  3-C ,  4-N ) :   0.8935 B(  3-C , 11-H ) :   0.9197 B(  3-C , 12-H ) :   0.9173
B(  4-N ,  5-C ) :   0.9523 B(  5-C ,  6-C ) :   0.9236 B(  5-C ,  8-C ) :   0.9166
B(  5-C , 13-H ) :   0.9188 B(  6-C ,  7-C ) :   0.9348 B(  6-C , 14-H ) :   0.9281
B(  6-C , 15-H ) :   0.9250 B(  7-C ,  8-C ) :   0.9315 B(  7-C , 16-H ) :   0.9269
B(  7-C , 17-H ) :   0.9290 B(  8-C , 18-H ) :   0.9267 B(  8-C , 19-H ) :   0.9272

MP2 TOTAL ENERGY:     -402.412517148 Eh
FINAL SINGLE POINT ENERGY      -402.412517148396

DIPOLE MOMENT
-------------
                                X             Y             Z
Electronic contribution:      0.76348      -4.31635      -6.84369
Nuclear contribution   :     -0.91497       5.36993       7.26533
                        -----------------------------------------
Total Dipole Moment    :     -0.15149       1.05358       0.42164
                        -----------------------------------------
Magnitude (a.u.)       :      1.14489
Magnitude (Debye)      :      2.91008

                             ****ORCA TERMINATED NORMALLY****
TOTAL RUN TIME: 0 days 0 hours 19 minutes 37 seconds 467 msec
