                         Program Version 3.0.3 - RELEASE   -
|  1> ! RI-MP2 RIJK def2-TZVP def2-TZVP/C def2-TZVP/JK TIGHTSCF
|  2> % maxcore 2000
|  3> % mp2 density relaxed end
|  4> *xyz 0 1
|  5>  C       -0.0678988213     1.5365321731     0.0043611386
|  6>  C        0.0551913459     0.0356273499     0.0123077726
|  7>  C        1.0263519330    -0.7617742259    -0.9023480283
|  8>  C        0.6786234761    -1.9208518850     0.0919325424
|  9>  C        1.4499255106    -3.2084188149     0.2120296755
| 10>  C        0.6430548881    -0.7958228880     1.1970726594
| 11>  C       -0.8426757315    -2.0299492313    -0.1335257210
| 12>  O       -1.5524154975    -3.0045932797    -0.1202859380
| 13>  N       -1.2051347644    -0.6932049006    -0.2979858538
| 14>  H        0.9036598041     1.9998468299     0.1982759248
| 15>  H       -0.4324310285     1.8923119071    -0.9646283149
| 16>  H       -0.7633840311     1.8824503092     0.7778724483
| 17>  H        0.7433217491    -0.8750251689    -1.9515449291
| 18>  H        2.0651885636    -0.4353645151    -0.8058612055
| 19>  H        2.5038019615    -3.0216808695     0.4403441963
| 20>  H        1.0290797676    -3.8367417059     1.0030101192
| 21>  H        1.3973967973    -3.7805292478    -0.7199000303
| 22>  H        1.6452846862    -0.4803717186     1.5012243687
| 23>  H        0.0060323140    -0.9524467682     2.0727002748
| 24>  H       -2.0882933930    -0.3801331897     0.0819324204
| 25> *
| 26>
| 27>                          ****END OF INPUT****

CARTESIAN COORDINATES (ANGSTROEM)
---------------------------------
  C     -0.067899    1.536532    0.004361
  C      0.055191    0.035627    0.012308
  C      1.026352   -0.761774   -0.902348
  C      0.678623   -1.920852    0.091933
  C      1.449926   -3.208419    0.212030
  C      0.643055   -0.795823    1.197073
  C     -0.842676   -2.029949   -0.133526
  O     -1.552415   -3.004593   -0.120286
  N     -1.205135   -0.693205   -0.297986
  H      0.903660    1.999847    0.198276
  H     -0.432431    1.892312   -0.964628
  H     -0.763384    1.882450    0.777872
  H      0.743322   -0.875025   -1.951545
  H      2.065189   -0.435365   -0.805861
  H      2.503802   -3.021681    0.440344
  H      1.029080   -3.836742    1.003010
  H      1.397397   -3.780529   -0.719900
  H      1.645285   -0.480372    1.501224
  H      0.006032   -0.952447    2.072700
  H     -2.088293   -0.380133    0.081932

 Total Charge           Charge          ....    0
 Multiplicity           Mult            ....    1
 Number of Electrons    NEL             ....   68
 Basis Dimension        Dim             ....  345

ORBITAL ENERGIES
----------------

  NO   OCC          E(Eh)            E(eV)
   0   2.0000     -20.525326      -558.5225
   1   2.0000     -15.569677      -423.6725
   2   2.0000     -11.342184      -308.6365
   3   2.0000     -11.289476      -307.2022
   4   2.0000     -11.257147      -306.3225
   5   2.0000     -11.242482      -305.9235
   6   2.0000     -11.239338      -305.8379
   7   2.0000     -11.233843      -305.6884
   8   2.0000     -11.219307      -305.2929
   9   2.0000      -1.385489       -37.7011
  10   2.0000      -1.272103       -34.6157
  11   2.0000      -1.109229       -30.1837
  12   2.0000      -1.028416       -27.9846
  13   2.0000      -0.966429       -26.2979
  14   2.0000      -0.920478       -25.0475
  15   2.0000      -0.859734       -23.3945
  16   2.0000      -0.786009       -21.3884
  17   2.0000      -0.729221       -19.8431
  18   2.0000      -0.676916       -18.4198
  19   2.0000      -0.662936       -18.0394
  20   2.0000      -0.623560       -16.9679
  21   2.0000      -0.600180       -16.3317
  22   2.0000      -0.597571       -16.2607
  23   2.0000      -0.587317       -15.9817
  24   2.0000      -0.564501       -15.3608
  25   2.0000      -0.558597       -15.2002
  26   2.0000      -0.543985       -14.8026
  27   2.0000      -0.526738       -14.3333
  28   2.0000      -0.522516       -14.2184
  29   2.0000      -0.479392       -13.0449
  30   2.0000      -0.454454       -12.3663
  31   2.0000      -0.449229       -12.2241
  32   2.0000      -0.405436       -11.0325
  33   2.0000      -0.382806       -10.4167
  34   0.0000       0.122662         3.3378
  35   0.0000       0.143827         3.9137
  36   0.0000       0.160587         4.3698
  37   0.0000       0.173439         4.7195
  38   0.0000       0.179014         4.8712

MULLIKEN ATOMIC CHARGES
-----------------------
   0 C :   -0.429390
   1 C :    0.110821
   2 C :   -0.232666
   3 C :    0.083083
   4 C :   -0.396434
   5 C :   -0.241970
   6 C :    0.155041
   7 O :   -0.303087
   8 N :   -0.312514
   9 H :    0.135557
  10 H :    0.149797
  11 H :    0.134822
  12 H :    0.127081
  13 H :    0.120677
  14 H :    0.131105
  15 H :    0.145409
  16 H :    0.141564
  17 H :    0.122697
  18 H :    0.123405
  19 H :    0.235001
Sum of atomic charges:    0.0000000

LOEWDIN ATOMIC CHARGES
----------------------
   0 C :   -0.274082
   1 C :   -0.292142
   2 C :   -0.147277
   3 C :   -0.228333
   4 C :   -0.269439
   5 C :   -0.149592
   6 C :   -0.390330
   7 O :    0.113959
   8 N :    0.120260
   9 H :    0.132631
  10 H :    0.133345
  11 H :    0.129221
  12 H :    0.134001
  13 H :    0.139984
  14 H :    0.126700
  15 H :    0.135970
  16 H :    0.134997
  17 H :    0.138306
  18 H :    0.131181
  19 H :    0.180640

  Mayer bond orders larger than 0.1
B(  0-C ,  1-C ) :   0.8557 B(  0-C ,  9-H ) :   0.9428 B(  0-C , 10-H ) :   0.9477
B(  0-C , 11-H ) :   0.9328 B(  1-C ,  2-C ) :   0.8978 B(  1-C ,  5-C ) :   0.9483
B(  1-C ,  8-N ) :   0.8952 B(  2-C ,  3-C ) :   0.9002 B(  2-C , 12-H ) :   0.9093
B(  2-C , 13-H ) :   0.9164 B(  3-C ,  4-C ) :   0.8705 B(  3-C ,  5-C ) :   0.8803
B(  3-C ,  6-C ) :   0.8575 B(  3-C ,  8-N ) :  -0.1099 B(  4-C , 14-H ) :   0.9471
B(  4-C , 15-H ) :   0.9357 B(  4-C , 16-H ) :   0.9374 B(  5-C , 17-H ) :   0.9288
B(  5-C , 18-H ) :   0.9130 B(  6-C ,  7-O ) :   2.0480 B(  6-C ,  8-N ) :   1.1506
B(  8-N , 19-H ) :   0.8526

MP2 TOTAL ENERGY:     -402.489902771 Eh
FINAL SINGLE POINT ENERGY      -402.489902770571

DIPOLE MOMENT
-------------
                                X             Y             Z
Electronic contribution:     -5.68443      -3.73397      -1.06414
Nuclear contribution   :      6.48957       4.98522       1.41870
                        -----------------------------------------
Total Dipole Moment    :      0.80514       1.25125       0.35456
                        -----------------------------------------
Magnitude (a.u.)       :      1.52957
Magnitude (Debye)      :      3.88786

                             ****ORCA TERMINATED NORMALLY****
TOTAL RUN TIME: 0 days 0 hours 20 minutes 3 seconds 414 msec
