                         Program Version 3.0.3 - RELEASE   -
|  1> ! RI-MP2 RIJK def2-TZVP def2-TZVP/C def2-TZVP/JK TIGHTSCF
|  2> % maxcore 2000
|  3> % mp2 density relaxed end
|  4> *xyz 0 1
|  5>  N        0.0907628224     1.3790445568     0.1511137853
|  6>  C       -0.0310853644    -0.0000272668     0.0503714313
|  7>  C       -1.2104097408    -0.6886745559     0.0210334823
|  8>  C       -1.2082640787    -2.1335836582    -0.0091655424
|  9>  O       -2.2024878318    -2.8510961213    -0.0356301391
| 10>  C        0.1596156131    -2.7032635233    -0.0250638893
| 11>  N        1.2635215272    -2.0308521441     0.0006704782
| 12>  N        1.1517359415    -0.6853501617     0.0338677805
| 13>  H        0.8204722233     1.7890313524    -0.4173847461
| 14>  H       -0.7847285628     1.8664658420     0.0243303000
| 15>  H       -2.1556846489    -0.1593983865     0.0074703037
| 16>  H        0.2573306573    -3.7842722771    -0.0571473522
| 17>  H        2.0263247925    -0.2021848762     0.1603298877
| 18> *
| 19>
| 20>                          ****END OF INPUT****

CARTESIAN COORDINATES (ANGSTROEM)
---------------------------------
  N      0.090763    1.379045    0.151114
  C     -0.031085   -0.000027    0.050371
  C     -1.210410   -0.688675    0.021033
  C     -1.208264   -2.133584   -0.009166
  O     -2.202488   -2.851096   -0.035630
  C      0.159616   -2.703264   -0.025064
  N      1.263522   -2.030852    0.000670
  N      1.151736   -0.685350    0.033868
  H      0.820472    1.789031   -0.417385
  H     -0.784729    1.866466    0.024330
  H     -2.155685   -0.159398    0.007470
  H      0.257331   -3.784272   -0.057147
  H      2.026325   -0.202185    0.160330

 Total Charge           Charge          ....    0
 Multiplicity           Mult            ....    1
 Number of Electrons    NEL             ....   58
 Basis Dimension        Dim             ....  278

ORBITAL ENERGIES
----------------

  NO   OCC          E(Eh)            E(eV)
   0   2.0000     -20.508777      -558.0722
   1   2.0000     -15.655118      -425.9974
   2   2.0000     -15.640457      -425.5985
   3   2.0000     -15.610576      -424.7854
   4   2.0000     -11.361946      -309.1743
   5   2.0000     -11.320909      -308.0576
   6   2.0000     -11.280753      -306.9649
   7   2.0000     -11.227073      -305.5042
   8   2.0000      -1.393392       -37.9161
   9   2.0000      -1.350731       -36.7553
  10   2.0000      -1.267040       -34.4779
  11   2.0000      -1.136772       -30.9331
  12   2.0000      -1.068243       -29.0684
  13   2.0000      -0.905719       -24.6459
  14   2.0000      -0.874332       -23.7918
  15   2.0000      -0.784373       -21.3439
  16   2.0000      -0.750875       -20.4324
  17   2.0000      -0.708691       -19.2845
  18   2.0000      -0.681301       -18.5392
  19   2.0000      -0.640390       -17.4259
  20   2.0000      -0.627184       -17.0666
  21   2.0000      -0.599890       -16.3238
  22   2.0000      -0.583348       -15.8737
  23   2.0000      -0.529348       -14.4043
  24   2.0000      -0.516781       -14.0623
  25   2.0000      -0.497208       -13.5297
  26   2.0000      -0.400705       -10.9037
  27   2.0000      -0.393409       -10.7052
  28   2.0000      -0.332768        -9.0551
  29   0.0000       0.096774         2.6334
  30   0.0000       0.103452         2.8151
  31   0.0000       0.134233         3.6527
  32   0.0000       0.142398         3.8749
  33   0.0000       0.167150         4.5484

MULLIKEN ATOMIC CHARGES
-----------------------
   0 N :   -0.521758
   1 C :    0.353966
   2 C :   -0.333798
   3 C :    0.236596
   4 O :   -0.369597
   5 C :   -0.106525
   6 N :   -0.156848
   7 N :   -0.162989
   8 H :    0.256994
   9 H :    0.265233
  10 H :    0.131366
  11 H :    0.148109
  12 H :    0.259252
Sum of atomic charges:    0.0000000

LOEWDIN ATOMIC CHARGES
----------------------
   0 N :   -0.058027
   1 C :   -0.317838
   2 C :   -0.138994
   3 C :   -0.398363
   4 O :    0.079204
   5 C :   -0.193461
   6 N :    0.065042
   7 N :    0.115313
   8 H :    0.172193
   9 H :    0.179643
  10 H :    0.153180
  11 H :    0.147828
  12 H :    0.194279

  Mayer bond orders larger than 0.1
B(  0-N ,  1-C ) :   1.0216 B(  0-N ,  8-H ) :   0.8666 B(  0-N ,  9-H ) :   0.8743
B(  1-C ,  2-C ) :   1.3927 B(  1-C ,  7-N ) :   1.1305 B(  2-C ,  3-C ) :   1.1514
B(  2-C , 10-H ) :   0.9240 B(  3-C ,  4-O ) :   1.8348 B(  3-C ,  5-C ) :   1.0079
B(  5-C ,  6-N ) :   1.6761 B(  5-C , 11-H ) :   0.9123 B(  6-N ,  7-N ) :   0.9857
B(  7-N , 12-H ) :   0.8725

MP2 TOTAL ENERGY:     -394.148178832 Eh
FINAL SINGLE POINT ENERGY      -394.148178831864

DIPOLE MOMENT
-------------
                                X             Y             Z
Electronic contribution:     -0.03631      -2.87365       0.06356
Nuclear contribution   :      1.30269       5.06700      -0.35762
                        -----------------------------------------
Total Dipole Moment    :      1.26637       2.19335      -0.29406
                        -----------------------------------------
Magnitude (a.u.)       :      2.54970
Magnitude (Debye)      :      6.48082

                             ****ORCA TERMINATED NORMALLY****
TOTAL RUN TIME: 0 days 0 hours 9 minutes 44 seconds 245 msec
