                         Program Version 3.0.3 - RELEASE   -
|  1> ! RI-MP2 RIJK def2-TZVP def2-TZVP/C def2-TZVP/JK TIGHTSCF
|  2> % maxcore 2000
|  3> % mp2 density relaxed end
|  4> *xyz 0 1
|  5>  C       -0.0218538574     1.4948058053     0.0097077998
|  6>  C       -0.0633011446    -0.0070899298    -0.0082340675
|  7>  N       -1.1619429810    -0.6362067661     0.1430296966
|  8>  C       -1.1516452481    -2.0568166541     0.0577504370
|  9>  C       -0.7719802096    -2.7207488276    -1.2305053805
| 10>  C        0.1834365412    -2.8165555498    -0.0543897920
| 11>  C        1.4127023591    -1.9932499096    -0.0442931907
| 12>  O        2.5387607465    -2.4216996575     0.0969567762
| 13>  N        1.1778250661    -0.6258963636    -0.1902472393
| 14>  H        0.6373335691     1.8594794477     0.8060477418
| 15>  H        0.3620254393     1.8848647379    -0.9398428891
| 16>  H       -1.0280457488     1.8781668837     0.1734422132
| 17>  H       -1.9363946271    -2.5283996678     0.6394716960
| 18>  H       -1.2879523268    -3.6330089487    -1.5058091336
| 19>  H       -0.4937410877    -2.0837598752    -2.0628245444
| 20>  H        0.3032592423    -3.7810967935     0.4232386258
| 21>  H        2.0137219673    -0.0588360712    -0.1579760491
| 22> *
| 23>
| 24>                          ****END OF INPUT****

CARTESIAN COORDINATES (ANGSTROEM)
---------------------------------
  C     -0.021854    1.494806    0.009708
  C     -0.063301   -0.007090   -0.008234
  N     -1.161943   -0.636207    0.143030
  C     -1.151645   -2.056817    0.057750
  C     -0.771980   -2.720749   -1.230505
  C      0.183437   -2.816556   -0.054390
  C      1.412702   -1.993250   -0.044293
  O      2.538761   -2.421700    0.096957
  N      1.177825   -0.625896   -0.190247
  H      0.637334    1.859479    0.806048
  H      0.362025    1.884865   -0.939843
  H     -1.028046    1.878167    0.173442
  H     -1.936395   -2.528400    0.639472
  H     -1.287952   -3.633009   -1.505809
  H     -0.493741   -2.083760   -2.062825
  H      0.303259   -3.781097    0.423239
  H      2.013722   -0.058836   -0.157976

 Total Charge           Charge          ....    0
 Multiplicity           Mult            ....    1
 Number of Electrons    NEL             ....   66
 Basis Dimension        Dim             ....  327

ORBITAL ENERGIES
----------------

  NO   OCC          E(Eh)            E(eV)
   0   2.0000     -20.532851      -558.7273
   1   2.0000     -15.609239      -424.7490
   2   2.0000     -15.552690      -423.2102
   3   2.0000     -11.365390      -309.2680
   4   2.0000     -11.336049      -308.4696
   5   2.0000     -11.279821      -306.9395
   6   2.0000     -11.252458      -306.1949
   7   2.0000     -11.249704      -306.1200
   8   2.0000     -11.246714      -306.0386
   9   2.0000      -1.399509       -38.0826
  10   2.0000      -1.305136       -35.5145
  11   2.0000      -1.203591       -32.7514
  12   2.0000      -1.142804       -31.0973
  13   2.0000      -1.013037       -27.5661
  14   2.0000      -0.921114       -25.0648
  15   2.0000      -0.866133       -23.5687
  16   2.0000      -0.825824       -22.4718
  17   2.0000      -0.753761       -20.5109
  18   2.0000      -0.716249       -19.4901
  19   2.0000      -0.686660       -18.6850
  20   2.0000      -0.654964       -17.8225
  21   2.0000      -0.627202       -17.0670
  22   2.0000      -0.614923       -16.7329
  23   2.0000      -0.580225       -15.7887
  24   2.0000      -0.576272       -15.6811
  25   2.0000      -0.565055       -15.3759
  26   2.0000      -0.548218       -14.9178
  27   2.0000      -0.522664       -14.2224
  28   2.0000      -0.483983       -13.1698
  29   2.0000      -0.457050       -12.4370
  30   2.0000      -0.435199       -11.8424
  31   2.0000      -0.401556       -10.9269
  32   2.0000      -0.358712        -9.7611
  33   0.0000       0.123511         3.3609
  34   0.0000       0.134534         3.6609
  35   0.0000       0.157102         4.2750
  36   0.0000       0.172265         4.6876
  37   0.0000       0.178099         4.8463

MULLIKEN ATOMIC CHARGES
-----------------------
   0 C :   -0.441422
   1 C :    0.215355
   2 N :   -0.262034
   3 C :    0.009712
   4 C :   -0.263520
   5 C :   -0.120843
   6 C :    0.211644
   7 O :   -0.322640
   8 N :   -0.306714
   9 H :    0.146134
  10 H :    0.148012
  11 H :    0.162489
  12 H :    0.134746
  13 H :    0.146250
  14 H :    0.150080
  15 H :    0.147517
  16 H :    0.245233
Sum of atomic charges:    0.0000000

LOEWDIN ATOMIC CHARGES
----------------------
   0 C :   -0.267507
   1 C :   -0.336445
   2 N :    0.129575
   3 C :   -0.240036
   4 C :   -0.181842
   5 C :   -0.159129
   6 C :   -0.414007
   7 O :    0.106275
   8 N :    0.162110
   9 H :    0.133391
  10 H :    0.134265
  11 H :    0.141055
  12 H :    0.147179
  13 H :    0.140671
  14 H :    0.143466
  15 H :    0.159608
  16 H :    0.201372

  Mayer bond orders larger than 0.1
B(  0-C ,  1-C ) :   0.8824 B(  0-C ,  9-H ) :   0.9264 B(  0-C , 10-H ) :   0.9273
B(  0-C , 11-H ) :   0.9415 B(  1-C ,  2-N ) :   1.8435 B(  1-C ,  8-N ) :   1.0282
B(  2-N ,  3-C ) :   0.9740 B(  3-C ,  4-C ) :   0.8660 B(  3-C ,  5-C ) :   0.7996
B(  3-C , 12-H ) :   0.9400 B(  4-C ,  5-C ) :   0.8367 B(  4-C , 13-H ) :   0.9241
B(  4-C , 14-H ) :   0.9206 B(  5-C ,  6-C ) :   0.9868 B(  5-C , 15-H ) :   0.9226
B(  6-C ,  7-O ) :   2.0018 B(  6-C ,  8-N ) :   1.0611 B(  8-N , 16-H ) :   0.8551

MP2 TOTAL ENERGY:     -417.346162528 Eh
FINAL SINGLE POINT ENERGY      -417.346162528297

DIPOLE MOMENT
-------------
                                X             Y             Z
Electronic contribution:      2.96682      -3.04081       1.17348
Nuclear contribution   :     -3.39325       3.61417      -1.42898
                        -----------------------------------------
Total Dipole Moment    :     -0.42643       0.57336      -0.25550
                        -----------------------------------------
Magnitude (a.u.)       :      0.75886
Magnitude (Debye)      :      1.92886

                             ****ORCA TERMINATED NORMALLY****
TOTAL RUN TIME: 0 days 0 hours 17 minutes 18 seconds 174 msec
