                         Program Version 3.0.3 - RELEASE   -
|  1> ! RI-MP2 RIJK def2-TZVP def2-TZVP/C def2-TZVP/JK TIGHTSCF
|  2> % maxcore 2000
|  3> % mp2 density relaxed end
|  4> *xyz 0 1
|  5>  C       -0.0336150178     1.5944635010     0.0247018657
|  6>  C        0.0711803935     0.0764433850    -0.0106238973
|  7>  C        0.8464120448    -0.4870122351    -1.2535937486
|  8>  C        1.3925123271    -1.8479715706    -0.7480407782
|  9>  C        1.5489359129    -1.6258140968     0.7485044220
| 10>  C        2.1938637697    -0.3658341112     1.2012688103
| 11>  N        0.7270182656    -0.4834959887     1.1836051155
| 12>  C        0.0176910751    -0.5852511821    -2.4457234010
| 13>  N       -0.6589301496    -0.6572053514    -3.3807293798
| 14>  H        0.9577767666     2.0592811443     0.0476141340
| 15>  H       -0.5640392609     1.9631279514    -0.8582362679
| 16>  H       -0.5800010516     1.9156207980     0.9150605963
| 17>  H       -0.9369786731    -0.3534963206    -0.0263009259
| 18>  H        1.6795260470     0.1828130594    -1.4920506638
| 19>  H        0.6597969931    -2.6397391081    -0.9310916754
| 20>  H        2.3211950237    -2.1331172977    -1.2493502959
| 21>  H        1.5515764242    -2.5000996792     1.3928152124
| 22>  H        2.6243324408    -0.3067480257     2.1960896113
| 23>  H        2.6924951189     0.2607449480     0.4658256364
| 24> *
| 25>
| 26>                          ****END OF INPUT****

CARTESIAN COORDINATES (ANGSTROEM)
---------------------------------
  C     -0.033615    1.594464    0.024702
  C      0.071180    0.076443   -0.010624
  C      0.846412   -0.487012   -1.253594
  C      1.392512   -1.847972   -0.748041
  C      1.548936   -1.625814    0.748504
  C      2.193864   -0.365834    1.201269
  N      0.727018   -0.483496    1.183605
  C      0.017691   -0.585251   -2.445723
  N     -0.658930   -0.657205   -3.380729
  H      0.957777    2.059281    0.047614
  H     -0.564039    1.963128   -0.858236
  H     -0.580001    1.915621    0.915061
  H     -0.936979   -0.353496   -0.026301
  H      1.679526    0.182813   -1.492051
  H      0.659797   -2.639739   -0.931092
  H      2.321195   -2.133117   -1.249350
  H      1.551576   -2.500100    1.392815
  H      2.624332   -0.306748    2.196090
  H      2.692495    0.260745    0.465826

 Total Charge           Charge          ....    0
 Multiplicity           Mult            ....    1
 Number of Electrons    NEL             ....   66
 Basis Dimension        Dim             ....  339

ORBITAL ENERGIES
----------------

  NO   OCC          E(Eh)            E(eV)
   0   2.0000     -15.574294      -423.7981
   1   2.0000     -15.569937      -423.6795
   2   2.0000     -11.286081      -307.1099
   3   2.0000     -11.283307      -307.0344
   4   2.0000     -11.275874      -306.8321
   5   2.0000     -11.273768      -306.7748
   6   2.0000     -11.268803      -306.6397
   7   2.0000     -11.258261      -306.3529
   8   2.0000     -11.229536      -305.5712
   9   2.0000      -1.303278       -35.4640
  10   2.0000      -1.219580       -33.1865
  11   2.0000      -1.100913       -29.9574
  12   2.0000      -1.048833       -28.5402
  13   2.0000      -0.938442       -25.5363
  14   2.0000      -0.916297       -24.9337
  15   2.0000      -0.814809       -22.1721
  16   2.0000      -0.789988       -21.4967
  17   2.0000      -0.738965       -20.1083
  18   2.0000      -0.669950       -18.2303
  19   2.0000      -0.642134       -17.4734
  20   2.0000      -0.630482       -17.1563
  21   2.0000      -0.615137       -16.7387
  22   2.0000      -0.572983       -15.5917
  23   2.0000      -0.562151       -15.2969
  24   2.0000      -0.551661       -15.0115
  25   2.0000      -0.534136       -14.5346
  26   2.0000      -0.525026       -14.2867
  27   2.0000      -0.512989       -13.9591
  28   2.0000      -0.484207       -13.1759
  29   2.0000      -0.457284       -12.4433
  30   2.0000      -0.452041       -12.3007
  31   2.0000      -0.447795       -12.1851
  32   2.0000      -0.388671       -10.5763
  33   0.0000       0.123873         3.3708
  34   0.0000       0.140506         3.8234
  35   0.0000       0.148621         4.0442
  36   0.0000       0.165538         4.5045
  37   0.0000       0.179982         4.8976

MULLIKEN ATOMIC CHARGES
-----------------------
   0 C :   -0.410790
   1 C :   -0.030558
   2 C :    0.054148
   3 C :   -0.241877
   4 C :   -0.029046
   5 C :   -0.194846
   6 N :   -0.208213
   7 C :   -0.242554
   8 N :   -0.047167
   9 H :    0.120384
  10 H :    0.151844
  11 H :    0.151192
  12 H :    0.118754
  13 H :    0.131348
  14 H :    0.142280
  15 H :    0.139437
  16 H :    0.133536
  17 H :    0.136292
  18 H :    0.125835
Sum of atomic charges:   -0.0000000

LOEWDIN ATOMIC CHARGES
----------------------
   0 C :   -0.283394
   1 C :   -0.265879
   2 C :   -0.214808
   3 C :   -0.196742
   4 C :   -0.240439
   5 C :   -0.239584
   6 N :    0.135251
   7 C :   -0.175946
   8 N :    0.060759
   9 H :    0.124537
  10 H :    0.133239
  11 H :    0.132297
  12 H :    0.158978
  13 H :    0.174910
  14 H :    0.152324
  15 H :    0.145970
  16 H :    0.142147
  17 H :    0.129761
  18 H :    0.126619

  Mayer bond orders larger than 0.1
B(  0-C ,  1-C ) :   0.9477 B(  0-C ,  9-H ) :   0.9190 B(  0-C , 10-H ) :   0.9356
B(  0-C , 11-H ) :   0.9384 B(  1-C ,  2-C ) :   0.8587 B(  1-C ,  6-N ) :   0.9177
B(  1-C , 12-H ) :   0.9235 B(  2-C ,  3-C ) :   0.9081 B(  2-C ,  7-C ) :   0.9394
B(  2-C , 13-H ) :   0.8971 B(  3-C ,  4-C ) :   0.9380 B(  3-C , 14-H ) :   0.9185
B(  3-C , 15-H ) :   0.9205 B(  4-C ,  5-C ) :   0.9254 B(  4-C ,  6-N ) :   0.8998
B(  4-C , 16-H ) :   0.9185 B(  5-C ,  6-N ) :   0.8775 B(  5-C , 17-H ) :   0.9268
B(  5-C , 18-H ) :   0.9119 B(  7-C ,  8-N ) :   2.8906

MP2 TOTAL ENERGY:     -381.401986297 Eh
FINAL SINGLE POINT ENERGY      -381.401986296957

DIPOLE MOMENT
-------------
                                X             Y             Z
Electronic contribution:     -2.18898      -2.83066      -4.14270
Nuclear contribution   :      3.30826       2.87951       5.04355
                        -----------------------------------------
Total Dipole Moment    :      1.11928       0.04885       0.90084
                        -----------------------------------------
Magnitude (a.u.)       :      1.43760
Magnitude (Debye)      :      3.65409

                             ****ORCA TERMINATED NORMALLY****
TOTAL RUN TIME: 0 days 0 hours 20 minutes 23 seconds 742 msec
