                         Program Version 3.0.3 - RELEASE   -
|  1> ! RI-MP2 RIJK def2-TZVP def2-TZVP/C def2-TZVP/JK TIGHTSCF
|  2> % maxcore 2000
|  3> % mp2 density relaxed end
|  4> *xyz 0 1
|  5>  C       -0.0285597078     1.6474283937    -0.1421058614
|  6>  C        0.0037155339     0.1342694057     0.0982364525
|  7>  C       -1.3869590269    -0.5024124015     0.0409059071
|  8>  C       -1.9543126816    -0.6727708662    -1.4020080588
|  9>  C       -1.5567668427    -2.1713939361    -1.3585334612
| 10>  C       -1.4428971478    -2.0619848810     0.1889960961
| 11>  C       -0.3349025470    -2.8108364322     0.9189394687
| 12>  C       -0.5362373610    -4.3213752911     0.8960259799
| 13>  O        0.5483303910    -4.9202728216     1.5911692486
| 14>  H        0.9773424946     2.0773631615    -0.1062465598
| 15>  H       -0.4580364610     1.8898646174    -1.1200456975
| 16>  H       -0.6348249328     2.1530970728     0.6178878823
| 17>  H        0.6632479664    -0.3378300111    -0.6419180610
| 18>  H        0.4556792599    -0.0646685027     1.0779859538
| 19>  H       -2.0441127042     0.0350911310     0.7341318602
| 20>  H       -3.0383132192    -0.5344232713    -1.4407599714
| 21>  H       -1.5031634811    -0.0591495735    -2.1867817027
| 22>  H       -2.2662645823    -2.8956691231    -1.7669926905
| 23>  H       -0.5812987094    -2.3508774156    -1.8226311661
| 24>  H       -2.4082644415    -2.3300418708     0.6371282722
| 25>  H        0.6417368633    -2.5895302787     0.4732553155
| 26>  H       -0.2822341388    -2.4875039216     1.9663443105
| 27>  H       -1.5000795614    -4.5747694243     1.3683756634
| 28>  H       -0.5834421746    -4.6757038474    -0.1464856043
| 29>  H        0.4332629822    -5.8744185723     1.5618257038
| 30> *
| 31>
| 32>                          ****END OF INPUT****

CARTESIAN COORDINATES (ANGSTROEM)
---------------------------------
  C     -0.028560    1.647428   -0.142106
  C      0.003716    0.134269    0.098236
  C     -1.386959   -0.502412    0.040906
  C     -1.954313   -0.672771   -1.402008
  C     -1.556767   -2.171394   -1.358533
  C     -1.442897   -2.061985    0.188996
  C     -0.334903   -2.810836    0.918939
  C     -0.536237   -4.321375    0.896026
  O      0.548330   -4.920273    1.591169
  H      0.977342    2.077363   -0.106247
  H     -0.458036    1.889865   -1.120046
  H     -0.634825    2.153097    0.617888
  H      0.663248   -0.337830   -0.641918
  H      0.455679   -0.064669    1.077986
  H     -2.044113    0.035091    0.734132
  H     -3.038313   -0.534423   -1.440760
  H     -1.503163   -0.059150   -2.186782
  H     -2.266265   -2.895669   -1.766993
  H     -0.581299   -2.350877   -1.822631
  H     -2.408264   -2.330042    0.637128
  H      0.641737   -2.589530    0.473255
  H     -0.282234   -2.487504    1.966344
  H     -1.500080   -4.574769    1.368376
  H     -0.583442   -4.675704   -0.146486
  H      0.433263   -5.874419    1.561826

 Total Charge           Charge          ....    0
 Multiplicity           Mult            ....    1
 Number of Electrons    NEL             ....   72
 Basis Dimension        Dim             ....  375

ORBITAL ENERGIES
----------------

  NO   OCC          E(Eh)            E(eV)
   0   2.0000     -20.551278      -559.2287
   1   2.0000     -11.270750      -306.6927
   2   2.0000     -11.221592      -305.3550
   3   2.0000     -11.219956      -305.3105
   4   2.0000     -11.215187      -305.1807
   5   2.0000     -11.215093      -305.1782
   6   2.0000     -11.214297      -305.1565
   7   2.0000     -11.211495      -305.0803
   8   2.0000     -11.209401      -305.0233
   9   2.0000      -1.354845       -36.8672
  10   2.0000      -1.135676       -30.9033
  11   2.0000      -1.032373       -28.0923
  12   2.0000      -1.010609       -27.5001
  13   2.0000      -0.900138       -24.4940
  14   2.0000      -0.884545       -24.0697
  15   2.0000      -0.823185       -22.4000
  16   2.0000      -0.806287       -21.9402
  17   2.0000      -0.720106       -19.5951
  18   2.0000      -0.685903       -18.6644
  19   2.0000      -0.664880       -18.0923
  20   2.0000      -0.637796       -17.3553
  21   2.0000      -0.614203       -16.7133
  22   2.0000      -0.592528       -16.1235
  23   2.0000      -0.574914       -15.6442
  24   2.0000      -0.557764       -15.1775
  25   2.0000      -0.543837       -14.7986
  26   2.0000      -0.527836       -14.3631
  27   2.0000      -0.503911       -13.7121
  28   2.0000      -0.498236       -13.5577
  29   2.0000      -0.489449       -13.3186
  30   2.0000      -0.482558       -13.1311
  31   2.0000      -0.454150       -12.3581
  32   2.0000      -0.440304       -11.9813
  33   2.0000      -0.434305       -11.8180
  34   2.0000      -0.414799       -11.2872
  35   2.0000      -0.413092       -11.2408
  36   0.0000       0.134499         3.6599
  37   0.0000       0.143179         3.8961
  38   0.0000       0.151763         4.1297
  39   0.0000       0.158259         4.3065
  40   0.0000       0.166096         4.5197

MULLIKEN ATOMIC CHARGES
-----------------------
   0 C :   -0.388132
   1 C :   -0.273200
   2 C :   -0.004243
   3 C :   -0.230347
   4 C :   -0.283587
   5 C :   -0.078820
   6 C :   -0.191757
   7 C :   -0.072910
   8 O :   -0.464185
   9 H :    0.134047
  10 H :    0.123837
  11 H :    0.122106
  12 H :    0.115605
  13 H :    0.117672
  14 H :    0.095650
  15 H :    0.114440
  16 H :    0.110938
  17 H :    0.116637
  18 H :    0.113331
  19 H :    0.091648
  20 H :    0.111328
  21 H :    0.115741
  22 H :    0.091130
  23 H :    0.099335
  24 H :    0.313737
Sum of atomic charges:   -0.0000000

LOEWDIN ATOMIC CHARGES
----------------------
   0 C :   -0.316891
   1 C :   -0.276202
   2 C :   -0.209504
   3 C :   -0.222404
   4 C :   -0.226572
   5 C :   -0.214486
   6 C :   -0.257721
   7 C :   -0.348763
   8 O :   -0.053369
   9 H :    0.120399
  10 H :    0.119674
  11 H :    0.120580
  12 H :    0.137889
  13 H :    0.138787
  14 H :    0.139745
  15 H :    0.132368
  16 H :    0.124453
  17 H :    0.121488
  18 H :    0.134022
  19 H :    0.151472
  20 H :    0.142415
  21 H :    0.142623
  22 H :    0.113796
  23 H :    0.115499
  24 H :    0.170700

  Mayer bond orders larger than 0.1
B(  0-C ,  1-C ) :   0.9182 B(  0-C ,  9-H ) :   0.9435 B(  0-C , 10-H ) :   0.9416
B(  0-C , 11-H ) :   0.9389 B(  1-C ,  2-C ) :   0.9144 B(  1-C , 12-H ) :   0.9320
B(  1-C , 13-H ) :   0.9360 B(  2-C ,  3-C ) :   0.9033 B(  2-C ,  5-C ) :   0.9115
B(  2-C , 14-H ) :   0.9207 B(  3-C ,  4-C ) :   0.9436 B(  3-C , 15-H ) :   0.9242
B(  3-C , 16-H ) :   0.9245 B(  4-C ,  5-C ) :   0.9296 B(  4-C , 17-H ) :   0.9263
B(  4-C , 18-H ) :   0.9229 B(  5-C ,  6-C ) :   0.8965 B(  5-C , 19-H ) :   0.9216
B(  6-C ,  7-C ) :   0.9295 B(  6-C ,  8-O ) :  -0.1067 B(  6-C , 20-H ) :   0.9197
B(  6-C , 21-H ) :   0.9318 B(  7-C ,  8-O ) :   1.0269 B(  7-C , 22-H ) :   0.9343
B(  7-C , 23-H ) :   0.9337 B(  8-O , 24-H ) :   0.8500

MP2 TOTAL ENERGY:     -388.807586740 Eh
FINAL SINGLE POINT ENERGY      -388.807586739687

DIPOLE MOMENT
-------------
                                X             Y             Z
Electronic contribution:      0.33815      -6.03834       2.31671
Nuclear contribution   :     -0.77962       5.74785      -2.54257
                        -----------------------------------------
Total Dipole Moment    :     -0.44147      -0.29048      -0.22585
                        -----------------------------------------
Magnitude (a.u.)       :      0.57470
Magnitude (Debye)      :      1.46078

                             ****ORCA TERMINATED NORMALLY****
TOTAL RUN TIME: 0 days 0 hours 19 minutes 39 seconds 998 msec
