                         Program Version 3.0.3 - RELEASE   -
|  1> ! RI-MP2 RIJK def2-TZVP def2-TZVP/C def2-TZVP/JK TIGHTSCF
|  2> % maxcore 2000
|  3> % mp2 density relaxed end
|  4> *xyz 0 1
|  5>  C        0.1447023574     1.4949928603     0.0363198561
|  6>  C        0.0436975507     0.0088193787    -0.0105026139
|  7>  C       -0.1471675118    -0.8422754619    -1.0864767102
|  8>  C       -0.1592080262    -2.1454066332    -0.5244056630
|  9>  N        0.0096067746    -2.1132804449     0.7928835228
| 10>  N        0.1297320999    -0.8001681903     1.0774337465
| 11>  N       -0.2873491882    -0.3888262951    -2.4213696986
| 12>  C        0.2734549896    -1.2179169560    -3.4949126556
| 13>  C       -1.1967612288    -1.1238113692    -3.3085853451
| 14>  H        1.1096693569     1.8295338917     0.4345677689
| 15>  H        0.0415185687     1.8805132468    -0.9798956662
| 16>  H       -0.6423767410     1.9416641578     0.6549336469
| 17>  H       -0.2828428379    -3.0980377638    -1.0193976591
| 18>  H        0.2686995774    -0.5234066077     2.0344852453
| 19>  H        0.7622911240    -0.6699715473    -4.2958191867
| 20>  H        0.7610597673    -2.1476406915    -3.2124080981
| 21>  H       -1.7115715423    -1.9893742480    -2.8990424414
| 22>  H       -1.7965138702    -0.5061949265    -3.9715363486
| 23> *
| 24>
| 25>                          ****END OF INPUT****

CARTESIAN COORDINATES (ANGSTROEM)
---------------------------------
  C      0.144702    1.494993    0.036320
  C      0.043698    0.008819   -0.010503
  C     -0.147168   -0.842275   -1.086477
  C     -0.159208   -2.145407   -0.524406
  N      0.009607   -2.113280    0.792884
  N      0.129732   -0.800168    1.077434
  N     -0.287349   -0.388826   -2.421370
  C      0.273455   -1.217917   -3.494913
  C     -1.196761   -1.123811   -3.308585
  H      1.109669    1.829534    0.434568
  H      0.041519    1.880513   -0.979896
  H     -0.642377    1.941664    0.654934
  H     -0.282843   -3.098038   -1.019398
  H      0.268700   -0.523407    2.034485
  H      0.762291   -0.669972   -4.295819
  H      0.761060   -2.147641   -3.212408
  H     -1.711572   -1.989374   -2.899042
  H     -1.796514   -0.506195   -3.971536

 Total Charge           Charge          ....    0
 Multiplicity           Mult            ....    1
 Number of Electrons    NEL             ....   66
 Basis Dimension        Dim             ....  333

ORBITAL ENERGIES
----------------

  NO   OCC          E(Eh)            E(eV)
   0   2.0000     -15.625194      -425.1832
   1   2.0000     -15.579697      -423.9451
   2   2.0000     -15.568315      -423.6354
   3   2.0000     -11.269499      -306.6586
   4   2.0000     -11.259304      -306.3812
   5   2.0000     -11.258570      -306.3613
   6   2.0000     -11.245740      -306.0121
   7   2.0000     -11.242284      -305.9181
   8   2.0000     -11.234128      -305.6962
   9   2.0000      -1.365714       -37.1630
  10   2.0000      -1.276664       -34.7398
  11   2.0000      -1.101955       -29.9857
  12   2.0000      -1.063222       -28.9318
  13   2.0000      -0.965507       -26.2728
  14   2.0000      -0.904032       -24.6000
  15   2.0000      -0.845738       -23.0137
  16   2.0000      -0.814336       -22.1592
  17   2.0000      -0.760718       -20.7002
  18   2.0000      -0.701813       -19.0973
  19   2.0000      -0.677932       -18.4475
  20   2.0000      -0.633050       -17.2262
  21   2.0000      -0.620767       -16.8919
  22   2.0000      -0.596434       -16.2298
  23   2.0000      -0.568764       -15.4768
  24   2.0000      -0.558883       -15.2080
  25   2.0000      -0.536451       -14.5976
  26   2.0000      -0.532414       -14.4877
  27   2.0000      -0.511473       -13.9179
  28   2.0000      -0.485893       -13.2218
  29   2.0000      -0.456740       -12.4285
  30   2.0000      -0.383933       -10.4473
  31   2.0000      -0.354142        -9.6367
  32   2.0000      -0.315291        -8.5795
  33   0.0000       0.133442         3.6311
  34   0.0000       0.152561         4.1514
  35   0.0000       0.152748         4.1565
  36   0.0000       0.167798         4.5660
  37   0.0000       0.184073         5.0089

MULLIKEN ATOMIC CHARGES
-----------------------
   0 C :   -0.446479
   1 C :    0.013306
   2 C :    0.119455
   3 C :   -0.174186
   4 N :   -0.221063
   5 N :   -0.092493
   6 N :   -0.223341
   7 C :   -0.169772
   8 C :   -0.169758
   9 H :    0.142962
  10 H :    0.171682
  11 H :    0.142988
  12 H :    0.131415
  13 H :    0.251336
  14 H :    0.129424
  15 H :    0.132551
  16 H :    0.132549
  17 H :    0.129422
Sum of atomic charges:   -0.0000000

LOEWDIN ATOMIC CHARGES
----------------------
   0 C :   -0.275142
   1 C :   -0.238243
   2 C :   -0.243021
   3 C :   -0.268967
   4 N :    0.017325
   5 N :    0.143823
   6 N :    0.136700
   7 C :   -0.249902
   8 C :   -0.249900
   9 H :    0.131182
  10 H :    0.143991
  11 H :    0.131191
  12 H :    0.133371
  13 H :    0.188058
  14 H :    0.124281
  15 H :    0.125486
  16 H :    0.125487
  17 H :    0.124281

  Mayer bond orders larger than 0.1
B(  0-C ,  1-C ) :   0.8480 B(  0-C ,  9-H ) :   0.9353 B(  0-C , 10-H ) :   0.9411
B(  0-C , 11-H ) :   0.9353 B(  1-C ,  2-C ) :   1.3843 B(  1-C ,  4-N ) :   0.1278
B(  1-C ,  5-N ) :   1.2125 B(  2-C ,  3-C ) :   1.2336 B(  2-C ,  6-N ) :   1.0354
B(  3-C ,  4-N ) :   1.5580 B(  3-C , 12-H ) :   0.9436 B(  4-N ,  5-N ) :   1.0542
B(  5-N , 13-H ) :   0.8732 B(  6-N ,  7-C ) :   0.8657 B(  6-N ,  8-C ) :   0.8657
B(  7-C ,  8-C ) :   0.9433 B(  7-C , 14-H ) :   0.9272 B(  7-C , 15-H ) :   0.9252
B(  8-C , 16-H ) :   0.9252 B(  8-C , 17-H ) :   0.9272

MP2 TOTAL ENERGY:     -397.421618079 Eh
FINAL SINGLE POINT ENERGY      -397.421618078960

DIPOLE MOMENT
-------------
                                X             Y             Z
Electronic contribution:      0.31664      -2.88757       3.95638
Nuclear contribution   :     -0.29405       3.46292      -4.06866
                        -----------------------------------------
Total Dipole Moment    :      0.02260       0.57535      -0.11228
                        -----------------------------------------
Magnitude (a.u.)       :      0.58664
Magnitude (Debye)      :      1.49113

                             ****ORCA TERMINATED NORMALLY****
TOTAL RUN TIME: 0 days 0 hours 17 minutes 8 seconds 874 msec
