                         Program Version 3.0.3 - RELEASE   -
|  1> ! RI-MP2 RIJK def2-TZVP def2-TZVP/C def2-TZVP/JK TIGHTSCF
|  2> % maxcore 2000
|  3> % mp2 density relaxed end
|  4> *xyz 0 1
|  5>  C       -0.0650209133     1.5601648280    -0.0155506931
|  6>  C        0.0233853782     0.0289461523     0.0440762477
|  7>  C        0.8826262649    -0.4138513736     1.2371878168
|  8>  C       -1.3861876252    -0.5898783865     0.0692172623
|  9>  C       -1.4351914681    -2.1163332422    -0.0694018981
| 10>  C       -2.8660412344    -2.6595014792    -0.1376574986
| 11>  C       -2.9232794426    -4.1753515764    -0.2700829504
| 12>  O       -4.2888637038    -4.5619600261    -0.3250300144
| 13>  H        0.9296395587     2.0147689219    -0.0727195511
| 14>  H       -0.6378467382     1.8935729802    -0.8874226680
| 15>  H       -0.5600197103     1.9584886800     0.8784725921
| 16>  H        0.5207932926    -0.3142829354    -0.8753526783
| 17>  H        0.4167302753    -0.1155573773     2.1845651582
| 18>  H        1.0254635351    -1.4979651222     1.2630569148
| 19>  H        1.8749383929     0.0479190883     1.1980184663
| 20>  H       -1.8900061970    -0.2931587029     1.0007772344
| 21>  H       -1.9759323026    -0.1469728702    -0.7449160726
| 22>  H       -0.8867540941    -2.4147041356    -0.9742257577
| 23>  H       -0.9120252303    -2.5870001118     0.7725730059
| 24>  H       -3.4234853081    -2.3691926343     0.7615920493
| 25>  H       -3.3986065651    -2.2171308888    -0.9886800509
| 26>  H       -2.3838124434    -4.4896716327    -1.1791572589
| 27>  H       -2.4113172582    -4.6431868048     0.5873826791
| 28>  H       -4.3270938730    -5.5192181207    -0.4062625848
| 29> *
| 30>
| 31>                          ****END OF INPUT****

CARTESIAN COORDINATES (ANGSTROEM)
---------------------------------
  C     -0.065021    1.560165   -0.015551
  C      0.023385    0.028946    0.044076
  C      0.882626   -0.413851    1.237188
  C     -1.386188   -0.589878    0.069217
  C     -1.435191   -2.116333   -0.069402
  C     -2.866041   -2.659501   -0.137657
  C     -2.923279   -4.175352   -0.270083
  O     -4.288864   -4.561960   -0.325030
  H      0.929640    2.014769   -0.072720
  H     -0.637847    1.893573   -0.887423
  H     -0.560020    1.958489    0.878473
  H      0.520793   -0.314283   -0.875353
  H      0.416730   -0.115557    2.184565
  H      1.025464   -1.497965    1.263057
  H      1.874938    0.047919    1.198018
  H     -1.890006   -0.293159    1.000777
  H     -1.975932   -0.146973   -0.744916
  H     -0.886754   -2.414704   -0.974226
  H     -0.912025   -2.587000    0.772573
  H     -3.423485   -2.369193    0.761592
  H     -3.398607   -2.217131   -0.988680
  H     -2.383812   -4.489672   -1.179157
  H     -2.411317   -4.643187    0.587383
  H     -4.327094   -5.519218   -0.406263

 Total Charge           Charge          ....    0
 Multiplicity           Mult            ....    1
 Number of Electrons    NEL             ....   66
 Basis Dimension        Dim             ....  344

ORBITAL ENERGIES
----------------

  NO   OCC          E(Eh)            E(eV)
   0   2.0000     -20.551594      -559.2373
   1   2.0000     -11.271208      -306.7052
   2   2.0000     -11.223600      -305.4097
   3   2.0000     -11.217436      -305.2420
   4   2.0000     -11.214166      -305.1530
   5   2.0000     -11.213386      -305.1317
   6   2.0000     -11.209017      -305.0129
   7   2.0000     -11.208591      -305.0013
   8   2.0000      -1.355285       -36.8792
   9   2.0000      -1.094642       -29.7867
  10   2.0000      -1.046293       -28.4711
  11   2.0000      -0.957977       -26.0679
  12   2.0000      -0.925271       -25.1779
  13   2.0000      -0.857774       -23.3412
  14   2.0000      -0.795628       -21.6501
  15   2.0000      -0.761202       -20.7134
  16   2.0000      -0.688533       -18.7359
  17   2.0000      -0.658862       -17.9286
  18   2.0000      -0.629033       -17.1169
  19   2.0000      -0.599886       -16.3237
  20   2.0000      -0.593200       -16.1418
  21   2.0000      -0.574040       -15.6204
  22   2.0000      -0.557123       -15.1601
  23   2.0000      -0.531504       -14.4630
  24   2.0000      -0.519099       -14.1254
  25   2.0000      -0.509183       -13.8556
  26   2.0000      -0.505188       -13.7469
  27   2.0000      -0.480858       -13.0848
  28   2.0000      -0.471646       -12.8341
  29   2.0000      -0.455087       -12.3835
  30   2.0000      -0.450379       -12.2554
  31   2.0000      -0.439450       -11.9580
  32   2.0000      -0.438861       -11.9420
  33   0.0000       0.134187         3.6514
  34   0.0000       0.141083         3.8391
  35   0.0000       0.159766         4.3475
  36   0.0000       0.165154         4.4941
  37   0.0000       0.169576         4.6144

MULLIKEN ATOMIC CHARGES
-----------------------
   0 C :   -0.390067
   1 C :    0.006300
   2 C :   -0.419150
   3 C :   -0.232837
   4 C :   -0.272838
   5 C :   -0.151365
   6 C :   -0.061655
   7 O :   -0.466065
   8 H :    0.129453
   9 H :    0.127803
  10 H :    0.120123
  11 H :    0.079382
  12 H :    0.120200
  13 H :    0.132132
  14 H :    0.130405
  15 H :    0.107949
  16 H :    0.111707
  17 H :    0.105803
  18 H :    0.109701
  19 H :    0.109962
  20 H :    0.110386
  21 H :    0.089437
  22 H :    0.089381
  23 H :    0.313852
Sum of atomic charges:    0.0000000

LOEWDIN ATOMIC CHARGES
----------------------
   0 C :   -0.297746
   1 C :   -0.311245
   2 C :   -0.297632
   3 C :   -0.250713
   4 C :   -0.268519
   5 C :   -0.272401
   6 C :   -0.354756
   7 O :   -0.054127
   8 H :    0.121420
   9 H :    0.121387
  10 H :    0.122671
  11 H :    0.148271
  12 H :    0.123108
  13 H :    0.119736
  14 H :    0.122582
  15 H :    0.139169
  16 H :    0.140538
  17 H :    0.136617
  18 H :    0.135382
  19 H :    0.139905
  20 H :    0.139437
  21 H :    0.113139
  22 H :    0.113039
  23 H :    0.170739

  Mayer bond orders larger than 0.1
B(  0-C ,  1-C ) :   0.9190 B(  0-C ,  8-H ) :   0.9424 B(  0-C ,  9-H ) :   0.9403
B(  0-C , 10-H ) :   0.9322 B(  1-C ,  2-C ) :   0.9117 B(  1-C ,  3-C ) :   0.9233
B(  1-C , 11-H ) :   0.9291 B(  2-C , 12-H ) :   0.9317 B(  2-C , 13-H ) :   0.9410
B(  2-C , 14-H ) :   0.9394 B(  3-C ,  4-C ) :   0.9365 B(  3-C , 15-H ) :   0.9278
B(  3-C , 16-H ) :   0.9324 B(  4-C ,  5-C ) :   0.9261 B(  4-C , 17-H ) :   0.9234
B(  4-C , 18-H ) :   0.9295 B(  5-C ,  6-C ) :   0.9391 B(  5-C , 19-H ) :   0.9240
B(  5-C , 20-H ) :   0.9266 B(  6-C ,  7-O ) :   1.0226 B(  6-C , 21-H ) :   0.9330
B(  6-C , 22-H ) :   0.9329 B(  7-O , 23-H ) :   0.8502

MP2 TOTAL ENERGY:     -350.811286531 Eh
FINAL SINGLE POINT ENERGY      -350.811286531210

DIPOLE MOMENT
-------------
                                X             Y             Z
Electronic contribution:     -5.81247      -6.03004      -1.42622
Nuclear contribution   :      6.30309       5.64582       1.36929
                        -----------------------------------------
Total Dipole Moment    :      0.49062      -0.38421      -0.05694
                        -----------------------------------------
Magnitude (a.u.)       :      0.62575
Magnitude (Debye)      :      1.59054

                             ****ORCA TERMINATED NORMALLY****
TOTAL RUN TIME: 0 days 0 hours 12 minutes 48 seconds 628 msec
