                         Program Version 3.0.3 - RELEASE   -
|  1> ! RI-MP2 RIJK def2-TZVP def2-TZVP/C def2-TZVP/JK TIGHTSCF
|  2> % maxcore 2000
|  3> % mp2 density relaxed end
|  4> *xyz 0 1
|  5>  C       -0.0033822769     1.5536572847     0.0240566118
|  6>  C       -0.0172695779     0.0230354613    -0.0039827678
|  7>  N       -1.3595200684    -0.5386568708     0.0111604254
|  8>  C       -2.1067764321    -0.7875280429     1.1402338975
|  9>  C       -3.3473396985    -1.2256752851     0.7543251343
| 10>  C       -3.3660564661    -1.2440824236    -0.6776633078
| 11>  C       -2.1172616701    -0.8080047725    -1.0932665297
| 12>  C       -4.4364385343    -1.6400463723    -1.5124087698
| 13>  C       -5.3566727119    -1.9789987057    -2.2130353225
| 14>  H        1.0270269043     1.9222469035     0.0115389199
| 15>  H       -0.5271231946     1.9632779594    -0.8442941408
| 16>  H       -0.4932307753     1.9312514578     0.9260117001
| 17>  H        0.4894039934    -0.3472414893    -0.9003759171
| 18>  H        0.5240700957    -0.3794483658     0.8580645640
| 19>  H       -1.6833134648    -0.6341483716     2.1203502485
| 20>  H       -4.1575783979    -1.5198934703     1.4021628589
| 21>  H       -1.7220407944    -0.6789291661    -2.0879897342
| 22>  H       -6.1649493502    -2.2777041807    -2.8323668406
| 23> *
| 24>
| 25>                          ****END OF INPUT****

CARTESIAN COORDINATES (ANGSTROEM)
---------------------------------
  C     -0.003382    1.553657    0.024057
  C     -0.017270    0.023035   -0.003983
  N     -1.359520   -0.538657    0.011160
  C     -2.106776   -0.787528    1.140234
  C     -3.347340   -1.225675    0.754325
  C     -3.366056   -1.244082   -0.677663
  C     -2.117262   -0.808005   -1.093267
  C     -4.436439   -1.640046   -1.512409
  C     -5.356673   -1.978999   -2.213035
  H      1.027027    1.922247    0.011539
  H     -0.527123    1.963278   -0.844294
  H     -0.493231    1.931251    0.926012
  H      0.489404   -0.347241   -0.900376
  H      0.524070   -0.379448    0.858065
  H     -1.683313   -0.634148    2.120350
  H     -4.157578   -1.519893    1.402163
  H     -1.722041   -0.678929   -2.087990
  H     -6.164949   -2.277704   -2.832367

 Total Charge           Charge          ....    0
 Multiplicity           Mult            ....    1
 Number of Electrons    NEL             ....   64
 Basis Dimension        Dim             ....  333

ORBITAL ENERGIES
----------------

  NO   OCC          E(Eh)            E(eV)
   0   2.0000     -15.613833      -424.8740
   1   2.0000     -11.284479      -307.0663
   2   2.0000     -11.262988      -306.4815
   3   2.0000     -11.255054      -306.2656
   4   2.0000     -11.233823      -305.6879
   5   2.0000     -11.232693      -305.6571
   6   2.0000     -11.226435      -305.4868
   7   2.0000     -11.217606      -305.2466
   8   2.0000     -11.210649      -305.0573
   9   2.0000      -1.311102       -35.6769
  10   2.0000      -1.106229       -30.1020
  11   2.0000      -1.036492       -28.2044
  12   2.0000      -0.995153       -27.0795
  13   2.0000      -0.976532       -26.5728
  14   2.0000      -0.881019       -23.9737
  15   2.0000      -0.812743       -22.1159
  16   2.0000      -0.764049       -20.7908
  17   2.0000      -0.733428       -19.9576
  18   2.0000      -0.693017       -18.8580
  19   2.0000      -0.643456       -17.5093
  20   2.0000      -0.631086       -17.1727
  21   2.0000      -0.597276       -16.2527
  22   2.0000      -0.584889       -15.9157
  23   2.0000      -0.572834       -15.5876
  24   2.0000      -0.550428       -14.9779
  25   2.0000      -0.540333       -14.7032
  26   2.0000      -0.522878       -14.2282
  27   2.0000      -0.511728       -13.9248
  28   2.0000      -0.427944       -11.6450
  29   2.0000      -0.380620       -10.3572
  30   2.0000      -0.328041        -8.9265
  31   2.0000      -0.293065        -7.9747
  32   0.0000       0.125645         3.4190
  33   0.0000       0.137335         3.7371
  34   0.0000       0.161130         4.3846
  35   0.0000       0.165323         4.4987
  36   0.0000       0.171667         4.6713

MULLIKEN ATOMIC CHARGES
-----------------------
   0 C :   -0.367745
   1 C :   -0.196317
   2 N :    0.015343
   3 C :   -0.111715
   4 C :   -0.258064
   5 C :   -0.067049
   6 C :   -0.182982
   7 C :    0.037313
   8 C :   -0.167958
   9 H :    0.133802
  10 H :    0.138998
  11 H :    0.136624
  12 H :    0.138887
  13 H :    0.138057
  14 H :    0.144979
  15 H :    0.134287
  16 H :    0.148419
  17 H :    0.185122
Sum of atomic charges:    0.0000000

LOEWDIN ATOMIC CHARGES
----------------------
   0 C :   -0.308715
   1 C :   -0.265933
   2 N :    0.256657
   3 C :   -0.211081
   4 C :   -0.146543
   5 C :   -0.183641
   6 C :   -0.169283
   7 C :   -0.075141
   8 C :   -0.100094
   9 H :    0.125723
  10 H :    0.126100
  11 H :    0.125287
  12 H :    0.140761
  13 H :    0.140075
  14 H :    0.136387
  15 H :    0.144267
  16 H :    0.140645
  17 H :    0.124527

  Mayer bond orders larger than 0.1
B(  0-C ,  1-C ) :   0.9229 B(  0-C ,  9-H ) :   0.9319 B(  0-C , 10-H ) :   0.9326
B(  0-C , 11-H ) :   0.9328 B(  1-C ,  2-N ) :   0.8610 B(  1-C , 12-H ) :   0.9335
B(  1-C , 13-H ) :   0.9344 B(  2-N ,  3-C ) :   1.1282 B(  2-N ,  6-C ) :   1.1788
B(  3-C ,  4-C ) :   1.4728 B(  3-C , 14-H ) :   0.9177 B(  4-C ,  5-C ) :   1.2273
B(  4-C , 15-H ) :   0.9326 B(  5-C ,  6-C ) :   1.3987 B(  5-C ,  7-C ) :   1.1547
B(  5-C ,  8-C ) :  -0.1596 B(  6-C , 16-H ) :   0.9051 B(  7-C ,  8-C ) :   2.6127
B(  8-C , 17-H ) :   0.8785

MP2 TOTAL ENERGY:     -364.145010045 Eh
FINAL SINGLE POINT ENERGY      -364.145010044527

DIPOLE MOMENT
-------------
                                X             Y             Z
Electronic contribution:     -6.82399      -5.20103      -1.62545
Nuclear contribution   :      8.00040       5.71538       1.87180
                        -----------------------------------------
Total Dipole Moment    :      1.17641       0.51435       0.24636
                        -----------------------------------------
Magnitude (a.u.)       :      1.30736
Magnitude (Debye)      :      3.32305

                             ****ORCA TERMINATED NORMALLY****
TOTAL RUN TIME: 0 days 0 hours 17 minutes 4 seconds 715 msec
