                         Program Version 3.0.3 - RELEASE   -
|  1> ! RI-MP2 RIJK def2-TZVP def2-TZVP/C def2-TZVP/JK TIGHTSCF
|  2> % maxcore 2000
|  3> % mp2 density relaxed end
|  4> *xyz 0 1
|  5>  O        0.0062074428     0.0838674436     0.0511942734
|  6>  C       -0.0127571745     1.2754604765     0.0163433792
|  7>  C       -1.1638866015     2.3068543721    -0.0254186496
|  8>  O       -0.9012184200     2.9238866927     1.2801635466
|  9>  C        0.2581058956     3.5055210188     0.6559863694
| 10>  C       -0.3538072128     3.4550100911    -0.7509798119
| 11>  O        0.8240266804     2.8754041273    -1.3414932184
| 12>  C        1.1049554998     2.3436284931    -0.0026312644
| 13>  H       -2.1931951721     2.0091127234    -0.1996877068
| 14>  H        0.7204893146     4.3351606274     1.1859363493
| 15>  H       -0.8418541555     4.2374538706    -1.3276421628
| 16>  H        2.1430446033     2.0893499534     0.1876558860
| 17> *
| 18>
| 19>                          ****END OF INPUT****

CARTESIAN COORDINATES (ANGSTROEM)
---------------------------------
  O      0.006207    0.083867    0.051194
  C     -0.012757    1.275460    0.016343
  C     -1.163887    2.306854   -0.025419
  O     -0.901218    2.923887    1.280164
  C      0.258106    3.505521    0.655986
  C     -0.353807    3.455010   -0.750980
  O      0.824027    2.875404   -1.341493
  C      1.104955    2.343628   -0.002631
  H     -2.193195    2.009113   -0.199688
  H      0.720489    4.335161    1.185936
  H     -0.841854    4.237454   -1.327642
  H      2.143045    2.089350    0.187656

 Total Charge           Charge          ....    0
 Multiplicity           Mult            ....    1
 Number of Electrons    NEL             ....   58
 Basis Dimension        Dim             ....  272

ORBITAL ENERGIES
----------------

  NO   OCC          E(Eh)            E(eV)
   0   2.0000     -20.593014      -560.3644
   1   2.0000     -20.593006      -560.3642
   2   2.0000     -20.575211      -559.8800
   3   2.0000     -11.355047      -308.9865
   4   2.0000     -11.327502      -308.2370
   5   2.0000     -11.326906      -308.2208
   6   2.0000     -11.323442      -308.1265
   7   2.0000     -11.323415      -308.1258
   8   2.0000      -1.466308       -39.9003
   9   2.0000      -1.412878       -38.4464
  10   2.0000      -1.391326       -37.8599
  11   2.0000      -1.058231       -28.7959
  12   2.0000      -0.988460       -26.8974
  13   2.0000      -0.973926       -26.5019
  14   2.0000      -0.782692       -21.2981
  15   2.0000      -0.779115       -21.2008
  16   2.0000      -0.746479       -20.3127
  17   2.0000      -0.699698       -19.0397
  18   2.0000      -0.675437       -18.3796
  19   2.0000      -0.654453       -17.8086
  20   2.0000      -0.625508       -17.0209
  21   2.0000      -0.595980       -16.2174
  22   2.0000      -0.571291       -15.5456
  23   2.0000      -0.536374       -14.5955
  24   2.0000      -0.530779       -14.4432
  25   2.0000      -0.498339       -13.5605
  26   2.0000      -0.497747       -13.5444
  27   2.0000      -0.454550       -12.3689
  28   2.0000      -0.389152       -10.5894
  29   0.0000       0.110824         3.0157
  30   0.0000       0.148087         4.0297
  31   0.0000       0.162093         4.4108
  32   0.0000       0.169804         4.6206
  33   0.0000       0.184188         5.0120

MULLIKEN ATOMIC CHARGES
-----------------------
   0 O :   -0.230187
   1 C :    0.091254
   2 C :    0.087664
   3 O :   -0.308768
   4 C :   -0.020403
   5 C :   -0.020398
   6 O :   -0.308779
   7 C :    0.087676
   8 H :    0.161971
   9 H :    0.149000
  10 H :    0.148998
  11 H :    0.161972
Sum of atomic charges:   -0.0000000

LOEWDIN ATOMIC CHARGES
----------------------
   0 O :    0.191466
   1 C :   -0.278887
   2 C :   -0.187616
   3 O :    0.171035
   4 C :   -0.213138
   5 C :   -0.213138
   6 O :    0.171025
   7 C :   -0.187616
   8 H :    0.138237
   9 H :    0.135199
  10 H :    0.135198
  11 H :    0.138236

  Mayer bond orders larger than 0.1
B(  0-O ,  1-C ) :   2.0357 B(  1-C ,  2-C ) :   0.8628 B(  1-C ,  7-C ) :   0.8628
B(  2-C ,  3-O ) :   0.8612 B(  2-C ,  5-C ) :   0.8424 B(  2-C ,  8-H ) :   0.8934
B(  3-O ,  4-C ) :   0.9645 B(  4-C ,  5-C ) :   0.9626 B(  4-C ,  7-C ) :   0.8424
B(  4-C ,  9-H ) :   0.9096 B(  5-C ,  6-O ) :   0.9645 B(  5-C , 10-H ) :   0.9096
B(  6-O ,  7-C ) :   0.8612 B(  7-C , 11-H ) :   0.8934

MP2 TOTAL ENERGY:     -417.744951895 Eh
FINAL SINGLE POINT ENERGY      -417.744951894819

DIPOLE MOMENT
-------------
                                X             Y             Z
Electronic contribution:      0.03244      -2.03828       0.05903
Nuclear contribution   :     -0.04952       3.10989      -0.09022
                        -----------------------------------------
Total Dipole Moment    :     -0.01708       1.07161      -0.03119
                        -----------------------------------------
Magnitude (a.u.)       :      1.07220
Magnitude (Debye)      :      2.72532

                             ****ORCA TERMINATED NORMALLY****
TOTAL RUN TIME: 0 days 0 hours 10 minutes 32 seconds 659 msec
