                         Program Version 3.0.3 - RELEASE   -
|  1> ! RI-MP2 RIJK def2-TZVP def2-TZVP/C def2-TZVP/JK TIGHTSCF
|  2> % maxcore 2000
|  3> % mp2 density relaxed end
|  4> *xyz 0 1
|  5>  O        0.0208598480     1.2591214492    -0.4949371846
|  6>  C       -0.0309205920    -0.0640276841    -0.0280308142
|  7>  C       -1.4964727324    -0.5140427441     0.1451803970
|  8>  N       -2.2004711910    -0.2745907588    -1.1715303712
|  9>  C       -2.2482498887    -1.7413081398    -1.4526132836
| 10>  C       -1.7504704834    -2.0637664441    -0.0228069053
| 11>  O       -0.7153139838    -2.9790389844     0.1798310996
| 12>  C       -2.1276202637     0.1108678447     1.2908822706
| 13>  C       -2.6805861091     0.6016982189     2.2397004959
| 14>  H       -0.6216610173     1.2858297819    -1.2204950265
| 15>  H        0.4733094157    -0.7511088171    -0.7309573199
| 16>  H        0.5018067290    -0.1121169694     0.9249576624
| 17>  H       -3.1279313607     0.1039292051    -1.0138263205
| 18>  H       -3.2307823117    -2.1339580332    -1.7274944178
| 19>  H       -1.5346075908    -2.0229302116    -2.2366905320
| 20>  H       -2.5636545025    -2.3799541799     0.6332342748
| 21>  H       -0.0143730421    -2.8039964866    -0.4570143599
| 22>  H       -3.1536259835     1.0463180033     3.0803220551
| 23> *
| 24>
| 25>                          ****END OF INPUT****

CARTESIAN COORDINATES (ANGSTROEM)
---------------------------------
  O      0.020860    1.259121   -0.494937
  C     -0.030921   -0.064028   -0.028031
  C     -1.496473   -0.514043    0.145180
  N     -2.200471   -0.274591   -1.171530
  C     -2.248250   -1.741308   -1.452613
  C     -1.750470   -2.063766   -0.022807
  O     -0.715314   -2.979039    0.179831
  C     -2.127620    0.110868    1.290882
  C     -2.680586    0.601698    2.239700
  H     -0.621661    1.285830   -1.220495
  H      0.473309   -0.751109   -0.730957
  H      0.501807   -0.112117    0.924958
  H     -3.127931    0.103929   -1.013826
  H     -3.230782   -2.133958   -1.727494
  H     -1.534608   -2.022930   -2.236691
  H     -2.563655   -2.379954    0.633234
  H     -0.014373   -2.803996   -0.457014
  H     -3.153626    1.046318    3.080322

 Total Charge           Charge          ....    0
 Multiplicity           Mult            ....    1
 Number of Electrons    NEL             ....   68
 Basis Dimension        Dim             ....  333

ORBITAL ENERGIES
----------------

  NO   OCC          E(Eh)            E(eV)
   0   2.0000     -20.578100      -559.9586
   1   2.0000     -20.550632      -559.2111
   2   2.0000     -15.569573      -423.6696
   3   2.0000     -11.303800      -307.5920
   4   2.0000     -11.296762      -307.4005
   5   2.0000     -11.285396      -307.0912
   6   2.0000     -11.271627      -306.7166
   7   2.0000     -11.240783      -305.8773
   8   2.0000     -11.234672      -305.7110
   9   2.0000      -1.389681       -37.8151
  10   2.0000      -1.363507       -37.1029
  11   2.0000      -1.250077       -34.0163
  12   2.0000      -1.057724       -28.7821
  13   2.0000      -0.988238       -26.8913
  14   2.0000      -0.969875       -26.3917
  15   2.0000      -0.890665       -24.2362
  16   2.0000      -0.810370       -22.0513
  17   2.0000      -0.766259       -20.8510
  18   2.0000      -0.709384       -19.3033
  19   2.0000      -0.704724       -19.1765
  20   2.0000      -0.664628       -18.0855
  21   2.0000      -0.638718       -17.3804
  22   2.0000      -0.631997       -17.1975
  23   2.0000      -0.608513       -16.5585
  24   2.0000      -0.585070       -15.9206
  25   2.0000      -0.565245       -15.3811
  26   2.0000      -0.545095       -14.8328
  27   2.0000      -0.514776       -14.0078
  28   2.0000      -0.505576       -13.7574
  29   2.0000      -0.462895       -12.5960
  30   2.0000      -0.454895       -12.3783
  31   2.0000      -0.412509       -11.2250
  32   2.0000      -0.391772       -10.6607
  33   2.0000      -0.379755       -10.3337
  34   0.0000       0.125042         3.4026
  35   0.0000       0.131070         3.5666
  36   0.0000       0.153191         4.1685
  37   0.0000       0.159826         4.3491
  38   0.0000       0.173128         4.7110

MULLIKEN ATOMIC CHARGES
-----------------------
   0 O :   -0.473020
   1 C :    0.039652
   2 C :   -0.102694
   3 N :   -0.351422
   4 C :   -0.143693
   5 C :    0.034853
   6 O :   -0.439726
   7 C :   -0.068544
   8 C :   -0.108669
   9 H :    0.327566
  10 H :    0.053342
  11 H :    0.132658
  12 H :    0.224767
  13 H :    0.134556
  14 H :    0.105231
  15 H :    0.118101
  16 H :    0.320663
  17 H :    0.196381
Sum of atomic charges:   -0.0000000

LOEWDIN ATOMIC CHARGES
----------------------
   0 O :   -0.028863
   1 C :   -0.301122
   2 C :   -0.288150
   3 N :    0.010594
   4 C :   -0.252606
   5 C :   -0.290189
   6 O :    0.007509
   7 C :   -0.077353
   8 C :   -0.077280
   9 H :    0.176858
  10 H :    0.112367
  11 H :    0.137911
  12 H :    0.168142
  13 H :    0.124009
  14 H :    0.125455
  15 H :    0.149450
  16 H :    0.174298
  17 H :    0.128969

  Mayer bond orders larger than 0.1
B(  0-O ,  1-C ) :   0.9558 B(  0-O ,  2-C ) :   0.1293 B(  0-O ,  9-H ) :   0.8130
B(  1-C ,  2-C ) :   0.9355 B(  1-C , 10-H ) :   0.8730 B(  1-C , 11-H ) :   0.9286
B(  2-C ,  3-N ) :   0.9772 B(  2-C ,  5-C ) :   0.8265 B(  2-C ,  7-C ) :   1.2122
B(  2-C ,  8-C ) :  -0.1192 B(  3-N ,  4-C ) :   0.9371 B(  3-N , 12-H ) :   0.8671
B(  4-C ,  5-C ) :   0.9410 B(  4-C , 13-H ) :   0.9255 B(  4-C , 14-H ) :   0.9030
B(  5-C ,  6-O ) :   1.0180 B(  5-C , 15-H ) :   0.9283 B(  6-O , 16-H ) :   0.8321
B(  7-C ,  8-C ) :   2.5759 B(  8-C , 17-H ) :   0.8749

MP2 TOTAL ENERGY:     -438.296705279 Eh
FINAL SINGLE POINT ENERGY      -438.296705278680

DIPOLE MOMENT
-------------
                                X             Y             Z
Electronic contribution:     -0.19743       1.27892       2.33146
Nuclear contribution   :     -0.50754      -1.76103      -2.71394
                        -----------------------------------------
Total Dipole Moment    :     -0.70497      -0.48211      -0.38248
                        -----------------------------------------
Magnitude (a.u.)       :      0.93579
Magnitude (Debye)      :      2.37858

                             ****ORCA TERMINATED NORMALLY****
TOTAL RUN TIME: 0 days 0 hours 20 minutes 24 seconds 437 msec
