                         Program Version 3.0.3 - RELEASE   -
|  1> ! RI-MP2 RIJK def2-TZVP def2-TZVP/C def2-TZVP/JK TIGHTSCF
|  2> % maxcore 2000
|  3> % mp2 density relaxed end
|  4> *xyz 0 1
|  5>  C       -0.1916495252     1.4741999716    -0.0292097075
|  6>  C        0.0459148710     0.0063416199     0.0580126708
|  7>  C        0.6483160610    -0.9957114115    -0.8711736716
|  8>  C        1.4791859750    -1.7080440645     0.2724812800
|  9>  C        1.1323290175    -3.1962058550     0.6548535776
| 10>  N       -0.3616707362    -3.1593216246     0.5263643281
| 11>  C       -0.5723682446    -1.9106213312     0.6591376182
| 12>  C        0.5003951193    -0.9364139964     1.2036849947
| 13>  N       -0.8779116676    -1.0304794571    -0.4663918520
| 14>  H        0.7322287467     2.0335815192     0.1515494554
| 15>  H       -0.5693098430     1.7403554770    -1.0206927034
| 16>  H       -0.9322233602     1.7931283085     0.7121824241
| 17>  H        0.8412152926    -0.9579268980    -1.9359731361
| 18>  H        2.5334270307    -1.4176442941     0.2518515413
| 19>  H        1.4925871465    -3.9603153191    -0.0407716794
| 20>  H        1.5360623416    -3.4302603985     1.6520944559
| 21>  H        0.6996303650    -0.7198250160     2.2490059839
| 22> *
| 23>
| 24>                          ****END OF INPUT****

CARTESIAN COORDINATES (ANGSTROEM)
---------------------------------
  C     -0.191650    1.474200   -0.029210
  C      0.045915    0.006342    0.058013
  C      0.648316   -0.995711   -0.871174
  C      1.479186   -1.708044    0.272481
  C      1.132329   -3.196206    0.654854
  N     -0.361671   -3.159322    0.526364
  C     -0.572368   -1.910621    0.659138
  C      0.500395   -0.936414    1.203685
  N     -0.877912   -1.030479   -0.466392
  H      0.732229    2.033582    0.151549
  H     -0.569310    1.740355   -1.020693
  H     -0.932223    1.793128    0.712182
  H      0.841215   -0.957927   -1.935973
  H      2.533427   -1.417644    0.251852
  H      1.492587   -3.960315   -0.040772
  H      1.536062   -3.430260    1.652094
  H      0.699630   -0.719825    2.249006

 Total Charge           Charge          ....    0
 Multiplicity           Mult            ....    1
 Number of Electrons    NEL             ....   64
 Basis Dimension        Dim             ....  327

ORBITAL ENERGIES
----------------

  NO   OCC          E(Eh)            E(eV)
   0   2.0000     -15.588424      -424.1826
   1   2.0000     -15.525012      -422.4571
   2   2.0000     -11.323101      -308.1172
   3   2.0000     -11.291087      -307.2461
   4   2.0000     -11.288533      -307.1766
   5   2.0000     -11.268900      -306.6424
   6   2.0000     -11.268267      -306.6251
   7   2.0000     -11.253942      -306.2353
   8   2.0000     -11.239156      -305.8330
   9   2.0000      -1.357985       -36.9526
  10   2.0000      -1.210933       -32.9512
  11   2.0000      -1.063815       -28.9479
  12   2.0000      -1.011275       -27.5182
  13   2.0000      -0.956021       -26.0147
  14   2.0000      -0.894343       -24.3363
  15   2.0000      -0.834895       -22.7186
  16   2.0000      -0.734828       -19.9957
  17   2.0000      -0.717415       -19.5218
  18   2.0000      -0.670536       -18.2462
  19   2.0000      -0.651788       -17.7360
  20   2.0000      -0.619283       -16.8516
  21   2.0000      -0.600725       -16.3466
  22   2.0000      -0.582538       -15.8517
  23   2.0000      -0.568268       -15.4634
  24   2.0000      -0.550575       -14.9819
  25   2.0000      -0.494728       -13.4622
  26   2.0000      -0.482007       -13.1161
  27   2.0000      -0.471540       -12.8313
  28   2.0000      -0.443071       -12.0566
  29   2.0000      -0.424849       -11.5607
  30   2.0000      -0.400685       -10.9032
  31   2.0000      -0.323544        -8.8041
  32   0.0000       0.091577         2.4919
  33   0.0000       0.131717         3.5842
  34   0.0000       0.148275         4.0348
  35   0.0000       0.172448         4.6925
  36   0.0000       0.175913         4.7868

MULLIKEN ATOMIC CHARGES
-----------------------
   0 C :   -0.430984
   1 C :    0.096319
   2 C :   -0.117394
   3 C :   -0.105232
   4 C :   -0.119620
   5 N :   -0.217955
   6 C :    0.047350
   7 C :   -0.084245
   8 N :   -0.181634
   9 H :    0.139416
  10 H :    0.152279
  11 H :    0.143664
  12 H :    0.151401
  13 H :    0.130144
  14 H :    0.134449
  15 H :    0.113242
  16 H :    0.148800
Sum of atomic charges:   -0.0000000

LOEWDIN ATOMIC CHARGES
----------------------
   0 C :   -0.269401
   1 C :   -0.235439
   2 C :   -0.088936
   3 C :   -0.170632
   4 C :   -0.229028
   5 N :    0.101587
   6 C :   -0.274239
   7 C :   -0.116402
   8 N :    0.190958
   9 H :    0.133340
  10 H :    0.138612
  11 H :    0.135124
  12 H :    0.135950
  13 H :    0.145625
  14 H :    0.132751
  15 H :    0.129743
  16 H :    0.140386

  Mayer bond orders larger than 0.1
B(  0-C ,  1-C ) :   0.8051 B(  0-C ,  9-H ) :   0.9415 B(  0-C , 10-H ) :   0.9504
B(  0-C , 11-H ) :   0.9423 B(  1-C ,  2-C ) :   0.8175 B(  1-C ,  7-C ) :   0.8980
B(  1-C ,  8-N ) :   0.8758 B(  2-C ,  3-C ) :   0.8879 B(  2-C ,  8-N ) :   0.8029
B(  2-C , 12-H ) :   0.9136 B(  3-C ,  4-C ) :   0.9483 B(  3-C ,  7-C ) :   0.8822
B(  3-C , 13-H ) :   0.8944 B(  4-C ,  5-N ) :   0.9040 B(  4-C , 14-H ) :   0.9195
B(  4-C , 15-H ) :   0.9025 B(  5-N ,  6-C ) :   1.9071 B(  6-C ,  7-C ) :   0.9586
B(  6-C ,  8-N ) :   1.0264 B(  7-C , 16-H ) :   0.9179

MP2 TOTAL ENERGY:     -380.053750287 Eh
FINAL SINGLE POINT ENERGY      -380.053750287066

DIPOLE MOMENT
-------------
                                X             Y             Z
Electronic contribution:     -3.02293      -3.81169       0.06536
Nuclear contribution   :      4.33627       4.80323       0.25137
                        -----------------------------------------
Total Dipole Moment    :      1.31334       0.99154       0.31673
                        -----------------------------------------
Magnitude (a.u.)       :      1.67580
Magnitude (Debye)      :      4.25956

                             ****ORCA TERMINATED NORMALLY****
TOTAL RUN TIME: 0 days 0 hours 26 minutes 33 seconds 500 msec
