                         Program Version 3.0.3 - RELEASE   -
|  1> ! RI-MP2 RIJK def2-TZVP def2-TZVP/C def2-TZVP/JK TIGHTSCF
|  2> % maxcore 2000
|  3> % mp2 density relaxed end
|  4> *xyz 0 1
|  5>  C        0.6362235302    -0.3945453505     1.3178886107
|  6>  C       -0.0689229216     0.0001495460     0.0104090760
|  7>  C       -0.0823575539     1.5218157499    -0.0699812364
|  8>  O       -1.0236383255     2.2172199799     0.2080718326
|  9>  N        0.6482083064    -0.5196224624    -1.1356841090
| 10>  C        0.0165656629    -0.4244586583    -2.4720579669
| 11>  C        0.6305323990    -1.7995307115    -2.8215309290
| 12>  C        0.8114398499    -1.9824309007    -1.2953366561
| 13>  H        0.6893227347    -1.4832524841     1.4088507549
| 14>  H        1.6574959514    -0.0012564165     1.3398395247
| 15>  H        0.0867584327    -0.0060583729     2.1791859702
| 16>  H       -1.1209012783    -0.3397240011     0.0463110508
| 17>  H        0.8944598063     1.9506959419    -0.3928392988
| 18>  H       -1.0843398641    -0.4605326763    -2.4286503726
| 19>  H        0.3163422032     0.4458007931    -3.0647637342
| 20>  H       -0.0093326589    -2.5157536321    -3.3367366888
| 21>  H        1.5818727319    -1.7137331116    -3.3491230753
| 22>  H        1.7607156714    -2.3865275400    -0.9301852121
| 23>  H       -0.0152777175    -2.5612456328    -0.8517935707
| 24> *
| 25>
| 26>                          ****END OF INPUT****

CARTESIAN COORDINATES (ANGSTROEM)
---------------------------------
  C      0.636224   -0.394545    1.317889
  C     -0.068923    0.000150    0.010409
  C     -0.082358    1.521816   -0.069981
  O     -1.023638    2.217220    0.208072
  N      0.648208   -0.519622   -1.135684
  C      0.016566   -0.424459   -2.472058
  C      0.630532   -1.799531   -2.821531
  C      0.811440   -1.982431   -1.295337
  H      0.689323   -1.483252    1.408851
  H      1.657496   -0.001256    1.339840
  H      0.086758   -0.006058    2.179186
  H     -1.120901   -0.339724    0.046311
  H      0.894460    1.950696   -0.392839
  H     -1.084340   -0.460533   -2.428650
  H      0.316342    0.445801   -3.064764
  H     -0.009333   -2.515754   -3.336737
  H      1.581873   -1.713733   -3.349123
  H      1.760716   -2.386528   -0.930185
  H     -0.015278   -2.561246   -0.851794

 Total Charge           Charge          ....    0
 Multiplicity           Mult            ....    1
 Number of Electrons    NEL             ....   62
 Basis Dimension        Dim             ....  314

ORBITAL ENERGIES
----------------

  NO   OCC          E(Eh)            E(eV)
   0   2.0000     -20.555450      -559.3422
   1   2.0000     -15.557265      -423.3347
   2   2.0000     -11.325311      -308.1774
   3   2.0000     -11.268801      -306.6397
   4   2.0000     -11.262106      -306.4575
   5   2.0000     -11.259832      -306.3956
   6   2.0000     -11.233558      -305.6806
   7   2.0000     -11.231298      -305.6191
   8   2.0000      -1.394454       -37.9450
   9   2.0000      -1.261823       -34.3360
  10   2.0000      -1.079673       -29.3794
  11   2.0000      -0.963762       -26.2253
  12   2.0000      -0.929048       -25.2807
  13   2.0000      -0.882262       -24.0076
  14   2.0000      -0.790861       -21.5204
  15   2.0000      -0.767613       -20.8878
  16   2.0000      -0.696039       -18.9402
  17   2.0000      -0.674727       -18.3603
  18   2.0000      -0.642901       -17.4942
  19   2.0000      -0.626553       -17.0494
  20   2.0000      -0.601036       -16.3550
  21   2.0000      -0.563748       -15.3404
  22   2.0000      -0.560159       -15.2427
  23   2.0000      -0.543715       -14.7952
  24   2.0000      -0.523624       -14.2485
  25   2.0000      -0.516595       -14.0573
  26   2.0000      -0.503882       -13.7113
  27   2.0000      -0.473140       -12.8748
  28   2.0000      -0.464094       -12.6286
  29   2.0000      -0.410806       -11.1786
  30   2.0000      -0.373165       -10.1543
  31   0.0000       0.124068         3.3761
  32   0.0000       0.140111         3.8126
  33   0.0000       0.155070         4.2197
  34   0.0000       0.160302         4.3620
  35   0.0000       0.170000         4.6259

MULLIKEN ATOMIC CHARGES
-----------------------
   0 C :   -0.403940
   1 C :    0.041415
   2 C :    0.082459
   3 O :   -0.258321
   4 N :   -0.146978
   5 C :   -0.191383
   6 C :   -0.198158
   7 C :   -0.188289
   8 H :    0.140103
   9 H :    0.134012
  10 H :    0.147294
  11 H :    0.071637
  12 H :    0.082015
  13 H :    0.104061
  14 H :    0.120769
  15 H :    0.125147
  16 H :    0.119687
  17 H :    0.120410
  18 H :    0.098060
Sum of atomic charges:    0.0000000

LOEWDIN ATOMIC CHARGES
----------------------
   0 C :   -0.278917
   1 C :   -0.329119
   2 C :   -0.271278
   3 O :    0.136819
   4 N :    0.103359
   5 C :   -0.251435
   6 C :   -0.241571
   7 C :   -0.254096
   8 H :    0.127686
   9 H :    0.129019
  10 H :    0.131335
  11 H :    0.140167
  12 H :    0.114788
  13 H :    0.122336
  14 H :    0.120276
  15 H :    0.125737
  16 H :    0.134352
  17 H :    0.119431
  18 H :    0.121113

  Mayer bond orders larger than 0.1
B(  0-C ,  1-C ) :   0.8916 B(  0-C ,  8-H ) :   0.9285 B(  0-C ,  9-H ) :   0.9293
B(  0-C , 10-H ) :   0.9352 B(  1-C ,  2-C ) :   0.8548 B(  1-C ,  4-N ) :   0.9271
B(  1-C , 11-H ) :   0.8965 B(  2-C ,  3-O ) :   2.0135 B(  2-C , 12-H ) :   0.9283
B(  4-N ,  5-C ) :   0.9206 B(  4-N ,  7-C ) :   0.9199 B(  5-C ,  6-C ) :   0.9428
B(  5-C , 13-H ) :   0.9209 B(  5-C , 14-H ) :   0.9255 B(  6-C ,  7-C ) :   0.9480
B(  6-C , 15-H ) :   0.9337 B(  6-C , 16-H ) :   0.9232 B(  7-C , 17-H ) :   0.9231
B(  7-C , 18-H ) :   0.9172

MP2 TOTAL ENERGY:     -364.420573940 Eh
FINAL SINGLE POINT ENERGY      -364.420573940029

DIPOLE MOMENT
-------------
                                X             Y             Z
Electronic contribution:     -2.09772       5.83749       0.66300
Nuclear contribution   :      2.54709      -6.84233      -0.93931
                        -----------------------------------------
Total Dipole Moment    :      0.44937      -1.00484      -0.27631
                        -----------------------------------------
Magnitude (a.u.)       :      1.13489
Magnitude (Debye)      :      2.88467

                             ****ORCA TERMINATED NORMALLY****
TOTAL RUN TIME: 0 days 0 hours 13 minutes 46 seconds 166 msec
