                         Program Version 3.0.3 - RELEASE   -
|  1> ! RI-MP2 RIJK def2-TZVP def2-TZVP/C def2-TZVP/JK TIGHTSCF
|  2> % maxcore 2000
|  3> % mp2 density relaxed end
|  4> *xyz 0 1
|  5>  C       -0.3664342826     1.4886560951    -0.1871995868
|  6>  C       -0.0025668040     0.0352488707     0.0361360528
|  7>  C        1.3307139114    -0.6335624880    -0.2765950614
|  8>  C        2.6484567402     0.1535019638    -0.3328068914
|  9>  C        2.9548842857     0.5871892081     1.1038901359
| 10>  N        2.0295050298     1.5991576216     1.6530879761
| 11>  C        1.8283523453     0.1689708342     1.9764665203
| 12>  C        0.8113767907    -0.5982202410     1.1454584645
| 13>  O        0.3443302567    -1.7805115971     1.7356842927
| 14>  H        0.4711082141     2.1590835112    -0.0098535780
| 15>  H       -0.7254202111     1.6217705262    -1.2147961582
| 16>  H       -1.1778182229     1.7921400121     0.4845859127
| 17>  H       -0.8181009149    -0.6380208977    -0.2291802500
| 18>  H        1.2825903679    -1.5603774809    -0.8382929203
| 19>  H        3.4451875872    -0.5080197216    -0.6881887055
| 20>  H        2.6137442577     1.0114355725    -1.0129849835
| 21>  H        3.9848331057     0.5945555756     1.4472477110
| 22>  H        2.4703740202     2.0604581292     2.4456183399
| 23>  H        1.9719868657    -0.1728039683     2.9959209413
| 24>  H       -0.4372244127    -1.5624138856     2.2549029980
| 25> *
| 26>
| 27>                          ****END OF INPUT****

CARTESIAN COORDINATES (ANGSTROEM)
---------------------------------
  C     -0.366434    1.488656   -0.187200
  C     -0.002567    0.035249    0.036136
  C      1.330714   -0.633562   -0.276595
  C      2.648457    0.153502   -0.332807
  C      2.954884    0.587189    1.103890
  N      2.029505    1.599158    1.653088
  C      1.828352    0.168971    1.976467
  C      0.811377   -0.598220    1.145458
  O      0.344330   -1.780512    1.735684
  H      0.471108    2.159084   -0.009854
  H     -0.725420    1.621771   -1.214796
  H     -1.177818    1.792140    0.484586
  H     -0.818101   -0.638021   -0.229180
  H      1.282590   -1.560377   -0.838293
  H      3.445188   -0.508020   -0.688189
  H      2.613744    1.011436   -1.012985
  H      3.984833    0.594556    1.447248
  H      2.470374    2.060458    2.445618
  H      1.971987   -0.172804    2.995921
  H     -0.437224   -1.562414    2.254903

 Total Charge           Charge          ....    0
 Multiplicity           Mult            ....    1
 Number of Electrons    NEL             ....   68
 Basis Dimension        Dim             ....  345

ORBITAL ENERGIES
----------------

  NO   OCC          E(Eh)            E(eV)
   0   2.0000     -20.559757      -559.4594
   1   2.0000     -15.556638      -423.3176
   2   2.0000     -11.279649      -306.9348
   3   2.0000     -11.257757      -306.3391
   4   2.0000     -11.256044      -306.2925
   5   2.0000     -11.228331      -305.5384
   6   2.0000     -11.224911      -305.4454
   7   2.0000     -11.219862      -305.3080
   8   2.0000     -11.201112      -304.7978
   9   2.0000      -1.369784       -37.2737
  10   2.0000      -1.267593       -34.4930
  11   2.0000      -1.133027       -30.8312
  12   2.0000      -0.998747       -27.1773
  13   2.0000      -0.949155       -25.8278
  14   2.0000      -0.903318       -24.5805
  15   2.0000      -0.811641       -22.0859
  16   2.0000      -0.756553       -20.5869
  17   2.0000      -0.744629       -20.2624
  18   2.0000      -0.726392       -19.7661
  19   2.0000      -0.669685       -18.2230
  20   2.0000      -0.614267       -16.7151
  21   2.0000      -0.605295       -16.4709
  22   2.0000      -0.589765       -16.0483
  23   2.0000      -0.560690       -15.2571
  24   2.0000      -0.549222       -14.9451
  25   2.0000      -0.541625       -14.7384
  26   2.0000      -0.531612       -14.4659
  27   2.0000      -0.494055       -13.4439
  28   2.0000      -0.478759       -13.0277
  29   2.0000      -0.469025       -12.7628
  30   2.0000      -0.455613       -12.3979
  31   2.0000      -0.401634       -10.9290
  32   2.0000      -0.380152       -10.3445
  33   2.0000      -0.357699        -9.7335
  34   0.0000       0.135384         3.6840
  35   0.0000       0.144287         3.9262
  36   0.0000       0.161440         4.3930
  37   0.0000       0.173553         4.7226
  38   0.0000       0.182368         4.9625

MULLIKEN ATOMIC CHARGES
-----------------------
   0 C :   -0.359149
   1 C :   -0.225595
   2 C :   -0.101921
   3 C :   -0.211084
   4 C :   -0.048834
   5 N :   -0.383983
   6 C :   -0.151718
   7 C :    0.262574
   8 O :   -0.457156
   9 H :    0.159272
  10 H :    0.120167
  11 H :    0.117070
  12 H :    0.117083
  13 H :    0.132265
  14 H :    0.119777
  15 H :    0.119851
  16 H :    0.126254
  17 H :    0.214601
  18 H :    0.125404
  19 H :    0.325121
Sum of atomic charges:   -0.0000000

LOEWDIN ATOMIC CHARGES
----------------------
   0 C :   -0.299921
   1 C :   -0.195839
   2 C :   -0.152567
   3 C :   -0.210049
   4 C :   -0.239189
   5 N :    0.006194
   6 C :   -0.209731
   7 C :   -0.307096
   8 O :    0.019974
   9 H :    0.127613
  10 H :    0.122757
  11 H :    0.123937
  12 H :    0.158094
  13 H :    0.147196
  14 H :    0.145396
  15 H :    0.142725
  16 H :    0.132607
  17 H :    0.166872
  18 H :    0.139448
  19 H :    0.181580

  Mayer bond orders larger than 0.1
B(  0-C ,  1-C ) :   0.8690 B(  0-C ,  9-H ) :   0.9290 B(  0-C , 10-H ) :   0.9291
B(  0-C , 11-H ) :   0.9377 B(  1-C ,  2-C ) :   0.9033 B(  1-C ,  7-C ) :   0.8855
B(  1-C , 12-H ) :   0.9380 B(  2-C ,  3-C ) :   0.9490 B(  2-C ,  7-C ) :   0.8415
B(  2-C , 13-H ) :   0.9188 B(  3-C ,  4-C ) :   0.9649 B(  3-C , 14-H ) :   0.9250
B(  3-C , 15-H ) :   0.9051 B(  4-C ,  5-N ) :   0.9313 B(  4-C ,  6-C ) :   0.9215
B(  4-C , 16-H ) :   0.9196 B(  5-N ,  6-C ) :   0.9322 B(  5-N , 17-H ) :   0.8702
B(  6-C ,  7-C ) :   0.9108 B(  6-C , 18-H ) :   0.9281 B(  7-C ,  8-O ) :   0.9880
B(  8-O , 19-H ) :   0.8408

MP2 TOTAL ENERGY:     -402.420529043 Eh
FINAL SINGLE POINT ENERGY      -402.420529043047

DIPOLE MOMENT
-------------
                                X             Y             Z
Electronic contribution:      0.92104      -3.18795       3.21621
Nuclear contribution   :     -0.73703       3.39456      -2.79300
                        -----------------------------------------
Total Dipole Moment    :      0.18400       0.20662       0.42321
                        -----------------------------------------
Magnitude (a.u.)       :      0.50563
Magnitude (Debye)      :      1.28520

                             ****ORCA TERMINATED NORMALLY****
TOTAL RUN TIME: 0 days 0 hours 20 minutes 13 seconds 312 msec
