                         Program Version 3.0.3 - RELEASE   -
|  1> ! RI-MP2 RIJK def2-TZVP def2-TZVP/C def2-TZVP/JK TIGHTSCF
|  2> % maxcore 2000
|  3> % mp2 density relaxed end
|  4> *xyz 0 1
|  5>  O        0.0990491501     1.3663690156    -0.0307432079
|  6>  C        0.0098695786    -0.0148896509    -0.0468042244
|  7>  C        0.6183214192    -0.7008356322    -1.3032635987
|  8>  O        0.1007324241    -2.0364468479    -1.2717179110
|  9>  C       -0.7259991300    -2.1184092613    -0.0973860369
| 10>  C        0.1974687923    -2.1410367074     1.1413795128
| 11>  C        0.6738725047    -0.6873813154     1.1527873855
| 12>  O        1.3791704127    -0.1070950080     1.9401171702
| 13>  C       -1.3704967330    -0.7236886075    -0.0196518861
| 14>  H        0.6688466668     1.5853373526     0.7236132583
| 15>  H        0.2819157577    -0.1748258524    -2.2051475107
| 16>  H        1.7143791327    -0.7143282283    -1.2923683166
| 17>  H       -1.3871918493    -2.9771436199    -0.2023259993
| 18>  H       -0.3426210521    -2.3650846050     2.0681391675
| 19>  H        1.0260602091    -2.8472859251     1.0480835780
| 20>  H       -1.9323946691    -0.5411359656     0.8999718079
| 21>  H       -1.9868209145    -0.4871346016    -0.8891213486
| 22> *
| 23>
| 24>                          ****END OF INPUT****

CARTESIAN COORDINATES (ANGSTROEM)
---------------------------------
  O      0.099049    1.366369   -0.030743
  C      0.009870   -0.014890   -0.046804
  C      0.618321   -0.700836   -1.303264
  O      0.100732   -2.036447   -1.271718
  C     -0.725999   -2.118409   -0.097386
  C      0.197469   -2.141037    1.141380
  C      0.673873   -0.687381    1.152787
  O      1.379170   -0.107095    1.940117
  C     -1.370497   -0.723689   -0.019652
  H      0.668847    1.585337    0.723613
  H      0.281916   -0.174826   -2.205148
  H      1.714379   -0.714328   -1.292368
  H     -1.387192   -2.977144   -0.202326
  H     -0.342621   -2.365085    2.068139
  H      1.026060   -2.847286    1.048084
  H     -1.932395   -0.541136    0.899972
  H     -1.986821   -0.487135   -0.889121

 Total Charge           Charge          ....    0
 Multiplicity           Mult            ....    1
 Number of Electrons    NEL             ....   68
 Basis Dimension        Dim             ....  327

ORBITAL ENERGIES
----------------

  NO   OCC          E(Eh)            E(eV)
   0   2.0000     -20.574406      -559.8581
   1   2.0000     -20.569900      -559.7354
   2   2.0000     -20.569597      -559.7272
   3   2.0000     -11.345944      -308.7388
   4   2.0000     -11.308608      -307.7229
   5   2.0000     -11.305869      -307.6483
   6   2.0000     -11.291218      -307.2497
   7   2.0000     -11.253643      -306.2272
   8   2.0000     -11.247457      -306.0589
   9   2.0000      -1.424263       -38.7562
  10   2.0000      -1.396043       -37.9883
  11   2.0000      -1.378978       -37.5239
  12   2.0000      -1.130028       -30.7496
  13   2.0000      -1.024618       -27.8813
  14   2.0000      -0.974084       -26.5062
  15   2.0000      -0.862015       -23.4566
  16   2.0000      -0.819177       -22.2909
  17   2.0000      -0.770810       -20.9748
  18   2.0000      -0.718489       -19.5511
  19   2.0000      -0.704506       -19.1706
  20   2.0000      -0.665264       -18.1028
  21   2.0000      -0.661017       -17.9872
  22   2.0000      -0.623807       -16.9746
  23   2.0000      -0.599650       -16.3173
  24   2.0000      -0.583286       -15.8720
  25   2.0000      -0.573318       -15.6008
  26   2.0000      -0.567151       -15.4330
  27   2.0000      -0.549554       -14.9541
  28   2.0000      -0.538038       -14.6408
  29   2.0000      -0.524038       -14.2598
  30   2.0000      -0.512329       -13.9412
  31   2.0000      -0.434079       -11.8119
  32   2.0000      -0.429146       -11.6777
  33   2.0000      -0.411644       -11.2014
  34   0.0000       0.123673         3.3653
  35   0.0000       0.130432         3.5492
  36   0.0000       0.158180         4.3043
  37   0.0000       0.168231         4.5778
  38   0.0000       0.176875         4.8130

MULLIKEN ATOMIC CHARGES
-----------------------
   0 O :   -0.457526
   1 C :    0.240594
   2 C :   -0.070180
   3 O :   -0.322503
   4 C :    0.092630
   5 C :   -0.250075
   6 C :    0.074892
   7 O :   -0.285638
   8 C :   -0.293927
   9 H :    0.339215
  10 H :    0.115130
  11 H :    0.113313
  12 H :    0.134781
  13 H :    0.146975
  14 H :    0.152118
  15 H :    0.133954
  16 H :    0.136247
Sum of atomic charges:   -0.0000000

LOEWDIN ATOMIC CHARGES
----------------------
   0 O :    0.040457
   1 C :   -0.372263
   2 C :   -0.239814
   3 O :    0.159450
   4 C :   -0.278144
   5 C :   -0.193956
   6 C :   -0.286127
   7 O :    0.151964
   8 C :   -0.179650
   9 H :    0.192848
  10 H :    0.131321
  11 H :    0.129080
  12 H :    0.140545
  13 H :    0.156591
  14 H :    0.155265
  15 H :    0.145760
  16 H :    0.146673

  Mayer bond orders larger than 0.1
B(  0-O ,  1-C ) :   1.1376 B(  0-O ,  9-H ) :   0.8061 B(  1-C ,  2-C ) :   0.8864
B(  1-C ,  5-C ) :  -0.1038 B(  1-C ,  6-C ) :   0.8441 B(  1-C ,  8-C ) :   0.8728
B(  2-C ,  3-O ) :   0.9424 B(  2-C , 10-H ) :   0.9148 B(  2-C , 11-H ) :   0.9123
B(  3-O ,  4-C ) :   0.9010 B(  4-C ,  5-C ) :   0.9012 B(  4-C ,  8-C ) :   0.9185
B(  4-C , 12-H ) :   0.9172 B(  5-C ,  6-C ) :   0.9361 B(  5-C , 13-H ) :   0.8977
B(  5-C , 14-H ) :   0.8908 B(  6-C ,  7-O ) :   1.9750 B(  8-C , 15-H ) :   0.9160
B(  8-C , 16-H ) :   0.9048

MP2 TOTAL ENERGY:     -458.260496572 Eh
FINAL SINGLE POINT ENERGY      -458.260496572473

DIPOLE MOMENT
-------------
                                X             Y             Z
Electronic contribution:      2.24394       1.74500       1.19456
Nuclear contribution   :     -2.76318      -2.24766      -1.04449
                        -----------------------------------------
Total Dipole Moment    :     -0.51923      -0.50266       0.15007
                        -----------------------------------------
Magnitude (a.u.)       :      0.73810
Magnitude (Debye)      :      1.87611

                             ****ORCA TERMINATED NORMALLY****
TOTAL RUN TIME: 0 days 0 hours 17 minutes 25 seconds 24 msec
