                         Program Version 3.0.3 - RELEASE   -
|  1> ! RI-MP2 RIJK def2-TZVP def2-TZVP/C def2-TZVP/JK TIGHTSCF
|  2> % maxcore 2000
|  3> % mp2 density relaxed end
|  4> *xyz 0 1
|  5>  C       -0.1069415539     1.3966008346     0.0830954134
|  6>  N       -0.0677843482    -0.0527471883     0.0973248908
|  7>  N       -0.0767641232    -0.7333438892    -1.0619415615
|  8>  C        0.0069059378    -2.0124987688    -0.7055962807
|  9>  C        0.0672154813    -2.1743365290     0.6949648402
| 10>  C        0.1761039155    -3.4573464580     1.4626589296
| 11>  C        0.0207439460    -0.8746407763     1.1842133317
| 12>  C        0.0199907160    -0.3555318066     2.5859990716
| 13>  O       -1.1638650720     0.3711002337     2.9220652100
| 14>  H        0.9017047431     1.8217097525     0.1433495918
| 15>  H       -0.5640516848     1.7080548696    -0.8560349714
| 16>  H       -0.6996795839     1.7488488315     0.9285387686
| 17>  H        0.0086646336    -2.7811266858    -1.4657222651
| 18>  H        1.2154374576    -3.7948225847     1.5574182508
| 19>  H       -0.2256976546    -3.3642952865     2.4763793791
| 20>  H       -0.3771543520    -4.2595378868     0.9643761103
| 21>  H        0.1800005878    -1.1962833181     3.2745398026
| 22>  H        0.8404671232     0.3519286036     2.7505001053
| 23>  H       -1.9151013893    -0.1914392174     2.7041734029
| 24> *
| 25>
| 26>                          ****END OF INPUT****

CARTESIAN COORDINATES (ANGSTROEM)
---------------------------------
  C     -0.106942    1.396601    0.083095
  N     -0.067784   -0.052747    0.097325
  N     -0.076764   -0.733344   -1.061942
  C      0.006906   -2.012499   -0.705596
  C      0.067215   -2.174337    0.694965
  C      0.176104   -3.457346    1.462659
  C      0.020744   -0.874641    1.184213
  C      0.019991   -0.355532    2.585999
  O     -1.163865    0.371100    2.922065
  H      0.901705    1.821710    0.143350
  H     -0.564052    1.708055   -0.856035
  H     -0.699680    1.748849    0.928539
  H      0.008665   -2.781127   -1.465722
  H      1.215437   -3.794823    1.557418
  H     -0.225698   -3.364295    2.476379
  H     -0.377154   -4.259538    0.964376
  H      0.180001   -1.196283    3.274540
  H      0.840467    0.351929    2.750500
  H     -1.915101   -0.191439    2.704173

 Total Charge           Charge          ....    0
 Multiplicity           Mult            ....    1
 Number of Electrons    NEL             ....   68
 Basis Dimension        Dim             ....  339

ORBITAL ENERGIES
----------------

  NO   OCC          E(Eh)            E(eV)
   0   2.0000     -20.570102      -559.7409
   1   2.0000     -15.631703      -425.3603
   2   2.0000     -15.579923      -423.9512
   3   2.0000     -11.298614      -307.4509
   4   2.0000     -11.267010      -306.5909
   5   2.0000     -11.262462      -306.4672
   6   2.0000     -11.241948      -305.9090
   7   2.0000     -11.230417      -305.5952
   8   2.0000     -11.225125      -305.4512
   9   2.0000      -1.379625       -37.5415
  10   2.0000      -1.365321       -37.1523
  11   2.0000      -1.118822       -30.4447
  12   2.0000      -1.085662       -29.5424
  13   2.0000      -0.988100       -26.8876
  14   2.0000      -0.933895       -25.4126
  15   2.0000      -0.912384       -24.8272
  16   2.0000      -0.788468       -21.4553
  17   2.0000      -0.758969       -20.6526
  18   2.0000      -0.713960       -19.4278
  19   2.0000      -0.660724       -17.9792
  20   2.0000      -0.649540       -17.6749
  21   2.0000      -0.621610       -16.9149
  22   2.0000      -0.611425       -16.6377
  23   2.0000      -0.592736       -16.1292
  24   2.0000      -0.576317       -15.6824
  25   2.0000      -0.562655       -15.3106
  26   2.0000      -0.554008       -15.0753
  27   2.0000      -0.539102       -14.6697
  28   2.0000      -0.530997       -14.4492
  29   2.0000      -0.506559       -13.7842
  30   2.0000      -0.470590       -12.8054
  31   2.0000      -0.445997       -12.1362
  32   2.0000      -0.344064        -9.3625
  33   2.0000      -0.328859        -8.9487
  34   0.0000       0.120514         3.2794
  35   0.0000       0.139403         3.7934
  36   0.0000       0.154556         4.2057
  37   0.0000       0.170184         4.6309
  38   0.0000       0.184943         5.0326

MULLIKEN ATOMIC CHARGES
-----------------------
   0 C :   -0.354299
   1 N :    0.155873
   2 N :   -0.263752
   3 C :   -0.127360
   4 C :    0.029106
   5 C :   -0.416050
   6 C :   -0.160217
   7 C :   -0.001089
   8 O :   -0.474146
   9 H :    0.144271
  10 H :    0.167755
  11 H :    0.176475
  12 H :    0.130688
  13 H :    0.148739
  14 H :    0.131725
  15 H :    0.146210
  16 H :    0.119033
  17 H :    0.127898
  18 H :    0.319141
Sum of atomic charges:    0.0000000

LOEWDIN ATOMIC CHARGES
----------------------
   0 C :   -0.274643
   1 N :    0.193711
   2 N :    0.045369
   3 C :   -0.255569
   4 C :   -0.199625
   5 C :   -0.274220
   6 C :   -0.225327
   7 C :   -0.308285
   8 O :   -0.052955
   9 H :    0.121583
  10 H :    0.131310
  11 H :    0.129641
  12 H :    0.134271
  13 H :    0.131309
  14 H :    0.126793
  15 H :    0.133123
  16 H :    0.130424
  17 H :    0.137769
  18 H :    0.175318

  Mayer bond orders larger than 0.1
B(  0-C ,  1-N ) :   0.8511 B(  0-C ,  9-H ) :   0.9274 B(  0-C , 10-H ) :   0.9276
B(  0-C , 11-H ) :   0.9201 B(  1-N ,  2-N ) :   1.0101 B(  1-N ,  6-C ) :   1.2313
B(  2-N ,  3-C ) :   1.4860 B(  2-N ,  6-C ) :   0.1112 B(  3-C ,  4-C ) :   1.2990
B(  3-C , 12-H ) :   0.9411 B(  4-C ,  5-C ) :   0.8619 B(  4-C ,  6-C ) :   1.3706
B(  5-C , 13-H ) :   0.9288 B(  5-C , 14-H ) :   0.9487 B(  5-C , 15-H ) :   0.9444
B(  6-C ,  7-C ) :   0.9311 B(  7-C ,  8-O ) :   0.8771 B(  7-C , 16-H ) :   0.9366
B(  7-C , 17-H ) :   0.9288 B(  8-O , 18-H ) :   0.8418

MP2 TOTAL ENERGY:     -418.525573702 Eh
FINAL SINGLE POINT ENERGY      -418.525573702129

DIPOLE MOMENT
-------------
                                X             Y             Z
Electronic contribution:     -0.78841       1.30516      -2.98020
Nuclear contribution   :      0.80832      -1.51603       3.57583
                        -----------------------------------------
Total Dipole Moment    :      0.01991      -0.21087       0.59563
                        -----------------------------------------
Magnitude (a.u.)       :      0.63217
Magnitude (Debye)      :      1.60685

                             ****ORCA TERMINATED NORMALLY****
TOTAL RUN TIME: 0 days 0 hours 19 minutes 26 seconds 952 msec
