                         Program Version 3.0.3 - RELEASE   -
|  1> ! RI-MP2 RIJK def2-TZVP def2-TZVP/C def2-TZVP/JK TIGHTSCF
|  2> % maxcore 2000
|  3> % mp2 density relaxed end
|  4> *xyz 0 1
|  5>  O        0.0707620505     1.4050761894     0.1763751910
|  6>  C        0.0566321928    -0.0078038998     0.0399018219
|  7>  C       -1.3528745258    -0.6449289192    -0.0278098461
|  8>  C       -1.2280218348    -1.8527531715    -0.9860800686
|  9>  O       -2.3745243603    -2.1176548171    -1.7684059423
| 10>  C        0.0314114416    -1.5187001487    -1.7892785482
| 11>  C        0.7175564897    -0.5172610417    -1.2166600917
| 12>  C        0.3759987367    -2.2378090168    -2.9579906553
| 13>  C        0.6380584944    -2.8661762207    -3.9521091288
| 14>  H       -0.3305629431     1.7777699403    -0.6167681583
| 15>  H        0.6000018562    -0.3637135787     0.9248979816
| 16>  H       -1.7577157106    -0.9110477174     0.9504861688
| 17>  H       -2.0398494109     0.0819020359    -0.4791974682
| 18>  H       -1.0649064012    -2.7806029324    -0.4248602681
| 19>  H       -2.4969519492    -1.3799470412    -2.3763317033
| 20>  H        1.6620950427    -0.1194569647    -1.5695760504
| 21>  H        0.8756207012    -3.4184142358    -4.8274280339
| 22> *
| 23>
| 24>                          ****END OF INPUT****

CARTESIAN COORDINATES (ANGSTROEM)
---------------------------------
  O      0.070762    1.405076    0.176375
  C      0.056632   -0.007804    0.039902
  C     -1.352875   -0.644929   -0.027810
  C     -1.228022   -1.852753   -0.986080
  O     -2.374524   -2.117655   -1.768406
  C      0.031411   -1.518700   -1.789279
  C      0.717556   -0.517261   -1.216660
  C      0.375999   -2.237809   -2.957991
  C      0.638058   -2.866176   -3.952109
  H     -0.330563    1.777770   -0.616768
  H      0.600002   -0.363714    0.924898
  H     -1.757716   -0.911048    0.950486
  H     -2.039849    0.081902   -0.479197
  H     -1.064906   -2.780603   -0.424860
  H     -2.496952   -1.379947   -2.376332
  H      1.662095   -0.119457   -1.569576
  H      0.875621   -3.418414   -4.827428

 Total Charge           Charge          ....    0
 Multiplicity           Mult            ....    1
 Number of Electrons    NEL             ....   66
 Basis Dimension        Dim             ....  327

ORBITAL ENERGIES
----------------

  NO   OCC          E(Eh)            E(eV)
   0   2.0000     -20.566868      -559.6529
   1   2.0000     -20.564628      -559.5920
   2   2.0000     -11.300059      -307.4902
   3   2.0000     -11.298261      -307.4413
   4   2.0000     -11.266829      -306.5860
   5   2.0000     -11.252365      -306.1924
   6   2.0000     -11.244746      -305.9851
   7   2.0000     -11.237305      -305.7826
   8   2.0000     -11.235413      -305.7311
   9   2.0000      -1.375661       -37.4336
  10   2.0000      -1.371467       -37.3195
  11   2.0000      -1.149853       -31.2891
  12   2.0000      -1.049734       -28.5647
  13   2.0000      -0.983207       -26.7544
  14   2.0000      -0.949072       -25.8256
  15   2.0000      -0.828605       -22.5475
  16   2.0000      -0.812222       -22.1017
  17   2.0000      -0.741197       -20.1690
  18   2.0000      -0.710112       -19.3231
  19   2.0000      -0.671080       -18.2610
  20   2.0000      -0.665316       -18.1042
  21   2.0000      -0.648234       -17.6393
  22   2.0000      -0.609113       -16.5748
  23   2.0000      -0.591102       -16.0847
  24   2.0000      -0.566079       -15.4038
  25   2.0000      -0.547408       -14.8957
  26   2.0000      -0.518142       -14.0994
  27   2.0000      -0.492063       -13.3897
  28   2.0000      -0.476696       -12.9715
  29   2.0000      -0.456332       -12.4174
  30   2.0000      -0.437114       -11.8945
  31   2.0000      -0.397208       -10.8086
  32   2.0000      -0.345819        -9.4102
  33   0.0000       0.091812         2.4983
  34   0.0000       0.131899         3.5891
  35   0.0000       0.152573         4.1517
  36   0.0000       0.156311         4.2534
  37   0.0000       0.164292         4.4706

MULLIKEN ATOMIC CHARGES
-----------------------
   0 O :   -0.460775
   1 C :    0.129757
   2 C :   -0.252963
   3 C :    0.095305
   4 O :   -0.452780
   5 C :   -0.180930
   6 C :   -0.255705
   7 C :    0.064235
   8 C :   -0.127385
   9 H :    0.309645
  10 H :    0.114195
  11 H :    0.134715
  12 H :    0.111876
  13 H :    0.115148
  14 H :    0.312349
  15 H :    0.147039
  16 H :    0.196274
Sum of atomic charges:    0.0000000

LOEWDIN ATOMIC CHARGES
----------------------
   0 O :   -0.019141
   1 C :   -0.324696
   2 C :   -0.206078
   3 C :   -0.285280
   4 O :   -0.005069
   5 C :   -0.148816
   6 C :   -0.084846
   7 C :   -0.071310
   8 C :   -0.064916
   9 H :    0.172634
  10 H :    0.151615
  11 H :    0.137880
  12 H :    0.141570
  13 H :    0.153712
  14 H :    0.176779
  15 H :    0.146859
  16 H :    0.129100

  Mayer bond orders larger than 0.1
B(  0-O ,  1-C ) :   0.9203 B(  0-O ,  9-H ) :   0.8409 B(  1-C ,  2-C ) :   0.9319
B(  1-C ,  6-C ) :   0.9559 B(  1-C , 10-H ) :   0.9050 B(  2-C ,  3-C ) :   0.9156
B(  2-C , 11-H ) :   0.9273 B(  2-C , 12-H ) :   0.9268 B(  3-C ,  4-O ) :   0.9362
B(  3-C ,  5-C ) :   0.9447 B(  3-C , 13-H ) :   0.9061 B(  4-O , 14-H ) :   0.8379
B(  5-C ,  6-C ) :   1.5975 B(  5-C ,  7-C ) :   1.1288 B(  5-C ,  8-C ) :  -0.1424
B(  6-C , 15-H ) :   0.9303 B(  7-C ,  8-C ) :   2.5920 B(  8-C , 16-H ) :   0.8775

MP2 TOTAL ENERGY:     -421.089898766 Eh
FINAL SINGLE POINT ENERGY      -421.089898765800

DIPOLE MOMENT
-------------
                                X             Y             Z
Electronic contribution:      1.31122      -1.27370      -2.50318
Nuclear contribution   :     -1.23420       1.47490       2.07859
                        -----------------------------------------
Total Dipole Moment    :      0.07702       0.20120      -0.42459
                        -----------------------------------------
Magnitude (a.u.)       :      0.47612
Magnitude (Debye)      :      1.21020

                             ****ORCA TERMINATED NORMALLY****
TOTAL RUN TIME: 0 days 0 hours 16 minutes 12 seconds 648 msec
