                         Program Version 3.0.3 - RELEASE   -
|  1> ! RI-MP2 RIJK def2-TZVP def2-TZVP/C def2-TZVP/JK TIGHTSCF
|  2> % maxcore 2000
|  3> % mp2 density relaxed end
|  4> *xyz 0 1
|  5>  C        0.0407239957     1.6414382027     0.1327077772
|  6>  C       -0.0325930042     0.1211690172    -0.0996263861
|  7>  C       -1.4301651735    -0.3897392735    -0.1310895505
|  8>  C       -2.1703946636    -1.0057382109    -1.1113483748
|  9>  N       -3.4232201490    -1.2512929630    -0.5815586776
| 10>  N       -3.4952528010    -0.8472423905     0.5942668782
| 11>  O       -2.1961450339    -0.2669833371     0.9383718864
| 12>  C       -1.7881442588    -1.3515734681    -2.4282630912
| 13>  N       -1.4399550898    -1.6190891235    -3.4991653324
| 14>  H        1.0852370859     1.9606062275     0.1604409508
| 15>  H       -0.4624797481     2.1859178394    -0.6708880012
| 16>  H       -0.4296304004     1.9151357160     1.0802167666
| 17>  H        0.4474927951    -0.1495185123    -1.0440709378
| 18>  H        0.5055413054    -0.4017860340     0.6996553121
| 19> *
| 20>
| 21>                          ****END OF INPUT****

CARTESIAN COORDINATES (ANGSTROEM)
---------------------------------
  C      0.040724    1.641438    0.132708
  C     -0.032593    0.121169   -0.099626
  C     -1.430165   -0.389739   -0.131090
  C     -2.170395   -1.005738   -1.111348
  N     -3.423220   -1.251293   -0.581559
  N     -3.495253   -0.847242    0.594267
  O     -2.196145   -0.266983    0.938372
  C     -1.788144   -1.351573   -2.428263
  N     -1.439955   -1.619089   -3.499165
  H      1.085237    1.960606    0.160441
  H     -0.462480    2.185918   -0.670888
  H     -0.429630    1.915136    1.080217
  H      0.447493   -0.149519   -1.044071
  H      0.505541   -0.401786    0.699655

 Total Charge           Charge          ....    0
 Multiplicity           Mult            ....    1
 Number of Electrons    NEL             ....   64
 Basis Dimension        Dim             ....  309

ORBITAL ENERGIES
----------------

  NO   OCC          E(Eh)            E(eV)
   0   2.0000     -20.686574      -562.9103
   1   2.0000     -15.721424      -427.8017
   2   2.0000     -15.675997      -426.5656
   3   2.0000     -15.593371      -424.3172
   4   2.0000     -11.376496      -309.5702
   5   2.0000     -11.322659      -308.1052
   6   2.0000     -11.298293      -307.4422
   7   2.0000     -11.285385      -307.0909
   8   2.0000     -11.256018      -306.2918
   9   2.0000      -1.554496       -42.3000
  10   2.0000      -1.358608       -36.9696
  11   2.0000      -1.240078       -33.7442
  12   2.0000      -1.155510       -31.4430
  13   2.0000      -1.077692       -29.3255
  14   2.0000      -0.939563       -25.5668
  15   2.0000      -0.917398       -24.9637
  16   2.0000      -0.867230       -23.5985
  17   2.0000      -0.801171       -21.8010
  18   2.0000      -0.717969       -19.5369
  19   2.0000      -0.690718       -18.7954
  20   2.0000      -0.655810       -17.8455
  21   2.0000      -0.634727       -17.2718
  22   2.0000      -0.598678       -16.2909
  23   2.0000      -0.578454       -15.7405
  24   2.0000      -0.568309       -15.4645
  25   2.0000      -0.551734       -15.0134
  26   2.0000      -0.548013       -14.9122
  27   2.0000      -0.539108       -14.6699
  28   2.0000      -0.507557       -13.8113
  29   2.0000      -0.503854       -13.7106
  30   2.0000      -0.483616       -13.1599
  31   2.0000      -0.389660       -10.6032
  32   0.0000       0.071831         1.9546
  33   0.0000       0.114266         3.1093
  34   0.0000       0.120686         3.2840
  35   0.0000       0.154955         4.2166
  36   0.0000       0.158706         4.3186

MULLIKEN ATOMIC CHARGES
-----------------------
   0 C :   -0.395803
   1 C :   -0.203711
   2 C :    0.135768
   3 C :    0.153224
   4 N :   -0.082793
   5 N :   -0.002330
   6 O :   -0.102862
   7 C :   -0.215478
   8 N :   -0.030281
   9 H :    0.148087
  10 H :    0.142057
  11 H :    0.150804
  12 H :    0.154369
  13 H :    0.148950
Sum of atomic charges:   -0.0000000

LOEWDIN ATOMIC CHARGES
----------------------
   0 C :   -0.294640
   1 C :   -0.239913
   2 C :   -0.252101
   3 C :   -0.252164
   4 N :    0.076301
   5 N :    0.023298
   6 O :    0.288812
   7 C :   -0.151446
   8 N :    0.097848
   9 H :    0.128529
  10 H :    0.128219
  11 H :    0.128743
  12 H :    0.159437
  13 H :    0.159078

  Mayer bond orders larger than 0.1
B(  0-C ,  1-C ) :   0.9099 B(  0-C ,  9-H ) :   0.9341 B(  0-C , 10-H ) :   0.9314
B(  0-C , 11-H ) :   0.9351 B(  1-C ,  2-C ) :   0.9046 B(  1-C , 12-H ) :   0.9376
B(  1-C , 13-H ) :   0.9130 B(  2-C ,  3-C ) :   1.4467 B(  2-C ,  6-O ) :   1.1998
B(  3-C ,  4-N ) :   1.2019 B(  3-C ,  7-C ) :   0.9139 B(  4-N ,  5-N ) :   1.4925
B(  5-N ,  6-O ) :   0.8162 B(  7-C ,  8-N ) :   2.8427

MP2 TOTAL ENERGY:     -432.134994237 Eh
FINAL SINGLE POINT ENERGY      -432.134994236781

DIPOLE MOMENT
-------------
                                X             Y             Z
Electronic contribution:     -8.12569      -6.73054      -2.27649
Nuclear contribution   :      9.26953       7.54688       3.17048
                        -----------------------------------------
Total Dipole Moment    :      1.14384       0.81634       0.89399
                        -----------------------------------------
Magnitude (a.u.)       :      1.66554
Magnitude (Debye)      :      4.23346

                             ****ORCA TERMINATED NORMALLY****
TOTAL RUN TIME: 0 days 0 hours 14 minutes 33 seconds 419 msec
