                         Program Version 3.0.3 - RELEASE   -
|  1> ! RI-MP2 RIJK def2-TZVP def2-TZVP/C def2-TZVP/JK TIGHTSCF
|  2> % maxcore 2000
|  3> % mp2 density relaxed end
|  4> *xyz 0 1
|  5>  O       -0.0236555280     0.0091451703     0.0026655302
|  6>  C        0.0464209451     1.2121624539     0.0067778466
|  7>  C        1.3293862693     1.9698321382    -0.0003936042
|  8>  C        2.7689680860     1.3892880147    -0.0190787622
|  9>  C        2.9359745954     2.9446947026    -0.0082784251
| 10>  C        1.7973668140     3.0116491507    -1.0741833356
| 11>  C        1.8186132544     2.9943326297     1.0807885860
| 12>  C        4.1712709064     3.6871362022    -0.0144185962
| 13>  N        5.1616857146     4.2838900916    -0.0194033660
| 14>  H       -0.8690186734     1.8470223228     0.0166247996
| 15>  H        3.0966437967     0.8627003902     0.8783942550
| 16>  H        3.0788333560     0.8772840480    -0.9312109966
| 17>  H        2.0345870669     2.6130604619    -2.0622946304
| 18>  H        1.2439302037     3.9511163746    -1.1291717722
| 19>  H        1.2663759677     3.9326281949     1.1617728806
| 20>  H        2.0750811551     2.5797626636     2.0574377307
| 21> *
| 22>
| 23>                          ****END OF INPUT****

CARTESIAN COORDINATES (ANGSTROEM)
---------------------------------
  O     -0.023656    0.009145    0.002666
  C      0.046421    1.212162    0.006778
  C      1.329386    1.969832   -0.000394
  C      2.768968    1.389288   -0.019079
  C      2.935975    2.944695   -0.008278
  C      1.797367    3.011649   -1.074183
  C      1.818613    2.994333    1.080789
  C      4.171271    3.687136   -0.014419
  N      5.161686    4.283890   -0.019403
  H     -0.869019    1.847022    0.016625
  H      3.096644    0.862700    0.878394
  H      3.078833    0.877284   -0.931211
  H      2.034587    2.613060   -2.062295
  H      1.243930    3.951116   -1.129172
  H      1.266376    3.932628    1.161773
  H      2.075081    2.579763    2.057438

 Total Charge           Charge          ....    0
 Multiplicity           Mult            ....    1
 Number of Electrons    NEL             ....   64
 Basis Dimension        Dim             ....  321

ORBITAL ENERGIES
----------------

  NO   OCC          E(Eh)            E(eV)
   0   2.0000     -20.577349      -559.9381
   1   2.0000     -15.580308      -423.9617
   2   2.0000     -11.350455      -308.8616
   3   2.0000     -11.314881      -307.8936
   4   2.0000     -11.291654      -307.2615
   5   2.0000     -11.280467      -306.9571
   6   2.0000     -11.280139      -306.9482
   7   2.0000     -11.280106      -306.9473
   8   2.0000     -11.270889      -306.6965
   9   2.0000      -1.414287       -38.4847
  10   2.0000      -1.264169       -34.3998
  11   2.0000      -1.220911       -33.2227
  12   2.0000      -0.985882       -26.8272
  13   2.0000      -0.953245       -25.9391
  14   2.0000      -0.951871       -25.9017
  15   2.0000      -0.885454       -24.0944
  16   2.0000      -0.770269       -20.9601
  17   2.0000      -0.742389       -20.2014
  18   2.0000      -0.674501       -18.3541
  19   2.0000      -0.661116       -17.9899
  20   2.0000      -0.658910       -17.9299
  21   2.0000      -0.587385       -15.9836
  22   2.0000      -0.573061       -15.5938
  23   2.0000      -0.546831       -14.8800
  24   2.0000      -0.545918       -14.8552
  25   2.0000      -0.542356       -14.7583
  26   2.0000      -0.534569       -14.5464
  27   2.0000      -0.496357       -13.5066
  28   2.0000      -0.485208       -13.2032
  29   2.0000      -0.449780       -12.2391
  30   2.0000      -0.449525       -12.2322
  31   2.0000      -0.435401       -11.8479
  32   0.0000       0.097686         2.6582
  33   0.0000       0.121742         3.3128
  34   0.0000       0.140131         3.8132
  35   0.0000       0.146506         3.9866
  36   0.0000       0.163235         4.4418

MULLIKEN ATOMIC CHARGES
-----------------------
   0 O :   -0.245906
   1 C :    0.035524
   2 C :    0.050550
   3 C :   -0.171123
   4 C :    0.078911
   5 C :   -0.187935
   6 C :   -0.187999
   7 C :   -0.285767
   8 N :   -0.016966
   9 H :    0.087111
  10 H :    0.139569
  11 H :    0.139518
  12 H :    0.143050
  13 H :    0.139182
  14 H :    0.139195
  15 H :    0.143087
Sum of atomic charges:   -0.0000000

LOEWDIN ATOMIC CHARGES
----------------------
   0 O :    0.150019
   1 C :   -0.263266
   2 C :   -0.208879
   3 C :   -0.115203
   4 C :   -0.208188
   5 C :   -0.116402
   6 C :   -0.116265
   7 C :   -0.153884
   8 N :    0.076422
   9 H :    0.117994
  10 H :    0.140706
  11 H :    0.140686
  12 H :    0.139831
  13 H :    0.138289
  14 H :    0.138289
  15 H :    0.139852

  Mayer bond orders larger than 0.1
B(  0-O ,  1-C ) :   2.0478 B(  0-O ,  2-C ) :  -0.1257 B(  1-C ,  2-C ) :   0.7557
B(  1-C ,  9-H ) :   0.9885 B(  2-C ,  3-C ) :   0.8521 B(  2-C ,  5-C ) :   0.8588
B(  2-C ,  6-C ) :   0.8587 B(  2-C ,  9-H ) :  -0.1150 B(  3-C ,  4-C ) :   0.8591
B(  3-C , 10-H ) :   0.9253 B(  3-C , 11-H ) :   0.9254 B(  4-C ,  5-C ) :   0.8621
B(  4-C ,  6-C ) :   0.8621 B(  4-C ,  7-C ) :   0.9064 B(  5-C , 12-H ) :   0.9246
B(  5-C , 13-H ) :   0.9253 B(  6-C , 14-H ) :   0.9253 B(  6-C , 15-H ) :   0.9246
B(  7-C ,  8-N ) :   2.9073

MP2 TOTAL ENERGY:     -400.028901626 Eh
FINAL SINGLE POINT ENERGY      -400.028901626361

DIPOLE MOMENT
-------------
                                X             Y             Z
Electronic contribution:      1.98725      -0.07582      -0.01498
Nuclear contribution   :     -3.05879       0.23244       0.02373
                        -----------------------------------------
Total Dipole Moment    :     -1.07154       0.15662       0.00876
                        -----------------------------------------
Magnitude (a.u.)       :      1.08297
Magnitude (Debye)      :      2.75268

                             ****ORCA TERMINATED NORMALLY****
TOTAL RUN TIME: 0 days 0 hours 15 minutes 48 seconds 484 msec
