                         Program Version 3.0.3 - RELEASE   -
|  1> ! RI-MP2 RIJK def2-TZVP def2-TZVP/C def2-TZVP/JK TIGHTSCF
|  2> % maxcore 2000
|  3> % mp2 density relaxed end
|  4> *xyz 0 1
|  5>  C       -0.0463324197     1.5458939832    -0.0273399422
|  6>  C       -0.0565619777     0.0097234694     0.0260049128
|  7>  C        0.7664378503    -0.5140387259     1.2114664391
|  8>  C       -1.4699492622    -0.5149944705     0.0356850665
|  9>  N       -2.4481084370    -0.2349937788    -1.0788296659
| 10>  C       -3.2286046041    -1.0793379671    -0.1234526895
| 11>  C       -1.9973551774    -1.9794280314     0.1919305743
| 12>  N       -2.0966035762    -1.8612738569     1.6848802707
| 13>  C       -2.5567932150    -0.5260411579     1.1782483688
| 14>  H        0.9804257270     1.9216955883    -0.0773148347
| 15>  H       -0.5809203306     1.9226375415    -0.9049069865
| 16>  H       -0.5133500730     1.9728366183     0.8678190000
| 17>  H        0.3970020036    -0.3610258406    -0.9040896215
| 18>  H        0.7785229485    -1.6059794281     1.2443720342
| 19>  H        1.7990973902    -0.1576497615     1.1371772896
| 20>  H        0.3543535136    -0.1655278855     2.1634227207
| 21>  H       -2.7698476623     0.7355658696    -1.0277196290
| 22>  H       -4.2662203894    -1.3771685421    -0.2883360942
| 23>  H       -1.6575933851    -2.8760693097    -0.3270744053
| 24>  H       -2.8995859092    -2.4004700272     2.0208315900
| 25>  H       -2.8805567843     0.2877476130     1.8314677921
| 26> *
| 27>
| 28>                          ****END OF INPUT****

CARTESIAN COORDINATES (ANGSTROEM)
---------------------------------
  C     -0.046332    1.545894   -0.027340
  C     -0.056562    0.009723    0.026005
  C      0.766438   -0.514039    1.211466
  C     -1.469949   -0.514994    0.035685
  N     -2.448108   -0.234994   -1.078830
  C     -3.228605   -1.079338   -0.123453
  C     -1.997355   -1.979428    0.191931
  N     -2.096604   -1.861274    1.684880
  C     -2.556793   -0.526041    1.178248
  H      0.980426    1.921696   -0.077315
  H     -0.580920    1.922638   -0.904907
  H     -0.513350    1.972837    0.867819
  H      0.397002   -0.361026   -0.904090
  H      0.778523   -1.605979    1.244372
  H      1.799097   -0.157650    1.137177
  H      0.354354   -0.165528    2.163423
  H     -2.769848    0.735566   -1.027720
  H     -4.266220   -1.377169   -0.288336
  H     -1.657593   -2.876069   -0.327074
  H     -2.899586   -2.400470    2.020832
  H     -2.880557    0.287748    1.831468

 Total Charge           Charge          ....    0
 Multiplicity           Mult            ....    1
 Number of Electrons    NEL             ....   68
 Basis Dimension        Dim             ....  351

ORBITAL ENERGIES
----------------

  NO   OCC          E(Eh)            E(eV)
   0   2.0000     -15.550296      -423.1451
   1   2.0000     -15.548359      -423.0924
   2   2.0000     -11.275445      -306.8204
   3   2.0000     -11.272314      -306.7352
   4   2.0000     -11.271799      -306.7212
   5   2.0000     -11.270697      -306.6912
   6   2.0000     -11.230508      -305.5977
   7   2.0000     -11.215572      -305.1912
   8   2.0000     -11.207215      -304.9638
   9   2.0000      -1.324941       -36.0535
  10   2.0000      -1.176229       -32.0068
  11   2.0000      -1.072022       -29.1712
  12   2.0000      -0.952806       -25.9272
  13   2.0000      -0.926094       -25.2003
  14   2.0000      -0.887330       -24.1455
  15   2.0000      -0.880576       -23.9617
  16   2.0000      -0.793971       -21.6050
  17   2.0000      -0.709551       -19.3079
  18   2.0000      -0.675046       -18.3689
  19   2.0000      -0.663767       -18.0620
  20   2.0000      -0.615774       -16.7561
  21   2.0000      -0.609193       -16.5770
  22   2.0000      -0.572191       -15.5701
  23   2.0000      -0.555012       -15.1026
  24   2.0000      -0.544541       -14.8177
  25   2.0000      -0.531995       -14.4763
  26   2.0000      -0.501964       -13.6591
  27   2.0000      -0.485327       -13.2064
  28   2.0000      -0.476719       -12.9722
  29   2.0000      -0.456164       -12.4128
  30   2.0000      -0.445929       -12.1344
  31   2.0000      -0.418966       -11.4006
  32   2.0000      -0.386758       -10.5242
  33   2.0000      -0.369074       -10.0430
  34   0.0000       0.136249         3.7075
  35   0.0000       0.142423         3.8755
  36   0.0000       0.158512         4.3133
  37   0.0000       0.169696         4.6177
  38   0.0000       0.185852         5.0573

MULLIKEN ATOMIC CHARGES
-----------------------
   0 C :   -0.439859
   1 C :   -0.039549
   2 C :   -0.383004
   3 C :    0.033752
   4 N :   -0.335409
   5 C :   -0.081824
   6 C :   -0.028428
   7 N :   -0.349032
   8 C :   -0.038487
   9 H :    0.137294
  10 H :    0.137921
  11 H :    0.124710
  12 H :    0.096889
  13 H :    0.137628
  14 H :    0.127957
  15 H :    0.123611
  16 H :    0.200367
  17 H :    0.127278
  18 H :    0.126313
  19 H :    0.194166
  20 H :    0.127706
Sum of atomic charges:    0.0000000

LOEWDIN ATOMIC CHARGES
----------------------
   0 C :   -0.288503
   1 C :   -0.276089
   2 C :   -0.279995
   3 C :   -0.201415
   4 N :    0.013642
   5 C :   -0.205100
   6 C :   -0.166749
   7 N :   -0.009903
   8 C :   -0.183222
   9 H :    0.125458
  10 H :    0.123212
  11 H :    0.123471
  12 H :    0.161740
  13 H :    0.127662
  14 H :    0.121834
  15 H :    0.126769
  16 H :    0.157455
  17 H :    0.122825
  18 H :    0.127073
  19 H :    0.156597
  20 H :    0.123236

  Mayer bond orders larger than 0.1
B(  0-C ,  1-C ) :   0.8922 B(  0-C ,  9-H ) :   0.9384 B(  0-C , 10-H ) :   0.9423
B(  0-C , 11-H ) :   0.9327 B(  1-C ,  2-C ) :   0.9421 B(  1-C ,  3-C ) :   0.8916
B(  1-C , 12-H ) :   0.9356 B(  2-C , 13-H ) :   0.9371 B(  2-C , 14-H ) :   0.9323
B(  2-C , 15-H ) :   0.9235 B(  3-C ,  4-N ) :   0.9333 B(  3-C ,  6-C ) :   0.8434
B(  3-C ,  8-C ) :   0.8361 B(  4-N ,  5-C ) :   0.9052 B(  4-N , 16-H ) :   0.8757
B(  5-C ,  6-C ) :   0.8617 B(  5-C ,  8-C ) :   0.8331 B(  5-C , 17-H ) :   0.9124
B(  6-C ,  7-N ) :   0.9024 B(  6-C , 18-H ) :   0.8892 B(  7-N ,  8-C ) :   0.8889
B(  7-N , 19-H ) :   0.8663 B(  8-C , 20-H ) :   0.9115

MP2 TOTAL ENERGY:     -382.488905655 Eh
FINAL SINGLE POINT ENERGY      -382.488905655307

DIPOLE MOMENT
-------------
                                X             Y             Z
Electronic contribution:     -6.01442      -3.96885      -1.15964
Nuclear contribution   :      5.58016       4.20514       1.37277
                        -----------------------------------------
Total Dipole Moment    :     -0.43426       0.23629       0.21313
                        -----------------------------------------
Magnitude (a.u.)       :      0.53837
Magnitude (Debye)      :      1.36842

                             ****ORCA TERMINATED NORMALLY****
TOTAL RUN TIME: 0 days 0 hours 21 minutes 55 seconds 343 msec
