                         Program Version 3.0.3 - RELEASE   -
|  1> ! RI-MP2 RIJK def2-TZVP def2-TZVP/C def2-TZVP/JK TIGHTSCF
|  2> % maxcore 2000
|  3> % mp2 density relaxed end
|  4> *xyz 0 1
|  5>  C       -0.0154113820     1.3790594001     0.0033031668
|  6>  O       -0.0237147948    -0.0531857561    -0.0208977506
|  7>  C        0.5847187359    -0.6120040762    -1.0677904744
|  8>  N        1.1770012703     0.0072908178    -2.0457725646
|  9>  O        1.6548842390    -0.9881694236    -2.8650811530
| 10>  N        1.3519504538    -2.2439806344    -2.3621632702
| 11>  C        0.6876922528    -2.0302967733    -1.2606629267
| 12>  N        0.1259897427    -3.0002810797    -0.4631709299
| 13>  H        1.0117688084     1.7557588430     0.0227819133
| 14>  H       -0.5241036060     1.7785584377    -0.8791079383
| 15>  H       -0.5450164212     1.6660793277     0.9114245366
| 16>  H        0.5187182721    -3.9222994642    -0.5877850070
| 17>  H        0.0334619591    -2.7357418987     0.5066125080
| 18> *
| 19>
| 20>                          ****END OF INPUT****

CARTESIAN COORDINATES (ANGSTROEM)
---------------------------------
  C     -0.015411    1.379059    0.003303
  O     -0.023715   -0.053186   -0.020898
  C      0.584719   -0.612004   -1.067790
  N      1.177001    0.007291   -2.045773
  O      1.654884   -0.988169   -2.865081
  N      1.351950   -2.243981   -2.362163
  C      0.687692   -2.030297   -1.260663
  N      0.125990   -3.000281   -0.463171
  H      1.011769    1.755759    0.022782
  H     -0.524104    1.778558   -0.879108
  H     -0.545016    1.666079    0.911425
  H      0.518718   -3.922299   -0.587785
  H      0.033462   -2.735742    0.506613

 Total Charge           Charge          ....    0
 Multiplicity           Mult            ....    1
 Number of Electrons    NEL             ....   60
 Basis Dimension        Dim             ....  278

ORBITAL ENERGIES
----------------

  NO   OCC          E(Eh)            E(eV)
   0   2.0000     -20.655188      -562.0562
   1   2.0000     -20.624229      -561.2138
   2   2.0000     -15.635211      -425.4557
   3   2.0000     -15.628003      -425.2596
   4   2.0000     -15.596730      -424.4086
   5   2.0000     -11.351824      -308.8988
   6   2.0000     -11.331099      -308.3349
   7   2.0000     -11.302731      -307.5630
   8   2.0000      -1.520481       -41.3744
   9   2.0000      -1.451921       -39.5088
  10   2.0000      -1.268136       -34.5077
  11   2.0000      -1.184299       -32.2264
  12   2.0000      -1.127324       -30.6760
  13   2.0000      -0.990101       -26.9420
  14   2.0000      -0.862100       -23.4589
  15   2.0000      -0.825393       -22.4601
  16   2.0000      -0.756991       -20.5988
  17   2.0000      -0.708957       -19.2917
  18   2.0000      -0.702668       -19.1206
  19   2.0000      -0.686130       -18.6705
  20   2.0000      -0.656262       -17.8578
  21   2.0000      -0.642147       -17.4737
  22   2.0000      -0.593465       -16.1490
  23   2.0000      -0.554387       -15.0856
  24   2.0000      -0.543422       -14.7873
  25   2.0000      -0.523685       -14.2502
  26   2.0000      -0.506071       -13.7709
  27   2.0000      -0.476991       -12.9796
  28   2.0000      -0.403779       -10.9874
  29   2.0000      -0.370887       -10.0923
  30   0.0000       0.113054         3.0764
  31   0.0000       0.124452         3.3865
  32   0.0000       0.148000         4.0273
  33   0.0000       0.180088         4.9004
  34   0.0000       0.197898         5.3851

MULLIKEN ATOMIC CHARGES
-----------------------
   0 C :   -0.218117
   1 O :   -0.296712
   2 C :    0.216754
   3 N :   -0.141504
   4 O :   -0.043621
   5 N :   -0.126233
   6 C :    0.149231
   7 N :   -0.514374
   8 H :    0.144894
   9 H :    0.146644
  10 H :    0.150921
  11 H :    0.265601
  12 H :    0.266514
Sum of atomic charges:   -0.0000000

LOEWDIN ATOMIC CHARGES
----------------------
   0 C :   -0.300839
   1 O :    0.235463
   2 C :   -0.414566
   3 N :    0.017165
   4 O :    0.170723
   5 N :    0.022055
   6 C :   -0.386118
   7 N :   -0.050349
   8 H :    0.115747
   9 H :    0.116521
  10 H :    0.116864
  11 H :    0.178534
  12 H :    0.178801

  Mayer bond orders larger than 0.1
B(  0-C ,  1-O ) :   0.8378 B(  0-C ,  8-H ) :   0.9349 B(  0-C ,  9-H ) :   0.9349
B(  0-C , 10-H ) :   0.9338 B(  1-O ,  2-C ) :   1.1139 B(  2-C ,  3-N ) :   1.5576
B(  2-C ,  6-C ) :   1.1471 B(  3-N ,  4-O ) :   0.9080 B(  3-N ,  5-N ) :   0.1081
B(  4-O ,  5-N ) :   0.8903 B(  5-N ,  6-C ) :   1.6116 B(  6-C ,  7-N ) :   1.0827
B(  7-N , 11-H ) :   0.8668 B(  7-N , 12-H ) :   0.8641

MP2 TOTAL ENERGY:     -431.183404358 Eh
FINAL SINGLE POINT ENERGY      -431.183404357759

DIPOLE MOMENT
-------------
                                X             Y             Z
Electronic contribution:      2.28193      -2.87820      -4.20126
Nuclear contribution   :     -2.74364       2.97804       5.76515
                        -----------------------------------------
Total Dipole Moment    :     -0.46171       0.09985       1.56389
                        -----------------------------------------
Magnitude (a.u.)       :      1.63368
Magnitude (Debye)      :      4.15248

                             ****ORCA TERMINATED NORMALLY****
TOTAL RUN TIME: 0 days 0 hours 9 minutes 0 seconds 514 msec
