                         Program Version 3.0.3 - RELEASE   -
|  1> ! RI-MP2 RIJK def2-TZVP def2-TZVP/C def2-TZVP/JK TIGHTSCF
|  2> % maxcore 2000
|  3> % mp2 density relaxed end
|  4> *xyz 0 1
|  5>  C       -0.0504395546     1.5553938092    -0.1322643422
|  6>  C        0.0142623042     0.0573865501     0.1775567663
|  7>  O        0.6546518153    -0.1790599184     1.4317521197
|  8>  C       -1.3555825733    -0.5874429798     0.1089841555
|  9>  C       -1.8678704398    -1.1855002250    -1.1825415813
| 10>  C       -1.5440022961    -2.0837024561    -0.0123799958
| 11>  C       -0.3974324644    -3.0445958021    -0.0543559369
| 12>  C       -0.0899391857    -3.9080509569     1.1416196024
| 13>  C       -0.6631482704    -4.5307063295    -0.1081917854
| 14>  H        0.9458882004     2.0003924225    -0.0645842606
| 15>  H       -0.4508582451     1.7340215738    -1.1353232407
| 16>  H       -0.7032574138     2.0697832087     0.5841631737
| 17>  H        0.6751857687    -0.4215496201    -0.5536730954
| 18>  H        0.0661320224     0.1416665937     2.1237809569
| 19>  H       -2.0996351422    -0.0711450214     0.7156777086
| 20>  H       -2.9042624891    -1.0287027860    -1.4610727914
| 21>  H       -1.1825771464    -1.2040132426    -2.0253274464
| 22>  H       -2.4058572740    -2.4751624309     0.5245640541
| 23>  H        0.4639911382    -2.7040507044    -0.6205209062
| 24>  H        0.9489262814    -4.0968275174     1.3874436655
| 25>  H       -0.7390927289    -3.8184117216     2.0065856171
| 26>  H       -1.6974242457    -4.8591096950    -0.0836877694
| 27>  H       -0.0178175812    -5.1499393207    -0.7217189780
| 28> *
| 29>
| 30>                          ****END OF INPUT****

CARTESIAN COORDINATES (ANGSTROEM)
---------------------------------
  C     -0.050440    1.555394   -0.132264
  C      0.014262    0.057387    0.177557
  O      0.654652   -0.179060    1.431752
  C     -1.355583   -0.587443    0.108984
  C     -1.867870   -1.185500   -1.182542
  C     -1.544002   -2.083702   -0.012380
  C     -0.397432   -3.044596   -0.054356
  C     -0.089939   -3.908051    1.141620
  C     -0.663148   -4.530706   -0.108192
  H      0.945888    2.000392   -0.064584
  H     -0.450858    1.734022   -1.135323
  H     -0.703257    2.069783    0.584163
  H      0.675186   -0.421550   -0.553673
  H      0.066132    0.141667    2.123781
  H     -2.099635   -0.071145    0.715678
  H     -2.904262   -1.028703   -1.461073
  H     -1.182577   -1.204013   -2.025327
  H     -2.405857   -2.475162    0.524564
  H      0.463991   -2.704051   -0.620521
  H      0.948926   -4.096828    1.387444
  H     -0.739093   -3.818412    2.006586
  H     -1.697424   -4.859110   -0.083688
  H     -0.017818   -5.149939   -0.721719

 Total Charge           Charge          ....    0
 Multiplicity           Mult            ....    1
 Number of Electrons    NEL             ....   70
 Basis Dimension        Dim             ....  363

ORBITAL ENERGIES
----------------

  NO   OCC          E(Eh)            E(eV)
   0   2.0000     -20.546455      -559.0975
   1   2.0000     -11.278414      -306.9012
   2   2.0000     -11.231908      -305.6357
   3   2.0000     -11.227634      -305.5195
   4   2.0000     -11.226624      -305.4920
   5   2.0000     -11.224485      -305.4338
   6   2.0000     -11.217594      -305.2462
   7   2.0000     -11.215751      -305.1961
   8   2.0000     -11.214038      -305.1495
   9   2.0000      -1.352579       -36.8055
  10   2.0000      -1.161066       -31.5942
  11   2.0000      -1.114720       -30.3331
  12   2.0000      -1.009585       -27.4722
  13   2.0000      -0.875406       -23.8210
  14   2.0000      -0.859011       -23.3749
  15   2.0000      -0.814859       -22.1734
  16   2.0000      -0.800143       -21.7730
  17   2.0000      -0.754682       -20.5359
  18   2.0000      -0.681344       -18.5403
  19   2.0000      -0.668472       -18.1900
  20   2.0000      -0.631095       -17.1730
  21   2.0000      -0.617377       -16.7997
  22   2.0000      -0.605090       -16.4653
  23   2.0000      -0.584391       -15.9021
  24   2.0000      -0.551085       -14.9958
  25   2.0000      -0.545332       -14.8392
  26   2.0000      -0.521210       -14.1828
  27   2.0000      -0.508586       -13.8393
  28   2.0000      -0.494201       -13.4479
  29   2.0000      -0.472212       -12.8495
  30   2.0000      -0.462184       -12.5767
  31   2.0000      -0.441817       -12.0224
  32   2.0000      -0.433364       -11.7924
  33   2.0000      -0.395708       -10.7678
  34   2.0000      -0.364620        -9.9218
  35   0.0000       0.134105         3.6492
  36   0.0000       0.146662         3.9909
  37   0.0000       0.161359         4.3908
  38   0.0000       0.165444         4.5020
  39   0.0000       0.185174         5.0388

MULLIKEN ATOMIC CHARGES
-----------------------
   0 C :   -0.385756
   1 C :    0.110689
   2 O :   -0.467100
   3 C :   -0.165224
   4 C :   -0.290058
   5 C :   -0.075931
   6 C :   -0.052792
   7 C :   -0.255776
   8 C :   -0.265164
   9 H :    0.145131
  10 H :    0.130614
  11 H :    0.109288
  12 H :    0.074422
  13 H :    0.306601
  14 H :    0.109983
  15 H :    0.131225
  16 H :    0.123933
  17 H :    0.112931
  18 H :    0.111074
  19 H :    0.127500
  20 H :    0.118307
  21 H :    0.120449
  22 H :    0.125653
Sum of atomic charges:    0.0000000

LOEWDIN ATOMIC CHARGES
----------------------
   0 C :   -0.298718
   1 C :   -0.357873
   2 O :   -0.021358
   3 C :   -0.202530
   4 C :   -0.199417
   5 C :   -0.188605
   6 C :   -0.210370
   7 C :   -0.224459
   8 C :   -0.228533
   9 H :    0.125028
  10 H :    0.126969
  11 H :    0.120061
  12 H :    0.145472
  13 H :    0.172184
  14 H :    0.147493
  15 H :    0.130348
  16 H :    0.136818
  17 H :    0.153897
  18 H :    0.150433
  19 H :    0.131234
  20 H :    0.131582
  21 H :    0.131171
  22 H :    0.129172

  Mayer bond orders larger than 0.1
B(  0-C ,  1-C ) :   0.9260 B(  0-C ,  9-H ) :   0.9456 B(  0-C , 10-H ) :   0.9343
B(  0-C , 11-H ) :   0.9223 B(  1-C ,  2-O ) :   0.9173 B(  1-C ,  3-C ) :   0.9542
B(  1-C , 12-H ) :   0.9154 B(  2-O , 13-H ) :   0.8461 B(  3-C ,  4-C ) :   0.9091
B(  3-C ,  5-C ) :   0.8618 B(  3-C , 14-H ) :   0.9098 B(  4-C ,  5-C ) :   0.8812
B(  4-C , 15-H ) :   0.9222 B(  4-C , 16-H ) :   0.9234 B(  5-C ,  6-C ) :   0.9333
B(  5-C , 17-H ) :   0.9126 B(  6-C ,  7-C ) :   0.8891 B(  6-C ,  8-C ) :   0.8871
B(  6-C , 18-H ) :   0.9088 B(  7-C ,  8-C ) :   0.9129 B(  7-C , 19-H ) :   0.9260
B(  7-C , 20-H ) :   0.9296 B(  8-C , 21-H ) :   0.9243 B(  8-C , 22-H ) :   0.9246

MP2 TOTAL ENERGY:     -387.584980205 Eh
FINAL SINGLE POINT ENERGY      -387.584980204683

DIPOLE MOMENT
-------------
                                X             Y             Z
Electronic contribution:      0.66623      -0.66193       1.63268
Nuclear contribution   :     -1.21231       0.90968      -1.72505
                        -----------------------------------------
Total Dipole Moment    :     -0.54609       0.24776      -0.09237
                        -----------------------------------------
Magnitude (a.u.)       :      0.60673
Magnitude (Debye)      :      1.54219

                             ****ORCA TERMINATED NORMALLY****
TOTAL RUN TIME: 0 days 0 hours 20 minutes 6 seconds 106 msec
