                         Program Version 3.0.3 - RELEASE   -
|  1> ! RI-MP2 RIJK def2-TZVP def2-TZVP/C def2-TZVP/JK TIGHTSCF
|  2> % maxcore 2000
|  3> % mp2 density relaxed end
|  4> *xyz 0 1
|  5>  C        0.8537528944     1.2411844969    -0.1516775334
|  6>  N       -0.0274371433     0.0844703805     0.0296085143
|  7>  C        0.0527187882    -0.8835146915    -1.0857779139
|  8>  C        1.1949934894    -1.8572085794    -0.7756643849
|  9>  O        2.4105854657    -1.4030726581    -1.3563421611
| 10>  C        1.3193923955    -1.7528048866     0.7631092977
| 11>  O        2.1358122481    -2.3438415359     1.4218912726
| 12>  C        0.3083203326    -0.6967785257     1.2223754598
| 13>  H        1.9211499153     0.9856361524    -0.2473699410
| 14>  H        0.5529852295     1.7773744081    -1.0565638495
| 15>  H        0.7301808786     1.9225948553     0.6955556220
| 16>  H       -0.8922333839    -1.4388181124    -1.1392582794
| 17>  H        0.2024627563    -0.3703198276    -2.0372062558
| 18>  H        0.9728712396    -2.8911461486    -1.0768252839
| 19>  H        3.1266160399    -1.8592398213    -0.8950978924
| 20>  H        0.6989641462    -0.0828031484     2.0361981956
| 21>  H       -0.5836542622    -1.2213958978     1.5991141233
| 22> *
| 23>
| 24>                          ****END OF INPUT****

CARTESIAN COORDINATES (ANGSTROEM)
---------------------------------
  C      0.853753    1.241184   -0.151678
  N     -0.027437    0.084470    0.029609
  C      0.052719   -0.883515   -1.085778
  C      1.194993   -1.857209   -0.775664
  O      2.410585   -1.403073   -1.356342
  C      1.319392   -1.752805    0.763109
  O      2.135812   -2.343842    1.421891
  C      0.308320   -0.696779    1.222375
  H      1.921150    0.985636   -0.247370
  H      0.552985    1.777374   -1.056564
  H      0.730181    1.922595    0.695556
  H     -0.892233   -1.438818   -1.139258
  H      0.202463   -0.370320   -2.037206
  H      0.972871   -2.891146   -1.076825
  H      3.126616   -1.859240   -0.895098
  H      0.698964   -0.082803    2.036198
  H     -0.583654   -1.221396    1.599114

 Total Charge           Charge          ....    0
 Multiplicity           Mult            ....    1
 Number of Electrons    NEL             ....   62
 Basis Dimension        Dim             ....  302

ORBITAL ENERGIES
----------------

  NO   OCC          E(Eh)            E(eV)
   0   2.0000     -20.573836      -559.8425
   1   2.0000     -20.564757      -559.5955
   2   2.0000     -15.563087      -423.4931
   3   2.0000     -11.338521      -308.5368
   4   2.0000     -11.297651      -307.4247
   5   2.0000     -11.270661      -306.6903
   6   2.0000     -11.263662      -306.4998
   7   2.0000     -11.249465      -306.1135
   8   2.0000      -1.411905       -38.4199
   9   2.0000      -1.374087       -37.3908
  10   2.0000      -1.249868       -34.0106
  11   2.0000      -1.031791       -28.0765
  12   2.0000      -0.991773       -26.9875
  13   2.0000      -0.915913       -24.9233
  14   2.0000      -0.813688       -22.1416
  15   2.0000      -0.771185       -20.9850
  16   2.0000      -0.721061       -19.6211
  17   2.0000      -0.684648       -18.6302
  18   2.0000      -0.647785       -17.6271
  19   2.0000      -0.639645       -17.4056
  20   2.0000      -0.630168       -17.1478
  21   2.0000      -0.589809       -16.0495
  22   2.0000      -0.587556       -15.9882
  23   2.0000      -0.552200       -15.0261
  24   2.0000      -0.541488       -14.7346
  25   2.0000      -0.532866       -14.5000
  26   2.0000      -0.516067       -14.0429
  27   2.0000      -0.501574       -13.6485
  28   2.0000      -0.487311       -13.2604
  29   2.0000      -0.419771       -11.4225
  30   2.0000      -0.363303        -9.8860
  31   0.0000       0.118192         3.2162
  32   0.0000       0.133835         3.6418
  33   0.0000       0.165328         4.4988
  34   0.0000       0.167181         4.5492
  35   0.0000       0.179300         4.8790

MULLIKEN ATOMIC CHARGES
-----------------------
   0 C :   -0.338578
   1 N :   -0.158671
   2 C :   -0.166852
   3 C :    0.096544
   4 O :   -0.471737
   5 C :    0.062885
   6 O :   -0.269074
   7 C :   -0.142411
   8 H :    0.136524
   9 H :    0.134302
  10 H :    0.134371
  11 H :    0.132569
  12 H :    0.135659
  13 H :    0.105702
  14 H :    0.326767
  15 H :    0.146242
  16 H :    0.135760
Sum of atomic charges:    0.0000000

LOEWDIN ATOMIC CHARGES
----------------------
   0 C :   -0.326347
   1 N :    0.058202
   2 C :   -0.248164
   3 C :   -0.318216
   4 O :   -0.013264
   5 C :   -0.302050
   6 O :    0.156274
   7 C :   -0.249951
   8 H :    0.108494
   9 H :    0.119568
  10 H :    0.116846
  11 H :    0.138172
  12 H :    0.142742
  13 H :    0.138855
  14 H :    0.182584
  15 H :    0.146133
  16 H :    0.150124

  Mayer bond orders larger than 0.1
B(  0-C ,  1-N ) :   0.9037 B(  0-C ,  8-H ) :   0.9227 B(  0-C ,  9-H ) :   0.9401
B(  0-C , 10-H ) :   0.9355 B(  1-N ,  2-C ) :   0.9014 B(  1-N ,  7-C ) :   0.9581
B(  2-C ,  3-C ) :   0.9173 B(  2-C , 11-H ) :   0.9296 B(  2-C , 12-H ) :   0.9264
B(  3-C ,  4-O ) :   0.9452 B(  3-C ,  5-C ) :   0.8662 B(  3-C ,  7-C ) :  -0.1040
B(  3-C , 13-H ) :   0.9143 B(  4-O , 14-H ) :   0.8302 B(  5-C ,  6-O ) :   2.0127
B(  5-C ,  7-C ) :   0.9217 B(  7-C , 15-H ) :   0.9195 B(  7-C , 16-H ) :   0.8911

MP2 TOTAL ENERGY:     -400.353179078 Eh
FINAL SINGLE POINT ENERGY      -400.353179078095

DIPOLE MOMENT
-------------
                                X             Y             Z
Electronic contribution:      2.39579      -4.94072       1.76346
Nuclear contribution   :     -2.74603       5.01998      -1.91501
                        -----------------------------------------
Total Dipole Moment    :     -0.35024       0.07926      -0.15156
                        -----------------------------------------
Magnitude (a.u.)       :      0.38977
Magnitude (Debye)      :      0.99071

                             ****ORCA TERMINATED NORMALLY****
TOTAL RUN TIME: 0 days 0 hours 12 minutes 24 seconds 82 msec
