                         Program Version 3.0.3 - RELEASE   -
|  1> ! RI-MP2 RIJK def2-TZVP def2-TZVP/C def2-TZVP/JK TIGHTSCF
|  2> % maxcore 2000
|  3> % mp2 density relaxed end
|  4> *xyz 0 1
|  5>  O        0.0606237954     1.4019311648    -0.0171735197
|  6>  C        0.0084963367     0.0379774525    -0.0024272583
|  7>  C       -0.0132960701    -0.8211864497     1.3227697583
|  8>  O       -1.4258334529    -0.5054665782     1.5549831292
|  9>  C       -1.3350241327    -0.7836342437     0.1185788348
| 10>  C       -0.4050204781    -2.0027510046     0.3878168247
| 11>  C        0.6152819771    -2.1621806323    -0.7372140209
| 12>  C        0.8880619439    -0.6807879181    -0.9898922844
| 13>  O        1.6202860764    -0.1335564950    -1.7773187824
| 14>  H        0.6991527502     1.6337759444    -0.7104680370
| 15>  H        0.6722187197    -0.7875547102     2.1696550600
| 16>  H       -2.2401734425    -0.7048136770    -0.4837241625
| 17>  H       -0.8596266019    -2.8694238898     0.8597201128
| 18>  H        1.5273727869    -2.6902240324    -0.4405262826
| 19>  H        0.2190616019    -2.6526790508    -1.6323077519
| 20> *
| 21>
| 22>                          ****END OF INPUT****

CARTESIAN COORDINATES (ANGSTROEM)
---------------------------------
  O      0.060624    1.401931   -0.017174
  C      0.008496    0.037977   -0.002427
  C     -0.013296   -0.821186    1.322770
  O     -1.425833   -0.505467    1.554983
  C     -1.335024   -0.783634    0.118579
  C     -0.405020   -2.002751    0.387817
  C      0.615282   -2.162181   -0.737214
  C      0.888062   -0.680788   -0.989892
  O      1.620286   -0.133556   -1.777319
  H      0.699153    1.633776   -0.710468
  H      0.672219   -0.787555    2.169655
  H     -2.240173   -0.704814   -0.483724
  H     -0.859627   -2.869424    0.859720
  H      1.527373   -2.690224   -0.440526
  H      0.219062   -2.652679   -1.632308

 Total Charge           Charge          ....    0
 Multiplicity           Mult            ....    1
 Number of Electrons    NEL             ....   66
 Basis Dimension        Dim             ....  315

ORBITAL ENERGIES
----------------

  NO   OCC          E(Eh)            E(eV)
   0   2.0000     -20.581808      -560.0595
   1   2.0000     -20.574678      -559.8655
   2   2.0000     -20.567665      -559.6746
   3   2.0000     -11.352142      -308.9075
   4   2.0000     -11.322743      -308.1075
   5   2.0000     -11.322631      -308.1045
   6   2.0000     -11.319159      -308.0100
   7   2.0000     -11.270979      -306.6989
   8   2.0000     -11.263862      -306.5053
   9   2.0000      -1.437894       -39.1271
  10   2.0000      -1.413027       -38.4504
  11   2.0000      -1.384802       -37.6824
  12   2.0000      -1.163704       -31.6660
  13   2.0000      -0.992658       -27.0116
  14   2.0000      -0.940190       -25.5839
  15   2.0000      -0.910472       -24.7752
  16   2.0000      -0.806820       -21.9547
  17   2.0000      -0.759162       -20.6579
  18   2.0000      -0.727569       -19.7982
  19   2.0000      -0.705427       -19.1956
  20   2.0000      -0.664150       -18.0724
  21   2.0000      -0.653729       -17.7889
  22   2.0000      -0.625318       -17.0158
  23   2.0000      -0.605630       -16.4800
  24   2.0000      -0.579400       -15.7663
  25   2.0000      -0.561039       -15.2666
  26   2.0000      -0.558109       -15.1869
  27   2.0000      -0.528381       -14.3780
  28   2.0000      -0.526166       -14.3177
  29   2.0000      -0.471440       -12.8285
  30   2.0000      -0.447354       -12.1731
  31   2.0000      -0.424145       -11.5416
  32   2.0000      -0.407257       -11.0820
  33   0.0000       0.114602         3.1185
  34   0.0000       0.126352         3.4382
  35   0.0000       0.155490         4.2311
  36   0.0000       0.169796         4.6204
  37   0.0000       0.170171         4.6306

MULLIKEN ATOMIC CHARGES
-----------------------
   0 O :   -0.445871
   1 C :    0.234458
   2 C :   -0.045121
   3 O :   -0.311606
   4 C :   -0.045099
   5 C :   -0.078932
   6 C :   -0.205381
   7 C :    0.110687
   8 O :   -0.289994
   9 H :    0.340285
  10 H :    0.149879
  11 H :    0.149884
  12 H :    0.146818
  13 H :    0.144988
  14 H :    0.145003
Sum of atomic charges:    0.0000000

LOEWDIN ATOMIC CHARGES
----------------------
   0 O :    0.063436
   1 C :   -0.304933
   2 C :   -0.162725
   3 O :    0.143699
   4 C :   -0.162709
   5 C :   -0.163100
   6 C :   -0.193747
   7 C :   -0.289081
   8 O :    0.151036
   9 H :    0.198558
  10 H :    0.131316
  11 H :    0.131322
  12 H :    0.148888
  13 H :    0.154014
  14 H :    0.154028

  Mayer bond orders larger than 0.1
B(  0-O ,  1-C ) :   1.1400 B(  0-O ,  9-H ) :   0.8041 B(  1-C ,  2-C ) :   0.8562
B(  1-C ,  4-C ) :   0.8563 B(  1-C ,  7-C ) :   0.8756 B(  2-C ,  3-O ) :   0.9197
B(  2-C ,  5-C ) :   0.9050 B(  2-C , 10-H ) :   0.8835 B(  3-O ,  4-C ) :   0.9198
B(  4-C ,  5-C ) :   0.9050 B(  4-C , 11-H ) :   0.8835 B(  5-C ,  6-C ) :   0.8747
B(  5-C , 12-H ) :   0.9190 B(  6-C ,  7-C ) :   0.9081 B(  6-C , 13-H ) :   0.8877
B(  6-C , 14-H ) :   0.8877 B(  7-C ,  8-O ) :   1.9606

MP2 TOTAL ENERGY:     -456.982911272 Eh
FINAL SINGLE POINT ENERGY      -456.982911272276

DIPOLE MOMENT
-------------
                                X             Y             Z
Electronic contribution:      0.22795       3.21264      -0.14935
Nuclear contribution   :     -0.03325      -4.27878      -0.09717
                        -----------------------------------------
Total Dipole Moment    :      0.19470      -1.06614      -0.24652
                        -----------------------------------------
Magnitude (a.u.)       :      1.11145
Magnitude (Debye)      :      2.82509

                             ****ORCA TERMINATED NORMALLY****
TOTAL RUN TIME: 0 days 0 hours 15 minutes 51 seconds 456 msec
