                         Program Version 3.0.3 - RELEASE   -
|  1> ! RI-MP2 RIJK def2-TZVP def2-TZVP/C def2-TZVP/JK TIGHTSCF
|  2> % maxcore 2000
|  3> % mp2 density relaxed end
|  4> *xyz 0 1
|  5>  C        0.0111303313     1.4024875479    -0.0533854592
|  6>  C        0.0151537191    -0.0863508898    -0.0121402014
|  7>  O        0.9614293166    -0.8240851911    -0.7949825266
|  8>  C        0.1864361610    -2.0112312062    -0.4604179305
|  9>  C        0.4821078429    -2.2465563669     1.0437951758
| 10>  C       -0.3079048482    -0.9515929768     1.2361744279
| 11>  O       -0.8466911544    -0.4266066257     2.3933059087
| 12>  C       -1.0651727562    -1.1297252838    -0.0745134880
| 13>  C       -2.5150462260    -1.1412686369    -0.4310165082
| 14>  H        0.9918963030     1.7979146372     0.2351969125
| 15>  H       -0.2225337739     1.7767846207    -1.0549958997
| 16>  H       -0.7343470216     1.7915860193     0.6463736464
| 17>  H        0.2467274441    -2.8013668640    -1.2058787960
| 18>  H       -0.0669541131    -3.1063586922     1.4374162503
| 19>  H        1.5377303771    -2.2914978920     1.3316389423
| 20>  H       -0.1634517259     0.0780549477     2.8494744626
| 21>  H       -3.0394483039    -0.3326302753     0.0884440443
| 22>  H       -2.6676868339    -1.0061099016    -1.5074957306
| 23>  H       -2.9942217880    -2.0825852507    -0.1382764807
| 24> *
| 25>
| 26>                          ****END OF INPUT****

CARTESIAN COORDINATES (ANGSTROEM)
---------------------------------
  C      0.011130    1.402488   -0.053385
  C      0.015154   -0.086351   -0.012140
  O      0.961429   -0.824085   -0.794983
  C      0.186436   -2.011231   -0.460418
  C      0.482108   -2.246556    1.043795
  C     -0.307905   -0.951593    1.236174
  O     -0.846691   -0.426607    2.393306
  C     -1.065173   -1.129725   -0.074513
  C     -2.515046   -1.141269   -0.431017
  H      0.991896    1.797915    0.235197
  H     -0.222534    1.776785   -1.054996
  H     -0.734347    1.791586    0.646374
  H      0.246727   -2.801367   -1.205879
  H     -0.066954   -3.106359    1.437416
  H      1.537730   -2.291498    1.331639
  H     -0.163452    0.078055    2.849474
  H     -3.039448   -0.332630    0.088444
  H     -2.667687   -1.006110   -1.507496
  H     -2.994222   -2.082585   -0.138276

 Total Charge           Charge          ....    0
 Multiplicity           Mult            ....    1
 Number of Electrons    NEL             ....   68
 Basis Dimension        Dim             ....  339

ORBITAL ENERGIES
----------------

  NO   OCC          E(Eh)            E(eV)
   0   2.0000     -20.576159      -559.9057
   1   2.0000     -20.547589      -559.1283
   2   2.0000     -11.290914      -307.2414
   3   2.0000     -11.288293      -307.1701
   4   2.0000     -11.286985      -307.1345
   5   2.0000     -11.236811      -305.7692
   6   2.0000     -11.228233      -305.5357
   7   2.0000     -11.227689      -305.5209
   8   2.0000     -11.226214      -305.4808
   9   2.0000      -1.405319       -38.2407
  10   2.0000      -1.377064       -37.4718
  11   2.0000      -1.144157       -31.1341
  12   2.0000      -1.027642       -27.9636
  13   2.0000      -0.989158       -26.9164
  14   2.0000      -0.924948       -25.1691
  15   2.0000      -0.857408       -23.3313
  16   2.0000      -0.774377       -21.0719
  17   2.0000      -0.707871       -19.2621
  18   2.0000      -0.692439       -18.8422
  19   2.0000      -0.655775       -17.8445
  20   2.0000      -0.631755       -17.1909
  21   2.0000      -0.626106       -17.0372
  22   2.0000      -0.590443       -16.0668
  23   2.0000      -0.573235       -15.5985
  24   2.0000      -0.562973       -15.3193
  25   2.0000      -0.559139       -15.2150
  26   2.0000      -0.553063       -15.0496
  27   2.0000      -0.542687       -14.7673
  28   2.0000      -0.517647       -14.0859
  29   2.0000      -0.499581       -13.5943
  30   2.0000      -0.471445       -12.8287
  31   2.0000      -0.419622       -11.4185
  32   2.0000      -0.373655       -10.1677
  33   2.0000      -0.351265        -9.5584
  34   0.0000       0.123639         3.3644
  35   0.0000       0.149942         4.0801
  36   0.0000       0.166719         4.5366
  37   0.0000       0.180902         4.9226
  38   0.0000       0.191140         5.2012

MULLIKEN ATOMIC CHARGES
-----------------------
   0 C :   -0.459425
   1 C :    0.110011
   2 O :   -0.321329
   3 C :    0.047874
   4 C :   -0.212840
   5 C :    0.148069
   6 O :   -0.467039
   7 C :    0.007225
   8 C :   -0.419932
   9 H :    0.146297
  10 H :    0.146785
  11 H :    0.148669
  12 H :    0.133815
  13 H :    0.117427
  14 H :    0.113395
  15 H :    0.331686
  16 H :    0.145928
  17 H :    0.144263
  18 H :    0.139122
Sum of atomic charges:    0.0000000

LOEWDIN ATOMIC CHARGES
----------------------
   0 C :   -0.270185
   1 C :   -0.269826
   2 O :    0.180376
   3 C :   -0.173017
   4 C :   -0.189409
   5 C :   -0.292750
   6 O :    0.034861
   7 C :   -0.138661
   8 C :   -0.275724
   9 H :    0.135028
  10 H :    0.133510
  11 H :    0.138538
  12 H :    0.128467
  13 H :    0.143137
  14 H :    0.126560
  15 H :    0.188724
  16 H :    0.137538
  17 H :    0.131678
  18 H :    0.131155

  Mayer bond orders larger than 0.1
B(  0-C ,  1-C ) :   0.8491 B(  0-C ,  9-H ) :   0.9378 B(  0-C , 10-H ) :   0.9415
B(  0-C , 11-H ) :   0.9374 B(  1-C ,  2-O ) :   0.9883 B(  1-C ,  5-C ) :   0.8182
B(  1-C ,  7-C ) :   0.8878 B(  2-O ,  3-C ) :   0.8930 B(  3-C ,  4-C ) :   0.9215
B(  3-C ,  7-C ) :   0.9065 B(  3-C , 12-H ) :   0.9133 B(  4-C ,  5-C ) :   0.9483
B(  4-C , 13-H ) :   0.9191 B(  4-C , 14-H ) :   0.9137 B(  5-C ,  6-O ) :   1.0044
B(  5-C ,  7-C ) :   0.7654 B(  6-O , 15-H ) :   0.8347 B(  7-C ,  8-C ) :   0.8043
B(  8-C , 16-H ) :   0.9418 B(  8-C , 17-H ) :   0.9494 B(  8-C , 18-H ) :   0.9391

MP2 TOTAL ENERGY:     -422.260756420 Eh
FINAL SINGLE POINT ENERGY      -422.260756419743

DIPOLE MOMENT
-------------
                                X             Y             Z
Electronic contribution:      3.22720      -1.57952       0.94694
Nuclear contribution   :     -3.41169       1.66772      -0.68832
                        -----------------------------------------
Total Dipole Moment    :     -0.18448       0.08821       0.25862
                        -----------------------------------------
Magnitude (a.u.)       :      0.32970
Magnitude (Debye)      :      0.83802

                             ****ORCA TERMINATED NORMALLY****
TOTAL RUN TIME: 0 days 0 hours 17 minutes 7 seconds 110 msec
