                         Program Version 3.0.3 - RELEASE   -
|  1> ! RI-MP2 RIJK def2-TZVP def2-TZVP/C def2-TZVP/JK TIGHTSCF
|  2> % maxcore 2000
|  3> % mp2 density relaxed end
|  4> *xyz 0 1
|  5>  C       -0.2242229999     1.4853383236     0.0064730243
|  6>  C        0.0021159309     0.0025991849    -0.0151416056
|  7>  N        0.0695771710    -0.5788140872    -1.1762197150
|  8>  N        0.2774192814    -1.9309345527    -1.1353426123
|  9>  C        0.4170496819    -2.7091488157    -0.0192844107
| 10>  N        0.6129150000    -3.9784997884     0.0662907001
| 11>  C        0.3158611968    -1.8989979125     1.2177278728
| 12>  N        0.4430468138    -2.5950487023     2.3553523156
| 13>  N        0.1186726915    -0.6103034784     1.2107321957
| 14>  H        0.5997178426     1.9862429951     0.5254892614
| 15>  H       -0.3038160901     1.8740912809    -1.0091812383
| 16>  H       -1.1393134632     1.7202359211     0.5601372210
| 17>  H        0.3262938489    -2.3614175211    -2.0462087514
| 18>  H        0.6650834259    -4.4292935924    -0.8475023439
| 19>  H        0.5948250221    -3.5888189463     2.2770931449
| 20>  H        0.3889274661    -2.1256321588     3.2420164813
| 21> *
| 22>
| 23>                          ****END OF INPUT****

CARTESIAN COORDINATES (ANGSTROEM)
---------------------------------
  C     -0.224223    1.485338    0.006473
  C      0.002116    0.002599   -0.015142
  N      0.069577   -0.578814   -1.176220
  N      0.277419   -1.930935   -1.135343
  C      0.417050   -2.709149   -0.019284
  N      0.612915   -3.978500    0.066291
  C      0.315861   -1.898998    1.217728
  N      0.443047   -2.595049    2.355352
  N      0.118673   -0.610303    1.210732
  H      0.599718    1.986243    0.525489
  H     -0.303816    1.874091   -1.009181
  H     -1.139313    1.720236    0.560137
  H      0.326294   -2.361418   -2.046209
  H      0.665083   -4.429294   -0.847502
  H      0.594825   -3.588819    2.277093
  H      0.388927   -2.125632    3.242016

 Total Charge           Charge          ....    0
 Multiplicity           Mult            ....    1
 Number of Electrons    NEL             ....   66
 Basis Dimension        Dim             ....  321

ORBITAL ENERGIES
----------------

  NO   OCC          E(Eh)            E(eV)
   0   2.0000     -15.630849      -425.3370
   1   2.0000     -15.590985      -424.2523
   2   2.0000     -15.590292      -424.2334
   3   2.0000     -15.556999      -423.3275
   4   2.0000     -15.537206      -422.7889
   5   2.0000     -11.350446      -308.8613
   6   2.0000     -11.340644      -308.5946
   7   2.0000     -11.306850      -307.6750
   8   2.0000     -11.221797      -305.3606
   9   2.0000      -1.372899       -37.3585
  10   2.0000      -1.284723       -34.9591
  11   2.0000      -1.234897       -33.6033
  12   2.0000      -1.176660       -32.0186
  13   2.0000      -1.100828       -29.9551
  14   2.0000      -0.979573       -26.6555
  15   2.0000      -0.927136       -25.2286
  16   2.0000      -0.853285       -23.2191
  17   2.0000      -0.782061       -21.2810
  18   2.0000      -0.748014       -20.3545
  19   2.0000      -0.693885       -18.8816
  20   2.0000      -0.687828       -18.7168
  21   2.0000      -0.638266       -17.3681
  22   2.0000      -0.627026       -17.0622
  23   2.0000      -0.575106       -15.6494
  24   2.0000      -0.568769       -15.4770
  25   2.0000      -0.546498       -14.8710
  26   2.0000      -0.537797       -14.6342
  27   2.0000      -0.498637       -13.5686
  28   2.0000      -0.470354       -12.7990
  29   2.0000      -0.467211       -12.7135
  30   2.0000      -0.408243       -11.1088
  31   2.0000      -0.399207       -10.8630
  32   2.0000      -0.310584        -8.4514
  33   0.0000       0.096866         2.6359
  34   0.0000       0.131455         3.5771
  35   0.0000       0.145893         3.9700
  36   0.0000       0.157928         4.2974
  37   0.0000       0.163236         4.4419

MULLIKEN ATOMIC CHARGES
-----------------------
   0 C :   -0.389502
   1 C :    0.165082
   2 N :   -0.194202
   3 N :   -0.142232
   4 C :    0.094899
   5 N :   -0.472370
   6 C :    0.260359
   7 N :   -0.442554
   8 N :   -0.291127
   9 H :    0.136422
  10 H :    0.143941
  11 H :    0.136458
  12 H :    0.246527
  13 H :    0.195650
  14 H :    0.292253
  15 H :    0.260397
Sum of atomic charges:    0.0000000

LOEWDIN ATOMIC CHARGES
----------------------
   0 C :   -0.271100
   1 C :   -0.374910
   2 N :    0.053973
   3 N :    0.115534
   4 C :   -0.371602
   5 N :   -0.120863
   6 C :   -0.307999
   7 N :    0.037385
   8 N :    0.133588
   9 H :    0.133128
  10 H :    0.131463
  11 H :    0.133121
  12 H :    0.189934
  13 H :    0.153036
  14 H :    0.188089
  15 H :    0.177223

  Mayer bond orders larger than 0.1
B(  0-C ,  1-C ) :   0.9105 B(  0-C ,  9-H ) :   0.9246 B(  0-C , 10-H ) :   0.9478
B(  0-C , 11-H ) :   0.9247 B(  1-C ,  2-N ) :   1.7341 B(  1-C ,  8-N ) :   1.1735
B(  2-N ,  3-N ) :   0.9052 B(  3-N ,  4-C ) :   1.1795 B(  3-N , 12-H ) :   0.8721
B(  4-C ,  5-N ) :   1.8462 B(  4-C ,  6-C ) :   0.9811 B(  5-N , 13-H ) :   0.8603
B(  6-C ,  7-N ) :   1.2646 B(  6-C ,  8-N ) :   1.6211 B(  7-N , 14-H ) :   0.8349
B(  7-N , 15-H ) :   0.8571

MP2 TOTAL ENERGY:     -429.554384335 Eh
FINAL SINGLE POINT ENERGY      -429.554384335379

DIPOLE MOMENT
-------------
                                X             Y             Z
Electronic contribution:      0.48011      -3.22624      -0.68299
Nuclear contribution   :     -0.43657       2.94874       0.67042
                        -----------------------------------------
Total Dipole Moment    :      0.04354      -0.27750      -0.01257
                        -----------------------------------------
Magnitude (a.u.)       :      0.28118
Magnitude (Debye)      :      0.71469

                             ****ORCA TERMINATED NORMALLY****
TOTAL RUN TIME: 0 days 0 hours 16 minutes 26 seconds 247 msec
