                         Program Version 3.0.3 - RELEASE   -
|  1> ! RI-MP2 RIJK def2-TZVP def2-TZVP/C def2-TZVP/JK TIGHTSCF
|  2> % maxcore 2000
|  3> % mp2 density relaxed end
|  4> *xyz 0 1
|  5>  O       -0.2275220221     1.3596972509    -0.1015612896
|  6>  C       -0.0067942682    -0.0175822373     0.0820509521
|  7>  C        0.2064117234    -0.3620259691     1.5933977648
|  8>  C       -1.2805738789    -0.6560567994     1.6450364728
|  9>  C       -2.3345123512    -0.4215733569     2.4129453243
| 10>  C       -3.6664029390    -0.4024560073     1.6933662186
| 11>  C       -3.4839493089     0.3415637685     0.3568763554
| 12>  O       -2.4907578653    -0.2403688013    -0.4978250695
| 13>  C       -1.3665361424    -0.8012029966     0.1513489283
| 14>  H       -0.9679994431     1.4269343659    -0.7190535988
| 15>  H        0.7470541458    -0.4023173669    -0.6169923451
| 16>  H        0.8455727101    -1.2409973529     1.7257301235
| 17>  H        0.5775121243     0.4552575078     2.2149280277
| 18>  H       -2.2632566221    -0.1313313643     3.4566131519
| 19>  H       -4.0490677279    -1.4136576130     1.5036702575
| 20>  H       -4.4284757186     0.1195373226     2.2810625146
| 21>  H       -4.4071439570     0.3317355654    -0.2306634486
| 22>  H       -3.2216318442     1.3861643507     0.5747375902
| 23>  H       -1.2459438649    -1.8328549668    -0.2042135202
| 24> *
| 25>
| 26>                          ****END OF INPUT****

CARTESIAN COORDINATES (ANGSTROEM)
---------------------------------
  O     -0.227522    1.359697   -0.101561
  C     -0.006794   -0.017582    0.082051
  C      0.206412   -0.362026    1.593398
  C     -1.280574   -0.656057    1.645036
  C     -2.334512   -0.421573    2.412945
  C     -3.666403   -0.402456    1.693366
  C     -3.483949    0.341564    0.356876
  O     -2.490758   -0.240369   -0.497825
  C     -1.366536   -0.801203    0.151349
  H     -0.967999    1.426934   -0.719054
  H      0.747054   -0.402317   -0.616992
  H      0.845573   -1.240997    1.725730
  H      0.577512    0.455258    2.214928
  H     -2.263257   -0.131331    3.456613
  H     -4.049068   -1.413658    1.503670
  H     -4.428476    0.119537    2.281063
  H     -4.407144    0.331736   -0.230663
  H     -3.221632    1.386164    0.574738
  H     -1.245944   -1.832855   -0.204214

 Total Charge           Charge          ....    0
 Multiplicity           Mult            ....    1
 Number of Electrons    NEL             ....   68
 Basis Dimension        Dim             ....  339

ORBITAL ENERGIES
----------------

  NO   OCC          E(Eh)            E(eV)
   0   2.0000     -20.562888      -559.5446
   1   2.0000     -20.553351      -559.2851
   2   2.0000     -11.283572      -307.0416
   3   2.0000     -11.281235      -306.9780
   4   2.0000     -11.281171      -306.9763
   5   2.0000     -11.234592      -305.7088
   6   2.0000     -11.233670      -305.6837
   7   2.0000     -11.233055      -305.6670
   8   2.0000     -11.227823      -305.5246
   9   2.0000      -1.386748       -37.7353
  10   2.0000      -1.356079       -36.9008
  11   2.0000      -1.135692       -30.9038
  12   2.0000      -1.067450       -29.0468
  13   2.0000      -0.959095       -26.0983
  14   2.0000      -0.905079       -24.6285
  15   2.0000      -0.841855       -22.9080
  16   2.0000      -0.810949       -22.0671
  17   2.0000      -0.714519       -19.4431
  18   2.0000      -0.696709       -18.9584
  19   2.0000      -0.684298       -18.6207
  20   2.0000      -0.662435       -18.0258
  21   2.0000      -0.637041       -17.3348
  22   2.0000      -0.597779       -16.2664
  23   2.0000      -0.578204       -15.7337
  24   2.0000      -0.562183       -15.2978
  25   2.0000      -0.553971       -15.0743
  26   2.0000      -0.546971       -14.8838
  27   2.0000      -0.523361       -14.2414
  28   2.0000      -0.511599       -13.9213
  29   2.0000      -0.483179       -13.1480
  30   2.0000      -0.443193       -12.0599
  31   2.0000      -0.422840       -11.5061
  32   2.0000      -0.409065       -11.1312
  33   2.0000      -0.349245        -9.5035
  34   0.0000       0.132903         3.6165
  35   0.0000       0.141805         3.8587
  36   0.0000       0.161990         4.4080
  37   0.0000       0.166896         4.5415
  38   0.0000       0.176421         4.8007

MULLIKEN ATOMIC CHARGES
-----------------------
   0 O :   -0.475629
   1 C :    0.062444
   2 C :   -0.166200
   3 C :   -0.084354
   4 C :   -0.222201
   5 C :   -0.188723
   6 C :   -0.050723
   7 O :   -0.349938
   8 C :    0.093415
   9 H :    0.330806
  10 H :    0.095793
  11 H :    0.126056
  12 H :    0.125752
  13 H :    0.128417
  14 H :    0.123153
  15 H :    0.127325
  16 H :    0.121050
  17 H :    0.100528
  18 H :    0.103030
Sum of atomic charges:   -0.0000000

LOEWDIN ATOMIC CHARGES
----------------------
   0 O :   -0.007885
   1 C :   -0.291342
   2 C :   -0.176690
   3 C :   -0.155652
   4 C :   -0.144226
   5 C :   -0.250609
   6 C :   -0.296086
   7 O :    0.160431
   8 C :   -0.251360
   9 H :    0.182509
  10 H :    0.120819
  11 H :    0.141755
  12 H :    0.140405
  13 H :    0.140730
  14 H :    0.145261
  15 H :    0.145278
  16 H :    0.127417
  17 H :    0.122117
  18 H :    0.147128

  Mayer bond orders larger than 0.1
B(  0-O ,  1-C ) :   0.9939 B(  0-O ,  9-H ) :   0.8241 B(  1-C ,  2-C ) :   0.8900
B(  1-C ,  8-C ) :   0.9025 B(  1-C , 10-H ) :   0.9578 B(  2-C ,  3-C ) :   0.9181
B(  2-C , 11-H ) :   0.9067 B(  2-C , 12-H ) :   0.8967 B(  3-C ,  4-C ) :   1.7837
B(  3-C ,  8-C ) :   0.9157 B(  4-C ,  5-C ) :   0.9353 B(  4-C , 13-H ) :   0.9296
B(  5-C ,  6-C ) :   0.9409 B(  5-C , 14-H ) :   0.9129 B(  5-C , 15-H ) :   0.9236
B(  6-C ,  7-O ) :   0.9079 B(  6-C , 16-H ) :   0.9231 B(  6-C , 17-H ) :   0.9306
B(  7-O ,  8-C ) :   0.9404 B(  8-C , 18-H ) :   0.9270

MP2 TOTAL ENERGY:     -422.297650647 Eh
FINAL SINGLE POINT ENERGY      -422.297650647259

DIPOLE MOMENT
-------------
                                X             Y             Z
Electronic contribution:      1.57654       0.03451      -1.92012
Nuclear contribution   :     -1.99431      -0.36440       2.21400
                        -----------------------------------------
Total Dipole Moment    :     -0.41776      -0.32989       0.29388
                        -----------------------------------------
Magnitude (a.u.)       :      0.60804
Magnitude (Debye)      :      1.54552

                             ****ORCA TERMINATED NORMALLY****
TOTAL RUN TIME: 0 days 0 hours 19 minutes 34 seconds 13 msec
