                         Program Version 3.0.3 - RELEASE   -
|  1> ! RI-MP2 RIJK def2-TZVP def2-TZVP/C def2-TZVP/JK TIGHTSCF
|  2> % maxcore 2000
|  3> % mp2 density relaxed end
|  4> *xyz 0 1
|  5>  C       -0.0442122295     1.5444954377     0.0693064917
|  6>  C       -0.0076426041     0.0538959687     0.0235311414
|  7>  C       -0.0001816380    -0.7781428222    -1.0606132323
|  8>  O        0.0149082524    -2.0731887953    -0.6668099958
|  9>  N        0.0305656665    -2.1167960632     0.7251118299
| 10>  C        0.0067403729    -0.8618981880     1.1213958536
| 11>  N       -0.0706239022    -0.5288297347     2.4631898888
| 12>  C       -0.0154806197    -0.5042837506    -2.4420520062
| 13>  C       -0.0276299507    -0.2496059988    -3.6186377380
| 14>  H        0.8643225132     1.9613763976     0.5221110833
| 15>  H       -0.1303769984     1.9586297873    -0.9379229895
| 16>  H       -0.8948149930     1.9018285012     0.6607687731
| 17>  H        0.1320176770    -1.3102480895     3.0729271842
| 18>  H        0.4635011719     0.2900029682     2.7182371180
| 19>  H       -0.0384147382    -0.0327655685    -4.6584509123
| 20> *
| 21>
| 22>                          ****END OF INPUT****

CARTESIAN COORDINATES (ANGSTROEM)
---------------------------------
  C     -0.044212    1.544495    0.069306
  C     -0.007643    0.053896    0.023531
  C     -0.000182   -0.778143   -1.060613
  O      0.014908   -2.073189   -0.666810
  N      0.030566   -2.116796    0.725112
  C      0.006740   -0.861898    1.121396
  N     -0.070624   -0.528830    2.463190
  C     -0.015481   -0.504284   -2.442052
  C     -0.027630   -0.249606   -3.618638
  H      0.864323    1.961376    0.522111
  H     -0.130377    1.958630   -0.937923
  H     -0.894815    1.901829    0.660769
  H      0.132018   -1.310248    3.072927
  H      0.463501    0.290003    2.718237
  H     -0.038415   -0.032766   -4.658451

 Total Charge           Charge          ....    0
 Multiplicity           Mult            ....    1
 Number of Electrons    NEL             ....   64
 Basis Dimension        Dim             ....  315

ORBITAL ENERGIES
----------------

  NO   OCC          E(Eh)            E(eV)
   0   2.0000     -20.634508      -561.4935
   1   2.0000     -15.602914      -424.5769
   2   2.0000     -15.584951      -424.0881
   3   2.0000     -11.331112      -308.3352
   4   2.0000     -11.315777      -307.9179
   5   2.0000     -11.259849      -306.3961
   6   2.0000     -11.256027      -306.2921
   7   2.0000     -11.252826      -306.2050
   8   2.0000     -11.245654      -306.0098
   9   2.0000      -1.484187       -40.3868
  10   2.0000      -1.253520       -34.1100
  11   2.0000      -1.126335       -30.6491
  12   2.0000      -1.110638       -30.2220
  13   2.0000      -1.044364       -28.4186
  14   2.0000      -0.966881       -26.3102
  15   2.0000      -0.865402       -23.5488
  16   2.0000      -0.805484       -21.9183
  17   2.0000      -0.757955       -20.6250
  18   2.0000      -0.717650       -19.5282
  19   2.0000      -0.695836       -18.9347
  20   2.0000      -0.662971       -18.0403
  21   2.0000      -0.634427       -17.2636
  22   2.0000      -0.603669       -16.4267
  23   2.0000      -0.585680       -15.9372
  24   2.0000      -0.568317       -15.4647
  25   2.0000      -0.546935       -14.8828
  26   2.0000      -0.518593       -14.1116
  27   2.0000      -0.475104       -12.9282
  28   2.0000      -0.456499       -12.4220
  29   2.0000      -0.420098       -11.4314
  30   2.0000      -0.368181       -10.0187
  31   2.0000      -0.338353        -9.2071
  32   0.0000       0.086550         2.3552
  33   0.0000       0.116116         3.1597
  34   0.0000       0.149124         4.0579
  35   0.0000       0.152592         4.1523
  36   0.0000       0.163698         4.4545

MULLIKEN ATOMIC CHARGES
-----------------------
   0 C :   -0.434262
   1 C :   -0.078723
   2 C :   -0.003384
   3 O :   -0.108917
   4 N :   -0.152896
   5 C :    0.175373
   6 N :   -0.516267
   7 C :    0.044120
   8 C :   -0.108085
   9 H :    0.145329
  10 H :    0.156855
  11 H :    0.162607
  12 H :    0.259744
  13 H :    0.256946
  14 H :    0.201559
Sum of atomic charges:   -0.0000000

LOEWDIN ATOMIC CHARGES
----------------------
   0 C :   -0.262639
   1 C :   -0.152918
   2 C :   -0.254046
   3 O :    0.295300
   4 N :    0.031064
   5 C :   -0.366104
   6 N :   -0.063250
   7 C :   -0.067859
   8 C :   -0.051270
   9 H :    0.132868
  10 H :    0.140457
  11 H :    0.137966
  12 H :    0.176556
  13 H :    0.172540
  14 H :    0.131334

  Mayer bond orders larger than 0.1
B(  0-C ,  1-C ) :   0.8575 B(  0-C ,  9-H ) :   0.9312 B(  0-C , 10-H ) :   0.9342
B(  0-C , 11-H ) :   0.9373 B(  1-C ,  2-C ) :   1.4755 B(  1-C ,  5-C ) :   1.1921
B(  2-C ,  3-O ) :   1.1255 B(  2-C ,  7-C ) :   1.2112 B(  2-C ,  8-C ) :  -0.1511
B(  3-O ,  4-N ) :   0.8670 B(  4-N ,  5-C ) :   1.6027 B(  5-C ,  6-N ) :   1.0496
B(  6-N , 12-H ) :   0.8710 B(  6-N , 13-H ) :   0.8663 B(  7-C ,  8-C ) :   2.6047
B(  8-C , 14-H ) :   0.8671

MP2 TOTAL ENERGY:     -416.057054977 Eh
FINAL SINGLE POINT ENERGY      -416.057054977371

DIPOLE MOMENT
-------------
                                X             Y             Z
Electronic contribution:     -0.03586      -6.55306      -2.72005
Nuclear contribution   :      0.41735       7.90032       2.94724
                        -----------------------------------------
Total Dipole Moment    :      0.38149       1.34726       0.22719
                        -----------------------------------------
Magnitude (a.u.)       :      1.41854
Magnitude (Debye)      :      3.60565

                             ****ORCA TERMINATED NORMALLY****
TOTAL RUN TIME: 0 days 0 hours 15 minutes 59 seconds 542 msec
