                         Program Version 3.0.3 - RELEASE   -
|  1> ! RI-MP2 RIJK def2-TZVP def2-TZVP/C def2-TZVP/JK TIGHTSCF
|  2> % maxcore 2000
|  3> % mp2 density relaxed end
|  4> *xyz 0 1
|  5>  C       -0.0610185985     1.3811573862    -0.0905655541
|  6>  O        0.4975501063     0.0797192635     0.1483947768
|  7>  C        0.8226173458    -0.6156073514    -0.9378712847
|  8>  C        0.5940413135    -1.8910650566    -1.2722818260
|  9>  N        1.2847770404    -2.0925094174    -2.4813053413
| 10>  C        1.8992401050    -0.9381377874    -2.8871910359
| 11>  O        2.5546417300    -0.7009021789    -3.8636700817
| 12>  O        1.6087318562    -0.0029823820    -1.8931273717
| 13>  H        0.6469790025     2.0158210373    -0.6295093792
| 14>  H       -0.9927245467     1.2991236214    -0.6617653894
| 15>  H       -0.2650574243     1.8028775359     0.8936568063
| 16>  H        0.0369381326    -2.6605656549    -0.7707539907
| 17>  H        1.3252122472    -2.9380266956    -3.0212061684
| 18> *
| 19>
| 20>                          ****END OF INPUT****

CARTESIAN COORDINATES (ANGSTROEM)
---------------------------------
  C     -0.061019    1.381157   -0.090566
  O      0.497550    0.079719    0.148395
  C      0.822617   -0.615607   -0.937871
  C      0.594041   -1.891065   -1.272282
  N      1.284777   -2.092509   -2.481305
  C      1.899240   -0.938138   -2.887191
  O      2.554642   -0.700902   -3.863670
  O      1.608732   -0.002982   -1.893127
  H      0.646979    2.015821   -0.629509
  H     -0.992725    1.299124   -0.661765
  H     -0.265057    1.802878    0.893657
  H      0.036938   -2.660566   -0.770754
  H      1.325212   -2.938027   -3.021206

 Total Charge           Charge          ....    0
 Multiplicity           Mult            ....    1
 Number of Electrons    NEL             ....   60
 Basis Dimension        Dim             ....  278

ORBITAL ENERGIES
----------------

  NO   OCC          E(Eh)            E(eV)
   0   2.0000     -20.631951      -561.4239
   1   2.0000     -20.610553      -560.8417
   2   2.0000     -20.532457      -558.7166
   3   2.0000     -15.617606      -424.9767
   4   2.0000     -11.413704      -310.5827
   5   2.0000     -11.364687      -309.2489
   6   2.0000     -11.298861      -307.4576
   7   2.0000     -11.279107      -306.9201
   8   2.0000      -1.505407       -40.9642
   9   2.0000      -1.432148       -38.9707
  10   2.0000      -1.373456       -37.3736
  11   2.0000      -1.265442       -34.4344
  12   2.0000      -1.042423       -28.3658
  13   2.0000      -0.957853       -26.0645
  14   2.0000      -0.878113       -23.8947
  15   2.0000      -0.839515       -22.8444
  16   2.0000      -0.753797       -20.5118
  17   2.0000      -0.703242       -19.1362
  18   2.0000      -0.691411       -18.8143
  19   2.0000      -0.680890       -18.5280
  20   2.0000      -0.649680       -17.6787
  21   2.0000      -0.640281       -17.4229
  22   2.0000      -0.620932       -16.8964
  23   2.0000      -0.594659       -16.1815
  24   2.0000      -0.548822       -14.9342
  25   2.0000      -0.531399       -14.4601
  26   2.0000      -0.503822       -13.7097
  27   2.0000      -0.485202       -13.2030
  28   2.0000      -0.464252       -12.6329
  29   2.0000      -0.321408        -8.7460
  30   0.0000       0.129738         3.5304
  31   0.0000       0.145489         3.9590
  32   0.0000       0.173923         4.7327
  33   0.0000       0.177679         4.8349
  34   0.0000       0.190128         5.1736

MULLIKEN ATOMIC CHARGES
-----------------------
   0 C :   -0.205003
   1 O :   -0.292739
   2 C :    0.288642
   3 C :   -0.148627
   4 N :   -0.282921
   5 C :    0.328045
   6 O :   -0.327970
   7 O :   -0.221515
   8 H :    0.155339
   9 H :    0.125939
  10 H :    0.149028
  11 H :    0.168276
  12 H :    0.263506
Sum of atomic charges:   -0.0000000

LOEWDIN ATOMIC CHARGES
----------------------
   0 C :   -0.300504
   1 O :    0.233010
   2 C :   -0.408090
   3 C :   -0.222939
   4 N :    0.149147
   5 C :   -0.534212
   6 O :    0.092209
   7 O :    0.308046
   8 H :    0.114884
   9 H :    0.110261
  10 H :    0.117543
  11 H :    0.143403
  12 H :    0.197242

  Mayer bond orders larger than 0.1
B(  0-C ,  1-O ) :   0.8341 B(  0-C ,  8-H ) :   0.9361 B(  0-C ,  9-H ) :   0.9280
B(  0-C , 10-H ) :   0.9368 B(  1-O ,  2-C ) :   1.1238 B(  2-C ,  3-C ) :   1.6883
B(  2-C ,  7-O ) :   0.9990 B(  3-C ,  4-N ) :   0.9824 B(  3-C , 11-H ) :   0.9021
B(  4-N ,  5-C ) :   1.1504 B(  4-N , 12-H ) :   0.8657 B(  5-C ,  6-O ) :   2.0192
B(  5-C ,  7-O ) :   1.0080

MP2 TOTAL ENERGY:     -435.088450395 Eh
FINAL SINGLE POINT ENERGY      -435.088450395397

DIPOLE MOMENT
-------------
                                X             Y             Z
Electronic contribution:      3.45426      -2.75070      -3.01482
Nuclear contribution   :     -4.67371       2.18787       3.84139
                        -----------------------------------------
Total Dipole Moment    :     -1.21945      -0.56283       0.82657
                        -----------------------------------------
Magnitude (a.u.)       :      1.57704
Magnitude (Debye)      :      4.00851

                             ****ORCA TERMINATED NORMALLY****
TOTAL RUN TIME: 0 days 0 hours 8 minutes 56 seconds 535 msec
