                         Program Version 3.0.3 - RELEASE   -
|  1> ! RI-MP2 RIJK def2-TZVP def2-TZVP/C def2-TZVP/JK TIGHTSCF
|  2> % maxcore 2000
|  3> % mp2 density relaxed end
|  4> *xyz 0 1
|  5>  O        0.3656996105     0.5520780426    -1.3928248776
|  6>  C        0.0659865058     1.3763175784    -0.5683043406
|  7>  C        0.9547464185     1.6506089089     0.5749459210
|  8>  N        1.6834725968     1.8813328512     1.4421393702
|  9>  C       -1.2143456322     2.2125928850    -0.5990726826
| 10>  C       -2.1874307379     1.7974833407    -1.7247208798
| 11>  O       -3.3490109184     1.3113778599    -1.0045424498
| 12>  C       -3.0670044098     1.4809223728     0.2999267258
| 13>  N       -1.9530635640     1.9776189664     0.6578759896
| 14>  H       -0.9126628312     3.2660897048    -0.6548828883
| 15>  H       -2.5007721042     2.6322373563    -2.3539764404
| 16>  H       -1.7913705639     0.9895238481    -2.3423545403
| 17>  H       -3.8525814200     1.1682658251     0.9784926828
| 18> *
| 19>
| 20>                          ****END OF INPUT****

CARTESIAN COORDINATES (ANGSTROEM)
---------------------------------
  O      0.365700    0.552078   -1.392825
  C      0.065987    1.376318   -0.568304
  C      0.954746    1.650609    0.574946
  N      1.683473    1.881333    1.442139
  C     -1.214346    2.212593   -0.599073
  C     -2.187431    1.797483   -1.724721
  O     -3.349011    1.311378   -1.004542
  C     -3.067004    1.480922    0.299927
  N     -1.953064    1.977619    0.657876
  H     -0.912663    3.266090   -0.654883
  H     -2.500772    2.632237   -2.353976
  H     -1.791371    0.989524   -2.342355
  H     -3.852581    1.168266    0.978493

 Total Charge           Charge          ....    0
 Multiplicity           Mult            ....    1
 Number of Electrons    NEL             ....   64
 Basis Dimension        Dim             ....  303

ORBITAL ENERGIES
----------------

  NO   OCC          E(Eh)            E(eV)
   0   2.0000     -20.627666      -561.3073
   1   2.0000     -20.612230      -560.8873
   2   2.0000     -15.609745      -424.7628
   3   2.0000     -15.583297      -424.0431
   4   2.0000     -11.405758      -310.3665
   5   2.0000     -11.367046      -309.3130
   6   2.0000     -11.322282      -308.0949
   7   2.0000     -11.318176      -307.9832
   8   2.0000     -11.297746      -307.4273
   9   2.0000      -1.473171       -40.0870
  10   2.0000      -1.454800       -39.5871
  11   2.0000      -1.253793       -34.1174
  12   2.0000      -1.243255       -33.8307
  13   2.0000      -1.082948       -29.4685
  14   2.0000      -0.980224       -26.6733
  15   2.0000      -0.872881       -23.7523
  16   2.0000      -0.841511       -22.8987
  17   2.0000      -0.757903       -20.6236
  18   2.0000      -0.746818       -20.3219
  19   2.0000      -0.711266       -19.3545
  20   2.0000      -0.661826       -18.0092
  21   2.0000      -0.648245       -17.6396
  22   2.0000      -0.618442       -16.8287
  23   2.0000      -0.596512       -16.2319
  24   2.0000      -0.576095       -15.6763
  25   2.0000      -0.561645       -15.2831
  26   2.0000      -0.559179       -15.2160
  27   2.0000      -0.500134       -13.6093
  28   2.0000      -0.494462       -13.4550
  29   2.0000      -0.492310       -13.3964
  30   2.0000      -0.472353       -12.8534
  31   2.0000      -0.417046       -11.3484
  32   0.0000       0.054457         1.4818
  33   0.0000       0.119556         3.2533
  34   0.0000       0.141689         3.8556
  35   0.0000       0.160407         4.3649
  36   0.0000       0.164151         4.4668

MULLIKEN ATOMIC CHARGES
-----------------------
   0 O :   -0.227746
   1 C :    0.272643
   2 C :   -0.135068
   3 N :   -0.032868
   4 C :    0.024635
   5 C :   -0.059118
   6 O :   -0.253024
   7 C :    0.121129
   8 N :   -0.305556
   9 H :    0.147037
  10 H :    0.128536
  11 H :    0.155529
  12 H :    0.163870
Sum of atomic charges:    0.0000000

LOEWDIN ATOMIC CHARGES
----------------------
   0 O :    0.216663
   1 C :   -0.293576
   2 C :   -0.129734
   3 N :    0.110999
   4 C :   -0.244752
   5 C :   -0.219946
   6 O :    0.228244
   7 C :   -0.335181
   8 N :    0.089498
   9 H :    0.166102
  10 H :    0.131680
  11 H :    0.138805
  12 H :    0.141196

  Mayer bond orders larger than 0.1
B(  0-O ,  1-C ) :   1.9736 B(  1-C ,  2-C ) :   0.9072 B(  1-C ,  4-C ) :   0.8982
B(  2-C ,  3-N ) :   2.7753 B(  4-C ,  5-C ) :   0.9300 B(  4-C ,  8-N ) :   0.8895
B(  4-C ,  9-H ) :   0.8972 B(  5-C ,  6-O ) :   0.8674 B(  5-C , 10-H ) :   0.9230
B(  5-C , 11-H ) :   0.9126 B(  6-O ,  7-C ) :   1.0931 B(  7-C ,  8-N ) :   1.7612
B(  7-C , 12-H ) :   0.9171

MP2 TOTAL ENERGY:     -452.024172828 Eh
FINAL SINGLE POINT ENERGY      -452.024172827857

DIPOLE MOMENT
-------------
                                X             Y             Z
Electronic contribution:      3.50532      -1.24916       2.00059
Nuclear contribution   :     -4.68941       1.66791      -2.97767
                        -----------------------------------------
Total Dipole Moment    :     -1.18409       0.41875      -0.97707
                        -----------------------------------------
Magnitude (a.u.)       :      1.59125
Magnitude (Debye)      :      4.04465

                             ****ORCA TERMINATED NORMALLY****
TOTAL RUN TIME: 0 days 0 hours 13 minutes 33 seconds 233 msec
