                         Program Version 3.0.3 - RELEASE   -
|  1> ! RI-MP2 RIJK def2-TZVP def2-TZVP/C def2-TZVP/JK TIGHTSCF
|  2> % maxcore 2000
|  3> % mp2 density relaxed end
|  4> *xyz 0 1
|  5>  C       -0.3679749614     1.4597080962     0.0352359584
|  6>  C       -0.1162951106    -0.0156829553     0.0024696455
|  7>  C        0.0935053278    -0.7640291681    -1.0850555305
|  8>  C        0.3535829755    -2.2148655996    -0.7593757774
|  9>  C       -0.0322129591    -2.3108756761     0.7398735779
| 10>  C       -0.0437412147    -0.8592353287     1.2387237528
| 11>  C        0.7899031731    -0.4289174836     2.4328512702
| 12>  C       -0.7120365295    -0.4838564122     2.5389704991
| 13>  H        0.3743551316     1.9848799152     0.6495142972
| 14>  H       -0.3322890679     1.8882376267    -0.9696998049
| 15>  H       -1.3505688699     1.6905009699     0.4652168432
| 16>  H        0.1196533277    -0.3777245130    -2.0987538695
| 17>  H       -0.2284751895    -2.9043878888    -1.3815296885
| 18>  H        1.4096624992    -2.4701074257    -0.9277099173
| 19>  H       -1.0376516590    -2.7368520409     0.8333113872
| 20>  H        0.6442291119    -2.9499846576     1.3144127911
| 21>  H        1.3704833497    -1.1942725240     2.9377575325
| 22>  H        1.2655921617     0.5460773391     2.4111041857
| 23>  H       -1.2534502945     0.4548370000     2.5948120324
| 24>  H       -1.1565495023    -1.2851737637     3.1211684551
| 25> *
| 26>
| 27>                          ****END OF INPUT****

CARTESIAN COORDINATES (ANGSTROEM)
---------------------------------
  C     -0.367975    1.459708    0.035236
  C     -0.116295   -0.015683    0.002470
  C      0.093505   -0.764029   -1.085056
  C      0.353583   -2.214866   -0.759376
  C     -0.032213   -2.310876    0.739874
  C     -0.043741   -0.859235    1.238724
  C      0.789903   -0.428917    2.432851
  C     -0.712037   -0.483856    2.538970
  H      0.374355    1.984880    0.649514
  H     -0.332289    1.888238   -0.969700
  H     -1.350569    1.690501    0.465217
  H      0.119653   -0.377725   -2.098754
  H     -0.228475   -2.904388   -1.381530
  H      1.409662   -2.470107   -0.927710
  H     -1.037652   -2.736852    0.833311
  H      0.644229   -2.949985    1.314413
  H      1.370483   -1.194273    2.937758
  H      1.265592    0.546077    2.411104
  H     -1.253450    0.454837    2.594812
  H     -1.156550   -1.285174    3.121168

 Total Charge           Charge          ....    0
 Multiplicity           Mult            ....    1
 Number of Electrons    NEL             ....   60
 Basis Dimension        Dim             ....  320

ORBITAL ENERGIES
----------------

  NO   OCC          E(Eh)            E(eV)
   0   2.0000     -11.233342      -305.6748
   1   2.0000     -11.225546      -305.4626
   2   2.0000     -11.220706      -305.3309
   3   2.0000     -11.220090      -305.3142
   4   2.0000     -11.220050      -305.3131
   5   2.0000     -11.217862      -305.2536
   6   2.0000     -11.217195      -305.2354
   7   2.0000     -11.209151      -305.0165
   8   2.0000      -1.165236       -31.7077
   9   2.0000      -1.080871       -29.4120
  10   2.0000      -1.008909       -27.4538
  11   2.0000      -0.913432       -24.8558
  12   2.0000      -0.877469       -23.8772
  13   2.0000      -0.820389       -22.3239
  14   2.0000      -0.765834       -20.8394
  15   2.0000      -0.694870       -18.9084
  16   2.0000      -0.647291       -17.6137
  17   2.0000      -0.633001       -17.2248
  18   2.0000      -0.610118       -16.6022
  19   2.0000      -0.585065       -15.9204
  20   2.0000      -0.566768       -15.4225
  21   2.0000      -0.544830       -14.8256
  22   2.0000      -0.514850       -14.0098
  23   2.0000      -0.503253       -13.6942
  24   2.0000      -0.497819       -13.5463
  25   2.0000      -0.477433       -12.9916
  26   2.0000      -0.459319       -12.4987
  27   2.0000      -0.427318       -11.6279
  28   2.0000      -0.412572       -11.2267
  29   2.0000      -0.313622        -8.5341
  30   0.0000       0.143419         3.9026
  31   0.0000       0.152884         4.1602
  32   0.0000       0.164860         4.4861
  33   0.0000       0.172052         4.6818
  34   0.0000       0.175387         4.7725

MULLIKEN ATOMIC CHARGES
-----------------------
   0 C :   -0.443546
   1 C :    0.012958
   2 C :   -0.212538
   3 C :   -0.160996
   4 C :   -0.249994
   5 C :    0.167022
   6 C :   -0.315709
   7 C :   -0.298804
   8 H :    0.136758
   9 H :    0.139857
  10 H :    0.141351
  11 H :    0.117914
  12 H :    0.116511
  13 H :    0.107851
  14 H :    0.112156
  15 H :    0.117658
  16 H :    0.126301
  17 H :    0.128575
  18 H :    0.129778
  19 H :    0.126897
Sum of atomic charges:    0.0000000

LOEWDIN ATOMIC CHARGES
----------------------
   0 C :   -0.268596
   1 C :   -0.155158
   2 C :   -0.141582
   3 C :   -0.237510
   4 C :   -0.190902
   5 C :   -0.198934
   6 C :   -0.203927
   7 C :   -0.206914
   8 H :    0.130092
   9 H :    0.131687
  10 H :    0.130996
  11 H :    0.135156
  12 H :    0.134342
  13 H :    0.137617
  14 H :    0.140417
  15 H :    0.134526
  16 H :    0.131825
  17 H :    0.130937
  18 H :    0.132377
  19 H :    0.133552

  Mayer bond orders larger than 0.1
B(  0-C ,  1-C ) :   0.8721 B(  0-C ,  8-H ) :   0.9353 B(  0-C ,  9-H ) :   0.9466
B(  0-C , 10-H ) :   0.9343 B(  1-C ,  2-C ) :   1.7469 B(  1-C ,  5-C ) :   0.9306
B(  2-C ,  3-C ) :   0.9439 B(  2-C , 11-H ) :   0.9235 B(  3-C ,  4-C ) :   0.9720
B(  3-C , 12-H ) :   0.9315 B(  3-C , 13-H ) :   0.9108 B(  4-C ,  5-C ) :   0.8992
B(  4-C , 14-H ) :   0.9273 B(  4-C , 15-H ) :   0.9287 B(  5-C ,  6-C ) :   0.8295
B(  5-C ,  7-C ) :   0.8387 B(  6-C ,  7-C ) :   0.9114 B(  6-C , 16-H ) :   0.9214
B(  6-C , 17-H ) :   0.9302 B(  7-C , 18-H ) :   0.9260 B(  7-C , 19-H ) :   0.9237

MP2 TOTAL ENERGY:     -311.292728318 Eh
FINAL SINGLE POINT ENERGY      -311.292728317816

DIPOLE MOMENT
-------------
                                X             Y             Z
Electronic contribution:      0.10936      -0.86337      -0.99506
Nuclear contribution   :     -0.10175       0.89383       1.02832
                        -----------------------------------------
Total Dipole Moment    :      0.00761       0.03046       0.03326
                        -----------------------------------------
Magnitude (a.u.)       :      0.04574
Magnitude (Debye)      :      0.11625

                             ****ORCA TERMINATED NORMALLY****
TOTAL RUN TIME: 0 days 0 hours 15 minutes 27 seconds 154 msec
