                         Program Version 3.0.3 - RELEASE   -
|  1> ! RI-MP2 RIJK def2-TZVP def2-TZVP/C def2-TZVP/JK TIGHTSCF
|  2> % maxcore 2000
|  3> % mp2 density relaxed end
|  4> *xyz 0 1
|  5>  C       -0.5307518910     1.2130624930     0.0944361247
|  6>  C        0.3609746992    -0.0296176845     0.1763894002
|  7>  C        1.0393429794    -0.3358303980    -1.1797631447
|  8>  C        1.5418603306    -1.7694423933    -1.3252706635
|  9>  O        2.5487595634    -2.1260313439    -0.3857244865
| 10>  C        2.1302772338    -2.1550949089     0.9340361689
| 11>  O        2.2117543015    -0.8932381447     1.5972274862
| 12>  C        1.3941559014     0.1509387592     1.2918723199
| 13>  O        1.5286989745     1.1741383449     1.9049460408
| 14>  H        0.0527249565     2.0901235089    -0.1973379017
| 15>  H       -1.3233063439     1.0587242824    -0.6440804009
| 16>  H       -0.9884091715     1.4332179220     1.0608252720
| 17>  H       -0.2675337253    -0.8925291797     0.4414133363
| 18>  H        0.3065191154    -0.1628862348    -1.9767966951
| 19>  H        1.8637963609     0.3662784902    -1.3491912300
| 20>  H        0.6955748914    -2.4702840485    -1.2373904592
| 21>  H        1.9960174940    -1.9165768320    -2.3087252197
| 22>  H        1.1116757666    -2.5618150148     1.0250502185
| 23>  H        2.8332055831    -2.7821707373     1.4842404038
| 24> *
| 25>
| 26>                          ****END OF INPUT****

CARTESIAN COORDINATES (ANGSTROEM)
---------------------------------
  C     -0.530752    1.213062    0.094436
  C      0.360975   -0.029618    0.176389
  C      1.039343   -0.335830   -1.179763
  C      1.541860   -1.769442   -1.325271
  O      2.548760   -2.126031   -0.385724
  C      2.130277   -2.155095    0.934036
  O      2.211754   -0.893238    1.597227
  C      1.394156    0.150939    1.291872
  O      1.528699    1.174138    1.904946
  H      0.052725    2.090124   -0.197338
  H     -1.323306    1.058724   -0.644080
  H     -0.988409    1.433218    1.060825
  H     -0.267534   -0.892529    0.441413
  H      0.306519   -0.162886   -1.976797
  H      1.863796    0.366278   -1.349191
  H      0.695575   -2.470284   -1.237390
  H      1.996017   -1.916577   -2.308725
  H      1.111676   -2.561815    1.025050
  H      2.833206   -2.782171    1.484240

 Total Charge           Charge          ....    0
 Multiplicity           Mult            ....    1
 Number of Electrons    NEL             ....   70
 Basis Dimension        Dim             ....  339

ORBITAL ENERGIES
----------------

  NO   OCC          E(Eh)            E(eV)
   0   2.0000     -20.598784      -560.5214
   1   2.0000     -20.583630      -560.1090
   2   2.0000     -20.537607      -558.8567
   3   2.0000     -11.378084      -309.6134
   4   2.0000     -11.354594      -308.9742
   5   2.0000     -11.298995      -307.4613
   6   2.0000     -11.264569      -306.5245
   7   2.0000     -11.250399      -306.1389
   8   2.0000     -11.226239      -305.4815
   9   2.0000      -1.465178       -39.8695
  10   2.0000      -1.408112       -38.3167
  11   2.0000      -1.351493       -36.7760
  12   2.0000      -1.111714       -30.2513
  13   2.0000      -1.018088       -27.7036
  14   2.0000      -0.954774       -25.9807
  15   2.0000      -0.904610       -24.6157
  16   2.0000      -0.843088       -22.9416
  17   2.0000      -0.770163       -20.9572
  18   2.0000      -0.725928       -19.7535
  19   2.0000      -0.710789       -19.3416
  20   2.0000      -0.691114       -18.8062
  21   2.0000      -0.650973       -17.7139
  22   2.0000      -0.641116       -17.4457
  23   2.0000      -0.619065       -16.8456
  24   2.0000      -0.602726       -16.4010
  25   2.0000      -0.577992       -15.7280
  26   2.0000      -0.559764       -15.2319
  27   2.0000      -0.545945       -14.8559
  28   2.0000      -0.524468       -14.2715
  29   2.0000      -0.516445       -14.0532
  30   2.0000      -0.502526       -13.6744
  31   2.0000      -0.482710       -13.1352
  32   2.0000      -0.462911       -12.5965
  33   2.0000      -0.455282       -12.3888
  34   2.0000      -0.435972       -11.8634
  35   0.0000       0.124953         3.4002
  36   0.0000       0.143048         3.8925
  37   0.0000       0.152997         4.1633
  38   0.0000       0.170203         4.6315
  39   0.0000       0.182019         4.9530

MULLIKEN ATOMIC CHARGES
-----------------------
   0 C :   -0.371394
   1 C :   -0.102081
   2 C :   -0.234037
   3 C :   -0.090199
   4 O :   -0.287465
   5 C :    0.026165
   6 O :   -0.207193
   7 C :    0.245108
   8 O :   -0.279163
   9 H :    0.138896
  10 H :    0.127677
  11 H :    0.147878
  12 H :    0.109474
  13 H :    0.128365
  14 H :    0.136484
  15 H :    0.114159
  16 H :    0.136598
  17 H :    0.114936
  18 H :    0.145792
Sum of atomic charges:   -0.0000000

LOEWDIN ATOMIC CHARGES
----------------------
   0 C :   -0.280874
   1 C :   -0.258270
   2 C :   -0.240757
   3 C :   -0.315345
   4 O :    0.175971
   5 C :   -0.377973
   6 O :    0.250066
   7 C :   -0.448693
   8 O :    0.149031
   9 H :    0.131923
  10 H :    0.122331
  11 H :    0.130984
  12 H :    0.161210
  13 H :    0.150422
  14 H :    0.149552
  15 H :    0.123902
  16 H :    0.134980
  17 H :    0.111705
  18 H :    0.129835

  Mayer bond orders larger than 0.1
B(  0-C ,  1-C ) :   0.9293 B(  0-C ,  9-H ) :   0.9306 B(  0-C , 10-H ) :   0.9349
B(  0-C , 11-H ) :   0.9349 B(  1-C ,  2-C ) :   0.8768 B(  1-C ,  7-C ) :   0.9222
B(  1-C , 12-H ) :   0.9095 B(  2-C ,  3-C ) :   0.9373 B(  2-C , 13-H ) :   0.9242
B(  2-C , 14-H ) :   0.9107 B(  3-C ,  4-O ) :   0.8976 B(  3-C , 15-H ) :   0.9451
B(  3-C , 16-H ) :   0.9342 B(  4-O ,  5-C ) :   1.0095 B(  5-C ,  6-O ) :   0.8924
B(  5-C , 17-H ) :   0.9379 B(  5-C , 18-H ) :   0.9339 B(  6-O ,  7-C ) :   1.1188
B(  7-C ,  8-O ) :   2.0187

MP2 TOTAL ENERGY:     -459.467678154 Eh
FINAL SINGLE POINT ENERGY      -459.467678153586

DIPOLE MOMENT
-------------
                                X             Y             Z
Electronic contribution:      5.95343      -0.58336       5.68665
Nuclear contribution   :     -6.92527      -0.39450      -6.76085
                        -----------------------------------------
Total Dipole Moment    :     -0.97183      -0.97786      -1.07420
                        -----------------------------------------
Magnitude (a.u.)       :      1.74774
Magnitude (Debye)      :      4.44239

                             ****ORCA TERMINATED NORMALLY****
TOTAL RUN TIME: 0 days 0 hours 17 minutes 31 seconds 749 msec
