                         Program Version 3.0.3 - RELEASE   -
|  1> ! RI-MP2 RIJK def2-TZVP def2-TZVP/C def2-TZVP/JK TIGHTSCF
|  2> % maxcore 2000
|  3> % mp2 density relaxed end
|  4> *xyz 0 1
|  5>  N       -0.1091881286     1.2764542373     0.2956532784
|  6>  C       -0.0054661540     0.0356623174     0.0865018682
|  7>  N        1.2482787289    -0.6710240910    -0.0459640708
|  8>  C        1.4263523419    -1.6775247858     1.0224059258
|  9>  C        0.1889875989    -2.5283638608     1.3447465905
| 10>  C       -0.8736146249    -1.9841520285     2.2432889720
| 11>  C       -1.1532556958    -2.1193724714     0.7477117859
| 12>  C       -1.2285241138    -0.8619115726    -0.0473377222
| 13>  O       -2.1443751668    -0.6032378541    -0.7937540922
| 14>  H        0.8313814651     1.6838131492     0.3334790041
| 15>  H        1.2396280655    -1.1600977275    -0.9395849474
| 16>  H        2.2513542511    -2.3267781738     0.7179945758
| 17>  H        1.7558657639    -1.1492228595     1.9239645844
| 18>  H        0.3623995610    -3.5986512750     1.3984874064
| 19>  H       -1.4098936220    -2.6582346741     2.9009891155
| 20>  H       -0.7451910908    -0.9797211719     2.6348746754
| 21>  H       -1.8577468196    -2.8832621580     0.4392113901
| 22> *
| 23>
| 24>                          ****END OF INPUT****

CARTESIAN COORDINATES (ANGSTROEM)
---------------------------------
  N     -0.109188    1.276454    0.295653
  C     -0.005466    0.035662    0.086502
  N      1.248279   -0.671024   -0.045964
  C      1.426352   -1.677525    1.022406
  C      0.188988   -2.528364    1.344747
  C     -0.873615   -1.984152    2.243289
  C     -1.153256   -2.119372    0.747712
  C     -1.228524   -0.861912   -0.047338
  O     -2.144375   -0.603238   -0.793754
  H      0.831381    1.683813    0.333479
  H      1.239628   -1.160098   -0.939585
  H      2.251354   -2.326778    0.717995
  H      1.755866   -1.149223    1.923965
  H      0.362400   -3.598651    1.398487
  H     -1.409894   -2.658235    2.900989
  H     -0.745191   -0.979721    2.634875
  H     -1.857747   -2.883262    0.439211

 Total Charge           Charge          ....    0
 Multiplicity           Mult            ....    1
 Number of Electrons    NEL             ....   66
 Basis Dimension        Dim             ....  327

ORBITAL ENERGIES
----------------

  NO   OCC          E(Eh)            E(eV)
   0   2.0000     -20.553773      -559.2966
   1   2.0000     -15.582280      -424.0154
   2   2.0000     -15.567861      -423.6230
   3   2.0000     -11.341149      -308.6084
   4   2.0000     -11.321321      -308.0688
   5   2.0000     -11.284904      -307.0778
   6   2.0000     -11.265588      -306.5522
   7   2.0000     -11.259514      -306.3870
   8   2.0000     -11.257575      -306.3342
   9   2.0000      -1.396477       -38.0001
  10   2.0000      -1.279748       -34.8237
  11   2.0000      -1.195546       -32.5325
  12   2.0000      -1.160026       -31.5659
  13   2.0000      -0.986499       -26.8440
  14   2.0000      -0.917283       -24.9605
  15   2.0000      -0.853056       -23.2128
  16   2.0000      -0.822515       -22.3818
  17   2.0000      -0.732236       -19.9252
  18   2.0000      -0.715620       -19.4730
  19   2.0000      -0.692423       -18.8418
  20   2.0000      -0.656961       -17.8768
  21   2.0000      -0.643124       -17.5003
  22   2.0000      -0.618359       -16.8264
  23   2.0000      -0.587751       -15.9935
  24   2.0000      -0.573333       -15.6012
  25   2.0000      -0.559751       -15.2316
  26   2.0000      -0.542506       -14.7623
  27   2.0000      -0.486744       -13.2450
  28   2.0000      -0.452586       -12.3155
  29   2.0000      -0.443946       -12.0804
  30   2.0000      -0.435864       -11.8605
  31   2.0000      -0.430094       -11.7034
  32   2.0000      -0.392273       -10.6743
  33   0.0000       0.099541         2.7086
  34   0.0000       0.124072         3.3762
  35   0.0000       0.146235         3.9793
  36   0.0000       0.152138         4.1399
  37   0.0000       0.163097         4.4381

MULLIKEN ATOMIC CHARGES
-----------------------
   0 N :   -0.290043
   1 C :    0.004565
   2 N :   -0.310340
   3 C :   -0.152766
   4 C :   -0.111733
   5 C :   -0.280662
   6 C :   -0.105723
   7 C :    0.198774
   8 O :   -0.260675
   9 H :    0.225886
  10 H :    0.223923
  11 H :    0.144593
  12 H :    0.131781
  13 H :    0.136916
  14 H :    0.147519
  15 H :    0.154882
  16 H :    0.143102
Sum of atomic charges:   -0.0000000

LOEWDIN ATOMIC CHARGES
----------------------
   0 N :    0.015759
   1 C :   -0.328995
   2 N :    0.014261
   3 C :   -0.267900
   4 C :   -0.201251
   5 C :   -0.181634
   6 C :   -0.159728
   7 C :   -0.294546
   8 O :    0.174180
   9 H :    0.172947
  10 H :    0.185253
  11 H :    0.139737
  12 H :    0.139703
  13 H :    0.151853
  14 H :    0.138944
  15 H :    0.144381
  16 H :    0.157037

  Mayer bond orders larger than 0.1
B(  0-N ,  1-C ) :   2.0815 B(  0-N ,  9-H ) :   0.8499 B(  1-C ,  2-N ) :   0.9823
B(  1-C ,  7-C ) :   0.8637 B(  2-N ,  3-C ) :   0.9374 B(  2-N , 10-H ) :   0.8654
B(  3-C ,  4-C ) :   0.8977 B(  3-C , 11-H ) :   0.9346 B(  3-C , 12-H ) :   0.9372
B(  4-C ,  5-C ) :   0.8903 B(  4-C ,  6-C ) :   0.8328 B(  4-C , 13-H ) :   0.9168
B(  5-C ,  6-C ) :   0.8283 B(  5-C , 14-H ) :   0.9273 B(  5-C , 15-H ) :   0.9170
B(  6-C ,  7-C ) :   0.9819 B(  6-C , 16-H ) :   0.9243 B(  7-C ,  8-O ) :   2.0003

MP2 TOTAL ENERGY:     -417.291294172 Eh
FINAL SINGLE POINT ENERGY      -417.291294171548

DIPOLE MOMENT
-------------
                                X             Y             Z
Electronic contribution:     -3.25114       3.37053      -4.14429
Nuclear contribution   :      4.41619      -4.74242       4.86739
                        -----------------------------------------
Total Dipole Moment    :      1.16505      -1.37188       0.72310
                        -----------------------------------------
Magnitude (a.u.)       :      1.93966
Magnitude (Debye)      :      4.93022

                             ****ORCA TERMINATED NORMALLY****
TOTAL RUN TIME: 0 days 0 hours 18 minutes 16 seconds 886 msec
