                         Program Version 3.0.3 - RELEASE   -
|  1> ! RI-MP2 RIJK def2-TZVP def2-TZVP/C def2-TZVP/JK TIGHTSCF
|  2> % maxcore 2000
|  3> % mp2 density relaxed end
|  4> *xyz 0 1
|  5>  C       -0.1484943004     1.3786706708     0.0435085664
|  6>  O        0.0332204074    -0.0354615064    -0.0085210071
|  7>  C        0.6678273097    -0.4883068821    -1.1336180233
|  8>  C        1.6014737022    -1.6561418249    -1.0411846678
|  9>  C        2.1266006282    -0.3684839286    -1.6326366826
| 10>  C        1.6313001502    -0.2449441773    -3.0830896787
| 11>  C        0.1809269569    -0.3528149386    -2.5687930076
| 12>  C       -1.0656267435    -0.7946133782    -3.1955739935
| 13>  O       -0.7979146071     0.5995968708    -2.9497093380
| 14>  H        0.8176821355     1.8987267773    -0.0061222311
| 15>  H       -0.7877566473     1.7284145270    -0.7720728984
| 16>  H       -0.6223220187     1.5933453639     1.0036991308
| 17>  H        1.9251989203    -1.8597396881    -0.0255010169
| 18>  H        1.4681397399    -2.5407377685    -1.6610414043
| 19>  H        2.9703837741     0.1584079560    -1.2068547510
| 20>  H        1.8040167304     0.7412061490    -3.5212722562
| 21>  H        1.9708010201    -1.0185526562    -3.7795411398
| 22>  H       -1.0769355958    -1.0808858821    -4.2462253870
| 23>  H       -1.8531700521    -1.2305924936    -2.5827899639
| 24> *
| 25>
| 26>                          ****END OF INPUT****

CARTESIAN COORDINATES (ANGSTROEM)
---------------------------------
  C     -0.148494    1.378671    0.043509
  O      0.033220   -0.035462   -0.008521
  C      0.667827   -0.488307   -1.133618
  C      1.601474   -1.656142   -1.041185
  C      2.126601   -0.368484   -1.632637
  C      1.631300   -0.244944   -3.083090
  C      0.180927   -0.352815   -2.568793
  C     -1.065627   -0.794613   -3.195574
  O     -0.797915    0.599597   -2.949709
  H      0.817682    1.898727   -0.006122
  H     -0.787757    1.728415   -0.772073
  H     -0.622322    1.593345    1.003699
  H      1.925199   -1.859740   -0.025501
  H      1.468140   -2.540738   -1.661041
  H      2.970384    0.158408   -1.206855
  H      1.804017    0.741206   -3.521272
  H      1.970801   -1.018553   -3.779541
  H     -1.076936   -1.080886   -4.246225
  H     -1.853170   -1.230592   -2.582790

 Total Charge           Charge          ....    0
 Multiplicity           Mult            ....    1
 Number of Electrons    NEL             ....   68
 Basis Dimension        Dim             ....  339

ORBITAL ENERGIES
----------------

  NO   OCC          E(Eh)            E(eV)
   0   2.0000     -20.568626      -559.7008
   1   2.0000     -20.566747      -559.6497
   2   2.0000     -11.295832      -307.3752
   3   2.0000     -11.292947      -307.2967
   4   2.0000     -11.280966      -306.9707
   5   2.0000     -11.265679      -306.5547
   6   2.0000     -11.239907      -305.8534
   7   2.0000     -11.235746      -305.7402
   8   2.0000     -11.232242      -305.6449
   9   2.0000      -1.415619       -38.5210
  10   2.0000      -1.386504       -37.7287
  11   2.0000      -1.184947       -32.2441
  12   2.0000      -0.985163       -26.8076
  13   2.0000      -0.939244       -25.5581
  14   2.0000      -0.913739       -24.8641
  15   2.0000      -0.859218       -23.3805
  16   2.0000      -0.803730       -21.8706
  17   2.0000      -0.733365       -19.9559
  18   2.0000      -0.705597       -19.2003
  19   2.0000      -0.688566       -18.7368
  20   2.0000      -0.645768       -17.5722
  21   2.0000      -0.627260       -17.0686
  22   2.0000      -0.618856       -16.8399
  23   2.0000      -0.596094       -16.2205
  24   2.0000      -0.568464       -15.4687
  25   2.0000      -0.544843       -14.8259
  26   2.0000      -0.536643       -14.6028
  27   2.0000      -0.513354       -13.9691
  28   2.0000      -0.498428       -13.5629
  29   2.0000      -0.476560       -12.9679
  30   2.0000      -0.450015       -12.2455
  31   2.0000      -0.437434       -11.9032
  32   2.0000      -0.399680       -10.8759
  33   2.0000      -0.364389        -9.9155
  34   0.0000       0.148987         4.0541
  35   0.0000       0.156304         4.2532
  36   0.0000       0.173580         4.7233
  37   0.0000       0.176507         4.8030
  38   0.0000       0.192697         5.2436

MULLIKEN ATOMIC CHARGES
-----------------------
   0 C :   -0.222265
   1 O :   -0.307771
   2 C :    0.191361
   3 C :   -0.233589
   4 C :   -0.184094
   5 C :   -0.177013
   6 C :    0.086486
   7 C :   -0.097593
   8 O :   -0.345726
   9 H :    0.112958
  10 H :    0.151119
  11 H :    0.137110
  12 H :    0.131096
  13 H :    0.128982
  14 H :    0.142248
  15 H :    0.126648
  16 H :    0.118249
  17 H :    0.117700
  18 H :    0.124094
Sum of atomic charges:   -0.0000000

LOEWDIN ATOMIC CHARGES
----------------------
   0 C :   -0.325624
   1 O :    0.203920
   2 C :   -0.291295
   3 C :   -0.174058
   4 C :   -0.160657
   5 C :   -0.172830
   6 C :   -0.277751
   7 C :   -0.234255
   8 O :    0.166152
   9 H :    0.103763
  10 H :    0.110901
  11 H :    0.112222
  12 H :    0.146720
  13 H :    0.132494
  14 H :    0.136211
  15 H :    0.145242
  16 H :    0.131930
  17 H :    0.122036
  18 H :    0.124879

  Mayer bond orders larger than 0.1
B(  0-C ,  1-O ) :   0.8643 B(  0-C ,  9-H ) :   0.9314 B(  0-C , 10-H ) :   0.9306
B(  0-C , 11-H ) :   0.9388 B(  1-O ,  2-C ) :   1.0844 B(  2-C ,  3-C ) :   0.8756
B(  2-C ,  4-C ) :   0.8511 B(  2-C ,  6-C ) :   0.9114 B(  3-C ,  4-C ) :   0.8898
B(  3-C , 12-H ) :   0.9184 B(  3-C , 13-H ) :   0.9170 B(  4-C ,  5-C ) :   0.9117
B(  4-C , 14-H ) :   0.9046 B(  5-C ,  6-C ) :   0.9139 B(  5-C , 15-H ) :   0.9168
B(  5-C , 16-H ) :   0.8998 B(  6-C ,  7-C ) :   0.9743 B(  6-C ,  8-O ) :   0.8506
B(  7-C ,  8-O ) :   0.9039 B(  7-C , 17-H ) :   0.9196 B(  7-C , 18-H ) :   0.9027

MP2 TOTAL ENERGY:     -422.245184496 Eh
FINAL SINGLE POINT ENERGY      -422.245184495864

DIPOLE MOMENT
-------------
                                X             Y             Z
Electronic contribution:     -1.77687      -0.40528      -0.44963
Nuclear contribution   :      2.13607       0.20923       0.29125
                        -----------------------------------------
Total Dipole Moment    :      0.35919      -0.19605      -0.15838
                        -----------------------------------------
Magnitude (a.u.)       :      0.43879
Magnitude (Debye)      :      1.11533

                             ****ORCA TERMINATED NORMALLY****
TOTAL RUN TIME: 0 days 0 hours 16 minutes 35 seconds 609 msec
