                         Program Version 3.0.3 - RELEASE   -
|  1> ! RI-MP2 RIJK def2-TZVP def2-TZVP/C def2-TZVP/JK TIGHTSCF
|  2> % maxcore 2000
|  3> % mp2 density relaxed end
|  4> *xyz 0 1
|  5>  O        0.1094058714     1.3887901508     0.1241479881
|  6>  C        0.0213486680     0.0113085558     0.0580699263
|  7>  C        0.8550625108    -0.7739090815     1.0593143197
|  8>  O        0.5282488601    -2.1211968740     0.6615898840
|  9>  C       -0.3810193800    -1.9135393495    -0.4143489131
| 10>  C       -1.3537827945    -0.7800858064     0.0272009462
| 11>  C       -1.9771637232    -0.3117282886    -1.2769278185
| 12>  O       -0.8110509713    -0.2894890958    -2.1427981391
| 13>  C        0.2139576435    -0.7708975871    -1.2799368198
| 14>  H       -0.1658838996     1.7347028015    -0.7340434093
| 15>  H        1.9305228486    -0.5905010815     0.9527139277
| 16>  H        0.5647947874    -0.5991167735     2.1019140494
| 17>  H       -0.7190883210    -2.8594288976    -0.8317953208
| 18>  H       -1.9819181002    -0.8783562966     0.9114520912
| 19>  H       -2.7289537261    -0.9981100240    -1.6831910719
| 20>  H       -2.4157489995     0.6920798106    -1.2167525815
| 21>  H        1.1647346955    -0.8433839127    -1.8060384186
| 22> *
| 23>
| 24>                          ****END OF INPUT****

CARTESIAN COORDINATES (ANGSTROEM)
---------------------------------
  O      0.109406    1.388790    0.124148
  C      0.021349    0.011309    0.058070
  C      0.855063   -0.773909    1.059314
  O      0.528249   -2.121197    0.661590
  C     -0.381019   -1.913539   -0.414349
  C     -1.353783   -0.780086    0.027201
  C     -1.977164   -0.311728   -1.276928
  O     -0.811051   -0.289489   -2.142798
  C      0.213958   -0.770898   -1.279937
  H     -0.165884    1.734703   -0.734043
  H      1.930523   -0.590501    0.952714
  H      0.564795   -0.599117    2.101914
  H     -0.719088   -2.859429   -0.831795
  H     -1.981918   -0.878356    0.911452
  H     -2.728954   -0.998110   -1.683191
  H     -2.415749    0.692080   -1.216753
  H      1.164735   -0.843384   -1.806038

 Total Charge           Charge          ....    0
 Multiplicity           Mult            ....    1
 Number of Electrons    NEL             ....   68
 Basis Dimension        Dim             ....  327

ORBITAL ENERGIES
----------------

  NO   OCC          E(Eh)            E(eV)
   0   2.0000     -20.578383      -559.9663
   1   2.0000     -20.570235      -559.7446
   2   2.0000     -20.564412      -559.5861
   3   2.0000     -11.303099      -307.5730
   4   2.0000     -11.294803      -307.3472
   5   2.0000     -11.291478      -307.2567
   6   2.0000     -11.290013      -307.2169
   7   2.0000     -11.282646      -307.0164
   8   2.0000     -11.245866      -306.0156
   9   2.0000      -1.422492       -38.7080
  10   2.0000      -1.382258       -37.6132
  11   2.0000      -1.378367       -37.5073
  12   2.0000      -1.115266       -30.3479
  13   2.0000      -1.001705       -27.2578
  14   2.0000      -0.981614       -26.7111
  15   2.0000      -0.823786       -22.4164
  16   2.0000      -0.813473       -22.1357
  17   2.0000      -0.793602       -21.5950
  18   2.0000      -0.746079       -20.3018
  19   2.0000      -0.702278       -19.1099
  20   2.0000      -0.673787       -18.3347
  21   2.0000      -0.642237       -17.4762
  22   2.0000      -0.620002       -16.8711
  23   2.0000      -0.596974       -16.2445
  24   2.0000      -0.577217       -15.7069
  25   2.0000      -0.574966       -15.6456
  26   2.0000      -0.543498       -14.7893
  27   2.0000      -0.539091       -14.6694
  28   2.0000      -0.526569       -14.3287
  29   2.0000      -0.508102       -13.8261
  30   2.0000      -0.492431       -13.3997
  31   2.0000      -0.434430       -11.8214
  32   2.0000      -0.426357       -11.6018
  33   2.0000      -0.375058       -10.2058
  34   0.0000       0.135214         3.6794
  35   0.0000       0.155654         4.2356
  36   0.0000       0.161108         4.3840
  37   0.0000       0.177572         4.8320
  38   0.0000       0.193091         5.2543

MULLIKEN ATOMIC CHARGES
-----------------------
   0 O :   -0.457425
   1 C :    0.092377
   2 C :   -0.027689
   3 O :   -0.325053
   4 C :    0.018148
   5 C :   -0.104120
   6 C :   -0.114351
   7 O :   -0.337395
   8 C :    0.044580
   9 H :    0.338287
  10 H :    0.112666
  11 H :    0.112559
  12 H :    0.132946
  13 H :    0.140197
  14 H :    0.121293
  15 H :    0.119402
  16 H :    0.133577
Sum of atomic charges:   -0.0000000

LOEWDIN ATOMIC CHARGES
----------------------
   0 O :    0.042166
   1 C :   -0.343764
   2 C :   -0.230980
   3 O :    0.164645
   4 C :   -0.237520
   5 C :   -0.170235
   6 C :   -0.258424
   7 O :    0.151039
   8 C :   -0.236180
   9 H :    0.192077
  10 H :    0.128784
  11 H :    0.127923
  12 H :    0.137266
  13 H :    0.144331
  14 H :    0.127247
  15 H :    0.123454
  16 H :    0.138171

  Mayer bond orders larger than 0.1
B(  0-O ,  1-C ) :   1.0503 B(  0-O ,  9-H ) :   0.8227 B(  1-C ,  2-C ) :   0.9635
B(  1-C ,  5-C ) :   0.8280 B(  1-C ,  8-C ) :   0.8963 B(  2-C ,  3-O ) :   0.9217
B(  2-C , 10-H ) :   0.9185 B(  2-C , 11-H ) :   0.9233 B(  3-O ,  4-C ) :   0.9364
B(  4-C ,  5-C ) :   0.8749 B(  4-C ,  8-C ) :   0.8798 B(  4-C , 12-H ) :   0.9194
B(  5-C ,  6-C ) :   0.9291 B(  5-C , 13-H ) :   0.9006 B(  6-C ,  7-O ) :   0.9000
B(  6-C , 14-H ) :   0.9190 B(  6-C , 15-H ) :   0.9356 B(  7-O ,  8-C ) :   0.9220
B(  8-C , 16-H ) :   0.9196

MP2 TOTAL ENERGY:     -458.206065226 Eh
FINAL SINGLE POINT ENERGY      -458.206065225949

DIPOLE MOMENT
-------------
                                X             Y             Z
Electronic contribution:      1.35461      -0.20602      -0.62486
Nuclear contribution   :     -1.80774       0.34481       0.52580
                        -----------------------------------------
Total Dipole Moment    :     -0.45313       0.13879      -0.09905
                        -----------------------------------------
Magnitude (a.u.)       :      0.48415
Magnitude (Debye)      :      1.23061

                             ****ORCA TERMINATED NORMALLY****
TOTAL RUN TIME: 0 days 0 hours 16 minutes 38 seconds 744 msec
