                         Program Version 3.0.3 - RELEASE   -
|  1> ! RI-MP2 RIJK def2-TZVP def2-TZVP/C def2-TZVP/JK TIGHTSCF
|  2> % maxcore 2000
|  3> % mp2 density relaxed end
|  4> *xyz 0 1
|  5>  C       -0.0534080647     1.4360820054    -0.1165343158
|  6>  C        0.0447959120    -0.0806924383    -0.0503692211
|  7>  O        0.7969142000    -0.5268319058     1.1022011125
|  8>  C        2.1272780354    -0.6043306224     0.9755726421
|  9>  N        2.7629224513    -0.3048967386    -0.0783313593
| 10>  C        2.7373917711    -1.0811423950     2.2050747538
| 11>  N        3.2854220920    -1.4550850364     3.1511890858
| 12>  C       -1.3096768389    -0.7700262926     0.0662139965
| 13>  O       -2.3007654898    -0.3704488406    -0.4821403255
| 14>  H        0.9206376744     1.8742455216    -0.3389437193
| 15>  H       -0.7605317585     1.7037429052    -0.9048831372
| 16>  H       -0.4249668815     1.8362010644     0.8306390863
| 17>  H        0.5402537951    -0.4688214640    -0.9497297701
| 18>  H        3.7640262055    -0.4476435875     0.0285318109
| 19>  H       -1.2976939833    -1.6925139354     0.6856000905
| 20> *
| 21>
| 22>                          ****END OF INPUT****

CARTESIAN COORDINATES (ANGSTROEM)
---------------------------------
  C     -0.053408    1.436082   -0.116534
  C      0.044796   -0.080692   -0.050369
  O      0.796914   -0.526832    1.102201
  C      2.127278   -0.604331    0.975573
  N      2.762922   -0.304897   -0.078331
  C      2.737392   -1.081142    2.205075
  N      3.285422   -1.455085    3.151189
  C     -1.309677   -0.770026    0.066214
  O     -2.300765   -0.370449   -0.482140
  H      0.920638    1.874246   -0.338944
  H     -0.760532    1.703743   -0.904883
  H     -0.424967    1.836201    0.830639
  H      0.540254   -0.468821   -0.949730
  H      3.764026   -0.447644    0.028532
  H     -1.297694   -1.692514    0.685600

 Total Charge           Charge          ....    0
 Multiplicity           Mult            ....    1
 Number of Electrons    NEL             ....   66
 Basis Dimension        Dim             ....  315

ORBITAL ENERGIES
----------------

  NO   OCC          E(Eh)            E(eV)
   0   2.0000     -20.641262      -561.6773
   1   2.0000     -20.579984      -560.0098
   2   2.0000     -15.618122      -424.9907
   3   2.0000     -15.596514      -424.4027
   4   2.0000     -11.416859      -310.6685
   5   2.0000     -11.352623      -308.9206
   6   2.0000     -11.329499      -308.2914
   7   2.0000     -11.311031      -307.7888
   8   2.0000     -11.241372      -305.8933
   9   2.0000      -1.482544       -40.3421
  10   2.0000      -1.419761       -38.6337
  11   2.0000      -1.269282       -34.5389
  12   2.0000      -1.241863       -33.7928
  13   2.0000      -1.086745       -29.5718
  14   2.0000      -0.962841       -26.2002
  15   2.0000      -0.912849       -24.8399
  16   2.0000      -0.813942       -22.1485
  17   2.0000      -0.794162       -21.6103
  18   2.0000      -0.737040       -20.0559
  19   2.0000      -0.701029       -19.0760
  20   2.0000      -0.686489       -18.6803
  21   2.0000      -0.649768       -17.6811
  22   2.0000      -0.606610       -16.5067
  23   2.0000      -0.601502       -16.3677
  24   2.0000      -0.580131       -15.7862
  25   2.0000      -0.565003       -15.3745
  26   2.0000      -0.553117       -15.0511
  27   2.0000      -0.535626       -14.5751
  28   2.0000      -0.519954       -14.1487
  29   2.0000      -0.503234       -13.6937
  30   2.0000      -0.485781       -13.2188
  31   2.0000      -0.451129       -12.2758
  32   2.0000      -0.438455       -11.9310
  33   0.0000       0.074041         2.0148
  34   0.0000       0.107257         2.9186
  35   0.0000       0.123247         3.3537
  36   0.0000       0.149972         4.0810
  37   0.0000       0.155759         4.2384

MULLIKEN ATOMIC CHARGES
-----------------------
   0 C :   -0.420214
   1 C :    0.124493
   2 O :   -0.250842
   3 C :    0.342613
   4 N :   -0.380152
   5 C :   -0.169346
   6 N :   -0.039085
   7 C :    0.087166
   8 O :   -0.250876
   9 H :    0.161382
  10 H :    0.160919
  11 H :    0.140312
  12 H :    0.139966
  13 H :    0.247251
  14 H :    0.106414
Sum of atomic charges:    0.0000000

LOEWDIN ATOMIC CHARGES
----------------------
   0 C :   -0.280700
   1 C :   -0.300962
   2 O :    0.296226
   3 C :   -0.423389
   4 N :   -0.012457
   5 C :   -0.138086
   6 N :    0.101190
   7 C :   -0.266857
   8 O :    0.154558
   9 H :    0.132042
  10 H :    0.141000
  11 H :    0.132141
  12 H :    0.164335
  13 H :    0.182021
  14 H :    0.118938

  Mayer bond orders larger than 0.1
B(  0-C ,  1-C ) :   0.9321 B(  0-C ,  9-H ) :   0.9310 B(  0-C , 10-H ) :   0.9194
B(  0-C , 11-H ) :   0.9276 B(  1-C ,  2-O ) :   0.7947 B(  1-C ,  7-C ) :   0.8477
B(  1-C , 12-H ) :   0.9005 B(  2-O ,  3-C ) :   1.1353 B(  3-C ,  4-N ) :   1.8843
B(  3-C ,  5-C ) :   0.9023 B(  4-N , 13-H ) :   0.8556 B(  5-C ,  6-N ) :   2.8044
B(  7-C ,  8-O ) :   2.0028 B(  7-C , 14-H ) :   0.9360

MP2 TOTAL ENERGY:     -453.217515737 Eh
FINAL SINGLE POINT ENERGY      -453.217515737334

DIPOLE MOMENT
-------------
                                X             Y             Z
Electronic contribution:      2.51455      -4.59218       4.02669
Nuclear contribution   :     -2.18289       4.82936      -4.59723
                        -----------------------------------------
Total Dipole Moment    :      0.33166       0.23718      -0.57054
                        -----------------------------------------
Magnitude (a.u.)       :      0.70126
Magnitude (Debye)      :      1.78246

                             ****ORCA TERMINATED NORMALLY****
TOTAL RUN TIME: 0 days 0 hours 14 minutes 52 seconds 952 msec
