                         Program Version 3.0.3 - RELEASE   -
|  1> ! RI-MP2 RIJK def2-TZVP def2-TZVP/C def2-TZVP/JK TIGHTSCF
|  2> % maxcore 2000
|  3> % mp2 density relaxed end
|  4> *xyz 0 1
|  5>  C        0.0201010393     1.4447211457    -0.0031716604
|  6>  N       -0.0604346447     0.0030921191     0.0072287697
|  7>  C       -0.0259104577    -0.8019292825    -1.1150176917
|  8>  C        0.0021614850    -2.1156041618    -0.6983972809
|  9>  N       -0.0632302548    -3.2800403807    -1.4972565431
| 10>  C       -0.0026054260    -2.1079354044     0.7291823676
| 11>  C       -0.0254791898    -3.3065322674     1.6210169610
| 12>  O        0.1278145940    -2.8801636979     2.9682715268
| 13>  C       -0.0326805802    -0.7883627905     1.1226107160
| 14>  H        1.0414104387     1.8008951436    -0.1894168308
| 15>  H       -0.6352449291     1.8539617194    -0.7781963384
| 16>  H       -0.3105394993     1.8313758536     0.9634023440
| 17>  H       -0.0342959670    -0.3751577418    -2.1056415700
| 18>  H        0.1183499377    -3.0763784556    -2.4727942575
| 19>  H        0.6051030210    -3.9815670782    -1.1967786990
| 20>  H       -0.9702078642    -3.8616331176     1.4886304185
| 21>  H        0.7826800251    -4.0079929540     1.3408676241
| 22>  H       -0.0147923129    -3.6418265368     3.5366727239
| 23>  H       -0.0329521551    -0.3635789420     2.1124911401
| 24> *
| 25>
| 26>                          ****END OF INPUT****

CARTESIAN COORDINATES (ANGSTROEM)
---------------------------------
  C      0.020101    1.444721   -0.003172
  N     -0.060435    0.003092    0.007229
  C     -0.025910   -0.801929   -1.115018
  C      0.002161   -2.115604   -0.698397
  N     -0.063230   -3.280040   -1.497257
  C     -0.002605   -2.107935    0.729182
  C     -0.025479   -3.306532    1.621017
  O      0.127815   -2.880164    2.968272
  C     -0.032681   -0.788363    1.122611
  H      1.041410    1.800895   -0.189417
  H     -0.635245    1.853962   -0.778196
  H     -0.310539    1.831376    0.963402
  H     -0.034296   -0.375158   -2.105642
  H      0.118350   -3.076378   -2.472794
  H      0.605103   -3.981567   -1.196779
  H     -0.970208   -3.861633    1.488630
  H      0.782680   -4.007993    1.340868
  H     -0.014792   -3.641827    3.536673
  H     -0.032952   -0.363579    2.112491

 Total Charge           Charge          ....    0
 Multiplicity           Mult            ....    1
 Number of Electrons    NEL             ....   68
 Basis Dimension        Dim             ....  339

ORBITAL ENERGIES
----------------

  NO   OCC          E(Eh)            E(eV)
   0   2.0000     -20.551703      -559.2403
   1   2.0000     -15.589762      -424.2190
   2   2.0000     -15.549628      -423.1269
   3   2.0000     -11.275434      -306.8202
   4   2.0000     -11.264003      -306.5091
   5   2.0000     -11.240772      -305.8770
   6   2.0000     -11.237925      -305.7995
   7   2.0000     -11.227318      -305.5108
   8   2.0000     -11.199111      -304.7433
   9   2.0000      -1.355738       -36.8915
  10   2.0000      -1.288332       -35.0573
  11   2.0000      -1.189357       -32.3641
  12   2.0000      -1.059776       -28.8380
  13   2.0000      -0.979878       -26.6638
  14   2.0000      -0.938662       -25.5423
  15   2.0000      -0.878520       -23.9058
  16   2.0000      -0.761859       -20.7312
  17   2.0000      -0.742961       -20.2170
  18   2.0000      -0.695936       -18.9374
  19   2.0000      -0.676983       -18.4216
  20   2.0000      -0.647627       -17.6228
  21   2.0000      -0.629567       -17.1314
  22   2.0000      -0.616654       -16.7800
  23   2.0000      -0.605149       -16.4669
  24   2.0000      -0.577999       -15.7282
  25   2.0000      -0.568094       -15.4586
  26   2.0000      -0.538703       -14.6589
  27   2.0000      -0.522215       -14.2102
  28   2.0000      -0.509113       -13.8537
  29   2.0000      -0.494158       -13.4467
  30   2.0000      -0.454334       -12.3631
  31   2.0000      -0.447402       -12.1744
  32   2.0000      -0.299652        -8.1539
  33   2.0000      -0.274202        -7.4614
  34   0.0000       0.132937         3.6174
  35   0.0000       0.145486         3.9589
  36   0.0000       0.147211         4.0058
  37   0.0000       0.167253         4.5512
  38   0.0000       0.177959         4.8425

MULLIKEN ATOMIC CHARGES
-----------------------
   0 C :   -0.321758
   1 N :   -0.000772
   2 C :   -0.218284
   3 C :    0.116427
   4 N :   -0.527035
   5 C :   -0.025744
   6 C :   -0.119424
   7 O :   -0.470581
   8 C :   -0.146109
   9 H :    0.143882
  10 H :    0.144715
  11 H :    0.148157
  12 H :    0.129572
  13 H :    0.232900
  14 H :    0.242882
  15 H :    0.118681
  16 H :    0.087234
  17 H :    0.313125
  18 H :    0.152133
Sum of atomic charges:    0.0000000

LOEWDIN ATOMIC CHARGES
----------------------
   0 C :   -0.278298
   1 N :    0.221640
   2 C :   -0.225455
   3 C :   -0.259476
   4 N :   -0.106990
   5 C :   -0.182781
   6 C :   -0.308087
   7 O :   -0.042842
   8 C :   -0.196839
   9 H :    0.119039
  10 H :    0.123298
  11 H :    0.127141
  12 H :    0.130898
  13 H :    0.163543
  14 H :    0.163096
  15 H :    0.124367
  16 H :    0.116907
  17 H :    0.171331
  18 H :    0.139510

  Mayer bond orders larger than 0.1
B(  0-C ,  1-N ) :   0.8748 B(  0-C ,  9-H ) :   0.9257 B(  0-C , 10-H ) :   0.9332
B(  0-C , 11-H ) :   0.9356 B(  1-N ,  2-C ) :   1.1156 B(  1-N ,  8-C ) :   1.1595
B(  2-C ,  3-C ) :   1.4637 B(  2-C , 12-H ) :   0.9173 B(  3-C ,  4-N ) :   0.9551
B(  3-C ,  5-C ) :   1.2555 B(  4-N , 13-H ) :   0.8886 B(  4-N , 14-H ) :   0.8782
B(  5-C ,  6-C ) :   0.8946 B(  5-C ,  7-O ) :  -0.1349 B(  5-C ,  8-C ) :   1.4657
B(  6-C ,  7-O ) :   1.0557 B(  6-C , 15-H ) :   0.9369 B(  6-C , 16-H ) :   0.9376
B(  7-O , 17-H ) :   0.8499 B(  8-C , 18-H ) :   0.8974

MP2 TOTAL ENERGY:     -418.519605202 Eh
FINAL SINGLE POINT ENERGY      -418.519605201702

DIPOLE MOMENT
-------------
                                X             Y             Z
Electronic contribution:     -0.20852      -1.62510       0.81861
Nuclear contribution   :      0.50981       1.74446      -1.10316
                        -----------------------------------------
Total Dipole Moment    :      0.30129       0.11936      -0.28455
                        -----------------------------------------
Magnitude (a.u.)       :      0.43127
Magnitude (Debye)      :      1.09620

                             ****ORCA TERMINATED NORMALLY****
TOTAL RUN TIME: 0 days 0 hours 17 minutes 19 seconds 628 msec
