                         Program Version 3.0.3 - RELEASE   -
|  1> ! RI-MP2 RIJK def2-TZVP def2-TZVP/C def2-TZVP/JK TIGHTSCF
|  2> % maxcore 2000
|  3> % mp2 density relaxed end
|  4> *xyz 0 1
|  5>  C       -0.3766894665     1.3031033692    -0.0308758963
|  6>  O       -0.0591568710    -0.0776059122     0.0246592098
|  7>  C        0.7081424098    -0.5399430173    -1.0740557808
|  8>  C        1.1512302938    -1.9825794341    -0.7910373193
|  9>  C        1.6133623883    -2.2757709712     0.6324022889
| 10>  C       -0.0943449158    -2.7613431824    -1.2414943383
| 11>  O       -0.6396358278    -2.0056810674    -2.3392429507
| 12>  C       -0.1831150433    -0.7215855492    -2.2975840783
| 13>  N       -0.4807917500     0.1828278141    -3.1292993605
| 14>  H        0.5362015373     1.9176888209    -0.0263954521
| 15>  H       -0.9586929082     1.5530515717    -0.9249735731
| 16>  H       -0.9610183159     1.5252521347     0.8650139584
| 17>  H        1.5364497973     0.1471948358    -1.2861634873
| 18>  H        1.9589759076    -2.2083988522    -1.4984826939
| 19>  H        0.8420087839    -2.0021388068     1.3549177585
| 20>  H        1.8457704401    -3.3390099082     0.7527705665
| 21>  H        2.5174236469    -1.7086891047     0.8737789158
| 22>  H        0.1217624524    -3.7690548968    -1.6037576881
| 23>  H       -0.8421852871    -2.8193512851    -0.4419746948
| 24>  H       -1.1318925617    -0.1770566988    -3.8311682445
| 25> *
| 26>
| 27>                          ****END OF INPUT****

CARTESIAN COORDINATES (ANGSTROEM)
---------------------------------
  C     -0.376689    1.303103   -0.030876
  O     -0.059157   -0.077606    0.024659
  C      0.708142   -0.539943   -1.074056
  C      1.151230   -1.982579   -0.791037
  C      1.613362   -2.275771    0.632402
  C     -0.094345   -2.761343   -1.241494
  O     -0.639636   -2.005681   -2.339243
  C     -0.183115   -0.721586   -2.297584
  N     -0.480792    0.182828   -3.129299
  H      0.536202    1.917689   -0.026395
  H     -0.958693    1.553052   -0.924974
  H     -0.961018    1.525252    0.865014
  H      1.536450    0.147195   -1.286163
  H      1.958976   -2.208399   -1.498483
  H      0.842009   -2.002139    1.354918
  H      1.845770   -3.339010    0.752771
  H      2.517424   -1.708689    0.873779
  H      0.121762   -3.769055   -1.603758
  H     -0.842185   -2.819351   -0.441975
  H     -1.131893   -0.177057   -3.831168

 Total Charge           Charge          ....    0
 Multiplicity           Mult            ....    1
 Number of Electrons    NEL             ....   70
 Basis Dimension        Dim             ....  345

ORBITAL ENERGIES
----------------

  NO   OCC          E(Eh)            E(eV)
   0   2.0000     -20.591881      -560.3336
   1   2.0000     -20.566531      -559.6438
   2   2.0000     -15.533787      -422.6958
   3   2.0000     -11.332389      -308.3700
   4   2.0000     -11.297117      -307.4102
   5   2.0000     -11.291281      -307.2514
   6   2.0000     -11.268249      -306.6246
   7   2.0000     -11.246887      -306.0433
   8   2.0000     -11.225171      -305.4524
   9   2.0000      -1.431336       -38.9486
  10   2.0000      -1.381938       -37.6045
  11   2.0000      -1.193451       -32.4755
  12   2.0000      -1.095354       -29.8061
  13   2.0000      -0.981756       -26.7149
  14   2.0000      -0.940006       -25.5789
  15   2.0000      -0.910086       -24.7647
  16   2.0000      -0.804572       -21.8935
  17   2.0000      -0.776047       -21.1173
  18   2.0000      -0.712648       -19.3921
  19   2.0000      -0.682217       -18.5641
  20   2.0000      -0.658907       -17.9298
  21   2.0000      -0.652521       -17.7560
  22   2.0000      -0.636240       -17.3130
  23   2.0000      -0.614078       -16.7099
  24   2.0000      -0.585637       -15.9360
  25   2.0000      -0.569689       -15.5020
  26   2.0000      -0.537005       -14.6126
  27   2.0000      -0.525964       -14.3122
  28   2.0000      -0.519864       -14.1462
  29   2.0000      -0.504483       -13.7277
  30   2.0000      -0.482082       -13.1181
  31   2.0000      -0.472948       -12.8696
  32   2.0000      -0.454197       -12.3593
  33   2.0000      -0.413791       -11.2598
  34   2.0000      -0.398188       -10.8352
  35   0.0000       0.129501         3.5239
  36   0.0000       0.157487         4.2854
  37   0.0000       0.162801         4.4300
  38   0.0000       0.173197         4.7129
  39   0.0000       0.176290         4.7971

MULLIKEN ATOMIC CHARGES
-----------------------
   0 C :   -0.232314
   1 O :   -0.323453
   2 C :    0.147859
   3 C :   -0.044800
   4 C :   -0.422203
   5 C :   -0.056358
   6 O :   -0.250531
   7 C :    0.088744
   8 N :   -0.387162
   9 H :    0.110362
  10 H :    0.147508
  11 H :    0.135601
  12 H :    0.100653
  13 H :    0.108689
  14 H :    0.151822
  15 H :    0.135554
  16 H :    0.134359
  17 H :    0.123937
  18 H :    0.109780
  19 H :    0.221953
Sum of atomic charges:   -0.0000000

LOEWDIN ATOMIC CHARGES
----------------------
   0 C :   -0.343457
   1 O :    0.165095
   2 C :   -0.268558
   3 C :   -0.255992
   4 C :   -0.288822
   5 C :   -0.243278
   6 O :    0.237037
   7 C :   -0.388722
   8 N :   -0.059905
   9 H :    0.103820
  10 H :    0.111225
  11 H :    0.112451
  12 H :    0.146353
  13 H :    0.161257
  14 H :    0.130523
  15 H :    0.125770
  16 H :    0.128213
  17 H :    0.127876
  18 H :    0.131117
  19 H :    0.167996

  Mayer bond orders larger than 0.1
B(  0-C ,  1-O ) :   0.8955 B(  0-C ,  9-H ) :   0.9380 B(  0-C , 10-H ) :   0.9300
B(  0-C , 11-H ) :   0.9362 B(  1-O ,  2-C ) :   0.9529 B(  2-C ,  3-C ) :   0.9021
B(  2-C ,  7-C ) :   0.8926 B(  2-C , 12-H ) :   0.9189 B(  3-C ,  4-C ) :   0.9087
B(  3-C ,  5-C ) :   0.9522 B(  3-C , 13-H ) :   0.9227 B(  4-C , 14-H ) :   0.9306
B(  4-C , 15-H ) :   0.9385 B(  4-C , 16-H ) :   0.9361 B(  5-C ,  6-O ) :   0.8874
B(  5-C , 17-H ) :   0.9259 B(  5-C , 18-H ) :   0.9133 B(  6-O ,  7-C ) :   1.1055
B(  7-C ,  8-N ) :   2.0282 B(  8-N , 19-H ) :   0.8555

MP2 TOTAL ENERGY:     -439.575679024 Eh
FINAL SINGLE POINT ENERGY      -439.575679024307

DIPOLE MOMENT
-------------
                                X             Y             Z
Electronic contribution:     -3.00184      -0.34100      -5.60599
Nuclear contribution   :      3.39441      -0.17185       6.11236
                        -----------------------------------------
Total Dipole Moment    :      0.39257      -0.51285       0.50637
                        -----------------------------------------
Magnitude (a.u.)       :      0.82069
Magnitude (Debye)      :      2.08604

                             ****ORCA TERMINATED NORMALLY****
TOTAL RUN TIME: 0 days 0 hours 19 minutes 11 seconds 586 msec
