                         Program Version 3.0.3 - RELEASE   -
|  1> ! RI-MP2 RIJK def2-TZVP def2-TZVP/C def2-TZVP/JK TIGHTSCF
|  2> % maxcore 2000
|  3> % mp2 density relaxed end
|  4> *xyz 0 1
|  5>  C        0.0084102973     1.5736091202    -0.0185717929
|  6>  C        0.0646087919     0.0446489212     0.0059356780
|  7>  C        0.8189434902    -0.5862300147    -1.1828309180
|  8>  C        1.3430274566    -1.9377885049    -0.6174528479
|  9>  C        2.5620272407    -2.4101636312    -1.2613515589
| 10>  C        3.5679993341    -2.7763077888    -1.8076494440
| 11>  N        1.5014635448    -1.7804244867     0.8551527022
| 12>  C        2.2583849053    -0.5757480398     1.2318189011
| 13>  C        0.7728884774    -0.5491108191     1.2190063322
| 14>  H        1.0160455965     2.0028024062    -0.0181539443
| 15>  H       -0.5123718028     1.9358059072    -0.9109359824
| 16>  H       -0.5219050217     1.9640424275     0.8562386562
| 17>  H       -0.9641328828    -0.3402493855     0.0137445499
| 18>  H        0.1851133441    -0.7348259402    -2.0598512944
| 19>  H        1.6544448603     0.0461775101    -1.4958737143
| 20>  H        0.5632152879    -2.6994974872    -0.7435128468
| 21>  H        4.4557347173    -3.1125770825    -2.2834268039
| 22>  H        2.7883397494    -0.6614102058     2.1754985770
| 23>  H        2.8051084079    -0.0382245716     0.4619540252
| 24>  H        0.2292091356    -0.5779578544     2.1599466860
| 25> *
| 26>
| 27>                          ****END OF INPUT****

CARTESIAN COORDINATES (ANGSTROEM)
---------------------------------
  C      0.008410    1.573609   -0.018572
  C      0.064609    0.044649    0.005936
  C      0.818943   -0.586230   -1.182831
  C      1.343027   -1.937789   -0.617453
  C      2.562027   -2.410164   -1.261352
  C      3.567999   -2.776308   -1.807649
  N      1.501464   -1.780424    0.855153
  C      2.258385   -0.575748    1.231819
  C      0.772888   -0.549111    1.219006
  H      1.016046    2.002802   -0.018154
  H     -0.512372    1.935806   -0.910936
  H     -0.521905    1.964042    0.856239
  H     -0.964133   -0.340249    0.013745
  H      0.185113   -0.734826   -2.059851
  H      1.654445    0.046178   -1.495874
  H      0.563215   -2.699497   -0.743513
  H      4.455735   -3.112577   -2.283427
  H      2.788340   -0.661410    2.175499
  H      2.805108   -0.038225    0.461954
  H      0.229209   -0.577958    2.159947

 Total Charge           Charge          ....    0
 Multiplicity           Mult            ....    1
 Number of Electrons    NEL             ....   66
 Basis Dimension        Dim             ....  345

ORBITAL ENERGIES
----------------

  NO   OCC          E(Eh)            E(eV)
   0   2.0000     -15.561328      -423.4453
   1   2.0000     -11.282251      -307.0057
   2   2.0000     -11.257222      -306.3246
   3   2.0000     -11.251631      -306.1724
   4   2.0000     -11.239735      -305.8487
   5   2.0000     -11.231649      -305.6287
   6   2.0000     -11.230555      -305.5989
   7   2.0000     -11.222720      -305.3857
   8   2.0000     -11.220826      -305.3342
   9   2.0000      -1.285679       -34.9851
  10   2.0000      -1.080636       -29.4056
  11   2.0000      -1.060262       -28.8512
  12   2.0000      -0.990099       -26.9420
  13   2.0000      -0.920089       -25.0369
  14   2.0000      -0.870685       -23.6925
  15   2.0000      -0.817853       -22.2549
  16   2.0000      -0.763315       -20.7709
  17   2.0000      -0.715639       -19.4735
  18   2.0000      -0.698667       -19.0117
  19   2.0000      -0.653765       -17.7898
  20   2.0000      -0.625949       -17.0329
  21   2.0000      -0.604366       -16.4456
  22   2.0000      -0.570946       -15.5362
  23   2.0000      -0.566965       -15.4279
  24   2.0000      -0.539477       -14.6799
  25   2.0000      -0.504726       -13.7343
  26   2.0000      -0.500749       -13.6261
  27   2.0000      -0.472578       -12.8595
  28   2.0000      -0.458722       -12.4825
  29   2.0000      -0.451676       -12.2907
  30   2.0000      -0.389362       -10.5951
  31   2.0000      -0.387991       -10.5578
  32   2.0000      -0.369083       -10.0433
  33   0.0000       0.130332         3.5465
  34   0.0000       0.148332         4.0363
  35   0.0000       0.158047         4.3007
  36   0.0000       0.169800         4.6205
  37   0.0000       0.179580         4.8866

MULLIKEN ATOMIC CHARGES
-----------------------
   0 C :   -0.406432
   1 C :   -0.015419
   2 C :   -0.314742
   3 C :   -0.057095
   4 C :   -0.056104
   5 C :   -0.136228
   6 N :   -0.216905
   7 C :   -0.211220
   8 C :   -0.037193
   9 H :    0.126153
  10 H :    0.134865
  11 H :    0.133860
  12 H :    0.095883
  13 H :    0.135780
  14 H :    0.136638
  15 H :    0.116516
  16 H :    0.190717
  17 H :    0.128687
  18 H :    0.128710
  19 H :    0.123529
Sum of atomic charges:   -0.0000000

LOEWDIN ATOMIC CHARGES
----------------------
   0 C :   -0.288995
   1 C :   -0.259236
   2 C :   -0.199408
   3 C :   -0.257729
   4 C :   -0.083695
   5 C :   -0.093469
   6 N :    0.136814
   7 C :   -0.236947
   8 C :   -0.225273
   9 H :    0.124535
  10 H :    0.124644
  11 H :    0.125168
  12 H :    0.156516
  13 H :    0.140804
  14 H :    0.143612
  15 H :    0.166677
  16 H :    0.126845
  17 H :    0.127966
  18 H :    0.130448
  19 H :    0.140724

  Mayer bond orders larger than 0.1
B(  0-C ,  1-C ) :   0.8887 B(  0-C ,  9-H ) :   0.9351 B(  0-C , 10-H ) :   0.9378
B(  0-C , 11-H ) :   0.9402 B(  1-C ,  2-C ) :   0.9191 B(  1-C ,  8-C ) :   0.9236
B(  1-C , 12-H ) :   0.9198 B(  2-C ,  3-C ) :   0.9228 B(  2-C , 13-H ) :   0.9204
B(  2-C , 14-H ) :   0.9318 B(  3-C ,  4-C ) :   1.2104 B(  3-C ,  6-N ) :   0.8908
B(  3-C , 15-H ) :   0.8936 B(  4-C ,  5-C ) :   2.5555 B(  5-C , 16-H ) :   0.8925
B(  6-N ,  7-C ) :   0.8962 B(  6-N ,  8-C ) :   0.8936 B(  7-C ,  8-C ) :   0.9421
B(  7-C , 17-H ) :   0.9243 B(  7-C , 18-H ) :   0.9122 B(  8-C , 19-H ) :   0.9143

MP2 TOTAL ENERGY:     -365.297049886 Eh
FINAL SINGLE POINT ENERGY      -365.297049886174

DIPOLE MOMENT
-------------
                                X             Y             Z
Electronic contribution:      3.20976      -6.94582      -0.16107
Nuclear contribution   :     -3.47591       7.61247      -0.09984
                        -----------------------------------------
Total Dipole Moment    :     -0.26615       0.66665      -0.26091
                        -----------------------------------------
Magnitude (a.u.)       :      0.76376
Magnitude (Debye)      :      1.94132

                             ****ORCA TERMINATED NORMALLY****
TOTAL RUN TIME: 0 days 0 hours 21 minutes 16 seconds 748 msec
