                         Program Version 3.0.3 - RELEASE   -
|  1> ! RI-MP2 RIJK def2-TZVP def2-TZVP/C def2-TZVP/JK TIGHTSCF
|  2> % maxcore 2000
|  3> % mp2 density relaxed end
|  4> *xyz 0 1
|  5>  C       -0.4483073929     1.5487337123     0.3657678828
|  6>  C       -0.1086494984     0.0703920842     0.2133351860
|  7>  C        0.2870181342    -0.4652156597    -1.1723705674
|  8>  C        1.6173706095     0.0811027652    -1.6073528622
|  9>  C        1.5853952663    -1.0409798344    -0.6094152444
| 10>  C        1.2369769514    -0.5384416913     0.7953973958
| 11>  C        2.2210889636     0.3818959447     1.5061777921
| 12>  O        0.9803779415    -1.6896723389     1.5922403345
| 13>  H        0.3209879234     2.1974028844    -0.0641627783
| 14>  H       -1.3917113918     1.7804452415    -0.1410472564
| 15>  H       -0.5649375308     1.8261746849     1.4196631101
| 16>  H       -0.9169491712    -0.5409893804     0.6256582235
| 17>  H       -0.3981673764    -0.9146031784    -1.8813694732
| 18>  H        1.9297773217    -0.2073551514    -2.6061163031
| 19>  H        1.9397588710     1.0802406328    -1.3260548467
| 20>  H        2.0455102212    -2.0043112552    -0.7918768956
| 21>  H        2.4926147517     1.2489739536     0.8986080437
| 22>  H        1.7923243189     0.7607891840     2.4429081788
| 23>  H        3.1342479698    -0.1696554213     1.7501634171
| 24>  H        0.6662307773    -1.3875560266     2.4516311029
| 25> *
| 26>
| 27>                          ****END OF INPUT****

CARTESIAN COORDINATES (ANGSTROEM)
---------------------------------
  C     -0.448307    1.548734    0.365768
  C     -0.108649    0.070392    0.213335
  C      0.287018   -0.465216   -1.172371
  C      1.617371    0.081103   -1.607353
  C      1.585395   -1.040980   -0.609415
  C      1.236977   -0.538442    0.795397
  C      2.221089    0.381896    1.506178
  O      0.980378   -1.689672    1.592240
  H      0.320988    2.197403   -0.064163
  H     -1.391711    1.780445   -0.141047
  H     -0.564938    1.826175    1.419663
  H     -0.916949   -0.540989    0.625658
  H     -0.398167   -0.914603   -1.881369
  H      1.929777   -0.207355   -2.606116
  H      1.939759    1.080241   -1.326055
  H      2.045510   -2.004311   -0.791877
  H      2.492615    1.248974    0.898608
  H      1.792324    0.760789    2.442908
  H      3.134248   -0.169655    1.750163
  H      0.666231   -1.387556    2.451631

 Total Charge           Charge          ....    0
 Multiplicity           Mult            ....    1
 Number of Electrons    NEL             ....   62
 Basis Dimension        Dim             ....  320

ORBITAL ENERGIES
----------------

  NO   OCC          E(Eh)            E(eV)
   0   2.0000     -20.550647      -559.2115
   1   2.0000     -11.285085      -307.0828
   2   2.0000     -11.227440      -305.5142
   3   2.0000     -11.226831      -305.4976
   4   2.0000     -11.225507      -305.4616
   5   2.0000     -11.223941      -305.4190
   6   2.0000     -11.215010      -305.1759
   7   2.0000     -11.214077      -305.1506
   8   2.0000      -1.360524       -37.0217
   9   2.0000      -1.181239       -32.1431
  10   2.0000      -1.020042       -27.7568
  11   2.0000      -0.986328       -26.8394
  12   2.0000      -0.904678       -24.6175
  13   2.0000      -0.842222       -22.9180
  14   2.0000      -0.778807       -21.1924
  15   2.0000      -0.716270       -19.4907
  16   2.0000      -0.694855       -18.9080
  17   2.0000      -0.653962       -17.7952
  18   2.0000      -0.618902       -16.8412
  19   2.0000      -0.601214       -16.3599
  20   2.0000      -0.575361       -15.6564
  21   2.0000      -0.569222       -15.4893
  22   2.0000      -0.545327       -14.8391
  23   2.0000      -0.540761       -14.7149
  24   2.0000      -0.529160       -14.3992
  25   2.0000      -0.493235       -13.4216
  26   2.0000      -0.485467       -13.2102
  27   2.0000      -0.444376       -12.0921
  28   2.0000      -0.419857       -11.4249
  29   2.0000      -0.409689       -11.1482
  30   2.0000      -0.370663       -10.0863
  31   0.0000       0.129476         3.5232
  32   0.0000       0.158532         4.3139
  33   0.0000       0.163469         4.4482
  34   0.0000       0.172434         4.6922
  35   0.0000       0.194679         5.2975

MULLIKEN ATOMIC CHARGES
-----------------------
   0 C :   -0.390607
   1 C :   -0.106959
   2 C :   -0.112244
   3 C :   -0.296634
   4 C :   -0.121046
   5 C :    0.225268
   6 C :   -0.418128
   7 O :   -0.462458
   8 H :    0.116783
   9 H :    0.136175
  10 H :    0.124867
  11 H :    0.094958
  12 H :    0.128736
  13 H :    0.131087
  14 H :    0.127233
  15 H :    0.130305
  16 H :    0.118438
  17 H :    0.118537
  18 H :    0.146222
  19 H :    0.309468
Sum of atomic charges:   -0.0000000

LOEWDIN ATOMIC CHARGES
----------------------
   0 C :   -0.297027
   1 C :   -0.203371
   2 C :   -0.159958
   3 C :   -0.205512
   4 C :   -0.143291
   5 C :   -0.339504
   6 C :   -0.279804
   7 O :    0.009877
   8 H :    0.121046
   9 H :    0.126619
  10 H :    0.122216
  11 H :    0.154802
  12 H :    0.133955
  13 H :    0.140679
  14 H :    0.126437
  15 H :    0.139683
  16 H :    0.125921
  17 H :    0.123083
  18 H :    0.130812
  19 H :    0.173336

  Mayer bond orders larger than 0.1
B(  0-C ,  1-C ) :   0.8881 B(  0-C ,  8-H ) :   0.9315 B(  0-C ,  9-H ) :   0.9353
B(  0-C , 10-H ) :   0.9412 B(  1-C ,  2-C ) :   0.9311 B(  1-C ,  5-C ) :   0.9620
B(  1-C , 11-H ) :   0.9234 B(  2-C ,  3-C ) :   0.8826 B(  2-C ,  4-C ) :   0.8572
B(  2-C , 12-H ) :   0.9234 B(  3-C ,  4-C ) :   0.8589 B(  3-C , 13-H ) :   0.9304
B(  3-C , 14-H ) :   0.9226 B(  4-C ,  5-C ) :   0.9095 B(  4-C , 15-H ) :   0.9193
B(  5-C ,  6-C ) :   0.9408 B(  5-C ,  7-O ) :   0.9663 B(  6-C , 16-H ) :   0.9296
B(  6-C , 17-H ) :   0.9215 B(  6-C , 18-H ) :   0.9391 B(  7-O , 19-H ) :   0.8433

MP2 TOTAL ENERGY:     -348.376636576 Eh
FINAL SINGLE POINT ENERGY      -348.376636575919

DIPOLE MOMENT
-------------
                                X             Y             Z
Electronic contribution:     -0.09406      -5.21843      -0.24556
Nuclear contribution   :     -0.02880       5.71746       0.40206
                        -----------------------------------------
Total Dipole Moment    :     -0.12286       0.49902       0.15650
                        -----------------------------------------
Magnitude (a.u.)       :      0.53723
Magnitude (Debye)      :      1.36553

                             ****ORCA TERMINATED NORMALLY****
TOTAL RUN TIME: 0 days 0 hours 14 minutes 26 seconds 910 msec
