                         Program Version 3.0.3 - RELEASE   -
|  1> ! RI-MP2 RIJK def2-TZVP def2-TZVP/C def2-TZVP/JK TIGHTSCF
|  2> % maxcore 2000
|  3> % mp2 density relaxed end
|  4> *xyz 0 1
|  5>  C       -0.0394218803     1.4455062279    -0.0249722329
|  6>  N       -0.0141750753    -0.0065619252    -0.0327175892
|  7>  C        0.5679091966    -0.6216281296     0.9382713785
|  8>  C        0.6172571986    -2.0730528126     0.9724868309
|  9>  C        1.2294443689    -2.7056008019     1.9949458667
| 10>  N        1.8098672482    -1.9909225579     3.0093736241
| 11>  N        1.8186165881    -0.6487450770     3.0688642629
| 12>  C        1.2376306968    -0.0100064894     2.1000066254
| 13>  H        0.9668494565     1.8929959135    -0.0510392362
| 14>  H       -0.5730930448     1.7958163898    -0.9128992686
| 15>  H       -0.5573697927     1.8626234301     0.8532296275
| 16>  H        0.1557403267    -2.6284092593     0.1663235973
| 17>  H        1.3038559072    -3.7829243904     2.0850406695
| 18>  H        2.2711710831    -2.4439779626     3.7794760624
| 19>  H        1.2732655726     1.0690993447     2.1958118520
| 20> *
| 21>
| 22>                          ****END OF INPUT****

CARTESIAN COORDINATES (ANGSTROEM)
---------------------------------
  C     -0.039422    1.445506   -0.024972
  N     -0.014175   -0.006562   -0.032718
  C      0.567909   -0.621628    0.938271
  C      0.617257   -2.073053    0.972487
  C      1.229444   -2.705601    1.994946
  N      1.809867   -1.990923    3.009374
  N      1.818617   -0.648745    3.068864
  C      1.237631   -0.010006    2.100007
  H      0.966849    1.892996   -0.051039
  H     -0.573093    1.795816   -0.912899
  H     -0.557370    1.862623    0.853230
  H      0.155740   -2.628409    0.166324
  H      1.303856   -3.782924    2.085041
  H      2.271171   -2.443978    3.779476
  H      1.273266    1.069099    2.195812

 Total Charge           Charge          ....    0
 Multiplicity           Mult            ....    1
 Number of Electrons    NEL             ....   58
 Basis Dimension        Dim             ....  290

ORBITAL ENERGIES
----------------

  NO   OCC          E(Eh)            E(eV)
   0   2.0000     -15.643067      -425.6695
   1   2.0000     -15.635795      -425.4716
   2   2.0000     -15.527533      -422.5257
   3   2.0000     -11.302069      -307.5449
   4   2.0000     -11.284493      -307.0667
   5   2.0000     -11.279106      -306.9201
   6   2.0000     -11.234214      -305.6985
   7   2.0000     -11.233562      -305.6808
   8   2.0000      -1.377208       -37.4757
   9   2.0000      -1.214492       -33.0480
  10   2.0000      -1.149107       -31.2688
  11   2.0000      -1.067531       -29.0490
  12   2.0000      -0.938181       -25.5292
  13   2.0000      -0.890507       -24.2319
  14   2.0000      -0.835840       -22.7444
  15   2.0000      -0.778656       -21.1883
  16   2.0000      -0.709534       -19.3074
  17   2.0000      -0.661079       -17.9889
  18   2.0000      -0.640217       -17.4212
  19   2.0000      -0.620890       -16.8953
  20   2.0000      -0.596334       -16.2271
  21   2.0000      -0.575322       -15.6553
  22   2.0000      -0.571661       -15.5557
  23   2.0000      -0.528307       -14.3760
  24   2.0000      -0.479327       -13.0431
  25   2.0000      -0.451573       -12.2879
  26   2.0000      -0.423084       -11.5127
  27   2.0000      -0.381920       -10.3926
  28   2.0000      -0.294626        -8.0172
  29   0.0000       0.096296         2.6203
  30   0.0000       0.123385         3.3575
  31   0.0000       0.126562         3.4439
  32   0.0000       0.152766         4.1570
  33   0.0000       0.171881         4.6771

MULLIKEN ATOMIC CHARGES
-----------------------
   0 C :   -0.318029
   1 N :   -0.206115
   2 C :    0.101234
   3 C :   -0.216039
   4 C :    0.006716
   5 N :   -0.132165
   6 N :   -0.144906
   7 C :   -0.174604
   8 H :    0.125521
   9 H :    0.143131
  10 H :    0.125175
  11 H :    0.131806
  12 H :    0.149500
  13 H :    0.261843
  14 H :    0.146932
Sum of atomic charges:    0.0000000

LOEWDIN ATOMIC CHARGES
----------------------
   0 C :   -0.353349
   1 N :    0.061864
   2 C :   -0.297659
   3 C :   -0.123232
   4 C :   -0.215727
   5 N :    0.094280
   6 N :    0.061308
   7 C :   -0.202204
   8 H :    0.109693
   9 H :    0.114449
  10 H :    0.109552
  11 H :    0.156654
  12 H :    0.146742
  13 H :    0.192034
  14 H :    0.145594

  Mayer bond orders larger than 0.1
B(  0-C ,  1-N ) :   0.8956 B(  0-C ,  8-H ) :   0.9250 B(  0-C ,  9-H ) :   0.9476
B(  0-C , 10-H ) :   0.9251 B(  1-N ,  2-C ) :   1.8236 B(  2-C ,  3-C ) :   1.1107
B(  2-C ,  7-C ) :   0.9651 B(  3-C ,  4-C ) :   1.6037 B(  3-C , 11-H ) :   0.9170
B(  4-C ,  5-N ) :   1.1043 B(  4-C , 12-H ) :   0.9076 B(  5-N ,  6-N ) :   1.0052
B(  5-N , 13-H ) :   0.8783 B(  6-N ,  7-C ) :   1.6927 B(  7-C , 14-H ) :   0.9344

MP2 TOTAL ENERGY:     -358.205565664 Eh
FINAL SINGLE POINT ENERGY      -358.205565663771

DIPOLE MOMENT
-------------
                                X             Y             Z
Electronic contribution:      1.92870      -3.95986       3.15170
Nuclear contribution   :     -1.40530       3.13372      -2.28831
                        -----------------------------------------
Total Dipole Moment    :      0.52339      -0.82614       0.86339
                        -----------------------------------------
Magnitude (a.u.)       :      1.30456
Magnitude (Debye)      :      3.31593

                             ****ORCA TERMINATED NORMALLY****
TOTAL RUN TIME: 0 days 0 hours 10 minutes 58 seconds 363 msec
