                         Program Version 3.0.3 - RELEASE   -
|  1> ! RI-MP2 RIJK def2-TZVP def2-TZVP/C def2-TZVP/JK TIGHTSCF
|  2> % maxcore 2000
|  3> % mp2 density relaxed end
|  4> *xyz 0 1
|  5>  O        0.1030003976     1.4202770240    -0.2063410693
|  6>  C        0.0536331868     0.0343893496    -0.3501631352
|  7>  C       -1.2321204799    -0.5410941601     0.2160285954
|  8>  O       -2.0799710413     0.2086519046     0.6670422902
|  9>  C       -1.4165797572    -2.0164672597     0.1929591533
| 10>  C       -1.9320876040    -2.6424657640     1.4567510867
| 11>  N       -2.7913626509    -2.5346952407     0.2897148635
| 12>  H       -0.7488829450     1.6650091202     0.1890082702
| 13>  H        0.1162786113    -0.2683065323    -1.4104054640
| 14>  H        0.9040753831    -0.4529522635     0.1556081909
| 15>  H       -0.7433175299    -2.5846893822    -0.4422104721
| 16>  H       -1.6025029081    -3.6465930741     1.7065578911
| 17>  H       -2.1040620345    -1.9757784243     2.2969482118
| 18>  H       -3.4054985380    -1.7282466075     0.4087652775
| 19> *
| 20>
| 21>                          ****END OF INPUT****

CARTESIAN COORDINATES (ANGSTROEM)
---------------------------------
  O      0.103000    1.420277   -0.206341
  C      0.053633    0.034389   -0.350163
  C     -1.232120   -0.541094    0.216029
  O     -2.079971    0.208652    0.667042
  C     -1.416580   -2.016467    0.192959
  C     -1.932088   -2.642466    1.456751
  N     -2.791363   -2.534695    0.289715
  H     -0.748883    1.665009    0.189008
  H      0.116279   -0.268307   -1.410405
  H      0.904075   -0.452952    0.155608
  H     -0.743318   -2.584689   -0.442210
  H     -1.602503   -3.646593    1.706558
  H     -2.104062   -1.975778    2.296948
  H     -3.405499   -1.728247    0.408765

 Total Charge           Charge          ....    0
 Multiplicity           Mult            ....    1
 Number of Electrons    NEL             ....   54
 Basis Dimension        Dim             ....  259

ORBITAL ENERGIES
----------------

  NO   OCC          E(Eh)            E(eV)
   0   2.0000     -20.571715      -559.7848
   1   2.0000     -20.563216      -559.5535
   2   2.0000     -15.583430      -424.0467
   3   2.0000     -11.355450      -308.9975
   4   2.0000     -11.302997      -307.5702
   5   2.0000     -11.286745      -307.1279
   6   2.0000     -11.284628      -307.0703
   7   2.0000      -1.424905       -38.7736
   8   2.0000      -1.369124       -37.2558
   9   2.0000      -1.287009       -35.0213
  10   2.0000      -1.022902       -27.8346
  11   2.0000      -0.920082       -25.0367
  12   2.0000      -0.885551       -24.0971
  13   2.0000      -0.779721       -21.2173
  14   2.0000      -0.751276       -20.4433
  15   2.0000      -0.696115       -18.9423
  16   2.0000      -0.666061       -18.1244
  17   2.0000      -0.654456       -17.8086
  18   2.0000      -0.625065       -17.0089
  19   2.0000      -0.583138       -15.8680
  20   2.0000      -0.557908       -15.1815
  21   2.0000      -0.548082       -14.9141
  22   2.0000      -0.513798       -13.9812
  23   2.0000      -0.498363       -13.5611
  24   2.0000      -0.461834       -12.5671
  25   2.0000      -0.446118       -12.1395
  26   2.0000      -0.413597       -11.2545
  27   0.0000       0.113844         3.0978
  28   0.0000       0.134417         3.6577
  29   0.0000       0.157268         4.2795
  30   0.0000       0.171477         4.6661
  31   0.0000       0.176165         4.7937

MULLIKEN ATOMIC CHARGES
-----------------------
   0 O :   -0.479267
   1 C :   -0.023437
   2 C :    0.178613
   3 O :   -0.359918
   4 C :   -0.082030
   5 C :   -0.146221
   6 N :   -0.349995
   7 H :    0.337843
   8 H :    0.123175
   9 H :    0.124291
  10 H :    0.149086
  11 H :    0.137235
  12 H :    0.148331
  13 H :    0.242292
Sum of atomic charges:   -0.0000000

LOEWDIN ATOMIC CHARGES
----------------------
   0 O :   -0.029906
   1 C :   -0.332634
   2 C :   -0.329146
   3 O :    0.126284
   4 C :   -0.252560
   5 C :   -0.242833
   6 N :    0.011656
   7 H :    0.183626
   8 H :    0.139321
   9 H :    0.139393
  10 H :    0.150651
  11 H :    0.128898
  12 H :    0.130292
  13 H :    0.176958

  Mayer bond orders larger than 0.1
B(  0-O ,  1-C ) :   1.0186 B(  0-O ,  7-H ) :   0.8057 B(  1-C ,  2-C ) :   0.9537
B(  1-C ,  8-H ) :   0.9009 B(  1-C ,  9-H ) :   0.9077 B(  2-C ,  3-O ) :   1.8186
B(  2-C ,  4-C ) :   0.9333 B(  4-C ,  5-C ) :   0.8943 B(  4-C ,  6-N ) :   0.9273
B(  4-C , 10-H ) :   0.9075 B(  5-C ,  6-N ) :   0.9247 B(  5-C , 11-H ) :   0.9235
B(  5-C , 12-H ) :   0.9144 B(  6-N , 13-H ) :   0.8636

MP2 TOTAL ENERGY:     -361.120679716 Eh
FINAL SINGLE POINT ENERGY      -361.120679715780

DIPOLE MOMENT
-------------
                                X             Y             Z
Electronic contribution:     -1.23038       2.46837      -0.34191
Nuclear contribution   :      1.50903      -3.16547       0.60692
                        -----------------------------------------
Total Dipole Moment    :      0.27865      -0.69711       0.26500
                        -----------------------------------------
Magnitude (a.u.)       :      0.79614
Magnitude (Debye)      :      2.02362

                             ****ORCA TERMINATED NORMALLY****
TOTAL RUN TIME: 0 days 0 hours 6 minutes 47 seconds 748 msec
