                         Program Version 3.0.3 - RELEASE   -
|  1> ! RI-MP2 RIJK def2-TZVP def2-TZVP/C def2-TZVP/JK TIGHTSCF
|  2> % maxcore 2000
|  3> % mp2 density relaxed end
|  4> *xyz 0 1
|  5>  C       -0.3389741246     1.1504242748    -0.0714085790
|  6>  C        1.1355866502     1.0481719137     0.2701926433
|  7>  C        0.3499480719    -0.1789501456    -0.0370697458
|  8>  O        0.1062658323    -1.0311090388     1.0762401762
|  9>  C       -0.9139695249    -1.8590713184     0.9525876518
| 10>  N       -1.7079999562    -2.0023441479    -0.0738224644
| 11>  O       -2.5616421438    -2.9902444156     0.3278969320
| 12>  N       -2.2224002103    -3.3919376056     1.6075638194
| 13>  N       -1.2326391611    -2.7163026097     1.9887335300
| 14>  H       -1.0191084452     1.3744229614     0.7420677515
| 15>  H       -0.6364732882     1.5421493751    -1.0370320493
| 16>  H        1.8727179532     1.3744572376    -0.4539035495
| 17>  H        1.4136047872     1.2002167420     1.3066416383
| 18>  H        0.5142360693    -0.7302736331    -0.9567445146
| 19> *
| 20>
| 21>                          ****END OF INPUT****

CARTESIAN COORDINATES (ANGSTROEM)
---------------------------------
  C     -0.338974    1.150424   -0.071409
  C      1.135587    1.048172    0.270193
  C      0.349948   -0.178950   -0.037070
  O      0.106266   -1.031109    1.076240
  C     -0.913970   -1.859071    0.952588
  N     -1.708000   -2.002344   -0.073822
  O     -2.561642   -2.990244    0.327897
  N     -2.222400   -3.391938    1.607564
  N     -1.232639   -2.716303    1.988734
  H     -1.019108    1.374423    0.742068
  H     -0.636473    1.542149   -1.037032
  H      1.872718    1.374457   -0.453904
  H      1.413605    1.200217    1.306642
  H      0.514236   -0.730274   -0.956745

 Total Charge           Charge          ....    0
 Multiplicity           Mult            ....    1
 Number of Electrons    NEL             ....   66
 Basis Dimension        Dim             ....  309

ORBITAL ENERGIES
----------------

  NO   OCC          E(Eh)            E(eV)
   0   2.0000     -20.700166      -563.2802
   1   2.0000     -20.638217      -561.5944
   2   2.0000     -15.735956      -428.1971
   3   2.0000     -15.656030      -426.0222
   4   2.0000     -15.654172      -425.9717
   5   2.0000     -11.394500      -310.0601
   6   2.0000     -11.318203      -307.9840
   7   2.0000     -11.251542      -306.1700
   8   2.0000     -11.250661      -306.1460
   9   2.0000      -1.589816       -43.2611
  10   2.0000      -1.476732       -40.1839
  11   2.0000      -1.344718       -36.5916
  12   2.0000      -1.211602       -32.9694
  13   2.0000      -1.159893       -31.5623
  14   2.0000      -0.963325       -26.2134
  15   2.0000      -0.902989       -24.5716
  16   2.0000      -0.853574       -23.2269
  17   2.0000      -0.837007       -22.7761
  18   2.0000      -0.777880       -21.1672
  19   2.0000      -0.733830       -19.9685
  20   2.0000      -0.701945       -19.1009
  21   2.0000      -0.687734       -18.7142
  22   2.0000      -0.654486       -17.8095
  23   2.0000      -0.623029       -16.9535
  24   2.0000      -0.602900       -16.4057
  25   2.0000      -0.565110       -15.3774
  26   2.0000      -0.541106       -14.7242
  27   2.0000      -0.523181       -14.2365
  28   2.0000      -0.511099       -13.9077
  29   2.0000      -0.506400       -13.7799
  30   2.0000      -0.455713       -12.4006
  31   2.0000      -0.452524       -12.3138
  32   2.0000      -0.413301       -11.2465
  33   0.0000       0.075209         2.0465
  34   0.0000       0.145559         3.9609
  35   0.0000       0.158755         4.3199
  36   0.0000       0.167637         4.5616
  37   0.0000       0.179337         4.8800

MULLIKEN ATOMIC CHARGES
-----------------------
   0 C :   -0.257585
   1 C :   -0.239397
   2 C :    0.002195
   3 O :   -0.224564
   4 C :    0.247207
   5 N :   -0.144349
   6 O :   -0.002092
   7 N :    0.000834
   8 N :   -0.106380
   9 H :    0.148988
  10 H :    0.142595
  11 H :    0.143379
  12 H :    0.151327
  13 H :    0.137843
Sum of atomic charges:   -0.0000000

LOEWDIN ATOMIC CHARGES
----------------------
   0 C :   -0.218326
   1 C :   -0.214903
   2 C :   -0.273559
   3 O :    0.310730
   4 C :   -0.512755
   5 N :    0.017892
   6 O :    0.183506
   7 N :   -0.042954
   8 N :    0.046539
   9 H :    0.142218
  10 H :    0.137261
  11 H :    0.137218
  12 H :    0.143924
  13 H :    0.143208

  Mayer bond orders larger than 0.1
B(  0-C ,  1-C ) :   0.8980 B(  0-C ,  2-C ) :   0.9145 B(  0-C ,  9-H ) :   0.9205
B(  0-C , 10-H ) :   0.9210 B(  1-C ,  2-C ) :   0.8954 B(  1-C , 11-H ) :   0.9260
B(  1-C , 12-H ) :   0.9212 B(  2-C ,  3-O ) :   0.8514 B(  2-C , 13-H ) :   0.9252
B(  3-O ,  4-C ) :   1.1542 B(  4-C ,  5-N ) :   1.4994 B(  4-C ,  8-N ) :   1.2376
B(  5-N ,  6-O ) :   0.9254 B(  5-N ,  7-N ) :   0.1310 B(  6-O ,  7-N ) :   0.9458
B(  7-N ,  8-N ) :   1.4163

MP2 TOTAL ENERGY:     -469.160046046 Eh
FINAL SINGLE POINT ENERGY      -469.160046046014

DIPOLE MOMENT
-------------
                                X             Y             Z
Electronic contribution:     -5.25105      -9.64536       2.89271
Nuclear contribution   :      5.92221      10.74348      -3.49401
                        -----------------------------------------
Total Dipole Moment    :      0.67116       1.09812      -0.60130
                        -----------------------------------------
Magnitude (a.u.)       :      1.42052
Magnitude (Debye)      :      3.61069

                             ****ORCA TERMINATED NORMALLY****
TOTAL RUN TIME: 0 days 0 hours 13 minutes 50 seconds 384 msec
