                         Program Version 3.0.3 - RELEASE   -
|  1> ! RI-MP2 RIJK def2-TZVP def2-TZVP/C def2-TZVP/JK TIGHTSCF
|  2> % maxcore 2000
|  3> % mp2 density relaxed end
|  4> *xyz 0 1
|  5>  C        0.0885141555     1.5171098173     0.0023531974
|  6>  C       -0.0284642737     0.0271622789     0.0263453287
|  7>  C       -1.1402062801    -0.7618570145     0.0257004464
|  8>  C       -0.7128076344    -2.2161400131     0.1091610236
|  9>  C        0.8088368601    -2.1378409341    -0.1639152558
| 10>  N        1.1220139781    -0.7230801210     0.1046124346
| 11>  C       -2.5141687729    -0.3425377070     0.0231977318
| 12>  O       -3.4681085688    -1.1038013128     0.0516163355
| 13>  H        0.6215221134     1.8709569783     0.8918824243
| 14>  H        0.6619678561     1.8464910554    -0.8726905412
| 15>  H       -0.8885034536     1.9983213700    -0.0297878285
| 16>  H       -0.9191779105    -2.6246674962     1.1059901083
| 17>  H       -1.2377294687    -2.8529041944    -0.6065317317
| 18>  H        1.3994848718    -2.7952150960     0.4792183121
| 19>  H        1.0371527535    -2.3889628812    -1.2090998357
| 20>  H        1.9825849763    -0.3360221432    -0.2534542043
| 21>  H       -2.6791157019     0.7585408435    -0.0166037754
| 22> *
| 23>
| 24>                          ****END OF INPUT****

CARTESIAN COORDINATES (ANGSTROEM)
---------------------------------
  C      0.088514    1.517110    0.002353
  C     -0.028464    0.027162    0.026345
  C     -1.140206   -0.761857    0.025700
  C     -0.712808   -2.216140    0.109161
  C      0.808837   -2.137841   -0.163915
  N      1.122014   -0.723080    0.104612
  C     -2.514169   -0.342538    0.023198
  O     -3.468109   -1.103801    0.051616
  H      0.621522    1.870957    0.891882
  H      0.661968    1.846491   -0.872691
  H     -0.888503    1.998321   -0.029788
  H     -0.919178   -2.624667    1.105990
  H     -1.237729   -2.852904   -0.606532
  H      1.399485   -2.795215    0.479218
  H      1.037153   -2.388963   -1.209100
  H      1.982585   -0.336022   -0.253454
  H     -2.679116    0.758541   -0.016604

 Total Charge           Charge          ....    0
 Multiplicity           Mult            ....    1
 Number of Electrons    NEL             ....   60
 Basis Dimension        Dim             ....  302

ORBITAL ENERGIES
----------------

  NO   OCC          E(Eh)            E(eV)
   0   2.0000     -20.518452      -558.3355
   1   2.0000     -15.583524      -424.0492
   2   2.0000     -11.308432      -307.7181
   3   2.0000     -11.306192      -307.6571
   4   2.0000     -11.269254      -306.6520
   5   2.0000     -11.252600      -306.1988
   6   2.0000     -11.227835      -305.5249
   7   2.0000     -11.212282      -305.1017
   8   2.0000      -1.354881       -36.8682
   9   2.0000      -1.276044       -34.7229
  10   2.0000      -1.065144       -28.9840
  11   2.0000      -1.044918       -28.4337
  12   2.0000      -0.950863       -25.8743
  13   2.0000      -0.864588       -23.5266
  14   2.0000      -0.824817       -22.4444
  15   2.0000      -0.720514       -19.6062
  16   2.0000      -0.696172       -18.9438
  17   2.0000      -0.660405       -17.9705
  18   2.0000      -0.656521       -17.8648
  19   2.0000      -0.599587       -16.3156
  20   2.0000      -0.595949       -16.2166
  21   2.0000      -0.586223       -15.9519
  22   2.0000      -0.551385       -15.0040
  23   2.0000      -0.539541       -14.6817
  24   2.0000      -0.520785       -14.1713
  25   2.0000      -0.506081       -13.7712
  26   2.0000      -0.500363       -13.6156
  27   2.0000      -0.459676       -12.5084
  28   2.0000      -0.403182       -10.9711
  29   2.0000      -0.308497        -8.3946
  30   0.0000       0.109440         2.9780
  31   0.0000       0.118460         3.2235
  32   0.0000       0.147310         4.0085
  33   0.0000       0.163962         4.4616
  34   0.0000       0.187724         5.1082

MULLIKEN ATOMIC CHARGES
-----------------------
   0 C :   -0.436562
   1 C :    0.132123
   2 C :   -0.020507
   3 C :   -0.227897
   4 C :   -0.110322
   5 N :   -0.315720
   6 C :    0.066507
   7 O :   -0.327088
   8 H :    0.157581
   9 H :    0.145528
  10 H :    0.147343
  11 H :    0.121618
  12 H :    0.140220
  13 H :    0.127910
  14 H :    0.115249
  15 H :    0.232813
  16 H :    0.051204
Sum of atomic charges:    0.0000000

LOEWDIN ATOMIC CHARGES
----------------------
   0 C :   -0.260889
   1 C :   -0.212944
   2 C :   -0.189587
   3 C :   -0.199444
   4 C :   -0.246681
   5 N :    0.097226
   6 C :   -0.311979
   7 O :    0.084836
   8 H :    0.138610
   9 H :    0.135030
  10 H :    0.134419
  11 H :    0.144095
  12 H :    0.144911
  13 H :    0.127488
  14 H :    0.125863
  15 H :    0.178387
  16 H :    0.110660

  Mayer bond orders larger than 0.1
B(  0-C ,  1-C ) :   0.8652 B(  0-C ,  8-H ) :   0.9287 B(  0-C ,  9-H ) :   0.9278
B(  0-C , 10-H ) :   0.9498 B(  1-C ,  2-C ) :   1.4942 B(  1-C ,  5-N ) :   1.1958
B(  2-C ,  3-C ) :   0.9231 B(  2-C ,  6-C ) :   0.9378 B(  2-C ,  7-O ) :  -0.1144
B(  2-C , 16-H ) :  -0.1290 B(  3-C ,  4-C ) :   0.9708 B(  3-C , 11-H ) :   0.9127
B(  3-C , 12-H ) :   0.9330 B(  4-C ,  5-N ) :   0.8738 B(  4-C , 13-H ) :   0.9321
B(  4-C , 14-H ) :   0.9333 B(  5-N , 15-H ) :   0.8720 B(  6-C ,  7-O ) :   1.9574
B(  6-C , 16-H ) :   1.0025

MP2 TOTAL ENERGY:     -363.268332862 Eh
FINAL SINGLE POINT ENERGY      -363.268332861521

DIPOLE MOMENT
-------------
                                X             Y             Z
Electronic contribution:     -4.15286      -1.21320       0.35823
Nuclear contribution   :      6.16447       1.77933      -0.63428
                        -----------------------------------------
Total Dipole Moment    :      2.01161       0.56613      -0.27605
                        -----------------------------------------
Magnitude (a.u.)       :      2.10791
Magnitude (Debye)      :      5.35788

                             ****ORCA TERMINATED NORMALLY****
TOTAL RUN TIME: 0 days 0 hours 12 minutes 58 seconds 887 msec
