                         Program Version 3.0.3 - RELEASE   -
|  1> ! RI-MP2 RIJK def2-TZVP def2-TZVP/C def2-TZVP/JK TIGHTSCF
|  2> % maxcore 2000
|  3> % mp2 density relaxed end
|  4> *xyz 0 1
|  5>  C        0.0255781608     1.5569693674    -0.0444660798
|  6>  C       -0.0183395930     0.0277735824     0.0192761154
|  7>  N        0.6633260207    -0.6522641803    -1.0774725160
|  8>  C        1.8125367181    -1.2996095281    -0.6382456986
|  9>  N        2.7538084369    -1.8751260209    -1.2710754944
| 10>  N        1.7823742768    -1.2563319417     0.7604092003
| 11>  C        2.7636794687    -1.9203702646     1.5943988742
| 12>  C        0.7387695590    -0.5013937809     1.2434209470
| 13>  O        0.4790985038    -0.2836049437     2.4041430814
| 14>  H        1.0570276543     1.9161840096    -0.1152301444
| 15>  H       -0.5330621512     1.9260352187    -0.9102455625
| 16>  H       -0.4255726183     1.9708132249     0.8609217843
| 17>  H       -1.0617339867    -0.3025664375     0.0954435062
| 18>  H        0.6973396107    -0.2154071056    -1.9850703758
| 19>  H        2.6057086541    -1.8261051978    -2.2771824011
| 20>  H        3.7636447491    -1.5279597728     1.3931975747
| 21>  H        2.4853148981    -1.7323257952     2.6319313608
| 22>  H        2.7691086083    -2.9939037739     1.3906314183
| 23> *
| 24>
| 25>                          ****END OF INPUT****

CARTESIAN COORDINATES (ANGSTROEM)
---------------------------------
  C      0.025578    1.556969   -0.044466
  C     -0.018340    0.027774    0.019276
  N      0.663326   -0.652264   -1.077473
  C      1.812537   -1.299610   -0.638246
  N      2.753808   -1.875126   -1.271075
  N      1.782374   -1.256332    0.760409
  C      2.763679   -1.920370    1.594399
  C      0.738770   -0.501394    1.243421
  O      0.479099   -0.283605    2.404143
  H      1.057028    1.916184   -0.115230
  H     -0.533062    1.926035   -0.910246
  H     -0.425573    1.970813    0.860922
  H     -1.061734   -0.302566    0.095444
  H      0.697340   -0.215407   -1.985070
  H      2.605709   -1.826105   -2.277182
  H      3.763645   -1.527960    1.393198
  H      2.485315   -1.732326    2.631931
  H      2.769109   -2.993904    1.390631

 Total Charge           Charge          ....    0
 Multiplicity           Mult            ....    1
 Number of Electrons    NEL             ....   68
 Basis Dimension        Dim             ....  333

ORBITAL ENERGIES
----------------

  NO   OCC          E(Eh)            E(eV)
   0   2.0000     -20.538918      -558.8924
   1   2.0000     -15.611362      -424.8067
   2   2.0000     -15.594691      -424.3531
   3   2.0000     -15.527743      -422.5314
   4   2.0000     -11.365853      -309.2806
   5   2.0000     -11.360081      -309.1235
   6   2.0000     -11.298017      -307.4347
   7   2.0000     -11.261638      -306.4448
   8   2.0000     -11.244342      -305.9741
   9   2.0000      -1.410137       -38.3718
  10   2.0000      -1.340559       -36.4785
  11   2.0000      -1.219096       -33.1733
  12   2.0000      -1.183289       -32.1989
  13   2.0000      -1.040655       -28.3177
  14   2.0000      -0.981992       -26.7214
  15   2.0000      -0.902412       -24.5559
  16   2.0000      -0.845814       -23.0158
  17   2.0000      -0.777616       -21.1600
  18   2.0000      -0.708024       -19.2663
  19   2.0000      -0.691489       -18.8164
  20   2.0000      -0.659041       -17.9334
  21   2.0000      -0.647731       -17.6256
  22   2.0000      -0.632376       -17.2078
  23   2.0000      -0.618692       -16.8355
  24   2.0000      -0.593288       -16.1442
  25   2.0000      -0.566382       -15.4120
  26   2.0000      -0.553453       -15.0602
  27   2.0000      -0.548216       -14.9177
  28   2.0000      -0.533318       -14.5123
  29   2.0000      -0.520576       -14.1656
  30   2.0000      -0.447411       -12.1747
  31   2.0000      -0.432830       -11.7779
  32   2.0000      -0.405062       -11.0223
  33   2.0000      -0.370640       -10.0856
  34   0.0000       0.116053         3.1579
  35   0.0000       0.143480         3.9043
  36   0.0000       0.156942         4.2706
  37   0.0000       0.169732         4.6186
  38   0.0000       0.170909         4.6507

MULLIKEN ATOMIC CHARGES
-----------------------
   0 C :   -0.432291
   1 C :    0.079352
   2 N :   -0.348171
   3 C :    0.163591
   4 N :   -0.416237
   5 N :   -0.053435
   6 C :   -0.304980
   7 C :    0.171703
   8 O :   -0.339581
   9 H :    0.138550
  10 H :    0.140501
  11 H :    0.155825
  12 H :    0.122597
  13 H :    0.237731
  14 H :    0.208892
  15 H :    0.150922
  16 H :    0.173655
  17 H :    0.151374
Sum of atomic charges:   -0.0000000

LOEWDIN ATOMIC CHARGES
----------------------
   0 C :   -0.283443
   1 C :   -0.260826
   2 N :    0.098244
   3 C :   -0.420845
   4 N :   -0.097521
   5 N :    0.227338
   6 C :   -0.264585
   7 C :   -0.389842
   8 O :    0.108925
   9 H :    0.128905
  10 H :    0.124701
  11 H :    0.138220
  12 H :    0.157881
  13 H :    0.182316
  14 H :    0.162152
  15 H :    0.126958
  16 H :    0.133886
  17 H :    0.127535

  Mayer bond orders larger than 0.1
B(  0-C ,  1-C ) :   0.9163 B(  0-C ,  9-H ) :   0.9274 B(  0-C , 10-H ) :   0.9358
B(  0-C , 11-H ) :   0.9279 B(  1-C ,  2-N ) :   0.9013 B(  1-C ,  7-C ) :   0.9086
B(  1-C , 12-H ) :   0.9057 B(  2-N ,  3-C ) :   1.1184 B(  2-N , 13-H ) :   0.8722
B(  3-C ,  4-N ) :   1.9670 B(  3-C ,  5-N ) :   1.0104 B(  4-N , 14-H ) :   0.8554
B(  5-N ,  6-C ) :   0.8586 B(  5-N ,  7-C ) :   1.1156 B(  6-C , 15-H ) :   0.9301
B(  6-C , 16-H ) :   0.9204 B(  6-C , 17-H ) :   0.9302 B(  7-C ,  8-O ) :   1.9880

MP2 TOTAL ENERGY:     -434.611666573 Eh
FINAL SINGLE POINT ENERGY      -434.611666573351

DIPOLE MOMENT
-------------
                                X             Y             Z
Electronic contribution:     -0.65079      -2.53028       0.83009
Nuclear contribution   :      0.30201       3.09464      -1.85053
                        -----------------------------------------
Total Dipole Moment    :     -0.34878       0.56436      -1.02044
                        -----------------------------------------
Magnitude (a.u.)       :      1.21714
Magnitude (Debye)      :      3.09373

                             ****ORCA TERMINATED NORMALLY****
TOTAL RUN TIME: 0 days 0 hours 16 minutes 30 seconds 54 msec
