                         Program Version 3.0.3 - RELEASE   -
|  1> ! RI-MP2 RIJK def2-TZVP def2-TZVP/C def2-TZVP/JK TIGHTSCF
|  2> % maxcore 2000
|  3> % mp2 density relaxed end
|  4> *xyz 0 1
|  5>  C        0.1267839094     1.4940417348    -0.1929314781
|  6>  C       -0.0739379979    -0.0100949269     0.0240556409
|  7>  C       -1.5628814695    -0.3637721177     0.1125426305
|  8>  O        0.5057046905    -0.7216900050    -1.0986665753
|  9>  C        1.5400074318    -1.5950178765    -0.6788339214
| 10>  C        1.6235440911    -1.4264548191     0.8051494218
| 11>  C        0.7162554552    -0.5335733582     1.2120270876
| 12>  C        0.5206528646    -0.1262137494     2.6055764036
| 13>  O       -0.3005300679     0.6819810849     2.9821905373
| 14>  H        1.1907510742     1.7306110990    -0.2827734435
| 15>  H       -0.3738573322     1.8038351820    -1.1147777345
| 16>  H       -0.2903434250     2.0566731768     0.6458896927
| 17>  H       -2.0695289659    -0.0602062279    -0.8080915642
| 18>  H       -1.6947733494    -1.4420986223     0.2385907018
| 19>  H       -2.0244019874     0.1496952416     0.9596116436
| 20>  H        1.3083219984    -2.6355124514    -0.9606414689
| 21>  H        2.4906097355    -1.3379168284    -1.1747432045
| 22>  H        2.3251122826    -1.9612973730     1.4354120224
| 23>  H        1.2020892018    -0.6275674633     3.3279789481
| 24> *
| 25>
| 26>                          ****END OF INPUT****

CARTESIAN COORDINATES (ANGSTROEM)
---------------------------------
  C      0.126784    1.494042   -0.192931
  C     -0.073938   -0.010095    0.024056
  C     -1.562881   -0.363772    0.112543
  O      0.505705   -0.721690   -1.098667
  C      1.540007   -1.595018   -0.678834
  C      1.623544   -1.426455    0.805149
  C      0.716255   -0.533573    1.212027
  C      0.520653   -0.126214    2.605576
  O     -0.300530    0.681981    2.982191
  H      1.190751    1.730611   -0.282773
  H     -0.373857    1.803835   -1.114778
  H     -0.290343    2.056673    0.645890
  H     -2.069529   -0.060206   -0.808092
  H     -1.694773   -1.442099    0.238591
  H     -2.024402    0.149695    0.959612
  H      1.308322   -2.635512   -0.960641
  H      2.490610   -1.337917   -1.174743
  H      2.325112   -1.961297    1.435412
  H      1.202089   -0.627567    3.327979

 Total Charge           Charge          ....    0
 Multiplicity           Mult            ....    1
 Number of Electrons    NEL             ....   68
 Basis Dimension        Dim             ....  339

ORBITAL ENERGIES
----------------

  NO   OCC          E(Eh)            E(eV)
   0   2.0000     -20.559776      -559.4600
   1   2.0000     -20.556727      -559.3770
   2   2.0000     -11.341129      -308.6078
   3   2.0000     -11.298333      -307.4433
   4   2.0000     -11.295737      -307.3726
   5   2.0000     -11.270281      -306.6799
   6   2.0000     -11.249955      -306.1268
   7   2.0000     -11.211615      -305.0836
   8   2.0000     -11.211600      -305.0832
   9   2.0000      -1.397260       -38.0214
  10   2.0000      -1.384211       -37.6663
  11   2.0000      -1.112331       -30.2681
  12   2.0000      -1.063012       -28.9260
  13   2.0000      -0.947241       -25.7758
  14   2.0000      -0.936727       -25.4896
  15   2.0000      -0.863340       -23.4927
  16   2.0000      -0.806897       -21.9568
  17   2.0000      -0.741647       -20.1812
  18   2.0000      -0.701916       -19.1001
  19   2.0000      -0.662710       -18.0333
  20   2.0000      -0.655637       -17.8408
  21   2.0000      -0.619812       -16.8659
  22   2.0000      -0.601092       -16.3565
  23   2.0000      -0.586797       -15.9676
  24   2.0000      -0.570584       -15.5264
  25   2.0000      -0.558232       -15.1903
  26   2.0000      -0.537891       -14.6367
  27   2.0000      -0.527283       -14.3481
  28   2.0000      -0.501414       -13.6442
  29   2.0000      -0.500508       -13.6195
  30   2.0000      -0.486287       -13.2325
  31   2.0000      -0.438919       -11.9436
  32   2.0000      -0.431521       -11.7423
  33   2.0000      -0.370648       -10.0859
  34   0.0000       0.077451         2.1076
  35   0.0000       0.136880         3.7247
  36   0.0000       0.151690         4.1277
  37   0.0000       0.169030         4.5996
  38   0.0000       0.183416         4.9910

MULLIKEN ATOMIC CHARGES
-----------------------
   0 C :   -0.415282
   1 C :    0.263800
   2 C :   -0.415367
   3 O :   -0.336637
   4 C :    0.022181
   5 C :   -0.175960
   6 C :   -0.026294
   7 C :    0.073055
   8 O :   -0.286527
   9 H :    0.125032
  10 H :    0.137122
  11 H :    0.151584
  12 H :    0.137116
  13 H :    0.125027
  14 H :    0.151603
  15 H :    0.114586
  16 H :    0.114658
  17 H :    0.149969
  18 H :    0.090335
Sum of atomic charges:    0.0000000

LOEWDIN ATOMIC CHARGES
----------------------
   0 C :   -0.260021
   1 C :   -0.327145
   2 C :   -0.260021
   3 O :    0.192503
   4 C :   -0.290421
   5 C :   -0.088984
   6 C :   -0.139663
   7 C :   -0.267550
   8 O :    0.129834
   9 H :    0.127115
  10 H :    0.129512
  11 H :    0.133541
  12 H :    0.129506
  13 H :    0.127113
  14 H :    0.133542
  15 H :    0.131971
  16 H :    0.131982
  17 H :    0.146921
  18 H :    0.120264

  Mayer bond orders larger than 0.1
B(  0-C ,  1-C ) :   0.8869 B(  0-C ,  9-H ) :   0.9334 B(  0-C , 10-H ) :   0.9315
B(  0-C , 11-H ) :   0.9300 B(  1-C ,  2-C ) :   0.8870 B(  1-C ,  3-O ) :   0.8960
B(  1-C ,  6-C ) :   0.9180 B(  2-C , 12-H ) :   0.9315 B(  2-C , 13-H ) :   0.9334
B(  2-C , 14-H ) :   0.9300 B(  3-O ,  4-C ) :   0.9558 B(  4-C ,  5-C ) :   0.9877
B(  4-C , 15-H ) :   0.9082 B(  4-C , 16-H ) :   0.9083 B(  5-C ,  6-C ) :   1.6560
B(  5-C , 17-H ) :   0.9065 B(  6-C ,  7-C ) :   0.8652 B(  7-C ,  8-O ) :   1.9544
B(  7-C , 18-H ) :   0.9806

MP2 TOTAL ENERGY:     -422.337749983 Eh
FINAL SINGLE POINT ENERGY      -422.337749983109

DIPOLE MOMENT
-------------
                                X             Y             Z
Electronic contribution:      1.85581      -1.08416       3.65658
Nuclear contribution   :     -1.05061       0.33626      -3.74774
                        -----------------------------------------
Total Dipole Moment    :      0.80520      -0.74790      -0.09116
                        -----------------------------------------
Magnitude (a.u.)       :      1.10273
Magnitude (Debye)      :      2.80290

                             ****ORCA TERMINATED NORMALLY****
TOTAL RUN TIME: 0 days 0 hours 20 minutes 34 seconds 868 msec
