                         Program Version 3.0.3 - RELEASE   -
|  1> ! RI-MP2 RIJK def2-TZVP def2-TZVP/C def2-TZVP/JK TIGHTSCF
|  2> % maxcore 2000
|  3> % mp2 density relaxed end
|  4> *xyz 0 1
|  5>  C       -0.0137403931     1.4834843787     0.0611921869
|  6>  O        1.3241274810     2.0172411529     0.0497993450
|  7>  C        2.1605006732     1.4177886704    -0.8228419237
|  8>  C        3.2813739290     1.8332940938    -1.4807420471
|  9>  N        3.8384738269     0.7639182977    -2.1671947275
| 10>  C        3.0741561727    -0.2656835875    -1.9245992030
| 11>  N        2.0202614113     0.0675169622    -1.0989867981
| 12>  C        0.9707448991    -0.6760090040    -0.5585787595
| 13>  C       -0.0274304556    -0.0233228761     0.0364570585
| 14>  H       -0.4689197671     1.8731034130     0.9745493110
| 15>  H       -0.5723902207     1.8951785337    -0.7952504446
| 16>  H        3.7229899023     2.8159914458    -1.4940403022
| 17>  H        3.1926193471    -1.2645874942    -2.3170718580
| 18>  H        1.0522936833    -1.7522757712    -0.6409315127
| 19>  H       -0.8541535694    -0.5537445853     0.4906463650
| 20> *
| 21>
| 22>                          ****END OF INPUT****

CARTESIAN COORDINATES (ANGSTROEM)
---------------------------------
  C     -0.013740    1.483484    0.061192
  O      1.324127    2.017241    0.049799
  C      2.160501    1.417789   -0.822842
  C      3.281374    1.833294   -1.480742
  N      3.838474    0.763918   -2.167195
  C      3.074156   -0.265684   -1.924599
  N      2.020261    0.067517   -1.098987
  C      0.970745   -0.676009   -0.558579
  C     -0.027430   -0.023323    0.036457
  H     -0.468920    1.873103    0.974549
  H     -0.572390    1.895179   -0.795250
  H      3.722990    2.815991   -1.494040
  H      3.192619   -1.264587   -2.317072
  H      1.052294   -1.752276   -0.640932
  H     -0.854154   -0.553745    0.490646

 Total Charge           Charge          ....    0
 Multiplicity           Mult            ....    1
 Number of Electrons    NEL             ....   64
 Basis Dimension        Dim             ....  315

ORBITAL ENERGIES
----------------

  NO   OCC          E(Eh)            E(eV)
   0   2.0000     -20.600332      -560.5635
   1   2.0000     -15.630098      -425.3166
   2   2.0000     -15.550182      -423.1420
   3   2.0000     -11.322310      -308.0957
   4   2.0000     -11.312105      -307.8180
   5   2.0000     -11.302181      -307.5480
   6   2.0000     -11.296819      -307.4021
   7   2.0000     -11.253027      -306.2104
   8   2.0000     -11.236023      -305.7477
   9   2.0000      -1.437734       -39.1227
  10   2.0000      -1.342557       -36.5328
  11   2.0000      -1.203070       -32.7372
  12   2.0000      -1.084861       -29.5206
  13   2.0000      -1.004322       -27.3290
  14   2.0000      -0.952414       -25.9165
  15   2.0000      -0.857490       -23.3335
  16   2.0000      -0.829050       -22.5596
  17   2.0000      -0.750354       -20.4182
  18   2.0000      -0.720659       -19.6101
  19   2.0000      -0.692010       -18.8306
  20   2.0000      -0.680265       -18.5110
  21   2.0000      -0.638054       -17.3623
  22   2.0000      -0.624056       -16.9814
  23   2.0000      -0.606015       -16.4905
  24   2.0000      -0.584110       -15.8944
  25   2.0000      -0.573429       -15.6038
  26   2.0000      -0.535384       -14.5685
  27   2.0000      -0.493674       -13.4336
  28   2.0000      -0.455450       -12.3934
  29   2.0000      -0.437615       -11.9081
  30   2.0000      -0.342164        -9.3108
  31   2.0000      -0.306910        -8.3514
  32   0.0000       0.113459         3.0874
  33   0.0000       0.137446         3.7401
  34   0.0000       0.151653         4.1267
  35   0.0000       0.164228         4.4689
  36   0.0000       0.182418         4.9638

MULLIKEN ATOMIC CHARGES
-----------------------
   0 C :   -0.002876
   1 O :   -0.276499
   2 C :    0.177055
   3 C :   -0.149012
   4 N :   -0.279692
   5 C :   -0.011478
   6 N :   -0.011302
   7 C :   -0.098691
   8 C :   -0.196914
   9 H :    0.141800
  10 H :    0.115301
  11 H :    0.139884
  12 H :    0.148783
  13 H :    0.154226
  14 H :    0.149416
Sum of atomic charges:    0.0000000

LOEWDIN ATOMIC CHARGES
----------------------
   0 C :   -0.258500
   1 O :    0.245898
   2 C :   -0.316247
   3 C :   -0.236554
   4 N :    0.091189
   5 C :   -0.293045
   6 N :    0.273584
   7 C :   -0.171772
   8 C :   -0.176774
   9 H :    0.139502
  10 H :    0.134072
  11 H :    0.135750
  12 H :    0.132395
  13 H :    0.150146
  14 H :    0.150354

  Mayer bond orders larger than 0.1
B(  0-C ,  1-O ) :   0.8670 B(  0-C ,  8-C ) :   0.9382 B(  0-C ,  9-H ) :   0.9324
B(  0-C , 10-H ) :   0.9137 B(  1-O ,  2-C ) :   1.0845 B(  2-C ,  3-C ) :   1.4905
B(  2-C ,  6-N ) :   1.0550 B(  3-C ,  4-N ) :   1.2221 B(  3-C , 11-H ) :   0.9435
B(  4-N ,  5-C ) :   1.6137 B(  5-C ,  6-N ) :   1.0836 B(  5-C , 12-H ) :   0.9214
B(  6-N ,  7-C ) :   0.9875 B(  7-C ,  8-C ) :   1.7536 B(  7-C , 13-H ) :   0.9195
B(  8-C , 14-H ) :   0.9129

MP2 TOTAL ENERGY:     -416.119796868 Eh
FINAL SINGLE POINT ENERGY      -416.119796867624

DIPOLE MOMENT
-------------
                                X             Y             Z
Electronic contribution:      3.00697       0.70394      -0.72351
Nuclear contribution   :     -4.56841      -1.40894       1.30028
                        -----------------------------------------
Total Dipole Moment    :     -1.56144      -0.70500       0.57678
                        -----------------------------------------
Magnitude (a.u.)       :      1.80770
Magnitude (Debye)      :      4.59481

                             ****ORCA TERMINATED NORMALLY****
TOTAL RUN TIME: 0 days 0 hours 15 minutes 52 seconds 896 msec
