                         Program Version 3.0.3 - RELEASE   -
|  1> ! RI-MP2 RIJK def2-TZVP def2-TZVP/C def2-TZVP/JK TIGHTSCF
|  2> % maxcore 2000
|  3> % mp2 density relaxed end
|  4> *xyz 0 1
|  5>  C       -0.1446746148     1.5757346210     0.0146145540
|  6>  C        0.0201000795     0.0627834521     0.0250640813
|  7>  C        1.2256129713    -0.6091873565    -0.6860795246
|  8>  C        2.1481394304    -0.2174480995     0.5028956348
|  9>  O        3.1320522083    -1.2418089706     0.7078879565
| 10>  C        2.3969810136    -2.3940034813     0.5205873392
| 11>  N        2.8151781839    -3.5802248157     0.5943388327
| 12>  C        1.0232218329    -1.8830495176     0.2180026774
| 13>  C        0.8059685641    -0.6421302010     1.1635027822
| 14>  H        0.7859406506     2.1064374669     0.2353984441
| 15>  H       -0.4967207762     1.9179787309    -0.9644920143
| 16>  H       -0.8875728272     1.8872989690     0.7567366748
| 17>  H       -0.9332768357    -0.4268179588    -0.1999647907
| 18>  H        1.4812690160    -0.6067955464    -1.7465931944
| 19>  H        2.6000555970     0.7626676174     0.6228832253
| 20>  H        3.8117717439    -3.5955764078     0.8201758195
| 21>  H        0.2253668140    -2.5947045152     0.0243060881
| 22>  H        0.5790494182    -0.6776265268     2.2299465141
| 23> *
| 24>
| 25>                          ****END OF INPUT****

CARTESIAN COORDINATES (ANGSTROEM)
---------------------------------
  C     -0.144675    1.575735    0.014615
  C      0.020100    0.062783    0.025064
  C      1.225613   -0.609187   -0.686080
  C      2.148139   -0.217448    0.502896
  O      3.132052   -1.241809    0.707888
  C      2.396981   -2.394003    0.520587
  N      2.815178   -3.580225    0.594339
  C      1.023222   -1.883050    0.218003
  C      0.805969   -0.642130    1.163503
  H      0.785941    2.106437    0.235398
  H     -0.496721    1.917979   -0.964492
  H     -0.887573    1.887299    0.756737
  H     -0.933277   -0.426818   -0.199965
  H      1.481269   -0.606796   -1.746593
  H      2.600056    0.762668    0.622883
  H      3.811772   -3.595576    0.820176
  H      0.225367   -2.594705    0.024306
  H      0.579049   -0.677627    2.229947

 Total Charge           Charge          ....    0
 Multiplicity           Mult            ....    1
 Number of Electrons    NEL             ....   66
 Basis Dimension        Dim             ....  333

ORBITAL ENERGIES
----------------

  NO   OCC          E(Eh)            E(eV)
   0   2.0000     -20.588451      -560.2402
   1   2.0000     -15.531291      -422.6279
   2   2.0000     -11.330723      -308.3247
   3   2.0000     -11.308123      -307.7097
   4   2.0000     -11.262564      -306.4700
   5   2.0000     -11.262473      -306.4675
   6   2.0000     -11.258950      -306.3716
   7   2.0000     -11.254808      -306.2589
   8   2.0000     -11.228772      -305.5504
   9   2.0000      -1.434936       -39.0466
  10   2.0000      -1.222194       -33.2576
  11   2.0000      -1.190116       -32.3847
  12   2.0000      -1.017881       -27.6979
  13   2.0000      -0.944525       -25.7018
  14   2.0000      -0.885870       -24.1057
  15   2.0000      -0.878691       -23.9104
  16   2.0000      -0.777233       -21.1496
  17   2.0000      -0.743647       -20.2357
  18   2.0000      -0.703833       -19.1523
  19   2.0000      -0.680741       -18.5239
  20   2.0000      -0.641121       -17.4458
  21   2.0000      -0.628412       -17.0999
  22   2.0000      -0.595720       -16.2104
  23   2.0000      -0.577723       -15.7206
  24   2.0000      -0.552497       -15.0342
  25   2.0000      -0.530115       -14.4252
  26   2.0000      -0.495901       -13.4941
  27   2.0000      -0.491930       -13.3861
  28   2.0000      -0.463091       -12.6014
  29   2.0000      -0.452848       -12.3226
  30   2.0000      -0.450249       -12.2519
  31   2.0000      -0.423055       -11.5119
  32   2.0000      -0.386782       -10.5249
  33   0.0000       0.132062         3.5936
  34   0.0000       0.153820         4.1857
  35   0.0000       0.162715         4.4277
  36   0.0000       0.167116         4.5475
  37   0.0000       0.181325         4.9341

MULLIKEN ATOMIC CHARGES
-----------------------
   0 C :   -0.413089
   1 C :   -0.066496
   2 C :   -0.116676
   3 C :    0.038518
   4 O :   -0.278421
   5 C :    0.079098
   6 N :   -0.360794
   7 C :   -0.058969
   8 C :   -0.116689
   9 H :    0.126130
  10 H :    0.137893
  11 H :    0.137893
  12 H :    0.109295
  13 H :    0.142421
  14 H :    0.132975
  15 H :    0.226116
  16 H :    0.138375
  17 H :    0.142420
Sum of atomic charges:   -0.0000000

LOEWDIN ATOMIC CHARGES
----------------------
   0 C :   -0.292527
   1 C :   -0.209859
   2 C :   -0.113162
   3 C :   -0.207883
   4 O :    0.238326
   5 C :   -0.379774
   6 N :   -0.053339
   7 C :   -0.119856
   8 C :   -0.113162
   9 H :    0.124150
  10 H :    0.127822
  11 H :    0.127821
  12 H :    0.148746
  13 H :    0.131834
  14 H :    0.136711
  15 H :    0.170201
  16 H :    0.152117
  17 H :    0.131834

  Mayer bond orders larger than 0.1
B(  0-C ,  1-C ) :   0.9150 B(  0-C ,  9-H ) :   0.9355 B(  0-C , 10-H ) :   0.9376
B(  0-C , 11-H ) :   0.9376 B(  1-C ,  2-C ) :   0.8882 B(  1-C ,  8-C ) :   0.8882
B(  1-C , 12-H ) :   0.9279 B(  2-C ,  3-C ) :   0.8631 B(  2-C ,  7-C ) :   0.8548
B(  2-C , 13-H ) :   0.8954 B(  3-C ,  4-O ) :   0.8916 B(  3-C ,  8-C ) :   0.8631
B(  3-C , 14-H ) :   0.9356 B(  4-O ,  5-C ) :   1.0719 B(  5-C ,  6-N ) :   2.0929
B(  5-C ,  7-C ) :   0.9316 B(  6-N , 15-H ) :   0.8543 B(  7-C ,  8-C ) :   0.8548
B(  7-C , 16-H ) :   0.9328 B(  8-C , 17-H ) :   0.8954

MP2 TOTAL ENERGY:     -401.229398261 Eh
FINAL SINGLE POINT ENERGY      -401.229398260977

DIPOLE MOMENT
-------------
                                X             Y             Z
Electronic contribution:      5.46180      -5.93954       1.13345
Nuclear contribution   :     -6.03615       7.09795      -1.24314
                        -----------------------------------------
Total Dipole Moment    :     -0.57435       1.15841      -0.10968
                        -----------------------------------------
Magnitude (a.u.)       :      1.29763
Magnitude (Debye)      :      3.29830

                             ****ORCA TERMINATED NORMALLY****
TOTAL RUN TIME: 0 days 0 hours 17 minutes 38 seconds 252 msec
