                         Program Version 3.0.3 - RELEASE   -
|  1> ! RI-MP2 RIJK def2-TZVP def2-TZVP/C def2-TZVP/JK TIGHTSCF
|  2> % maxcore 2000
|  3> % mp2 density relaxed end
|  4> *xyz 0 1
|  5>  C        0.1328000965     1.5323198865     0.2507588671
|  6>  O        1.4749519802     1.5271749348    -0.2727941247
|  7>  C        1.3473135711     0.1551030733    -0.7198323568
|  8>  C        2.4520923733    -0.7506498038    -0.2062819526
|  9>  N        2.3099823413    -1.1883815357     1.1767027856
| 10>  C        1.1626072089    -1.1751861160     1.6981995756
| 11>  O       -0.0283970575    -0.7640571867     1.1806931679
| 12>  C       -0.0166932382     0.0211749475    -0.0061990959
| 13>  H        0.0909667250     1.8277122317     1.3044185059
| 14>  H       -0.5411774866     2.1656222435    -0.3401784706
| 15>  H        1.2745952982     0.1095770208    -1.8145389382
| 16>  H        2.5050293252    -1.6464264365    -0.8404379525
| 17>  H        3.4118255052    -0.2337336178    -0.3164363267
| 18>  H        1.0031993588    -1.5512448541     2.7069464663
| 19>  H       -0.8701958915    -0.3028144975    -0.6019226505
| 20> *
| 21>
| 22>                          ****END OF INPUT****

CARTESIAN COORDINATES (ANGSTROEM)
---------------------------------
  C      0.132800    1.532320    0.250759
  O      1.474952    1.527175   -0.272794
  C      1.347314    0.155103   -0.719832
  C      2.452092   -0.750650   -0.206282
  N      2.309982   -1.188382    1.176703
  C      1.162607   -1.175186    1.698200
  O     -0.028397   -0.764057    1.180693
  C     -0.016693    0.021175   -0.006199
  H      0.090967    1.827712    1.304419
  H     -0.541177    2.165622   -0.340178
  H      1.274595    0.109577   -1.814539
  H      2.505029   -1.646426   -0.840438
  H      3.411826   -0.233734   -0.316436
  H      1.003199   -1.551245    2.706946
  H     -0.870196   -0.302814   -0.601923

 Total Charge           Charge          ....    0
 Multiplicity           Mult            ....    1
 Number of Electrons    NEL             ....   60
 Basis Dimension        Dim             ....  290

ORBITAL ENERGIES
----------------

  NO   OCC          E(Eh)            E(eV)
   0   2.0000     -20.603426      -560.6477
   1   2.0000     -20.559880      -559.4628
   2   2.0000     -15.549478      -423.1228
   3   2.0000     -11.335414      -308.4523
   4   2.0000     -11.308176      -307.7111
   5   2.0000     -11.297922      -307.4321
   6   2.0000     -11.289942      -307.2149
   7   2.0000     -11.261290      -306.4353
   8   2.0000      -1.440060       -39.1860
   9   2.0000      -1.386536       -37.7295
  10   2.0000      -1.222797       -33.2740
  11   2.0000      -1.047578       -28.5060
  12   2.0000      -0.992556       -27.0088
  13   2.0000      -0.898273       -24.4432
  14   2.0000      -0.862093       -23.4588
  15   2.0000      -0.739584       -20.1251
  16   2.0000      -0.711794       -19.3689
  17   2.0000      -0.701708       -19.0944
  18   2.0000      -0.680179       -18.5086
  19   2.0000      -0.633218       -17.2307
  20   2.0000      -0.614869       -16.7314
  21   2.0000      -0.597548       -16.2601
  22   2.0000      -0.574459       -15.6318
  23   2.0000      -0.566771       -15.4226
  24   2.0000      -0.558751       -15.2044
  25   2.0000      -0.474195       -12.9035
  26   2.0000      -0.466822       -12.7029
  27   2.0000      -0.447171       -12.1681
  28   2.0000      -0.403814       -10.9883
  29   2.0000      -0.392470       -10.6797
  30   0.0000       0.134960         3.6724
  31   0.0000       0.157178         4.2770
  32   0.0000       0.169324         4.6075
  33   0.0000       0.179423         4.8824
  34   0.0000       0.181027         4.9260

MULLIKEN ATOMIC CHARGES
-----------------------
   0 C :   -0.034698
   1 O :   -0.327790
   2 C :    0.018283
   3 C :   -0.098459
   4 N :   -0.268986
   5 C :    0.083768
   6 O :   -0.274009
   7 C :    0.053778
   8 H :    0.113641
   9 H :    0.103965
  10 H :    0.099790
  11 H :    0.124590
  12 H :    0.138580
  13 H :    0.137625
  14 H :    0.129921
Sum of atomic charges:    0.0000000

LOEWDIN ATOMIC CHARGES
----------------------
   0 C :   -0.252280
   1 O :    0.137441
   2 C :   -0.268363
   3 C :   -0.274578
   4 N :    0.073425
   5 C :   -0.352959
   6 O :    0.239732
   7 C :   -0.252867
   8 H :    0.125405
   9 H :    0.121125
  10 H :    0.140515
  11 H :    0.144372
  12 H :    0.146482
  13 H :    0.134249
  14 H :    0.138301

  Mayer bond orders larger than 0.1
B(  0-C ,  1-O ) :   0.9451 B(  0-C ,  7-C ) :   0.9532 B(  0-C ,  8-H ) :   0.9008
B(  0-C ,  9-H ) :   0.9178 B(  1-O ,  2-C ) :   0.9557 B(  2-C ,  3-C ) :   0.9337
B(  2-C ,  7-C ) :   0.9405 B(  2-C , 10-H ) :   0.9155 B(  3-C ,  4-N ) :   0.9153
B(  3-C , 11-H ) :   0.9171 B(  3-C , 12-H ) :   0.9246 B(  4-N ,  5-C ) :   1.8517
B(  5-C ,  6-O ) :   1.0427 B(  5-C , 13-H ) :   0.9282 B(  6-O ,  7-C ) :   0.8930
B(  7-C , 14-H ) :   0.9307

MP2 TOTAL ENERGY:     -399.129004455 Eh
FINAL SINGLE POINT ENERGY      -399.129004454910

DIPOLE MOMENT
-------------
                                X             Y             Z
Electronic contribution:     -0.11428      -0.79354       1.82842
Nuclear contribution   :     -0.72048       0.74019      -2.41661
                        -----------------------------------------
Total Dipole Moment    :     -0.83477      -0.05335      -0.58820
                        -----------------------------------------
Magnitude (a.u.)       :      1.02257
Magnitude (Debye)      :      2.59918

                             ****ORCA TERMINATED NORMALLY****
TOTAL RUN TIME: 0 days 0 hours 11 minutes 32 seconds 721 msec
