                         Program Version 3.0.3 - RELEASE   -
|  1> ! RI-MP2 RIJK def2-TZVP def2-TZVP/C def2-TZVP/JK TIGHTSCF
|  2> % maxcore 2000
|  3> % mp2 density relaxed end
|  4> *xyz 0 1
|  5>  N       -0.1390961703     1.3141866694     0.0078450154
|  6>  C       -0.0605697653     0.0547144811     0.0005809260
|  7>  C       -1.2555780066    -0.8737301729     0.0035711440
|  8>  C       -0.6939330164    -2.2841217962    -0.0079545706
|  9>  O       -1.3071477070    -3.3156349211    -0.0097438301
| 10>  C        0.8370519344    -2.1919992722    -0.0172590856
| 11>  N        1.1156878445    -0.7583827404    -0.0116752479
| 12>  C        2.4028390893    -0.2757282591    -0.0182397236
| 13>  O        2.7169540946     0.8933344840    -0.0142647131
| 14>  H        0.7894467601     1.7373760824     0.0038735789
| 15>  H       -1.8833346270    -0.7154454927     0.8860653400
| 16>  H       -1.8952116818    -0.7057939247    -0.8685462631
| 17>  H        1.2416729658    -2.7018967259     0.8646020706
| 18>  H        1.2305009727    -2.6928505278    -0.9092805965
| 19>  H        3.1478638930    -1.0946259938    -0.0279062343
| 20> *
| 21>
| 22>                          ****END OF INPUT****

CARTESIAN COORDINATES (ANGSTROEM)
---------------------------------
  N     -0.139096    1.314187    0.007845
  C     -0.060570    0.054714    0.000581
  C     -1.255578   -0.873730    0.003571
  C     -0.693933   -2.284122   -0.007955
  O     -1.307148   -3.315635   -0.009744
  C      0.837052   -2.191999   -0.017259
  N      1.115688   -0.758383   -0.011675
  C      2.402839   -0.275728   -0.018240
  O      2.716954    0.893334   -0.014265
  H      0.789447    1.737376    0.003874
  H     -1.883335   -0.715445    0.886065
  H     -1.895212   -0.705794   -0.868546
  H      1.241673   -2.701897    0.864602
  H      1.230501   -2.692851   -0.909281
  H      3.147864   -1.094626   -0.027906

 Total Charge           Charge          ....    0
 Multiplicity           Mult            ....    1
 Number of Electrons    NEL             ....   66
 Basis Dimension        Dim             ....  315

ORBITAL ENERGIES
----------------

  NO   OCC          E(Eh)            E(eV)
   0   2.0000     -20.580942      -560.0359
   1   2.0000     -20.564707      -559.5941
   2   2.0000     -15.636644      -425.4947
   3   2.0000     -15.548373      -423.0927
   4   2.0000     -11.386365      -309.8387
   5   2.0000     -11.369098      -309.3689
   6   2.0000     -11.344104      -308.6888
   7   2.0000     -11.315499      -307.9104
   8   2.0000     -11.270416      -306.6836
   9   2.0000      -1.429209       -38.8908
  10   2.0000      -1.423595       -38.7380
  11   2.0000      -1.319518       -35.9059
  12   2.0000      -1.205760       -32.8104
  13   2.0000      -1.084587       -29.5131
  14   2.0000      -1.003166       -27.2975
  15   2.0000      -0.908878       -24.7318
  16   2.0000      -0.802695       -21.8424
  17   2.0000      -0.771910       -21.0047
  18   2.0000      -0.737866       -20.0784
  19   2.0000      -0.703916       -19.1545
  20   2.0000      -0.687665       -18.7123
  21   2.0000      -0.656695       -17.8696
  22   2.0000      -0.646400       -17.5894
  23   2.0000      -0.632317       -17.2062
  24   2.0000      -0.624447       -16.9921
  25   2.0000      -0.596652       -16.2357
  26   2.0000      -0.590279       -16.0623
  27   2.0000      -0.535285       -14.5658
  28   2.0000      -0.490057       -13.3351
  29   2.0000      -0.482436       -13.1278
  30   2.0000      -0.452944       -12.3252
  31   2.0000      -0.422367       -11.4932
  32   2.0000      -0.396166       -10.7802
  33   0.0000       0.080463         2.1895
  34   0.0000       0.114747         3.1224
  35   0.0000       0.135122         3.6769
  36   0.0000       0.142467         3.8767
  37   0.0000       0.165566         4.5053

MULLIKEN ATOMIC CHARGES
-----------------------
   0 N :   -0.342209
   1 C :   -0.023258
   2 C :   -0.092752
   3 C :    0.106531
   4 O :   -0.251182
   5 C :   -0.169593
   6 N :   -0.068833
   7 C :    0.170248
   8 O :   -0.339491
   9 H :    0.253369
  10 H :    0.165468
  11 H :    0.165464
  12 H :    0.158240
  13 H :    0.158252
  14 H :    0.109746
Sum of atomic charges:   -0.0000000

LOEWDIN ATOMIC CHARGES
----------------------
   0 N :   -0.018265
   1 C :   -0.317426
   2 C :   -0.175422
   3 C :   -0.308973
   4 O :    0.174941
   5 C :   -0.207085
   6 N :    0.197828
   7 C :   -0.374401
   8 O :    0.091179
   9 H :    0.170852
  10 H :    0.171871
  11 H :    0.171867
  12 H :    0.150404
  13 H :    0.150399
  14 H :    0.122232

  Mayer bond orders larger than 0.1
B(  0-N ,  1-C ) :   2.0373 B(  0-N ,  9-H ) :   0.8452 B(  1-C ,  2-C ) :   0.9096
B(  1-C ,  6-N ) :   0.9575 B(  2-C ,  3-C ) :   0.8989 B(  2-C , 10-H ) :   0.8880
B(  2-C , 11-H ) :   0.8880 B(  3-C ,  4-O ) :   2.0371 B(  3-C ,  5-C ) :   0.9236
B(  5-C ,  6-N ) :   0.8752 B(  5-C , 12-H ) :   0.9024 B(  5-C , 13-H ) :   0.9024
B(  6-N ,  7-C ) :   1.0645 B(  7-C ,  8-O ) :   1.8672 B(  7-C , 14-H ) :   0.9302

MP2 TOTAL ENERGY:     -453.256175557 Eh
FINAL SINGLE POINT ENERGY      -453.256175557265

DIPOLE MOMENT
-------------
                                X             Y             Z
Electronic contribution:      0.31101       0.13021      -0.00233
Nuclear contribution   :      0.08226      -1.14425      -0.00518
                        -----------------------------------------
Total Dipole Moment    :      0.39327      -1.01404      -0.00751
                        -----------------------------------------
Magnitude (a.u.)       :      1.08765
Magnitude (Debye)      :      2.76459

                             ****ORCA TERMINATED NORMALLY****
TOTAL RUN TIME: 0 days 0 hours 14 minutes 30 seconds 720 msec
