                         Program Version 3.0.3 - RELEASE   -
|  1> ! RI-MP2 RIJK def2-TZVP def2-TZVP/C def2-TZVP/JK TIGHTSCF
|  2> % maxcore 2000
|  3> % mp2 density relaxed end
|  4> *xyz 0 1
|  5>  O       -0.0257844911     1.3251261314     0.0096741694
|  6>  C        0.0175461057     0.0017056934     0.0023011843
|  7>  N        1.0884948160    -0.7317780292    -0.0065833975
|  8>  O        0.6393550469    -2.0892353798    -0.0118974251
|  9>  C       -0.7034210344    -2.0531612659    -0.0055584028
| 10>  N       -1.6751990931    -2.9129607295    -0.0057925456
| 11>  N       -2.8304463977    -2.1253260290     0.0037660183
| 12>  C       -2.5092339198    -0.8590768356     0.0091271445
| 13>  N       -1.1286436416    -0.7511997539     0.0034568316
| 14>  H        0.8823238125     1.6609093322     0.0073375128
| 15>  H       -3.1838903833    -0.0204567142     0.0167481102
| 16> *
| 17>
| 18>                          ****END OF INPUT****

CARTESIAN COORDINATES (ANGSTROEM)
---------------------------------
  O     -0.025784    1.325126    0.009674
  C      0.017546    0.001706    0.002301
  N      1.088495   -0.731778   -0.006583
  O      0.639355   -2.089235   -0.011897
  C     -0.703421   -2.053161   -0.005558
  N     -1.675199   -2.912961   -0.005793
  N     -2.830446   -2.125326    0.003766
  C     -2.509234   -0.859077    0.009127
  N     -1.128644   -0.751200    0.003457
  H      0.882324    1.660909    0.007338
  H     -3.183890   -0.020457    0.016748

 Total Charge           Charge          ....    0
 Multiplicity           Mult            ....    1
 Number of Electrons    NEL             ....   64
 Basis Dimension        Dim             ....  291

ORBITAL ENERGIES
----------------

  NO   OCC          E(Eh)            E(eV)
   0   2.0000     -20.677503      -562.6635
   1   2.0000     -20.674159      -562.5725
   2   2.0000     -15.680789      -426.6960
   3   2.0000     -15.657738      -426.0687
   4   2.0000     -15.618769      -425.0083
   5   2.0000     -15.597123      -424.4193
   6   2.0000     -11.446506      -311.4753
   7   2.0000     -11.393293      -310.0273
   8   2.0000     -11.339451      -308.5621
   9   2.0000      -1.551905       -42.2295
  10   2.0000      -1.500036       -40.8181
  11   2.0000      -1.413187       -38.4548
  12   2.0000      -1.289127       -35.0789
  13   2.0000      -1.187705       -32.3191
  14   2.0000      -1.118815       -30.4445
  15   2.0000      -0.954636       -25.9770
  16   2.0000      -0.903632       -24.5891
  17   2.0000      -0.863433       -23.4952
  18   2.0000      -0.797709       -21.7068
  19   2.0000      -0.751146       -20.4397
  20   2.0000      -0.746297       -20.3078
  21   2.0000      -0.695494       -18.9253
  22   2.0000      -0.667032       -18.1509
  23   2.0000      -0.659163       -17.9367
  24   2.0000      -0.612392       -16.6640
  25   2.0000      -0.604888       -16.4598
  26   2.0000      -0.559982       -15.2379
  27   2.0000      -0.506049       -13.7703
  28   2.0000      -0.501076       -13.6350
  29   2.0000      -0.458660       -12.4808
  30   2.0000      -0.420124       -11.4322
  31   2.0000      -0.375325       -10.2131
  32   0.0000       0.100456         2.7336
  33   0.0000       0.107453         2.9240
  34   0.0000       0.151312         4.1174
  35   0.0000       0.165565         4.5053
  36   0.0000       0.179088         4.8732

MULLIKEN ATOMIC CHARGES
-----------------------
   0 O :   -0.390724
   1 C :    0.292340
   2 N :   -0.141921
   3 O :   -0.127961
   4 C :    0.262620
   5 N :   -0.182805
   6 N :   -0.152724
   7 C :   -0.004804
   8 N :   -0.100640
   9 H :    0.369301
  10 H :    0.177318
Sum of atomic charges:   -0.0000000

LOEWDIN ATOMIC CHARGES
----------------------
   0 O :    0.131219
   1 C :   -0.464825
   2 N :    0.040681
   3 O :    0.260187
   4 C :   -0.424678
   5 N :    0.037091
   6 N :    0.051737
   7 C :   -0.282225
   8 N :    0.285746
   9 H :    0.223102
  10 H :    0.141965

  Mayer bond orders larger than 0.1
B(  0-O ,  1-C ) :   1.1776 B(  0-O ,  9-H ) :   0.7996 B(  1-C ,  2-N ) :   1.6540
B(  1-C ,  8-N ) :   1.0637 B(  2-N ,  3-O ) :   0.8125 B(  3-O ,  4-C ) :   1.1124
B(  4-C ,  5-N ) :   1.6737 B(  4-C ,  8-N ) :   1.0534 B(  5-N ,  6-N ) :   0.9929
B(  6-N ,  7-C ) :   1.6244 B(  7-C ,  8-N ) :   1.0547 B(  7-C , 10-H ) :   0.9166

MP2 TOTAL ENERGY:     -484.055234659 Eh
FINAL SINGLE POINT ENERGY      -484.055234658592

DIPOLE MOMENT
-------------
                                X             Y             Z
Electronic contribution:      1.32275      -1.33342      -0.01325
Nuclear contribution   :     -0.72932       3.58491       0.02273
                        -----------------------------------------
Total Dipole Moment    :      0.59343       2.25148       0.00949
                        -----------------------------------------
Magnitude (a.u.)       :      2.32840
Magnitude (Debye)      :      5.91831

                             ****ORCA TERMINATED NORMALLY****
TOTAL RUN TIME: 0 days 0 hours 14 minutes 12 seconds 36 msec
