                         Program Version 3.0.3 - RELEASE   -
|  1> ! RI-MP2 RIJK def2-TZVP def2-TZVP/C def2-TZVP/JK TIGHTSCF
|  2> % maxcore 2000
|  3> % mp2 density relaxed end
|  4> *xyz 0 1
|  5>  O        0.0247321397     1.4567177752     0.6423196499
|  6>  C       -0.0299360962     0.1470926436     0.0688848758
|  7>  C        0.8888436230    -0.8120890959     0.7862833696
|  8>  C        0.2088989858    -1.6651476567     1.5539285668
|  9>  C       -1.2850842047    -1.4922129853     1.4283080155
| 10>  C       -1.4187718628    -0.5505205191     0.2046320396
| 11>  C       -2.5853132909     0.4488507253     0.2625450024
| 12>  C       -3.8821047857    -0.2148161118     0.3786187950
| 13>  N       -4.8983350656    -0.7573620674     0.4732178794
| 14>  H        0.1622340354     1.3506116517     1.5903197574
| 15>  H        0.2269163936     0.3007570925    -0.9841146052
| 16>  H        1.9678301818    -0.7288188291     0.7251032330
| 17>  H        0.6541351745    -2.4034877767     2.2122771211
| 18>  H       -1.8124671031    -2.4393627554     1.2769933200
| 19>  H       -1.7095822443    -1.0554410969     2.3435724729
| 20>  H       -1.5464095134    -1.1785826698    -0.6833617753
| 21>  H       -2.4546639564     1.1304435151     1.1086517218
| 22>  H       -2.5909881906     1.0766811007    -0.6352868596
| 23> *
| 24>
| 25>                          ****END OF INPUT****

CARTESIAN COORDINATES (ANGSTROEM)
---------------------------------
  O      0.024732    1.456718    0.642320
  C     -0.029936    0.147093    0.068885
  C      0.888844   -0.812089    0.786283
  C      0.208899   -1.665148    1.553929
  C     -1.285084   -1.492213    1.428308
  C     -1.418772   -0.550521    0.204632
  C     -2.585313    0.448851    0.262545
  C     -3.882105   -0.214816    0.378619
  N     -4.898335   -0.757362    0.473218
  H      0.162234    1.350612    1.590320
  H      0.226916    0.300757   -0.984115
  H      1.967830   -0.728819    0.725103
  H      0.654135   -2.403488    2.212277
  H     -1.812467   -2.439363    1.276993
  H     -1.709582   -1.055441    2.343572
  H     -1.546410   -1.178583   -0.683362
  H     -2.454664    1.130444    1.108652
  H     -2.590988    1.076681   -0.635287

 Total Charge           Charge          ....    0
 Multiplicity           Mult            ....    1
 Number of Electrons    NEL             ....   66
 Basis Dimension        Dim             ....  333

ORBITAL ENERGIES
----------------

  NO   OCC          E(Eh)            E(eV)
   0   2.0000     -20.570585      -559.7541
   1   2.0000     -15.565790      -423.5667
   2   2.0000     -11.300879      -307.5126
   3   2.0000     -11.278516      -306.9040
   4   2.0000     -11.270753      -306.6928
   5   2.0000     -11.258522      -306.3600
   6   2.0000     -11.254067      -306.2387
   7   2.0000     -11.246384      -306.0297
   8   2.0000     -11.241835      -305.9059
   9   2.0000      -1.376406       -37.4539
  10   2.0000      -1.216617       -33.1058
  11   2.0000      -1.154786       -31.4233
  12   2.0000      -1.065327       -28.9890
  13   2.0000      -0.969774       -26.3889
  14   2.0000      -0.948035       -25.7973
  15   2.0000      -0.804953       -21.9039
  16   2.0000      -0.771824       -21.0024
  17   2.0000      -0.717330       -19.5196
  18   2.0000      -0.699096       -19.0234
  19   2.0000      -0.664216       -18.0742
  20   2.0000      -0.639861       -17.4115
  21   2.0000      -0.618381       -16.8270
  22   2.0000      -0.592551       -16.1241
  23   2.0000      -0.577742       -15.7212
  24   2.0000      -0.553491       -15.0613
  25   2.0000      -0.545656       -14.8481
  26   2.0000      -0.527970       -14.3668
  27   2.0000      -0.505064       -13.7435
  28   2.0000      -0.497981       -13.5507
  29   2.0000      -0.461892       -12.5687
  30   2.0000      -0.452972       -12.3260
  31   2.0000      -0.440483       -11.9861
  32   2.0000      -0.379637       -10.3305
  33   0.0000       0.111814         3.0426
  34   0.0000       0.134110         3.6493
  35   0.0000       0.143191         3.8964
  36   0.0000       0.158186         4.3045
  37   0.0000       0.168962         4.5977

MULLIKEN ATOMIC CHARGES
-----------------------
   0 O :   -0.470940
   1 C :    0.133130
   2 C :   -0.226522
   3 C :   -0.146005
   4 C :   -0.216839
   5 C :   -0.142418
   6 C :   -0.110410
   7 C :   -0.173859
   8 N :   -0.059558
   9 H :    0.318180
  10 H :    0.114124
  11 H :    0.139346
  12 H :    0.138435
  13 H :    0.149182
  14 H :    0.128030
  15 H :    0.118076
  16 H :    0.147602
  17 H :    0.160445
Sum of atomic charges:    0.0000000

LOEWDIN ATOMIC CHARGES
----------------------
   0 O :   -0.017907
   1 C :   -0.294616
   2 C :   -0.155475
   3 C :   -0.140627
   4 C :   -0.216231
   5 C :   -0.203413
   6 C :   -0.227365
   7 C :   -0.192233
   8 N :    0.052195
   9 H :    0.175960
  10 H :    0.144916
  11 H :    0.140929
  12 H :    0.140119
  13 H :    0.147434
  14 H :    0.147478
  15 H :    0.164696
  16 H :    0.165057
  17 H :    0.169082

  Mayer bond orders larger than 0.1
B(  0-O ,  1-C ) :   0.9218 B(  0-O ,  9-H ) :   0.8380 B(  1-C ,  2-C ) :   0.9709
B(  1-C ,  5-C ) :   0.8929 B(  1-C , 10-H ) :   0.9384 B(  2-C ,  3-C ) :   1.7454
B(  2-C , 11-H ) :   0.9371 B(  3-C ,  4-C ) :   0.9396 B(  3-C , 12-H ) :   0.9301
B(  4-C ,  5-C ) :   0.9409 B(  4-C , 13-H ) :   0.9261 B(  4-C , 14-H ) :   0.9047
B(  5-C ,  6-C ) :   0.9248 B(  5-C , 15-H ) :   0.9172 B(  6-C ,  7-C ) :   0.9163
B(  6-C , 16-H ) :   0.9011 B(  6-C , 17-H ) :   0.9092 B(  7-C ,  8-N ) :   2.8867

MP2 TOTAL ENERGY:     -401.283599078 Eh
FINAL SINGLE POINT ENERGY      -401.283599077569

DIPOLE MOMENT
-------------
                                X             Y             Z
Electronic contribution:     -3.66972       0.84434      -0.73358
Nuclear contribution   :      5.17882      -0.86855       1.02698
                        -----------------------------------------
Total Dipole Moment    :      1.50909      -0.02421       0.29341
                        -----------------------------------------
Magnitude (a.u.)       :      1.53754
Magnitude (Debye)      :      3.90812

                             ****ORCA TERMINATED NORMALLY****
TOTAL RUN TIME: 0 days 0 hours 15 minutes 49 seconds 28 msec
