                         Program Version 3.0.3 - RELEASE   -
|  1> ! RI-MP2 RIJK def2-TZVP def2-TZVP/C def2-TZVP/JK TIGHTSCF
|  2> % maxcore 2000
|  3> % mp2 density relaxed end
|  4> *xyz 0 1
|  5>  C       -0.0166135334     1.5588725242    -0.0344853494
|  6>  C       -0.0071985790     0.0649119452     0.0337756288
|  7>  C       -0.0325954679    -0.8078287910    -1.0224913089
|  8>  O       -0.0149295810    -2.1338451583    -0.6484294077
|  9>  C        0.0231091618    -2.0968427406     0.7032515793
| 10>  C        0.0295923600    -0.8058368267     1.1710818792
| 11>  N        0.0691097568    -0.9578804242     2.5418534640
| 12>  C        0.0828255157    -2.3183245614     2.7743666827
| 13>  N        0.0552989226    -3.0443054742     1.6685276336
| 14>  H        0.8790487088     1.9905969930     0.4275861902
| 15>  H       -0.0520557870     1.9010621271    -1.0721928452
| 16>  H       -0.8844959225     1.9819657582     0.4849620496
| 17>  H       -0.0638245452    -0.6329969988    -2.0856161198
| 18>  H        0.0854140607    -0.2422769141     3.2473984302
| 19>  H        0.1132724295    -2.7169849683     3.7768399135
| 20> *
| 21>
| 22>                          ****END OF INPUT****

CARTESIAN COORDINATES (ANGSTROEM)
---------------------------------
  C     -0.016614    1.558873   -0.034485
  C     -0.007199    0.064912    0.033776
  C     -0.032595   -0.807829   -1.022491
  O     -0.014930   -2.133845   -0.648429
  C      0.023109   -2.096843    0.703252
  C      0.029592   -0.805837    1.171082
  N      0.069110   -0.957880    2.541853
  C      0.082826   -2.318325    2.774367
  N      0.055299   -3.044305    1.668528
  H      0.879049    1.990597    0.427586
  H     -0.052056    1.901062   -1.072193
  H     -0.884496    1.981966    0.484962
  H     -0.063825   -0.632997   -2.085616
  H      0.085414   -0.242277    3.247398
  H      0.113272   -2.716985    3.776840

 Total Charge           Charge          ....    0
 Multiplicity           Mult            ....    1
 Number of Electrons    NEL             ....   64
 Basis Dimension        Dim             ....  315

ORBITAL ENERGIES
----------------

  NO   OCC          E(Eh)            E(eV)
   0   2.0000     -20.614641      -560.9529
   1   2.0000     -15.628138      -425.2633
   2   2.0000     -15.558153      -423.3589
   3   2.0000     -11.309937      -307.7590
   4   2.0000     -11.292361      -307.2808
   5   2.0000     -11.284231      -307.0595
   6   2.0000     -11.252835      -306.2052
   7   2.0000     -11.251049      -306.1566
   8   2.0000     -11.239230      -305.8350
   9   2.0000      -1.453056       -39.5397
  10   2.0000      -1.339406       -36.4471
  11   2.0000      -1.182358       -32.1736
  12   2.0000      -1.096477       -29.8367
  13   2.0000      -0.999320       -27.1929
  14   2.0000      -0.949763       -25.8444
  15   2.0000      -0.846305       -23.0291
  16   2.0000      -0.825253       -22.4563
  17   2.0000      -0.778294       -21.1784
  18   2.0000      -0.709086       -19.2952
  19   2.0000      -0.661859       -18.0101
  20   2.0000      -0.656149       -17.8547
  21   2.0000      -0.649953       -17.6861
  22   2.0000      -0.583470       -15.8770
  23   2.0000      -0.579702       -15.7745
  24   2.0000      -0.576952       -15.6997
  25   2.0000      -0.573446       -15.6043
  26   2.0000      -0.557129       -15.1602
  27   2.0000      -0.523014       -14.2319
  28   2.0000      -0.446771       -12.1572
  29   2.0000      -0.425170       -11.5695
  30   2.0000      -0.362296        -9.8586
  31   2.0000      -0.281633        -7.6636
  32   0.0000       0.114756         3.1227
  33   0.0000       0.132310         3.6003
  34   0.0000       0.149219         4.0605
  35   0.0000       0.175504         4.7757
  36   0.0000       0.188198         5.1211

MULLIKEN ATOMIC CHARGES
-----------------------
   0 C :   -0.429920
   1 C :   -0.000199
   2 C :   -0.049604
   3 O :   -0.227473
   4 C :    0.199980
   5 C :    0.042223
   6 N :   -0.296354
   7 C :    0.051969
   8 N :   -0.268192
   9 H :    0.144555
  10 H :    0.142709
  11 H :    0.144411
  12 H :    0.143074
  13 H :    0.252655
  14 H :    0.150166
Sum of atomic charges:   -0.0000000

LOEWDIN ATOMIC CHARGES
----------------------
   0 C :   -0.271131
   1 C :   -0.194070
   2 C :   -0.201208
   3 O :    0.344045
   4 C :   -0.336084
   5 C :   -0.199011
   6 N :    0.186476
   7 C :   -0.296718
   8 N :    0.113751
   9 H :    0.130683
  10 H :    0.134832
  11 H :    0.130656
  12 H :    0.134674
  13 H :    0.192992
  14 H :    0.130114

  Mayer bond orders larger than 0.1
B(  0-C ,  1-C ) :   0.8489 B(  0-C ,  9-H ) :   0.9385 B(  0-C , 10-H ) :   0.9461
B(  0-C , 11-H ) :   0.9387 B(  1-C ,  2-C ) :   1.5712 B(  1-C ,  5-C ) :   1.1041
B(  2-C ,  3-O ) :   1.0267 B(  2-C , 12-H ) :   0.9397 B(  3-O ,  4-C ) :   1.0390
B(  4-C ,  5-C ) :   1.3648 B(  4-C ,  8-N ) :   1.3584 B(  5-C ,  6-N ) :   1.0573
B(  6-N ,  7-C ) :   1.1426 B(  6-N , 13-H ) :   0.8625 B(  7-C ,  8-N ) :   1.5059
B(  7-C , 14-H ) :   0.9270

MP2 TOTAL ENERGY:     -416.136606305 Eh
FINAL SINGLE POINT ENERGY      -416.136606304959

DIPOLE MOMENT
-------------
                                X             Y             Z
Electronic contribution:      0.05625      -6.91601       0.72625
Nuclear contribution   :     -0.04420       8.60655       0.00740
                        -----------------------------------------
Total Dipole Moment    :      0.01205       1.69054       0.73365
                        -----------------------------------------
Magnitude (a.u.)       :      1.84291
Magnitude (Debye)      :      4.68431

                             ****ORCA TERMINATED NORMALLY****
TOTAL RUN TIME: 0 days 0 hours 15 minutes 16 seconds 666 msec
