                         Program Version 3.0.3 - RELEASE   -
|  1> ! RI-MP2 RIJK def2-TZVP def2-TZVP/C def2-TZVP/JK TIGHTSCF
|  2> % maxcore 2000
|  3> % mp2 density relaxed end
|  4> *xyz 0 1
|  5>  C       -0.3821854988     1.8487589956     0.3664790930
|  6>  C       -0.0768930618     0.4280383666    -0.1414317242
|  7>  C       -1.2662219062    -0.4888023721    -0.1070387747
|  8>  C       -1.8771105002    -1.0350537745    -1.1616769584
|  9>  C       -3.0348270383    -1.9176250363    -0.7692521449
| 10>  C       -3.2814807266    -1.5136739531     0.7063896783
| 11>  C       -3.9374598923    -2.5923718320     1.5663801117
| 12>  C       -1.9035296720    -0.9653504662     1.1947503929
| 13>  C       -1.0074223169    -1.9974870855     1.9051779388
| 14>  H        0.5103493140     2.4801869905     0.3152263521
| 15>  H       -1.1659402251     2.3178502967    -0.2366628608
| 16>  H       -0.7229007660     1.8395637737     1.4066044940
| 17>  H        0.3037881507     0.4843886251    -1.1676926829
| 18>  H        0.7365916690     0.0062681634     0.4652024746
| 19>  H       -1.5682117891    -0.8918634089    -2.1927986725
| 20>  H       -3.9253140682    -1.7696452603    -1.3918452460
| 21>  H       -2.7727299337    -2.9830338623    -0.8621982929
| 22>  H       -3.9550147796    -0.6475260452     0.6801110940
| 23>  H       -3.3289312462    -3.5012161923     1.6153670339
| 24>  H       -4.1024454915    -2.2451471734     2.5924498755
| 25>  H       -4.9127904946    -2.8728193508     1.1539171668
| 26>  H       -2.0629765418    -0.1338527967     1.8934436490
| 27>  H       -0.8241829926    -2.8714778636     1.2710922364
| 28>  H       -0.0342068175    -1.5617850158     2.1534341240
| 29>  H       -1.4596548748    -2.3434617625     2.8397460222
| 30> *
| 31>
| 32>                          ****END OF INPUT****

CARTESIAN COORDINATES (ANGSTROEM)
---------------------------------
  C     -0.382185    1.848759    0.366479
  C     -0.076893    0.428038   -0.141432
  C     -1.266222   -0.488802   -0.107039
  C     -1.877111   -1.035054   -1.161677
  C     -3.034827   -1.917625   -0.769252
  C     -3.281481   -1.513674    0.706390
  C     -3.937460   -2.592372    1.566380
  C     -1.903530   -0.965350    1.194750
  C     -1.007422   -1.997487    1.905178
  H      0.510349    2.480187    0.315226
  H     -1.165940    2.317850   -0.236663
  H     -0.722901    1.839564    1.406604
  H      0.303788    0.484389   -1.167693
  H      0.736592    0.006268    0.465202
  H     -1.568212   -0.891863   -2.192799
  H     -3.925314   -1.769645   -1.391845
  H     -2.772730   -2.983034   -0.862198
  H     -3.955015   -0.647526    0.680111
  H     -3.328931   -3.501216    1.615367
  H     -4.102445   -2.245147    2.592450
  H     -4.912790   -2.872819    1.153917
  H     -2.062977   -0.133853    1.893444
  H     -0.824183   -2.871478    1.271092
  H     -0.034207   -1.561785    2.153434
  H     -1.459655   -2.343462    2.839746

 Total Charge           Charge          ....    0
 Multiplicity           Mult            ....    1
 Number of Electrons    NEL             ....   70
 Basis Dimension        Dim             ....  375

ORBITAL ENERGIES
----------------

  NO   OCC          E(Eh)            E(eV)
   0   2.0000     -11.222951      -305.3920
   1   2.0000     -11.222357      -305.3759
   2   2.0000     -11.220377      -305.3220
   3   2.0000     -11.218144      -305.2612
   4   2.0000     -11.214108      -305.1514
   5   2.0000     -11.213091      -305.1237
   6   2.0000     -11.209722      -305.0320
   7   2.0000     -11.208612      -305.0018
   8   2.0000     -11.208557      -305.0003
   9   2.0000      -1.140707       -31.0402
  10   2.0000      -1.045992       -28.4629
  11   2.0000      -1.000255       -27.2183
  12   2.0000      -0.985050       -26.8046
  13   2.0000      -0.906275       -24.6610
  14   2.0000      -0.869788       -23.6681
  15   2.0000      -0.831816       -22.6349
  16   2.0000      -0.744524       -20.2595
  17   2.0000      -0.698501       -19.0072
  18   2.0000      -0.655744       -17.8437
  19   2.0000      -0.620347       -16.8805
  20   2.0000      -0.601751       -16.3745
  21   2.0000      -0.580369       -15.7926
  22   2.0000      -0.566553       -15.4167
  23   2.0000      -0.557369       -15.1668
  24   2.0000      -0.546809       -14.8794
  25   2.0000      -0.528446       -14.3797
  26   2.0000      -0.519680       -14.1412
  27   2.0000      -0.512319       -13.9409
  28   2.0000      -0.503286       -13.6951
  29   2.0000      -0.478827       -13.0295
  30   2.0000      -0.464362       -12.6359
  31   2.0000      -0.453658       -12.3447
  32   2.0000      -0.446127       -12.1397
  33   2.0000      -0.430932       -11.7263
  34   2.0000      -0.328246        -8.9320
  35   0.0000       0.130167         3.5420
  36   0.0000       0.146478         3.9859
  37   0.0000       0.159650         4.3443
  38   0.0000       0.167656         4.5621
  39   0.0000       0.176762         4.8100

MULLIKEN ATOMIC CHARGES
-----------------------
   0 C :   -0.390256
   1 C :   -0.239230
   2 C :    0.002517
   3 C :   -0.206463
   4 C :   -0.191705
   5 C :   -0.055078
   6 C :   -0.414530
   7 C :    0.028655
   8 C :   -0.470010
   9 H :    0.130229
  10 H :    0.128250
  11 H :    0.123375
  12 H :    0.117757
  13 H :    0.112878
  14 H :    0.115341
  15 H :    0.117770
  16 H :    0.105654
  17 H :    0.086897
  18 H :    0.129070
  19 H :    0.132598
  20 H :    0.134566
  21 H :    0.097015
  22 H :    0.136436
  23 H :    0.131875
  24 H :    0.136388
Sum of atomic charges:    0.0000000

LOEWDIN ATOMIC CHARGES
----------------------
   0 C :   -0.310713
   1 C :   -0.253773
   2 C :   -0.148646
   3 C :   -0.137167
   4 C :   -0.222908
   5 C :   -0.234757
   6 C :   -0.299672
   7 C :   -0.206622
   8 C :   -0.286245
   9 H :    0.119788
  10 H :    0.122081
  11 H :    0.118821
  12 H :    0.142764
  13 H :    0.141124
  14 H :    0.135327
  15 H :    0.135499
  16 H :    0.139492
  17 H :    0.155088
  18 H :    0.122752
  19 H :    0.123219
  20 H :    0.124360
  21 H :    0.149263
  22 H :    0.126037
  23 H :    0.122555
  24 H :    0.122333

  Mayer bond orders larger than 0.1
B(  0-C ,  1-C ) :   0.9114 B(  0-C ,  9-H ) :   0.9371 B(  0-C , 10-H ) :   0.9387
B(  0-C , 11-H ) :   0.9391 B(  1-C ,  2-C ) :   0.9164 B(  1-C , 12-H ) :   0.9476
B(  1-C , 13-H ) :   0.9221 B(  2-C ,  3-C ) :   1.7432 B(  2-C ,  7-C ) :   0.9102
B(  3-C ,  4-C ) :   0.9477 B(  3-C , 14-H ) :   0.9289 B(  4-C ,  5-C ) :   0.9635
B(  4-C , 15-H ) :   0.9277 B(  4-C , 16-H ) :   0.8998 B(  5-C ,  6-C ) :   0.9030
B(  5-C ,  7-C ) :   0.9115 B(  5-C , 17-H ) :   0.9291 B(  6-C , 18-H ) :   0.9332
B(  6-C , 19-H ) :   0.9444 B(  6-C , 20-H ) :   0.9399 B(  7-C ,  8-C ) :   0.8436
B(  7-C , 21-H ) :   0.9217 B(  8-C , 22-H ) :   0.9411 B(  8-C , 23-H ) :   0.9378
B(  8-C , 24-H ) :   0.9363

MP2 TOTAL ENERGY:     -351.732703807 Eh
FINAL SINGLE POINT ENERGY      -351.732703807015

DIPOLE MOMENT
-------------
                                X             Y             Z
Electronic contribution:     -0.40453       0.08721      -3.37131
Nuclear contribution   :      0.42750      -0.04581       3.43441
                        -----------------------------------------
Total Dipole Moment    :      0.02297       0.04140       0.06311
                        -----------------------------------------
Magnitude (a.u.)       :      0.07889
Magnitude (Debye)      :      0.20053

                             ****ORCA TERMINATED NORMALLY****
TOTAL RUN TIME: 0 days 0 hours 23 minutes 56 seconds 311 msec
