                         Program Version 3.0.3 - RELEASE   -
|  1> ! RI-MP2 RIJK def2-TZVP def2-TZVP/C def2-TZVP/JK TIGHTSCF
|  2> % maxcore 2000
|  3> % mp2 density relaxed end
|  4> *xyz 0 1
|  5>  C        0.1438589455    -1.1183874072    -0.7688661773
|  6>  C        0.0415365417    -0.0128458275    -0.3091213611
|  7>  C       -0.0496506864     1.3274933680     0.2610710087
|  8>  C        1.3106256205     2.0073620584     0.3485607870
|  9>  N        1.7434701466     2.7905786124    -0.8141479808
| 10>  C        1.5043738154     3.4785979184     0.4594780715
| 11>  C        0.3669184900     4.4909385221     0.4995920608
| 12>  C        0.8111494450     5.8316162292     0.1318936932
| 13>  C        1.2036648545     6.9287870901    -0.1616798375
| 14>  H        0.2219273488    -2.0924382342    -1.1838631069
| 15>  H       -0.7240851161     1.9381451769    -0.3477857997
| 16>  H       -0.4910005538     1.2674594375     1.2650128676
| 17>  H        2.0604938061     1.3964377360     0.8485374268
| 18>  H        2.7356452054     2.6736060729    -0.9955565243
| 19>  H        2.3764122322     3.7953177221     1.0293343270
| 20>  H       -0.4298999683     4.1712480110    -0.1796387470
| 21>  H       -0.0636891208     4.5137049263     1.5097106987
| 22>  H        1.5371022337     7.9001712176    -0.4305808666
| 23> *
| 24>
| 25>                          ****END OF INPUT****

CARTESIAN COORDINATES (ANGSTROEM)
---------------------------------
  C      0.143859   -1.118387   -0.768866
  C      0.041537   -0.012846   -0.309121
  C     -0.049651    1.327493    0.261071
  C      1.310626    2.007362    0.348561
  N      1.743470    2.790579   -0.814148
  C      1.504374    3.478598    0.459478
  C      0.366918    4.490939    0.499592
  C      0.811149    5.831616    0.131894
  C      1.203665    6.928787   -0.161680
  H      0.221927   -2.092438   -1.183863
  H     -0.724085    1.938145   -0.347786
  H     -0.491001    1.267459    1.265013
  H      2.060494    1.396438    0.848537
  H      2.735645    2.673606   -0.995557
  H      2.376412    3.795318    1.029334
  H     -0.429900    4.171248   -0.179639
  H     -0.063689    4.513705    1.509711
  H      1.537102    7.900171   -0.430581

 Total Charge           Charge          ....    0
 Multiplicity           Mult            ....    1
 Number of Electrons    NEL             ....   64
 Basis Dimension        Dim             ....  333

ORBITAL ENERGIES
----------------

  NO   OCC          E(Eh)            E(eV)
   0   2.0000     -15.563831      -423.5134
   1   2.0000     -11.275259      -306.8154
   2   2.0000     -11.274528      -306.7955
   3   2.0000     -11.260112      -306.4032
   4   2.0000     -11.260109      -306.4031
   5   2.0000     -11.235036      -305.7209
   6   2.0000     -11.235035      -305.7208
   7   2.0000     -11.221323      -305.3477
   8   2.0000     -11.221320      -305.3477
   9   2.0000      -1.276386       -34.7322
  10   2.0000      -1.075107       -29.2551
  11   2.0000      -1.068658       -29.0797
  12   2.0000      -0.982941       -26.7472
  13   2.0000      -0.978772       -26.6337
  14   2.0000      -0.868309       -23.6279
  15   2.0000      -0.798402       -21.7256
  16   2.0000      -0.739490       -20.1225
  17   2.0000      -0.717648       -19.5282
  18   2.0000      -0.713832       -19.4243
  19   2.0000      -0.642221       -17.4757
  20   2.0000      -0.623877       -16.9766
  21   2.0000      -0.622966       -16.9518
  22   2.0000      -0.611645       -16.6437
  23   2.0000      -0.588113       -16.0034
  24   2.0000      -0.522791       -14.2259
  25   2.0000      -0.478207       -13.0127
  26   2.0000      -0.469150       -12.7662
  27   2.0000      -0.419597       -11.4178
  28   2.0000      -0.388739       -10.5781
  29   2.0000      -0.388572       -10.5736
  30   2.0000      -0.385436       -10.4882
  31   2.0000      -0.378636       -10.3032
  32   0.0000       0.130188         3.5426
  33   0.0000       0.143408         3.9023
  34   0.0000       0.162938         4.4338
  35   0.0000       0.164370         4.4727
  36   0.0000       0.170061         4.6276

MULLIKEN ATOMIC CHARGES
-----------------------
   0 C :   -0.115675
   1 C :   -0.035268
   2 C :   -0.363137
   3 C :   -0.007657
   4 N :   -0.396093
   5 C :   -0.007715
   6 C :   -0.363101
   7 C :   -0.035313
   8 C :   -0.115649
   9 H :    0.190547
  10 H :    0.147751
  11 H :    0.140785
  12 H :    0.129651
  13 H :    0.222132
  14 H :    0.129657
  15 H :    0.147763
  16 H :    0.140784
  17 H :    0.190537
Sum of atomic charges:   -0.0000000

LOEWDIN ATOMIC CHARGES
----------------------
   0 C :   -0.104166
   1 C :   -0.106003
   2 C :   -0.230743
   3 C :   -0.244801
   4 N :    0.016621
   5 C :   -0.244800
   6 C :   -0.230743
   7 C :   -0.106006
   8 C :   -0.104167
   9 H :    0.126271
  10 H :    0.161944
  11 H :    0.160690
  12 H :    0.144048
  13 H :    0.168902
  14 H :    0.144048
  15 H :    0.161948
  16 H :    0.160686
  17 H :    0.126270

  Mayer bond orders larger than 0.1
B(  0-C ,  1-C ) :   2.6013 B(  0-C ,  2-C ) :  -0.1142 B(  0-C ,  9-H ) :   0.8973
B(  1-C ,  2-C ) :   1.1447 B(  2-C ,  3-C ) :   0.8873 B(  2-C , 10-H ) :   0.9311
B(  2-C , 11-H ) :   0.9223 B(  3-C ,  4-N ) :   0.9193 B(  3-C ,  5-C ) :   0.8851
B(  3-C , 12-H ) :   0.9208 B(  4-N ,  5-C ) :   0.9194 B(  4-N , 13-H ) :   0.8681
B(  5-C ,  6-C ) :   0.8872 B(  5-C , 14-H ) :   0.9208 B(  6-C ,  7-C ) :   1.1447
B(  6-C ,  8-C ) :  -0.1142 B(  6-C , 15-H ) :   0.9312 B(  6-C , 16-H ) :   0.9223
B(  7-C ,  8-C ) :   2.6013 B(  8-C , 17-H ) :   0.8974

MP2 TOTAL ENERGY:     -364.036801624 Eh
FINAL SINGLE POINT ENERGY      -364.036801624020

DIPOLE MOMENT
-------------
                                X             Y             Z
Electronic contribution:      0.33851       0.04201      -1.14630
Nuclear contribution   :     -0.00283      -0.12989       1.72474
                        -----------------------------------------
Total Dipole Moment    :      0.33568      -0.08788       0.57845
                        -----------------------------------------
Magnitude (a.u.)       :      0.67454
Magnitude (Debye)      :      1.71455

                             ****ORCA TERMINATED NORMALLY****
TOTAL RUN TIME: 0 days 0 hours 13 minutes 33 seconds 480 msec
