                         Program Version 3.0.3 - RELEASE   -
|  1> ! RI-MP2 RIJK def2-TZVP def2-TZVP/C def2-TZVP/JK TIGHTSCF
|  2> % maxcore 2000
|  3> % mp2 density relaxed end
|  4> *xyz 0 1
|  5>  C        0.2353500918     1.6620073595     0.0088551246
|  6>  C        0.1108367465     0.1452430016     0.0285360742
|  7>  C        0.5522846584    -0.7171076603    -1.2074278236
|  8>  C        1.2999472087    -1.7116813575    -0.2792014374
|  9>  O        0.5224568203    -2.8722715891    -0.0561479058
| 10>  C        2.7555270571    -2.0823889879    -0.5281644632
| 11>  O        3.2229462312    -2.8300353365     0.5891869916
| 12>  C        1.1250481275    -0.6594782514     0.8492481945
| 13>  O        1.7101197492    -0.4818479414     1.8856897901
| 14>  H        1.2369618265     1.9715216999    -0.3077098767
| 15>  H       -0.4895069470     2.1076819320    -0.6792199957
| 16>  H        0.0580248113     2.0760505934     1.0058051716
| 17>  H       -0.8977355700    -0.1564113568     0.3381081778
| 18>  H       -0.2486467505    -1.1719052351    -1.7899315074
| 19>  H        1.2310057462    -0.1747214400    -1.8720213667
| 20>  H        1.0799360123    -3.4466528468     0.4891329734
| 21>  H        2.8388359313    -2.7353861811    -1.4035323010
| 22>  H        3.3657636385    -1.1847708872    -0.7048894701
| 23>  H        3.1812139904    -2.2368376652     1.3527233398
| 24> *
| 25>
| 26>                          ****END OF INPUT****

CARTESIAN COORDINATES (ANGSTROEM)
---------------------------------
  C      0.235350    1.662007    0.008855
  C      0.110837    0.145243    0.028536
  C      0.552285   -0.717108   -1.207428
  C      1.299947   -1.711681   -0.279201
  O      0.522457   -2.872272   -0.056148
  C      2.755527   -2.082389   -0.528164
  O      3.222946   -2.830035    0.589187
  C      1.125048   -0.659478    0.849248
  O      1.710120   -0.481848    1.885690
  H      1.236962    1.971522   -0.307710
  H     -0.489507    2.107682   -0.679220
  H      0.058025    2.076051    1.005805
  H     -0.897736   -0.156411    0.338108
  H     -0.248647   -1.171905   -1.789932
  H      1.231006   -0.174721   -1.872021
  H      1.079936   -3.446653    0.489133
  H      2.838836   -2.735386   -1.403532
  H      3.365764   -1.184771   -0.704889
  H      3.181214   -2.236838    1.352723

 Total Charge           Charge          ....    0
 Multiplicity           Mult            ....    1
 Number of Electrons    NEL             ....   70
 Basis Dimension        Dim             ....  339

ORBITAL ENERGIES
----------------

  NO   OCC          E(Eh)            E(eV)
   0   2.0000     -20.571847      -559.7884
   1   2.0000     -20.569683      -559.7295
   2   2.0000     -20.569331      -559.7199
   3   2.0000     -11.337513      -308.5094
   4   2.0000     -11.303128      -307.5737
   5   2.0000     -11.292152      -307.2751
   6   2.0000     -11.255425      -306.2757
   7   2.0000     -11.246019      -306.0197
   8   2.0000     -11.234097      -305.6953
   9   2.0000      -1.413707       -38.4689
  10   2.0000      -1.388629       -37.7865
  11   2.0000      -1.361652       -37.0524
  12   2.0000      -1.143418       -31.1140
  13   2.0000      -1.017192       -27.6792
  14   2.0000      -0.951875       -25.9018
  15   2.0000      -0.876255       -23.8441
  16   2.0000      -0.837311       -22.7844
  17   2.0000      -0.742907       -20.2155
  18   2.0000      -0.714205       -19.4345
  19   2.0000      -0.692365       -18.8402
  20   2.0000      -0.678686       -18.4680
  21   2.0000      -0.666021       -18.1234
  22   2.0000      -0.618585       -16.8326
  23   2.0000      -0.606365       -16.5000
  24   2.0000      -0.581857       -15.8331
  25   2.0000      -0.573316       -15.6007
  26   2.0000      -0.563288       -15.3279
  27   2.0000      -0.547568       -14.9001
  28   2.0000      -0.529948       -14.4206
  29   2.0000      -0.524861       -14.2822
  30   2.0000      -0.499945       -13.6042
  31   2.0000      -0.489488       -13.3196
  32   2.0000      -0.483185       -13.1481
  33   2.0000      -0.451848       -12.2954
  34   2.0000      -0.386139       -10.5074
  35   0.0000       0.110699         3.0123
  36   0.0000       0.135529         3.6879
  37   0.0000       0.155740         4.2379
  38   0.0000       0.161642         4.3985
  39   0.0000       0.171809         4.6752

MULLIKEN ATOMIC CHARGES
-----------------------
   0 C :   -0.421507
   1 C :    0.047460
   2 C :   -0.355982
   3 C :    0.263802
   4 O :   -0.468057
   5 C :   -0.053447
   6 O :   -0.484922
   7 C :    0.019705
   8 O :   -0.284935
   9 H :    0.126605
  10 H :    0.142312
  11 H :    0.147284
  12 H :    0.138292
  13 H :    0.135937
  14 H :    0.135799
  15 H :    0.335408
  16 H :    0.130758
  17 H :    0.108432
  18 H :    0.337057
Sum of atomic charges:   -0.0000000

LOEWDIN ATOMIC CHARGES
----------------------
   0 C :   -0.290714
   1 C :   -0.218899
   2 C :   -0.162935
   3 C :   -0.357131
   4 O :    0.020728
   5 C :   -0.307561
   6 O :   -0.045049
   7 C :   -0.258523
   8 O :    0.152722
   9 H :    0.126045
  10 H :    0.127579
  11 H :    0.132490
  12 H :    0.170322
  13 H :    0.139433
  14 H :    0.140903
  15 H :    0.187019
  16 H :    0.136124
  17 H :    0.126508
  18 H :    0.180940

  Mayer bond orders larger than 0.1
B(  0-C ,  1-C ) :   0.8866 B(  0-C ,  9-H ) :   0.9347 B(  0-C , 10-H ) :   0.9396
B(  0-C , 11-H ) :   0.9350 B(  1-C ,  2-C ) :   0.9502 B(  1-C ,  3-C ) :  -0.1234
B(  1-C ,  7-C ) :   0.8821 B(  1-C , 12-H ) :   0.8856 B(  2-C ,  3-C ) :   0.8944
B(  2-C , 13-H ) :   0.9120 B(  2-C , 14-H ) :   0.9192 B(  3-C ,  4-O ) :   0.9428
B(  3-C ,  5-C ) :   0.9288 B(  3-C ,  7-C ) :   0.7938 B(  4-O , 15-H ) :   0.8133
B(  5-C ,  6-O ) :   0.8828 B(  5-C , 16-H ) :   0.9334 B(  5-C , 17-H ) :   0.9107
B(  6-O , 18-H ) :   0.8221 B(  7-C ,  8-O ) :   1.9750

MP2 TOTAL ENERGY:     -459.436641725 Eh
FINAL SINGLE POINT ENERGY      -459.436641724688

DIPOLE MOMENT
-------------
                                X             Y             Z
Electronic contribution:      1.51161      -5.05562       4.21595
Nuclear contribution   :     -1.70481       5.71685      -4.87558
                        -----------------------------------------
Total Dipole Moment    :     -0.19319       0.66123      -0.65963
                        -----------------------------------------
Magnitude (a.u.)       :      0.95376
Magnitude (Debye)      :      2.42427

                             ****ORCA TERMINATED NORMALLY****
TOTAL RUN TIME: 0 days 0 hours 18 minutes 24 seconds 177 msec
