                         Program Version 3.0.3 - RELEASE   -
|  1> ! RI-MP2 RIJK def2-TZVP def2-TZVP/C def2-TZVP/JK TIGHTSCF
|  2> % maxcore 2000
|  3> % mp2 density relaxed end
|  4> *xyz 0 1
|  5>  C       -0.0586288676     1.4563580119     0.0005208604
|  6>  C        0.0138514684    -0.0549428342    -0.0642910364
|  7>  C        0.7475071690    -0.6481208382    -1.2417777467
|  8>  C        1.3750739096    -0.6678769019     0.1513372449
|  9>  N        1.4309460860    -2.1515964567     0.1770104652
| 10>  C        0.2843774116    -2.8661794232     0.8252849346
| 11>  C       -0.4311323862    -2.9387912158    -0.5457290782
| 12>  O       -1.4508161107    -3.4110448524    -0.9469865061
| 13>  C        0.7653393464    -2.1836362168    -1.1779429153
| 14>  H        0.8636984546     1.9128023130    -0.3746746554
| 15>  H       -0.8874216546     1.8378032896    -0.6047176477
| 16>  H       -0.2055324238     1.7991848963     1.0299158727
| 17>  H       -0.8766667452    -0.5547143252     0.3097410383
| 18>  H        1.0128460300    -0.0659598854    -2.1149499595
| 19>  H        2.2017624864    -0.0934197147     0.5553841673
| 20>  H        0.5784673742    -3.8472025210     1.2134984409
| 21>  H       -0.2457750045    -2.3198624092     1.6117879087
| 22>  H        1.2965954564    -2.6937229761    -1.9862434376
| 23> *
| 24>
| 25>                          ****END OF INPUT****

CARTESIAN COORDINATES (ANGSTROEM)
---------------------------------
  C     -0.058629    1.456358    0.000521
  C      0.013851   -0.054943   -0.064291
  C      0.747507   -0.648121   -1.241778
  C      1.375074   -0.667877    0.151337
  N      1.430946   -2.151596    0.177010
  C      0.284377   -2.866179    0.825285
  C     -0.431132   -2.938791   -0.545729
  O     -1.450816   -3.411045   -0.946987
  C      0.765339   -2.183636   -1.177943
  H      0.863698    1.912802   -0.374675
  H     -0.887422    1.837803   -0.604718
  H     -0.205532    1.799185    1.029916
  H     -0.876667   -0.554714    0.309741
  H      1.012846   -0.065960   -2.114950
  H      2.201762   -0.093420    0.555384
  H      0.578467   -3.847203    1.213498
  H     -0.245775   -2.319862    1.611788
  H      1.296595   -2.693723   -1.986243

 Total Charge           Charge          ....    0
 Multiplicity           Mult            ....    1
 Number of Electrons    NEL             ....   66
 Basis Dimension        Dim             ....  333

ORBITAL ENERGIES
----------------

  NO   OCC          E(Eh)            E(eV)
   0   2.0000     -20.563732      -559.5676
   1   2.0000     -15.566229      -423.5786
   2   2.0000     -11.339647      -308.5675
   3   2.0000     -11.279940      -306.9428
   4   2.0000     -11.274752      -306.8016
   5   2.0000     -11.269007      -306.6453
   6   2.0000     -11.253308      -306.2181
   7   2.0000     -11.252628      -306.1996
   8   2.0000     -11.233366      -305.6754
   9   2.0000      -1.406917       -38.2842
  10   2.0000      -1.298126       -35.3238
  11   2.0000      -1.131765       -30.7969
  12   2.0000      -0.998469       -27.1697
  13   2.0000      -0.959593       -26.1118
  14   2.0000      -0.921229       -25.0679
  15   2.0000      -0.806959       -21.9585
  16   2.0000      -0.779363       -21.2076
  17   2.0000      -0.718567       -19.5532
  18   2.0000      -0.698371       -19.0036
  19   2.0000      -0.679670       -18.4948
  20   2.0000      -0.648141       -17.6368
  21   2.0000      -0.638861       -17.3843
  22   2.0000      -0.593140       -16.1402
  23   2.0000      -0.581445       -15.8219
  24   2.0000      -0.551794       -15.0151
  25   2.0000      -0.542642       -14.7660
  26   2.0000      -0.534696       -14.5498
  27   2.0000      -0.504628       -13.7316
  28   2.0000      -0.494968       -13.4688
  29   2.0000      -0.463829       -12.6214
  30   2.0000      -0.419890       -11.4258
  31   2.0000      -0.377941       -10.2843
  32   2.0000      -0.375518       -10.2184
  33   0.0000       0.119702         3.2573
  34   0.0000       0.136331         3.7098
  35   0.0000       0.154972         4.2170
  36   0.0000       0.158193         4.3046
  37   0.0000       0.166192         4.5223

MULLIKEN ATOMIC CHARGES
-----------------------
   0 C :   -0.456173
   1 C :   -0.006217
   2 C :   -0.274862
   3 C :   -0.079485
   4 N :   -0.169203
   5 C :   -0.177157
   6 C :    0.086258
   7 O :   -0.232030
   8 C :    0.058036
   9 H :    0.134340
  10 H :    0.144925
  11 H :    0.142141
  12 H :    0.130929
  13 H :    0.143424
  14 H :    0.130036
  15 H :    0.145016
  16 H :    0.142231
  17 H :    0.137790
Sum of atomic charges:   -0.0000000

LOEWDIN ATOMIC CHARGES
----------------------
   0 C :   -0.282595
   1 C :   -0.220858
   2 C :   -0.150719
   3 C :   -0.194177
   4 N :    0.127264
   5 C :   -0.227262
   6 C :   -0.299337
   7 O :    0.174900
   8 C :   -0.160637
   9 H :    0.130763
  10 H :    0.128628
  11 H :    0.128039
  12 H :    0.149387
  13 H :    0.141155
  14 H :    0.135532
  15 H :    0.139275
  16 H :    0.134543
  17 H :    0.146101

  Mayer bond orders larger than 0.1
B(  0-C ,  1-C ) :   0.8881 B(  0-C ,  9-H ) :   0.9351 B(  0-C , 10-H ) :   0.9398
B(  0-C , 11-H ) :   0.9401 B(  1-C ,  2-C ) :   0.8739 B(  1-C ,  3-C ) :   0.8398
B(  1-C , 12-H ) :   0.9226 B(  2-C ,  3-C ) :   0.8589 B(  2-C ,  8-C ) :   0.9119
B(  2-C , 13-H ) :   0.9177 B(  3-C ,  4-N ) :   0.9509 B(  3-C , 14-H ) :   0.9364
B(  4-N ,  5-C ) :   0.9296 B(  4-N ,  8-C ) :   0.9748 B(  5-C ,  6-C ) :   0.9367
B(  5-C ,  8-C ) :  -0.1210 B(  5-C , 15-H ) :   0.8940 B(  5-C , 16-H ) :   0.9146
B(  6-C ,  7-O ) :   2.0594 B(  6-C ,  8-C ) :   0.8433 B(  8-C , 17-H ) :   0.8836

MP2 TOTAL ENERGY:     -401.190314774 Eh
FINAL SINGLE POINT ENERGY      -401.190314774143

DIPOLE MOMENT
-------------
                                X             Y             Z
Electronic contribution:     -0.89030      -7.96091      -2.01177
Nuclear contribution   :      1.22633       8.78586       2.23913
                        -----------------------------------------
Total Dipole Moment    :      0.33603       0.82495       0.22737
                        -----------------------------------------
Magnitude (a.u.)       :      0.91933
Magnitude (Debye)      :      2.33674

                             ****ORCA TERMINATED NORMALLY****
TOTAL RUN TIME: 0 days 0 hours 17 minutes 33 seconds 795 msec
