                         Program Version 3.0.3 - RELEASE   -
|  1> ! RI-MP2 RIJK def2-TZVP def2-TZVP/C def2-TZVP/JK TIGHTSCF
|  2> % maxcore 2000
|  3> % mp2 density relaxed end
|  4> *xyz 0 1
|  5>  C       -0.1165876995     1.5727453031    -0.0932369218
|  6>  C       -0.0484465376     0.0573737603     0.0166183580
|  7>  C        1.1830244547    -0.6815449843    -0.6060192150
|  8>  N        2.0013448953    -0.1186416289     0.5567986623
|  9>  C        0.7042769371    -0.5836329113     1.2325217819
| 10>  C        0.4855482477    -0.5198493722     2.7151279858
| 11>  O        1.3915662727    -1.3757173752     3.3940728675
| 12>  C        0.8825451133    -1.8425550940     0.3582849783
| 13>  O        0.9750857007    -3.0298756215     0.4729858264
| 14>  H        0.8473553368     2.0306790733     0.1315564983
| 15>  H       -0.4154137112     1.8655900355    -1.1050155606
| 16>  H       -0.8651869773     1.9738713707     0.5979993594
| 17>  H       -1.0101150076    -0.4126338844    -0.2078729255
| 18>  H        1.5506188064    -0.6577013327    -1.6299632331
| 19>  H        2.7816606813    -0.7331843484     0.8037558703
| 20>  H        0.6703474059     0.4909151961     3.0926000669
| 21>  H       -0.5645374475    -0.7706668712     2.9344102743
| 22>  H        1.2350546387    -2.2732037749     3.0770510265
| 23> *
| 24>
| 25>                          ****END OF INPUT****

CARTESIAN COORDINATES (ANGSTROEM)
---------------------------------
  C     -0.116588    1.572745   -0.093237
  C     -0.048447    0.057374    0.016618
  C      1.183024   -0.681545   -0.606019
  N      2.001345   -0.118642    0.556799
  C      0.704277   -0.583633    1.232522
  C      0.485548   -0.519849    2.715128
  O      1.391566   -1.375717    3.394073
  C      0.882545   -1.842555    0.358285
  O      0.975086   -3.029876    0.472986
  H      0.847355    2.030679    0.131556
  H     -0.415414    1.865590   -1.105016
  H     -0.865187    1.973871    0.597999
  H     -1.010115   -0.412634   -0.207873
  H      1.550619   -0.657701   -1.629963
  H      2.781661   -0.733184    0.803756
  H      0.670347    0.490915    3.092600
  H     -0.564537   -0.770667    2.934410
  H      1.235055   -2.273204    3.077051

 Total Charge           Charge          ....    0
 Multiplicity           Mult            ....    1
 Number of Electrons    NEL             ....   68
 Basis Dimension        Dim             ....  333

ORBITAL ENERGIES
----------------

  NO   OCC          E(Eh)            E(eV)
   0   2.0000     -20.566821      -559.6517
   1   2.0000     -20.565062      -559.6038
   2   2.0000     -15.585234      -424.0958
   3   2.0000     -11.351091      -308.8789
   4   2.0000     -11.296627      -307.3968
   5   2.0000     -11.296311      -307.3883
   6   2.0000     -11.294872      -307.3491
   7   2.0000     -11.269404      -306.6561
   8   2.0000     -11.228324      -305.5382
   9   2.0000      -1.412720       -38.4421
  10   2.0000      -1.372107       -37.3369
  11   2.0000      -1.303622       -35.4734
  12   2.0000      -1.050082       -28.5742
  13   2.0000      -0.996320       -27.1112
  14   2.0000      -0.971876       -26.4461
  15   2.0000      -0.860065       -23.4036
  16   2.0000      -0.821639       -22.3579
  17   2.0000      -0.739997       -20.1363
  18   2.0000      -0.722255       -19.6536
  19   2.0000      -0.677290       -18.4300
  20   2.0000      -0.669407       -18.2155
  21   2.0000      -0.639784       -17.4094
  22   2.0000      -0.603851       -16.4316
  23   2.0000      -0.590016       -16.0552
  24   2.0000      -0.587349       -15.9826
  25   2.0000      -0.561245       -15.2723
  26   2.0000      -0.546095       -14.8600
  27   2.0000      -0.527087       -14.3428
  28   2.0000      -0.516970       -14.0675
  29   2.0000      -0.490785       -13.3549
  30   2.0000      -0.477990       -13.0068
  31   2.0000      -0.445060       -12.1107
  32   2.0000      -0.416870       -11.3436
  33   2.0000      -0.401472       -10.9246
  34   0.0000       0.127871         3.4795
  35   0.0000       0.139633         3.7996
  36   0.0000       0.147938         4.0256
  37   0.0000       0.159958         4.3527
  38   0.0000       0.184083         5.0092

MULLIKEN ATOMIC CHARGES
-----------------------
   0 C :   -0.452852
   1 C :   -0.010803
   2 C :   -0.098716
   3 N :   -0.289144
   4 C :   -0.101966
   5 C :   -0.017848
   6 O :   -0.465930
   7 C :    0.186147
   8 O :   -0.272988
   9 H :    0.170117
  10 H :    0.137605
  11 H :    0.134344
  12 H :    0.122407
  13 H :    0.157493
  14 H :    0.223050
  15 H :    0.131771
  16 H :    0.116470
  17 H :    0.330844
Sum of atomic charges:   -0.0000000

LOEWDIN ATOMIC CHARGES
----------------------
   0 C :   -0.292593
   1 C :   -0.182821
   2 C :   -0.164113
   3 N :    0.071535
   4 C :   -0.225990
   5 C :   -0.309378
   6 O :   -0.037131
   7 C :   -0.292351
   8 O :    0.142221
   9 H :    0.134878
  10 H :    0.127988
  11 H :    0.126928
  12 H :    0.150989
  13 H :    0.129481
  14 H :    0.168566
  15 H :    0.140001
  16 H :    0.130356
  17 H :    0.181433

  Mayer bond orders larger than 0.1
B(  0-C ,  1-C ) :   0.8876 B(  0-C ,  9-H ) :   0.9370 B(  0-C , 10-H ) :   0.9355
B(  0-C , 11-H ) :   0.9341 B(  1-C ,  2-C ) :   0.8663 B(  1-C ,  4-C ) :   0.8113
B(  1-C , 12-H ) :   0.9137 B(  2-C ,  3-N ) :   0.9378 B(  2-C ,  7-C ) :   0.9252
B(  2-C , 13-H ) :   0.8788 B(  3-N ,  4-C ) :   0.9119 B(  3-N , 14-H ) :   0.8828
B(  4-C ,  5-C ) :   0.8535 B(  4-C ,  7-C ) :   0.9009 B(  5-C ,  6-O ) :   0.9074
B(  5-C , 15-H ) :   0.9397 B(  5-C , 16-H ) :   0.9347 B(  6-O , 17-H ) :   0.8354
B(  7-C ,  8-O ) :   2.0216

MP2 TOTAL ENERGY:     -438.312162813 Eh
FINAL SINGLE POINT ENERGY      -438.312162812979

DIPOLE MOMENT
-------------
                                X             Y             Z
Electronic contribution:      2.56435      -7.09471       0.30352
Nuclear contribution   :     -3.13970       7.66363      -0.78619
                        -----------------------------------------
Total Dipole Moment    :     -0.57536       0.56892      -0.48267
                        -----------------------------------------
Magnitude (a.u.)       :      0.94217
Magnitude (Debye)      :      2.39480

                             ****ORCA TERMINATED NORMALLY****
TOTAL RUN TIME: 0 days 0 hours 18 minutes 10 seconds 186 msec
