                         Program Version 3.0.3 - RELEASE   -
|  1> ! RI-MP2 RIJK def2-TZVP def2-TZVP/C def2-TZVP/JK TIGHTSCF
|  2> % maxcore 2000
|  3> % mp2 density relaxed end
|  4> *xyz 0 1
|  5>  O        0.1369930486     0.3871584026    -1.1618386815
|  6>  C        0.0861600281     1.3277031783    -0.3995060584
|  7>  N        1.1112532900     1.7458573547     0.3933625878
|  8>  C        2.4287878158     1.1236967213     0.3370942492
|  9>  C        3.4964576373     2.0942431065     0.1374970897
| 10>  C        4.3826838512     2.9055793649    -0.0038734722
| 11>  C        5.3778561888     3.8189047189    -0.1674071390
| 12>  C        6.2609477829     4.6294663258    -0.3113663605
| 13>  H       -0.8187771620     1.9497909417    -0.2601518293
| 14>  H        0.9909211383     2.5708526132     0.9589537122
| 15>  H        2.6231968938     0.5458764429     1.2513021234
| 16>  H        2.3865955378     0.4072446595    -0.4906641440
| 17>  H        7.0378801094     5.3416824698    -0.4403408174
| 18> *
| 19>
| 20>                          ****END OF INPUT****

CARTESIAN COORDINATES (ANGSTROEM)
---------------------------------
  O      0.136993    0.387158   -1.161839
  C      0.086160    1.327703   -0.399506
  N      1.111253    1.745857    0.393363
  C      2.428788    1.123697    0.337094
  C      3.496458    2.094243    0.137497
  C      4.382684    2.905579   -0.003873
  C      5.377856    3.818905   -0.167407
  C      6.260948    4.629466   -0.311366
  H     -0.818777    1.949791   -0.260152
  H      0.990921    2.570853    0.958954
  H      2.623197    0.545876    1.251302
  H      2.386596    0.407245   -0.490664
  H      7.037880    5.341682   -0.440341

 Total Charge           Charge          ....    0
 Multiplicity           Mult            ....    1
 Number of Electrons    NEL             ....   56
 Basis Dimension        Dim             ....  278

ORBITAL ENERGIES
----------------

  NO   OCC          E(Eh)            E(eV)
   0   2.0000     -20.533928      -558.7566
   1   2.0000     -15.605977      -424.6602
   2   2.0000     -11.360996      -309.1484
   3   2.0000     -11.309002      -307.7336
   4   2.0000     -11.266621      -306.5804
   5   2.0000     -11.265980      -306.5629
   6   2.0000     -11.262009      -306.4548
   7   2.0000     -11.257144      -306.3225
   8   2.0000      -1.395696       -37.9788
   9   2.0000      -1.253955       -34.1218
  10   2.0000      -1.100884       -29.9566
  11   2.0000      -1.047261       -28.4974
  12   2.0000      -0.981544       -26.7092
  13   2.0000      -0.846396       -23.0316
  14   2.0000      -0.825199       -22.4548
  15   2.0000      -0.764641       -20.8069
  16   2.0000      -0.718979       -19.5644
  17   2.0000      -0.676758       -18.4155
  18   2.0000      -0.664117       -18.0716
  19   2.0000      -0.625344       -17.0165
  20   2.0000      -0.596534       -16.2325
  21   2.0000      -0.561300       -15.2737
  22   2.0000      -0.493879       -13.4391
  23   2.0000      -0.489290       -13.3143
  24   2.0000      -0.445290       -12.1170
  25   2.0000      -0.418554       -11.3894
  26   2.0000      -0.367076        -9.9887
  27   2.0000      -0.362165        -9.8550
  28   0.0000       0.100208         2.7268
  29   0.0000       0.108036         2.9398
  30   0.0000       0.126072         3.4306
  31   0.0000       0.147678         4.0185
  32   0.0000       0.158775         4.3205

MULLIKEN ATOMIC CHARGES
-----------------------
   0 O :   -0.362008
   1 C :    0.204948
   2 N :   -0.320292
   3 C :   -0.154503
   4 C :   -0.126164
   5 C :    0.022514
   6 C :   -0.016107
   7 C :   -0.143802
   8 H :    0.087845
   9 H :    0.248916
  10 H :    0.163963
  11 H :    0.197649
  12 H :    0.197041
Sum of atomic charges:    0.0000000

LOEWDIN ATOMIC CHARGES
----------------------
   0 O :    0.061095
   1 C :   -0.430862
   2 N :    0.087853
   3 C :   -0.254937
   4 C :   -0.026788
   5 C :   -0.056537
   6 C :   -0.096813
   7 C :   -0.039500
   8 H :    0.112896
   9 H :    0.188144
  10 H :    0.154164
  11 H :    0.169814
  12 H :    0.131471

  Mayer bond orders larger than 0.1
B(  0-O ,  1-C ) :   1.8861 B(  1-C ,  2-N ) :   1.1513 B(  1-C ,  8-H ) :   0.9280
B(  2-N ,  3-C ) :   0.8116 B(  2-N ,  9-H ) :   0.8700 B(  3-C ,  4-C ) :   0.9466
B(  3-C , 10-H ) :   0.9348 B(  3-C , 11-H ) :   0.9248 B(  4-C ,  5-C ) :   2.5842
B(  4-C ,  7-C ) :   0.1220 B(  5-C ,  6-C ) :   1.3125 B(  6-C ,  7-C ) :   2.5526
B(  7-C , 12-H ) :   0.8862

MP2 TOTAL ENERGY:     -360.784836720 Eh
FINAL SINGLE POINT ENERGY      -360.784836720372

DIPOLE MOMENT
-------------
                                X             Y             Z
Electronic contribution:      1.78146       0.95712      -0.72993
Nuclear contribution   :     -1.49001      -0.06496       1.68644
                        -----------------------------------------
Total Dipole Moment    :      0.29144       0.89216       0.95651
                        -----------------------------------------
Magnitude (a.u.)       :      1.34008
Magnitude (Debye)      :      3.40620

                             ****ORCA TERMINATED NORMALLY****
TOTAL RUN TIME: 0 days 0 hours 8 minutes 3 seconds 592 msec
