                         Program Version 3.0.3 - RELEASE   -
|  1> ! RI-MP2 RIJK def2-TZVP def2-TZVP/C def2-TZVP/JK TIGHTSCF
|  2> % maxcore 2000
|  3> % mp2 density relaxed end
|  4> *xyz 0 1
|  5>  C        0.0030743881     1.5299395385     0.0608454228
|  6>  C       -0.0048012005     0.0328392738    -0.0435681757
|  7>  C       -0.0450578567    -0.6547501945    -1.1913545444
|  8>  C       -0.0469941011    -2.1219504550    -1.1215953489
|  9>  C        0.7409390636    -2.8817765307    -0.0504876001
| 10>  C       -0.7662640542    -2.8774090204    -0.0002653747
| 11>  C       -0.7192575249    -2.0992720038     1.3314201965
| 12>  C        0.7871722739    -2.1036642709     1.2812404406
| 13>  C        0.0340157493    -0.7730229643     1.1917991571
| 14>  H        0.9018090395     1.8916023197     0.5771418268
| 15>  H       -0.0287958945     1.9961143374    -0.9280587662
| 16>  H       -0.8568374474     1.8967336824     0.6362528660
| 17>  H       -0.0759155719    -0.1654239211    -2.1597267633
| 18>  H       -0.0800805836    -2.6533192506    -2.0680725499
| 19>  H        1.4229837843    -3.6796435831    -0.3116377015
| 20>  H       -1.4687883831    -3.6712638980    -0.2152771231
| 21>  H       -1.3840319160    -2.2798861636     2.1653405619
| 22>  H        1.5049028320    -2.2883127298     2.0691093037
| 23>  H        0.0667449634    -0.2173158761     2.1255210326
| 24> *
| 25>
| 26>                          ****END OF INPUT****

CARTESIAN COORDINATES (ANGSTROEM)
---------------------------------
  C      0.003074    1.529940    0.060845
  C     -0.004801    0.032839   -0.043568
  C     -0.045058   -0.654750   -1.191355
  C     -0.046994   -2.121950   -1.121595
  C      0.740939   -2.881777   -0.050488
  C     -0.766264   -2.877409   -0.000265
  C     -0.719258   -2.099272    1.331420
  C      0.787172   -2.103664    1.281240
  C      0.034016   -0.773023    1.191799
  H      0.901809    1.891602    0.577142
  H     -0.028796    1.996114   -0.928059
  H     -0.856837    1.896734    0.636253
  H     -0.075916   -0.165424   -2.159727
  H     -0.080081   -2.653319   -2.068073
  H      1.422984   -3.679644   -0.311638
  H     -1.468788   -3.671264   -0.215277
  H     -1.384032   -2.279886    2.165341
  H      1.504903   -2.288313    2.069109
  H      0.066745   -0.217316    2.125521

 Total Charge           Charge          ....    0
 Multiplicity           Mult            ....    1
 Number of Electrons    NEL             ....   64
 Basis Dimension        Dim             ....  339

ORBITAL ENERGIES
----------------

  NO   OCC          E(Eh)            E(eV)
   0   2.0000     -11.234095      -305.6953
   1   2.0000     -11.232966      -305.6645
   2   2.0000     -11.232552      -305.6533
   3   2.0000     -11.232010      -305.6385
   4   2.0000     -11.230574      -305.5994
   5   2.0000     -11.229977      -305.5832
   6   2.0000     -11.221722      -305.3586
   7   2.0000     -11.217081      -305.2323
   8   2.0000     -11.206450      -304.9430
   9   2.0000      -1.226132       -33.3647
  10   2.0000      -1.074874       -29.2488
  11   2.0000      -1.063188       -28.9308
  12   2.0000      -0.943674       -25.6787
  13   2.0000      -0.865947       -23.5636
  14   2.0000      -0.838692       -22.8220
  15   2.0000      -0.812577       -22.1114
  16   2.0000      -0.716732       -19.5033
  17   2.0000      -0.711386       -19.3578
  18   2.0000      -0.649360       -17.6700
  19   2.0000      -0.630930       -17.1685
  20   2.0000      -0.602844       -16.4042
  21   2.0000      -0.596004       -16.2181
  22   2.0000      -0.566992       -15.4286
  23   2.0000      -0.534777       -14.5520
  24   2.0000      -0.506343       -13.7783
  25   2.0000      -0.503464       -13.7000
  26   2.0000      -0.497469       -13.5368
  27   2.0000      -0.455146       -12.3851
  28   2.0000      -0.454271       -12.3613
  29   2.0000      -0.396801       -10.7975
  30   2.0000      -0.327024        -8.8988
  31   2.0000      -0.307951        -8.3798
  32   0.0000       0.143780         3.9124
  33   0.0000       0.158471         4.3122
  34   0.0000       0.162749         4.4286
  35   0.0000       0.172239         4.6869
  36   0.0000       0.176656         4.8071

MULLIKEN ATOMIC CHARGES
-----------------------
   0 C :   -0.459040
   1 C :    0.091550
   2 C :   -0.226081
   3 C :   -0.069810
   4 C :   -0.129250
   5 C :   -0.129254
   6 C :   -0.138081
   7 C :   -0.138088
   8 C :   -0.114530
   9 H :    0.137798
  10 H :    0.133420
  11 H :    0.137796
  12 H :    0.109668
  13 H :    0.117897
  14 H :    0.138966
  15 H :    0.138966
  16 H :    0.138491
  17 H :    0.138491
  18 H :    0.121091
Sum of atomic charges:    0.0000000

LOEWDIN ATOMIC CHARGES
----------------------
   0 C :   -0.271397
   1 C :   -0.178518
   2 C :   -0.135022
   3 C :   -0.161840
   4 C :   -0.132307
   5 C :   -0.132307
   6 C :   -0.130647
   7 C :   -0.130648
   8 C :   -0.132946
   9 H :    0.129210
  10 H :    0.128930
  11 H :    0.129207
  12 H :    0.142906
  13 H :    0.157909
  14 H :    0.138937
  15 H :    0.138937
  16 H :    0.139350
  17 H :    0.139351
  18 H :    0.160895

  Mayer bond orders larger than 0.1
B(  0-C ,  1-C ) :   0.8693 B(  0-C ,  9-H ) :   0.9357 B(  0-C , 10-H ) :   0.9508
B(  0-C , 11-H ) :   0.9357 B(  1-C ,  2-C ) :   1.7550 B(  1-C ,  8-C ) :   0.9785
B(  2-C ,  3-C ) :   1.0091 B(  2-C , 12-H ) :   0.9359 B(  3-C ,  4-C ) :   0.8200
B(  3-C ,  5-C ) :   0.8200 B(  3-C , 13-H ) :   0.9422 B(  4-C ,  5-C ) :   0.8997
B(  4-C ,  7-C ) :   0.9356 B(  4-C , 14-H ) :   0.9248 B(  5-C ,  6-C ) :   0.9356
B(  5-C , 15-H ) :   0.9248 B(  6-C ,  7-C ) :   0.9122 B(  6-C ,  8-C ) :   0.8234
B(  6-C , 16-H ) :   0.9263 B(  7-C ,  8-C ) :   0.8234 B(  7-C , 17-H ) :   0.9263
B(  8-C , 18-H ) :   0.9441

MP2 TOTAL ENERGY:     -348.055353917 Eh
FINAL SINGLE POINT ENERGY      -348.055353916670

DIPOLE MOMENT
-------------
                                X             Y             Z
Electronic contribution:     -0.01308      -3.65943      -0.07063
Nuclear contribution   :      0.01808       3.52361       0.23218
                        -----------------------------------------
Total Dipole Moment    :      0.00500      -0.13582       0.16155
                        -----------------------------------------
Magnitude (a.u.)       :      0.21112
Magnitude (Debye)      :      0.53663

                             ****ORCA TERMINATED NORMALLY****
TOTAL RUN TIME: 0 days 0 hours 20 minutes 38 seconds 552 msec
