                         Program Version 3.0.3 - RELEASE   -
|  1> ! RI-MP2 RIJK def2-TZVP def2-TZVP/C def2-TZVP/JK TIGHTSCF
|  2> % maxcore 2000
|  3> % mp2 density relaxed end
|  4> *xyz 0 1
|  5>  C       -0.0325634861     1.4861892108    -0.0413871069
|  6>  C        1.4939453997     1.3817497622    -0.0059685651
|  7>  C        1.2744971183     0.0578981766     0.7913315211
|  8>  C        2.2247108945    -1.0035517746     0.1344376781
|  9>  C        1.2654172230    -1.7396360656    -0.8192885233
| 10>  C        0.6146793701    -0.4240902651    -1.2550871850
| 11>  C        1.8734750009     0.5832448314    -1.2653106634
| 12>  O        2.9689157979    -0.2169984752    -0.8090610143
| 13>  N       -0.0575636620    -0.0171891078     0.0171381246
| 14>  H       -0.4722588239     1.9027237255     0.8684796614
| 15>  H       -0.5195113752     1.9244858343    -0.9188463757
| 16>  H        2.1719013923     2.1813028392     0.2933240307
| 17>  H        1.1555642662     0.0857582969     1.8723700324
| 18>  H        2.8950398300    -1.5707337946     0.7767820869
| 19>  H        1.8194325587    -2.2684858361    -1.5958654472
| 20>  H        0.5392015109    -2.3966081555    -0.3373883461
| 21>  H       -0.0501444783    -0.4147825485    -2.1171877245
| 22>  H        2.1312135531     1.1107817662    -2.1814132836
| 23> *
| 24>
| 25>                          ****END OF INPUT****

CARTESIAN COORDINATES (ANGSTROEM)
---------------------------------
  C     -0.032563    1.486189   -0.041387
  C      1.493945    1.381750   -0.005969
  C      1.274497    0.057898    0.791332
  C      2.224711   -1.003552    0.134438
  C      1.265417   -1.739636   -0.819289
  C      0.614679   -0.424090   -1.255087
  C      1.873475    0.583245   -1.265311
  O      2.968916   -0.216998   -0.809061
  N     -0.057564   -0.017189    0.017138
  H     -0.472259    1.902724    0.868480
  H     -0.519511    1.924486   -0.918846
  H      2.171901    2.181303    0.293324
  H      1.155564    0.085758    1.872370
  H      2.895040   -1.570734    0.776782
  H      1.819433   -2.268486   -1.595865
  H      0.539202   -2.396608   -0.337388
  H     -0.050144   -0.414783   -2.117188
  H      2.131214    1.110782   -2.181413

 Total Charge           Charge          ....    0
 Multiplicity           Mult            ....    1
 Number of Electrons    NEL             ....   66
 Basis Dimension        Dim             ....  333

ORBITAL ENERGIES
----------------

  NO   OCC          E(Eh)            E(eV)
   0   2.0000     -20.552915      -559.2732
   1   2.0000     -15.555948      -423.2989
   2   2.0000     -11.283739      -307.0462
   3   2.0000     -11.282606      -307.0153
   4   2.0000     -11.263900      -306.5063
   5   2.0000     -11.259487      -306.3862
   6   2.0000     -11.254042      -306.2380
   7   2.0000     -11.235391      -305.7305
   8   2.0000     -11.221134      -305.3426
   9   2.0000      -1.398589       -38.0575
  10   2.0000      -1.268461       -34.5166
  11   2.0000      -1.058711       -28.8090
  12   2.0000      -0.983750       -26.7692
  13   2.0000      -0.980804       -26.6890
  14   2.0000      -0.905150       -24.6304
  15   2.0000      -0.800188       -21.7742
  16   2.0000      -0.765050       -20.8181
  17   2.0000      -0.745525       -20.2868
  18   2.0000      -0.719459       -19.5775
  19   2.0000      -0.679552       -18.4916
  20   2.0000      -0.637264       -17.3408
  21   2.0000      -0.606998       -16.5173
  22   2.0000      -0.587223       -15.9792
  23   2.0000      -0.554245       -15.0818
  24   2.0000      -0.522532       -14.2188
  25   2.0000      -0.514673       -14.0050
  26   2.0000      -0.485577       -13.2132
  27   2.0000      -0.478849       -13.0301
  28   2.0000      -0.477777       -13.0010
  29   2.0000      -0.460887       -12.5414
  30   2.0000      -0.450160       -12.2495
  31   2.0000      -0.419709       -11.4209
  32   2.0000      -0.366706        -9.9786
  33   0.0000       0.143549         3.9062
  34   0.0000       0.161197         4.3864
  35   0.0000       0.169817         4.6210
  36   0.0000       0.177759         4.8371
  37   0.0000       0.191888         5.2215

MULLIKEN ATOMIC CHARGES
-----------------------
   0 C :   -0.200491
   1 C :   -0.103144
   2 C :   -0.082625
   3 C :    0.014205
   4 C :   -0.300331
   5 C :    0.065759
   6 C :   -0.036803
   7 O :   -0.307570
   8 N :   -0.215487
   9 H :    0.123354
  10 H :    0.118379
  11 H :    0.125751
  12 H :    0.140855
  13 H :    0.137104
  14 H :    0.125862
  15 H :    0.127012
  16 H :    0.136764
  17 H :    0.131407
Sum of atomic charges:   -0.0000000

LOEWDIN ATOMIC CHARGES
----------------------
   0 C :   -0.238108
   1 C :   -0.194130
   2 C :   -0.157380
   3 C :   -0.261449
   4 C :   -0.216215
   5 C :   -0.225774
   6 C :   -0.240795
   7 O :    0.191135
   8 N :    0.117766
   9 H :    0.133346
  10 H :    0.123402
  11 H :    0.135788
  12 H :    0.138897
  13 H :    0.136796
  14 H :    0.140311
  15 H :    0.143765
  16 H :    0.137316
  17 H :    0.135329

  Mayer bond orders larger than 0.1
B(  0-C ,  1-C ) :   0.9414 B(  0-C ,  8-N ) :   0.9260 B(  0-C ,  9-H ) :   0.9223
B(  0-C , 10-H ) :   0.9255 B(  1-C ,  2-C ) :   0.9371 B(  1-C ,  6-C ) :   0.8944
B(  1-C , 11-H ) :   0.9143 B(  2-C ,  3-C ) :   0.9577 B(  2-C ,  8-N ) :   0.9829
B(  2-C , 12-H ) :   0.8993 B(  3-C ,  4-C ) :   0.9481 B(  3-C ,  7-O ) :   0.9536
B(  3-C , 13-H ) :   0.9130 B(  4-C ,  5-C ) :   0.9113 B(  4-C , 14-H ) :   0.9252
B(  4-C , 15-H ) :   0.9182 B(  5-C ,  6-C ) :   0.8865 B(  5-C ,  8-N ) :   0.8878
B(  5-C , 16-H ) :   0.9157 B(  6-C ,  7-O ) :   0.9314 B(  6-C , 17-H ) :   0.9187

MP2 TOTAL ENERGY:     -401.240621893 Eh
FINAL SINGLE POINT ENERGY      -401.240621892814

DIPOLE MOMENT
-------------
                                X             Y             Z
Electronic contribution:      1.85989      -0.16441       0.03290
Nuclear contribution   :     -1.95598       0.45145      -0.00900
                        -----------------------------------------
Total Dipole Moment    :     -0.09609       0.28704       0.02391
                        -----------------------------------------
Magnitude (a.u.)       :      0.30364
Magnitude (Debye)      :      0.77179

                             ****ORCA TERMINATED NORMALLY****
TOTAL RUN TIME: 0 days 0 hours 20 minutes 24 seconds 845 msec
