                         Program Version 3.0.3 - RELEASE   -
|  1> ! RI-MP2 RIJK def2-TZVP def2-TZVP/C def2-TZVP/JK TIGHTSCF
|  2> % maxcore 2000
|  3> % mp2 density relaxed end
|  4> *xyz 0 1
|  5>  C       -0.0214497650     1.4763075675     0.0094721228
|  6>  C       -0.0009512305    -0.0146445014    -0.0287567904
|  7>  N       -0.0445299272    -0.7429839598    -1.1337311142
|  8>  C       -0.0021252116    -2.0242408545    -0.6603610392
|  9>  C        0.0670829949    -2.1011579867     0.7220963098
| 10>  N        0.0670351273    -0.7753758325     1.1231167710
| 11>  C        0.1028934376    -3.4731871451     1.0345952214
| 12>  N        0.0581111999    -4.1906615068    -0.0923992807
| 13>  N       -0.0057361713    -3.3009097449    -1.1185599368
| 14>  H        0.8802776462     1.8819906033     0.4826105481
| 15>  H       -0.0753391647     1.8515402387    -1.0127205867
| 16>  H       -0.8863700336     1.8555559757     0.5659441970
| 17>  H        0.1078304105    -0.4132801356     2.0596481009
| 18>  H        0.1572330669    -3.9815613580     1.9846452104
| 19>  H       -0.0468591793    -3.6440475099    -2.0617387733
| 20> *
| 21>
| 22>                          ****END OF INPUT****

CARTESIAN COORDINATES (ANGSTROEM)
---------------------------------
  C     -0.021450    1.476308    0.009472
  C     -0.000951   -0.014645   -0.028757
  N     -0.044530   -0.742984   -1.133731
  C     -0.002125   -2.024241   -0.660361
  C      0.067083   -2.101158    0.722096
  N      0.067035   -0.775376    1.123117
  C      0.102893   -3.473187    1.034595
  N      0.058111   -4.190662   -0.092399
  N     -0.005736   -3.300910   -1.118560
  H      0.880278    1.881991    0.482611
  H     -0.075339    1.851540   -1.012721
  H     -0.886370    1.855556    0.565944
  H      0.107830   -0.413280    2.059648
  H      0.157233   -3.981561    1.984645
  H     -0.046859   -3.644048   -2.061739

 Total Charge           Charge          ....    0
 Multiplicity           Mult            ....    1
 Number of Electrons    NEL             ....   64
 Basis Dimension        Dim             ....  315

ORBITAL ENERGIES
----------------

  NO   OCC          E(Eh)            E(eV)
   0   2.0000     -15.622882      -425.1202
   1   2.0000     -15.620552      -425.0568
   2   2.0000     -15.580768      -423.9742
   3   2.0000     -15.554829      -423.2684
   4   2.0000     -11.326169      -308.2007
   5   2.0000     -11.280216      -306.9503
   6   2.0000     -11.259354      -306.3826
   7   2.0000     -11.248502      -306.0873
   8   2.0000     -11.246253      -306.0261
   9   2.0000      -1.373921       -37.3863
  10   2.0000      -1.324409       -36.0390
  11   2.0000      -1.181915       -32.1616
  12   2.0000      -1.081275       -29.4230
  13   2.0000      -1.057729       -28.7823
  14   2.0000      -0.977424       -26.5971
  15   2.0000      -0.831866       -22.6362
  16   2.0000      -0.813978       -22.1495
  17   2.0000      -0.803743       -21.8710
  18   2.0000      -0.751529       -20.4502
  19   2.0000      -0.665474       -18.1085
  20   2.0000      -0.645471       -17.5642
  21   2.0000      -0.612137       -16.6571
  22   2.0000      -0.595419       -16.2022
  23   2.0000      -0.589938       -16.0530
  24   2.0000      -0.578186       -15.7332
  25   2.0000      -0.561503       -15.2793
  26   2.0000      -0.536324       -14.5941
  27   2.0000      -0.453173       -12.3315
  28   2.0000      -0.445433       -12.1208
  29   2.0000      -0.435214       -11.8428
  30   2.0000      -0.338683        -9.2160
  31   2.0000      -0.298322        -8.1178
  32   0.0000       0.116574         3.1721
  33   0.0000       0.133252         3.6260
  34   0.0000       0.153301         4.1715
  35   0.0000       0.158436         4.3113
  36   0.0000       0.186201         5.0668

MULLIKEN ATOMIC CHARGES
-----------------------
   0 C :   -0.464711
   1 C :    0.258615
   2 N :   -0.296364
   3 C :    0.126219
   4 C :    0.099977
   5 N :   -0.316579
   6 C :   -0.163886
   7 N :   -0.178604
   8 N :   -0.166992
   9 H :    0.146075
  10 H :    0.168699
  11 H :    0.146152
  12 H :    0.251730
  13 H :    0.131639
  14 H :    0.258029
Sum of atomic charges:    0.0000000

LOEWDIN ATOMIC CHARGES
----------------------
   0 C :   -0.276814
   1 C :   -0.320739
   2 N :    0.121005
   3 C :   -0.315034
   4 C :   -0.228120
   5 N :    0.198631
   6 C :   -0.269685
   7 N :    0.028675
   8 N :    0.137779
   9 H :    0.132642
  10 H :    0.144680
  11 H :    0.132671
  12 H :    0.193797
  13 H :    0.132399
  14 H :    0.188114

  Mayer bond orders larger than 0.1
B(  0-C ,  1-C ) :   0.8457 B(  0-C ,  9-H ) :   0.9343 B(  0-C , 10-H ) :   0.9524
B(  0-C , 11-H ) :   0.9342 B(  1-C ,  2-N ) :   1.5706 B(  1-C ,  5-N ) :   1.1538
B(  2-N ,  3-C ) :   1.2839 B(  3-C ,  4-C ) :   1.2579 B(  3-C ,  8-N ) :   1.1688
B(  4-C ,  5-N ) :   1.0740 B(  4-C ,  6-C ) :   1.2353 B(  5-N , 12-H ) :   0.8649
B(  6-C ,  7-N ) :   1.5541 B(  6-C , 13-H ) :   0.9441 B(  7-N ,  8-N ) :   1.0425
B(  8-N , 14-H ) :   0.8679

MP2 TOTAL ENERGY:     -412.318455128 Eh
FINAL SINGLE POINT ENERGY      -412.318455128152

DIPOLE MOMENT
-------------
                                X             Y             Z
Electronic contribution:      0.03301      -5.98753      -1.14803
Nuclear contribution   :     -0.00702       7.01640       1.98588
                        -----------------------------------------
Total Dipole Moment    :      0.02599       1.02886       0.83785
                        -----------------------------------------
Magnitude (a.u.)       :      1.32712
Magnitude (Debye)      :      3.37326

                             ****ORCA TERMINATED NORMALLY****
TOTAL RUN TIME: 0 days 0 hours 15 minutes 53 seconds 406 msec
