                         Program Version 3.0.3 - RELEASE   -
|  1> ! RI-MP2 RIJK def2-TZVP def2-TZVP/C def2-TZVP/JK TIGHTSCF
|  2> % maxcore 2000
|  3> % mp2 density relaxed end
|  4> *xyz 0 1
|  5>  C        0.0048245067     1.5605229816     0.1534033730
|  6>  C       -0.0200033800     0.0216044483     0.0333844817
|  7>  C        0.7837973596    -0.5765255487     1.1816185741
|  8>  O        1.8196988441    -1.1749061873     1.0544192954
|  9>  C       -1.4194810826    -0.5424836231     0.0407055806
| 10>  C       -1.9139340848    -1.4075819614    -0.8487347740
| 11>  C       -3.3607178563    -1.7480237181    -0.5922999613
| 12>  C       -3.5984843873    -1.1931412624     0.8351945714
| 13>  C       -2.4767468893    -0.1490108328     1.0609734777
| 14>  H        1.0292595810     1.9367690280     0.0795520656
| 15>  H       -0.5873478219     2.0125863861    -0.6472885877
| 16>  H       -0.4109196438     1.8952064263     1.1094975874
| 17>  H        0.4895870164    -0.2823051196    -0.8860678917
| 18>  H        0.3399561714    -0.4085631527     2.1909539402
| 19>  H       -1.3602522159    -1.8000530465    -1.6955624186
| 20>  H       -4.0102549683    -1.2632613847    -1.3355824409
| 21>  H       -3.5658366014    -2.8220460109    -0.6641856963
| 22>  H       -4.5988660913    -0.7745955796     0.9697622483
| 23>  H       -3.4873072440    -2.0046085980     1.5612325149
| 24>  H       -2.1095171285    -0.1512860215     2.0937104818
| 25>  H       -2.8282931039     0.8746128669     0.8683255884
| 26> *
| 27>
| 28>                          ****END OF INPUT****

CARTESIAN COORDINATES (ANGSTROEM)
---------------------------------
  C      0.004825    1.560523    0.153403
  C     -0.020003    0.021604    0.033384
  C      0.783797   -0.576526    1.181619
  O      1.819699   -1.174906    1.054419
  C     -1.419481   -0.542484    0.040706
  C     -1.913934   -1.407582   -0.848735
  C     -3.360718   -1.748024   -0.592300
  C     -3.598484   -1.193141    0.835195
  C     -2.476747   -0.149011    1.060973
  H      1.029260    1.936769    0.079552
  H     -0.587348    2.012586   -0.647289
  H     -0.410920    1.895206    1.109498
  H      0.489587   -0.282305   -0.886068
  H      0.339956   -0.408563    2.190954
  H     -1.360252   -1.800053   -1.695562
  H     -4.010255   -1.263261   -1.335582
  H     -3.565837   -2.822046   -0.664186
  H     -4.598866   -0.774596    0.969762
  H     -3.487307   -2.004609    1.561233
  H     -2.109517   -0.151286    2.093710
  H     -2.828293    0.874613    0.868326

 Total Charge           Charge          ....    0
 Multiplicity           Mult            ....    1
 Number of Electrons    NEL             ....   68
 Basis Dimension        Dim             ....  351

ORBITAL ENERGIES
----------------

  NO   OCC          E(Eh)            E(eV)
   0   2.0000     -20.553972      -559.3020
   1   2.0000     -11.328195      -308.2559
   2   2.0000     -11.249065      -306.1026
   3   2.0000     -11.238081      -305.8037
   4   2.0000     -11.234874      -305.7165
   5   2.0000     -11.233401      -305.6764
   6   2.0000     -11.228785      -305.5508
   7   2.0000     -11.227455      -305.5146
   8   2.0000     -11.227200      -305.5077
   9   2.0000      -1.393305       -37.9138
  10   2.0000      -1.149417       -31.2772
  11   2.0000      -1.072115       -29.1737
  12   2.0000      -0.971638       -26.4396
  13   2.0000      -0.957612       -26.0579
  14   2.0000      -0.895815       -24.3764
  15   2.0000      -0.808928       -22.0121
  16   2.0000      -0.780730       -21.2448
  17   2.0000      -0.723182       -19.6788
  18   2.0000      -0.682831       -18.5808
  19   2.0000      -0.651472       -17.7275
  20   2.0000      -0.637702       -17.3528
  21   2.0000      -0.622189       -16.9306
  22   2.0000      -0.586365       -15.9558
  23   2.0000      -0.567542       -15.4436
  24   2.0000      -0.557138       -15.1605
  25   2.0000      -0.539787       -14.6883
  26   2.0000      -0.531975       -14.4758
  27   2.0000      -0.503992       -13.7143
  28   2.0000      -0.492280       -13.3956
  29   2.0000      -0.487379       -13.2623
  30   2.0000      -0.481703       -13.1078
  31   2.0000      -0.473410       -12.8821
  32   2.0000      -0.420441       -11.4408
  33   2.0000      -0.341760        -9.2997
  34   0.0000       0.123397         3.3578
  35   0.0000       0.127424         3.4674
  36   0.0000       0.152293         4.1441
  37   0.0000       0.156645         4.2625
  38   0.0000       0.169617         4.6155

MULLIKEN ATOMIC CHARGES
-----------------------
   0 C :   -0.433150
   1 C :    0.040588
   2 C :    0.078753
   3 O :   -0.258543
   4 C :   -0.017196
   5 C :   -0.214151
   6 C :   -0.164179
   7 C :   -0.231513
   8 C :   -0.243266
   9 H :    0.151104
  10 H :    0.145007
  11 H :    0.134780
  12 H :    0.092075
  13 H :    0.069542
  14 H :    0.129767
  15 H :    0.114033
  16 H :    0.121833
  17 H :    0.124479
  18 H :    0.113617
  19 H :    0.124804
  20 H :    0.121616
Sum of atomic charges:    0.0000000

LOEWDIN ATOMIC CHARGES
----------------------
   0 C :   -0.275412
   1 C :   -0.244243
   2 C :   -0.264115
   3 O :    0.136547
   4 C :   -0.149765
   5 C :   -0.129684
   6 C :   -0.243402
   7 C :   -0.235942
   8 C :   -0.216503
   9 H :    0.128893
  10 H :    0.130252
  11 H :    0.126216
  12 H :    0.164588
  13 H :    0.112036
  14 H :    0.139844
  15 H :    0.139179
  16 H :    0.136275
  17 H :    0.130925
  18 H :    0.138203
  19 H :    0.134733
  20 H :    0.141374

  Mayer bond orders larger than 0.1
B(  0-C ,  1-C ) :   0.8929 B(  0-C ,  9-H ) :   0.9360 B(  0-C , 10-H ) :   0.9345
B(  0-C , 11-H ) :   0.9231 B(  1-C ,  2-C ) :   0.8586 B(  1-C ,  4-C ) :   0.8656
B(  1-C , 12-H ) :   0.9109 B(  2-C ,  3-O ) :   2.0098 B(  2-C , 13-H ) :   0.9316
B(  4-C ,  5-C ) :   1.7437 B(  4-C ,  8-C ) :   0.9043 B(  5-C ,  6-C ) :   0.9474
B(  5-C , 14-H ) :   0.9187 B(  6-C ,  7-C ) :   0.9501 B(  6-C , 15-H ) :   0.9098
B(  6-C , 16-H ) :   0.9319 B(  7-C ,  8-C ) :   0.9495 B(  7-C , 17-H ) :   0.9408
B(  7-C , 18-H ) :   0.9308 B(  8-C , 19-H ) :   0.9257 B(  8-C , 20-H ) :   0.9107

MP2 TOTAL ENERGY:     -386.433483505 Eh
FINAL SINGLE POINT ENERGY      -386.433483504972

DIPOLE MOMENT
-------------
                                X             Y             Z
Electronic contribution:      6.39359      -3.16177       0.36187
Nuclear contribution   :     -7.39592       3.72788      -0.46282
                        -----------------------------------------
Total Dipole Moment    :     -1.00233       0.56610      -0.10095
                        -----------------------------------------
Magnitude (a.u.)       :      1.15556
Magnitude (Debye)      :      2.93721

                             ****ORCA TERMINATED NORMALLY****
TOTAL RUN TIME: 0 days 0 hours 20 minutes 50 seconds 137 msec
