                         Program Version 3.0.3 - RELEASE   -
|  1> ! RI-MP2 RIJK def2-TZVP def2-TZVP/C def2-TZVP/JK TIGHTSCF
|  2> % maxcore 2000
|  3> % mp2 density relaxed end
|  4> *xyz 0 1
|  5>  O        0.5637640284     0.2349626708     0.9272277491
|  6>  C       -0.1771534750     0.3354236464    -0.2756903944
|  7>  C       -1.5301014731    -0.2997663575    -0.1270468855
|  8>  N       -2.6468316534    -0.3054159589    -1.1219454208
|  9>  C       -3.2811970351     0.9871335281    -1.3719410560
| 10>  C       -3.2004533470    -1.0798292873     0.0312941107
| 11>  C       -1.8306661908    -1.7735220869     0.2820682335
| 12>  N       -1.7339718753    -1.4404759101     1.7408160497
| 13>  C       -2.4527179927    -0.2602495888     1.1517214423
| 14>  H        0.1547385308    -0.4543990166     1.4720750808
| 15>  H       -0.2860289780     1.4002468042    -0.5257490523
| 16>  H        0.3545099743    -0.1395510641    -1.1160613716
| 17>  H       -2.6500943511     1.5779070019    -2.0430934154
| 18>  H       -4.2384221859     0.8221743912    -1.8768402313
| 19>  H       -3.4706955153     1.5845166125    -0.4640437554
| 20>  H       -4.2049265020    -1.5090673236     0.0370994188
| 21>  H       -1.4365857412    -2.6855158296    -0.1652106776
| 22>  H       -2.3678259044    -2.0203962877     2.2953770332
| 23>  H       -2.7786072733     0.5827415559     1.7603447023
| 24> *
| 25>
| 26>                          ****END OF INPUT****

CARTESIAN COORDINATES (ANGSTROEM)
---------------------------------
  O      0.563764    0.234963    0.927228
  C     -0.177153    0.335424   -0.275690
  C     -1.530101   -0.299766   -0.127047
  N     -2.646832   -0.305416   -1.121945
  C     -3.281197    0.987134   -1.371941
  C     -3.200453   -1.079829    0.031294
  C     -1.830666   -1.773522    0.282068
  N     -1.733972   -1.440476    1.740816
  C     -2.452718   -0.260250    1.151721
  H      0.154739   -0.454399    1.472075
  H     -0.286029    1.400247   -0.525749
  H      0.354510   -0.139551   -1.116061
  H     -2.650094    1.577907   -2.043093
  H     -4.238422    0.822174   -1.876840
  H     -3.470696    1.584517   -0.464044
  H     -4.204927   -1.509067    0.037099
  H     -1.436586   -2.685516   -0.165211
  H     -2.367826   -2.020396    2.295377
  H     -2.778607    0.582742    1.760345

 Total Charge           Charge          ....    0
 Multiplicity           Mult            ....    1
 Number of Electrons    NEL             ....   68
 Basis Dimension        Dim             ....  339

ORBITAL ENERGIES
----------------

  NO   OCC          E(Eh)            E(eV)
   0   2.0000     -20.542061      -558.9779
   1   2.0000     -15.566739      -423.5925
   2   2.0000     -15.563684      -423.5094
   3   2.0000     -11.284630      -307.0704
   4   2.0000     -11.283538      -307.0407
   5   2.0000     -11.282829      -307.0214
   6   2.0000     -11.281750      -306.9920
   7   2.0000     -11.277334      -306.8719
   8   2.0000     -11.248721      -306.0933
   9   2.0000      -1.356753       -36.9191
  10   2.0000      -1.332810       -36.2676
  11   2.0000      -1.202467       -32.7208
  12   2.0000      -1.020491       -27.7690
  13   2.0000      -0.972168       -26.4540
  14   2.0000      -0.897538       -24.4233
  15   2.0000      -0.868990       -23.6464
  16   2.0000      -0.848719       -23.0948
  17   2.0000      -0.714490       -19.4423
  18   2.0000      -0.710210       -19.3258
  19   2.0000      -0.678382       -18.4597
  20   2.0000      -0.640055       -17.4168
  21   2.0000      -0.630938       -17.1687
  22   2.0000      -0.614157       -16.7121
  23   2.0000      -0.599034       -16.3005
  24   2.0000      -0.579366       -15.7653
  25   2.0000      -0.550942       -14.9919
  26   2.0000      -0.534325       -14.5397
  27   2.0000      -0.498969       -13.5776
  28   2.0000      -0.472504       -12.8575
  29   2.0000      -0.454187       -12.3591
  30   2.0000      -0.452743       -12.3198
  31   2.0000      -0.422202       -11.4887
  32   2.0000      -0.392976       -10.6934
  33   2.0000      -0.371110       -10.0984
  34   0.0000       0.135680         3.6920
  35   0.0000       0.138777         3.7763
  36   0.0000       0.163661         4.4534
  37   0.0000       0.169789         4.6202
  38   0.0000       0.181949         4.9511

MULLIKEN ATOMIC CHARGES
-----------------------
   0 O :   -0.485794
   1 C :    0.006412
   2 C :   -0.057856
   3 N :   -0.177065
   4 C :   -0.330344
   5 C :   -0.088237
   6 C :    0.018218
   7 N :   -0.390396
   8 C :   -0.051826
   9 H :    0.339600
  10 H :    0.104455
  11 H :    0.107878
  12 H :    0.142247
  13 H :    0.142410
  14 H :    0.109832
  15 H :    0.136291
  16 H :    0.134374
  17 H :    0.200649
  18 H :    0.139153
Sum of atomic charges:   -0.0000000

LOEWDIN ATOMIC CHARGES
----------------------
   0 O :   -0.041263
   1 C :   -0.306558
   2 C :   -0.221907
   3 N :    0.111561
   4 C :   -0.331444
   5 C :   -0.174109
   6 C :   -0.165770
   7 N :   -0.016254
   8 C :   -0.175162
   9 H :    0.175599
  10 H :    0.130327
  11 H :    0.128274
  12 H :    0.119033
  13 H :    0.119547
  14 H :    0.107407
  15 H :    0.125945
  16 H :    0.129894
  17 H :    0.158557
  18 H :    0.126323

  Mayer bond orders larger than 0.1
B(  0-O ,  1-C ) :   0.9749 B(  0-O ,  9-H ) :   0.8032 B(  1-C ,  2-C ) :   0.9021
B(  1-C , 10-H ) :   0.9223 B(  1-C , 11-H ) :   0.9369 B(  2-C ,  3-N ) :   0.8935
B(  2-C ,  6-C ) :   0.8744 B(  2-C ,  8-C ) :   0.8277 B(  3-N ,  4-C ) :   0.8859
B(  3-N ,  5-C ) :   0.8803 B(  4-C , 12-H ) :   0.9403 B(  4-C , 13-H ) :   0.9384
B(  4-C , 14-H ) :   0.9207 B(  5-C ,  6-C ) :   0.8670 B(  5-C ,  8-C ) :   0.8290
B(  5-C , 15-H ) :   0.8925 B(  6-C ,  7-N ) :   0.8742 B(  6-C , 16-H ) :   0.8925
B(  7-N ,  8-C ) :   0.8532 B(  7-N , 17-H ) :   0.8657 B(  8-C , 18-H ) :   0.9095

MP2 TOTAL ENERGY:     -418.379456950 Eh
FINAL SINGLE POINT ENERGY      -418.379456949801

DIPOLE MOMENT
-------------
                                X             Y             Z
Electronic contribution:      1.77378      -2.90773       2.01092
Nuclear contribution   :     -2.99945       2.68365      -1.99854
                        -----------------------------------------
Total Dipole Moment    :     -1.22567      -0.22408       0.01238
                        -----------------------------------------
Magnitude (a.u.)       :      1.24604
Magnitude (Debye)      :      3.16719

                             ****ORCA TERMINATED NORMALLY****
TOTAL RUN TIME: 0 days 0 hours 17 minutes 35 seconds 664 msec
