                         Program Version 3.0.3 - RELEASE   -
|  1> ! RI-MP2 RIJK def2-TZVP def2-TZVP/C def2-TZVP/JK TIGHTSCF
|  2> % maxcore 2000
|  3> % mp2 density relaxed end
|  4> *xyz 0 1
|  5>  C        0.0051026130     1.5656053221    -0.2123931705
|  6>  C        0.0349317264     0.0622446589     0.0856499534
|  7>  C       -1.3467636574    -0.5845073077     0.0227592297
|  8>  C       -2.1395849112    -0.6967993181    -1.3183708873
|  9>  C       -1.2234541718    -1.5137246486    -2.2702029215
| 10>  C       -1.4347583695    -2.6731109531    -1.3003530344
| 11>  C       -2.7237331715    -2.0680704523    -0.7860353116
| 12>  C       -1.5248329439    -2.1039753447     0.1312371597
| 13>  C       -1.2970561846    -2.9610947116     1.3416223825
| 14>  H        1.0026716323     2.0092233260    -0.1358246244
| 15>  H       -0.3689668749     1.7622583690    -1.2230827446
| 16>  H       -0.6495682063     2.0948143132     0.4893211444
| 17>  H        0.7200445815    -0.4390027725    -0.6074708955
| 18>  H        0.4515712627    -0.1025625076     1.0884438726
| 19>  H       -2.0023058798    -0.1097909500     0.7660775545
| 20>  H       -2.7198549731     0.1447156311    -1.6919692408
| 21>  H       -1.7240072634    -1.7076442867    -3.2236015093
| 22>  H       -0.2099073245    -1.1450921871    -2.4650232834
| 23>  H       -1.2165352471    -3.7227827339    -1.4558501941
| 24>  H       -3.7240291507    -2.4651922264    -0.6875812683
| 25>  H       -1.6693114632    -3.9791332706     1.1820089839
| 26>  H       -0.2312700269    -3.0365440953     1.5880745406
| 27>  H       -1.8131651861    -2.5542443342     2.2191727746
| 28> *
| 29>
| 30>                          ****END OF INPUT****

CARTESIAN COORDINATES (ANGSTROEM)
---------------------------------
  C      0.005103    1.565605   -0.212393
  C      0.034932    0.062245    0.085650
  C     -1.346764   -0.584507    0.022759
  C     -2.139585   -0.696799   -1.318371
  C     -1.223454   -1.513725   -2.270203
  C     -1.434758   -2.673111   -1.300353
  C     -2.723733   -2.068070   -0.786035
  C     -1.524833   -2.103975    0.131237
  C     -1.297056   -2.961095    1.341622
  H      1.002672    2.009223   -0.135825
  H     -0.368967    1.762258   -1.223083
  H     -0.649568    2.094814    0.489321
  H      0.720045   -0.439003   -0.607471
  H      0.451571   -0.102563    1.088444
  H     -2.002306   -0.109791    0.766078
  H     -2.719855    0.144716   -1.691969
  H     -1.724007   -1.707644   -3.223602
  H     -0.209907   -1.145092   -2.465023
  H     -1.216535   -3.722783   -1.455850
  H     -3.724029   -2.465192   -0.687581
  H     -1.669311   -3.979133    1.182009
  H     -0.231270   -3.036544    1.588075
  H     -1.813165   -2.554244    2.219173

 Total Charge           Charge          ....    0
 Multiplicity           Mult            ....    1
 Number of Electrons    NEL             ....   68
 Basis Dimension        Dim             ....  363

ORBITAL ENERGIES
----------------

  NO   OCC          E(Eh)            E(eV)
   0   2.0000     -11.230153      -305.5880
   1   2.0000     -11.229822      -305.5790
   2   2.0000     -11.224489      -305.4339
   3   2.0000     -11.221283      -305.3466
   4   2.0000     -11.220978      -305.3383
   5   2.0000     -11.217449      -305.2423
   6   2.0000     -11.215717      -305.1952
   7   2.0000     -11.211239      -305.0733
   8   2.0000     -11.209291      -305.0203
   9   2.0000      -1.224244       -33.3134
  10   2.0000      -1.043526       -28.3958
  11   2.0000      -1.004566       -27.3356
  12   2.0000      -0.943790       -25.6818
  13   2.0000      -0.917377       -24.9631
  14   2.0000      -0.860020       -23.4023
  15   2.0000      -0.792548       -21.5663
  16   2.0000      -0.724014       -19.7014
  17   2.0000      -0.710791       -19.3416
  18   2.0000      -0.664569       -18.0838
  19   2.0000      -0.625588       -17.0231
  20   2.0000      -0.598897       -16.2968
  21   2.0000      -0.584896       -15.9158
  22   2.0000      -0.571325       -15.5465
  23   2.0000      -0.551228       -14.9997
  24   2.0000      -0.534742       -14.5511
  25   2.0000      -0.518972       -14.1220
  26   2.0000      -0.516071       -14.0430
  27   2.0000      -0.501156       -13.6371
  28   2.0000      -0.474192       -12.9034
  29   2.0000      -0.460145       -12.5212
  30   2.0000      -0.424248       -11.5444
  31   2.0000      -0.421270       -11.4633
  32   2.0000      -0.373158       -10.1541
  33   2.0000      -0.355511        -9.6740
  34   0.0000       0.137505         3.7417
  35   0.0000       0.149082         4.0567
  36   0.0000       0.164425         4.4742
  37   0.0000       0.171051         4.6545
  38   0.0000       0.190797         5.1918

MULLIKEN ATOMIC CHARGES
-----------------------
   0 C :   -0.398236
   1 C :   -0.243596
   2 C :    0.002711
   3 C :   -0.077250
   4 C :   -0.208744
   5 C :   -0.181949
   6 C :   -0.197257
   7 C :    0.023675
   8 C :   -0.436138
   9 H :    0.133688
  10 H :    0.127557
  11 H :    0.122765
  12 H :    0.114423
  13 H :    0.111298
  14 H :    0.087732
  15 H :    0.133028
  16 H :    0.111156
  17 H :    0.105408
  18 H :    0.125858
  19 H :    0.141829
  20 H :    0.133371
  21 H :    0.137052
  22 H :    0.131618
Sum of atomic charges:    0.0000000

LOEWDIN ATOMIC CHARGES
----------------------
   0 C :   -0.316789
   1 C :   -0.272708
   2 C :   -0.178821
   3 C :   -0.138846
   4 C :   -0.202732
   5 C :   -0.151877
   6 C :   -0.107994
   7 C :   -0.194451
   8 C :   -0.273522
   9 H :    0.119923
  10 H :    0.121222
  11 H :    0.120584
  12 H :    0.136709
  13 H :    0.138008
  14 H :    0.157870
  15 H :    0.129249
  16 H :    0.138512
  17 H :    0.120121
  18 H :    0.136541
  19 H :    0.132279
  20 H :    0.131097
  21 H :    0.128208
  22 H :    0.127417

  Mayer bond orders larger than 0.1
B(  0-C ,  1-C ) :   0.9143 B(  0-C ,  9-H ) :   0.9420 B(  0-C , 10-H ) :   0.9406
B(  0-C , 11-H ) :   0.9384 B(  1-C ,  2-C ) :   0.8800 B(  1-C , 12-H ) :   0.9370
B(  1-C , 13-H ) :   0.9330 B(  2-C ,  3-C ) :   0.9408 B(  2-C ,  7-C ) :   0.9347
B(  2-C , 14-H ) :   0.9159 B(  3-C ,  4-C ) :   0.9045 B(  3-C ,  6-C ) :   0.9277
B(  3-C , 15-H ) :   0.9136 B(  4-C ,  5-C ) :   0.9526 B(  4-C , 16-H ) :   0.9248
B(  4-C , 17-H ) :   0.9230 B(  5-C ,  6-C ) :   0.8584 B(  5-C ,  7-C ) :   0.8324
B(  5-C , 18-H ) :   0.9337 B(  6-C ,  7-C ) :   0.8417 B(  6-C , 19-H ) :   0.9057
B(  7-C ,  8-C ) :   0.8821 B(  8-C , 20-H ) :   0.9364 B(  8-C , 21-H ) :   0.9426
B(  8-C , 22-H ) :   0.9422

MP2 TOTAL ENERGY:     -350.466258830 Eh
FINAL SINGLE POINT ENERGY      -350.466258830095

DIPOLE MOMENT
-------------
                                X             Y             Z
Electronic contribution:     -3.32767      -3.21310      -2.02779
Nuclear contribution   :      3.29267       3.16901       2.10867
                        -----------------------------------------
Total Dipole Moment    :     -0.03500      -0.04409       0.08089
                        -----------------------------------------
Magnitude (a.u.)       :      0.09855
Magnitude (Debye)      :      0.25050

                             ****ORCA TERMINATED NORMALLY****
TOTAL RUN TIME: 0 days 0 hours 34 minutes 40 seconds 274 msec
