                         Program Version 3.0.3 - RELEASE   -
|  1> ! RI-MP2 RIJK def2-TZVP def2-TZVP/C def2-TZVP/JK TIGHTSCF
|  2> % maxcore 2000
|  3> % mp2 density relaxed end
|  4> *xyz 0 1
|  5>  C        0.2476613328     1.3550562403    -0.3393421753
|  6>  C        0.0377874157    -0.0550475809     0.2121291466
|  7>  O        0.3672552675    -0.1361809102     1.6018963420
|  8>  C       -1.3647951189    -0.5613057607    -0.0132916303
|  9>  C       -2.2207910731    -0.5705291434    -1.1068893794
| 10>  N       -1.9655470365    -0.0150365628    -2.3879876524
| 11>  C       -3.3903648409    -1.2101075351    -0.6347490029
| 12>  N       -3.2810847764    -1.5753614291     0.6418260933
| 13>  N       -2.0446353389    -1.1851883978     0.9837875237
| 14>  H        1.2897865759     1.6592914530    -0.2097991129
| 15>  H       -0.0221291827     1.4000934677    -1.3970866859
| 16>  H       -0.3987732717     2.0664268435     0.1888447348
| 17>  H        0.7519493181    -0.7346542582    -0.2723646935
| 18>  H       -0.0071638616     0.6426590861     2.0293757041
| 19>  H       -1.2884332980    -0.5617823846    -2.9107038003
| 20>  H       -2.8143823986     0.0157852170    -2.9405114963
| 21>  H       -4.3058032311    -1.4044309971    -1.1767229335
| 22>  H       -1.6774209817    -1.3702650878     1.9021787382
| 23> *
| 24>
| 25>                          ****END OF INPUT****

CARTESIAN COORDINATES (ANGSTROEM)
---------------------------------
  C      0.247661    1.355056   -0.339342
  C      0.037787   -0.055048    0.212129
  O      0.367255   -0.136181    1.601896
  C     -1.364795   -0.561306   -0.013292
  C     -2.220791   -0.570529   -1.106889
  N     -1.965547   -0.015037   -2.387988
  C     -3.390365   -1.210108   -0.634749
  N     -3.281085   -1.575361    0.641826
  N     -2.044635   -1.185188    0.983788
  H      1.289787    1.659291   -0.209799
  H     -0.022129    1.400093   -1.397087
  H     -0.398773    2.066427    0.188845
  H      0.751949   -0.734654   -0.272365
  H     -0.007164    0.642659    2.029376
  H     -1.288433   -0.561782   -2.910704
  H     -2.814382    0.015785   -2.940511
  H     -4.305803   -1.404431   -1.176723
  H     -1.677421   -1.370265    1.902179

 Total Charge           Charge          ....    0
 Multiplicity           Mult            ....    1
 Number of Electrons    NEL             ....   68
 Basis Dimension        Dim             ....  333

ORBITAL ENERGIES
----------------

  NO   OCC          E(Eh)            E(eV)
   0   2.0000     -20.572740      -559.8127
   1   2.0000     -15.626586      -425.2210
   2   2.0000     -15.579660      -423.9441
   3   2.0000     -15.561030      -423.4372
   4   2.0000     -11.304980      -307.6241
   5   2.0000     -11.265108      -306.5392
   6   2.0000     -11.250591      -306.1442
   7   2.0000     -11.244022      -305.9654
   8   2.0000     -11.225825      -305.4702
   9   2.0000      -1.384222       -37.6666
  10   2.0000      -1.362496       -37.0754
  11   2.0000      -1.200285       -32.6614
  12   2.0000      -1.098068       -29.8799
  13   2.0000      -1.044794       -28.4303
  14   2.0000      -0.997063       -27.1315
  15   2.0000      -0.875197       -23.8153
  16   2.0000      -0.814710       -22.1694
  17   2.0000      -0.777893       -21.1675
  18   2.0000      -0.735142       -20.0042
  19   2.0000      -0.680293       -18.5117
  20   2.0000      -0.654407       -17.8073
  21   2.0000      -0.640967       -17.4416
  22   2.0000      -0.615804       -16.7569
  23   2.0000      -0.603751       -16.4289
  24   2.0000      -0.599055       -16.3011
  25   2.0000      -0.579251       -15.7622
  26   2.0000      -0.553451       -15.0602
  27   2.0000      -0.535363       -14.5680
  28   2.0000      -0.503539       -13.7020
  29   2.0000      -0.484294       -13.1783
  30   2.0000      -0.462354       -12.5813
  31   2.0000      -0.436364       -11.8741
  32   2.0000      -0.351643        -9.5687
  33   2.0000      -0.311000        -8.4627
  34   0.0000       0.123769         3.3679
  35   0.0000       0.134441         3.6583
  36   0.0000       0.154618         4.2074
  37   0.0000       0.169877         4.6226
  38   0.0000       0.171899         4.6776

MULLIKEN ATOMIC CHARGES
-----------------------
   0 C :   -0.376585
   1 C :    0.099062
   2 O :   -0.491429
   3 C :   -0.067679
   4 C :    0.143471
   5 N :   -0.576307
   6 C :   -0.150126
   7 N :   -0.223202
   8 N :   -0.086157
   9 H :    0.144144
  10 H :    0.152077
  11 H :    0.116520
  12 H :    0.107994
  13 H :    0.320565
  14 H :    0.254519
  15 H :    0.247180
  16 H :    0.124690
  17 H :    0.261264
Sum of atomic charges:    0.0000000

LOEWDIN ATOMIC CHARGES
----------------------
   0 C :   -0.292320
   1 C :   -0.333679
   2 O :   -0.024201
   3 C :   -0.217106
   4 C :   -0.272512
   5 N :   -0.114132
   6 C :   -0.275636
   7 N :    0.014990
   8 N :    0.149396
   9 H :    0.124737
  10 H :    0.134021
  11 H :    0.125304
  12 H :    0.151690
  13 H :    0.176479
  14 H :    0.165584
  15 H :    0.166154
  16 H :    0.131238
  17 H :    0.189993

  Mayer bond orders larger than 0.1
B(  0-C ,  1-C ) :   0.9804 B(  0-C ,  9-H ) :   0.9366 B(  0-C , 10-H ) :   0.9182
B(  0-C , 11-H ) :   0.9165 B(  1-C ,  2-O ) :   0.8850 B(  1-C ,  3-C ) :   0.9241
B(  1-C , 12-H ) :   0.9068 B(  2-O , 13-H ) :   0.8395 B(  3-C ,  4-C ) :   1.3667
B(  3-C ,  7-N ) :   0.1271 B(  3-C ,  8-N ) :   1.2006 B(  4-C ,  5-N ) :   0.9418
B(  4-C ,  6-C ) :   1.2968 B(  5-N , 14-H ) :   0.8727 B(  5-N , 15-H ) :   0.8936
B(  6-C ,  7-N ) :   1.5284 B(  6-C , 16-H ) :   0.9447 B(  7-N ,  8-N ) :   1.0627
B(  8-N , 17-H ) :   0.8582

MP2 TOTAL ENERGY:     -434.565697928 Eh
FINAL SINGLE POINT ENERGY      -434.565697927988

DIPOLE MOMENT
-------------
                                X             Y             Z
Electronic contribution:     -3.87606      -4.56711       3.06121
Nuclear contribution   :      4.35794       5.04556      -3.63943
                        -----------------------------------------
Total Dipole Moment    :      0.48188       0.47845      -0.57822
                        -----------------------------------------
Magnitude (a.u.)       :      0.89188
Magnitude (Debye)      :      2.26699

                             ****ORCA TERMINATED NORMALLY****
TOTAL RUN TIME: 0 days 0 hours 16 minutes 38 seconds 333 msec
