                         Program Version 3.0.3 - RELEASE   -
|  1> ! RI-MP2 RIJK def2-TZVP def2-TZVP/C def2-TZVP/JK TIGHTSCF
|  2> % maxcore 2000
|  3> % mp2 density relaxed end
|  4> *xyz 0 1
|  5>  C       -0.0580673803     1.5054309393    -0.1146334617
|  6>  C        1.4926210942     1.5016602785    -0.0877838247
|  7>  C        1.4427379539     0.0905178390     0.5843438417
|  8>  C       -0.0270567204    -0.0347290024     0.0651285224
|  9>  C        2.4411278700    -0.9343200071     0.2095560858
| 10>  C        3.3023997852    -1.7155152031     0.9198029599
| 11>  C        4.0167066327    -2.5161426204    -0.0309990131
| 12>  C        3.5361966414    -2.1636722346    -1.2499767470
| 13>  O        2.5796666634    -1.2040961399    -1.1248874264
| 14>  H       -0.4770025343     2.0071147626     0.7626337818
| 15>  H       -0.5478053271     1.9010321146    -1.0069294283
| 16>  H        1.9143912779     1.4320126902    -1.0936579279
| 17>  H        2.0053225641     2.2977437482     0.4572796122
| 18>  H        1.4515143146     0.1902236071     1.6733980973
| 19>  H       -0.7570152919    -0.4949757932     0.7352317851
| 20>  H       -0.0506824225    -0.5546629390    -0.8959305111
| 21>  H        3.4146841305    -1.7196569478     1.9929783985
| 22>  H        4.7803928405    -3.2509524491     0.1704713811
| 23>  H        3.7529340181    -2.4789942028    -2.2572724157
| 24> *
| 25>
| 26>                          ****END OF INPUT****

CARTESIAN COORDINATES (ANGSTROEM)
---------------------------------
  C     -0.058067    1.505431   -0.114633
  C      1.492621    1.501660   -0.087784
  C      1.442738    0.090518    0.584344
  C     -0.027057   -0.034729    0.065129
  C      2.441128   -0.934320    0.209556
  C      3.302400   -1.715515    0.919803
  C      4.016707   -2.516143   -0.030999
  C      3.536197   -2.163672   -1.249977
  O      2.579667   -1.204096   -1.124887
  H     -0.477003    2.007115    0.762634
  H     -0.547805    1.901032   -1.006929
  H      1.914391    1.432013   -1.093658
  H      2.005323    2.297744    0.457280
  H      1.451514    0.190224    1.673398
  H     -0.757015   -0.494976    0.735232
  H     -0.050682   -0.554663   -0.895931
  H      3.414684   -1.719657    1.992978
  H      4.780393   -3.250952    0.170471
  H      3.752934   -2.478994   -2.257272

 Total Charge           Charge          ....    0
 Multiplicity           Mult            ....    1
 Number of Electrons    NEL             ....   66
 Basis Dimension        Dim             ....  339

ORBITAL ENERGIES
----------------

  NO   OCC          E(Eh)            E(eV)
   0   2.0000     -20.612348      -560.8905
   1   2.0000     -11.282728      -307.0186
   2   2.0000     -11.279268      -306.9245
   3   2.0000     -11.237517      -305.7884
   4   2.0000     -11.223503      -305.4070
   5   2.0000     -11.222050      -305.3675
   6   2.0000     -11.221975      -305.3655
   7   2.0000     -11.220182      -305.3167
   8   2.0000     -11.219139      -305.2883
   9   2.0000      -1.450025       -39.4572
  10   2.0000      -1.133988       -30.8574
  11   2.0000      -1.076296       -29.2875
  12   2.0000      -1.012242       -27.5445
  13   2.0000      -0.897460       -24.4211
  14   2.0000      -0.896816       -24.4036
  15   2.0000      -0.803951       -21.8766
  16   2.0000      -0.778138       -21.1742
  17   2.0000      -0.745156       -20.2767
  18   2.0000      -0.709509       -19.3067
  19   2.0000      -0.648935       -17.6584
  20   2.0000      -0.631694       -17.1893
  21   2.0000      -0.626371       -17.0444
  22   2.0000      -0.576725       -15.6935
  23   2.0000      -0.557325       -15.1656
  24   2.0000      -0.542509       -14.7624
  25   2.0000      -0.542093       -14.7511
  26   2.0000      -0.539273       -14.6744
  27   2.0000      -0.498123       -13.5546
  28   2.0000      -0.463002       -12.5989
  29   2.0000      -0.444200       -12.0873
  30   2.0000      -0.442342       -12.0367
  31   2.0000      -0.391115       -10.6428
  32   2.0000      -0.302659        -8.2358
  33   0.0000       0.142131         3.8676
  34   0.0000       0.143004         3.8913
  35   0.0000       0.161223         4.3871
  36   0.0000       0.176682         4.8078
  37   0.0000       0.182225         4.9586

MULLIKEN ATOMIC CHARGES
-----------------------
   0 C :   -0.195044
   1 C :   -0.255848
   2 C :   -0.018447
   3 C :   -0.255878
   4 C :    0.227661
   5 C :   -0.304624
   6 C :   -0.128929
   7 C :   -0.062719
   8 O :   -0.236656
   9 H :    0.109147
  10 H :    0.115836
  11 H :    0.124939
  12 H :    0.116851
  13 H :    0.108484
  14 H :    0.116849
  15 H :    0.124934
  16 H :    0.133013
  17 H :    0.137681
  18 H :    0.142749
Sum of atomic charges:   -0.0000000

LOEWDIN ATOMIC CHARGES
----------------------
   0 C :   -0.246140
   1 C :   -0.211593
   2 C :   -0.203310
   3 C :   -0.211599
   4 C :   -0.235058
   5 C :   -0.163545
   6 C :   -0.194151
   7 C :   -0.246821
   8 O :    0.356033
   9 H :    0.132322
  10 H :    0.122192
  11 H :    0.138293
  12 H :    0.122785
  13 H :    0.162516
  14 H :    0.122783
  15 H :    0.138291
  16 H :    0.143735
  17 H :    0.142192
  18 H :    0.131073

  Mayer bond orders larger than 0.1
B(  0-C ,  1-C ) :   0.9419 B(  0-C ,  3-C ) :   0.9419 B(  0-C ,  9-H ) :   0.9259
B(  0-C , 10-H ) :   0.9257 B(  1-C ,  2-C ) :   0.9043 B(  1-C , 11-H ) :   0.9242
B(  1-C , 12-H ) :   0.9287 B(  2-C ,  3-C ) :   0.9043 B(  2-C ,  4-C ) :   0.9006
B(  2-C , 13-H ) :   0.9253 B(  3-C , 14-H ) :   0.9287 B(  3-C , 15-H ) :   0.9242
B(  4-C ,  5-C ) :   1.4960 B(  4-C ,  8-O ) :   0.9923 B(  5-C ,  6-C ) :   1.2120
B(  5-C , 16-H ) :   0.9290 B(  6-C ,  7-C ) :   1.5440 B(  6-C , 17-H ) :   0.9243
B(  7-C ,  8-O ) :   1.0684 B(  7-C , 18-H ) :   0.9367

MP2 TOTAL ENERGY:     -385.223539647 Eh
FINAL SINGLE POINT ENERGY      -385.223539646727

DIPOLE MOMENT
-------------
                                X             Y             Z
Electronic contribution:      4.72394      -4.81118      -1.39187
Nuclear contribution   :     -4.72457       4.82811       1.55789
                        -----------------------------------------
Total Dipole Moment    :     -0.00063       0.01694       0.16602
                        -----------------------------------------
Magnitude (a.u.)       :      0.16688
Magnitude (Debye)      :      0.42417

                             ****ORCA TERMINATED NORMALLY****
TOTAL RUN TIME: 0 days 0 hours 17 minutes 35 seconds 852 msec
