                         Program Version 3.0.3 - RELEASE   -
|  1> ! RI-MP2 RIJK def2-TZVP def2-TZVP/C def2-TZVP/JK TIGHTSCF
|  2> % maxcore 2000
|  3> % mp2 density relaxed end
|  4> *xyz 0 1
|  5>  C        0.0492128637     1.4911411801    -0.1768824334
|  6>  C        0.0155465705    -0.0305215136     0.0683997130
|  7>  C        0.7248028647    -0.3994028815     1.3865830977
|  8>  C       -1.3576789257    -0.5389973159     0.0467871032
|  9>  C       -2.4928287453    -0.9456174132     0.0451863852
| 10>  C       -3.8745197383    -1.4453185100     0.0369270522
| 11>  C       -3.8634532017    -2.9837540565    -0.1112290949
| 12>  C       -4.5686771327    -1.0589087921     1.3626369213
| 13>  C       -4.6405983254    -0.8174646519    -1.1495888612
| 14>  H        1.0832345353     1.8504317413    -0.2022601113
| 15>  H       -0.4295217256     1.7470993623    -1.1257493905
| 16>  H       -0.4787819704     2.0211244409     0.6220861376
| 17>  H        0.5668319544    -0.5119696660    -0.7519460214
| 18>  H        0.7244642577    -1.4812274990     1.5437658151
| 19>  H        1.7629703497    -0.0516868753     1.3711463822
| 20>  H        0.2194859855     0.0662857222     2.2385183821
| 21>  H       -3.3251275066    -3.4517945659     0.7178731095
| 22>  H       -4.8884034988    -3.3707660277    -0.1188596695
| 23>  H       -3.3759239616    -3.2825507387    -1.0435825089
| 24>  H       -4.5883738780     0.0271262479     1.4907712315
| 25>  H       -5.6010569409    -1.4255964054     1.3703328604
| 26>  H       -4.0434252726    -1.4917763163     2.2187964214
| 27>  H       -4.1670843298    -1.0766831233    -2.1008181819
| 28>  H       -5.6737862697    -1.1815034427    -1.1684358721
| 29>  H       -4.6614915086     0.2729885204    -1.0674172973
| 30> *
| 31>
| 32>                          ****END OF INPUT****

CARTESIAN COORDINATES (ANGSTROEM)
---------------------------------
  C      0.049213    1.491141   -0.176882
  C      0.015547   -0.030522    0.068400
  C      0.724803   -0.399403    1.386583
  C     -1.357679   -0.538997    0.046787
  C     -2.492829   -0.945617    0.045186
  C     -3.874520   -1.445319    0.036927
  C     -3.863453   -2.983754   -0.111229
  C     -4.568677   -1.058909    1.362637
  C     -4.640598   -0.817465   -1.149589
  H      1.083235    1.850432   -0.202260
  H     -0.429522    1.747099   -1.125749
  H     -0.478782    2.021124    0.622086
  H      0.566832   -0.511970   -0.751946
  H      0.724464   -1.481227    1.543766
  H      1.762970   -0.051687    1.371146
  H      0.219486    0.066286    2.238518
  H     -3.325128   -3.451795    0.717873
  H     -4.888403   -3.370766   -0.118860
  H     -3.375924   -3.282551   -1.043583
  H     -4.588374    0.027126    1.490771
  H     -5.601057   -1.425596    1.370333
  H     -4.043425   -1.491776    2.218796
  H     -4.167084   -1.076683   -2.100818
  H     -5.673786   -1.181503   -1.168436
  H     -4.661492    0.272989   -1.067417

 Total Charge           Charge          ....    0
 Multiplicity           Mult            ....    1
 Number of Electrons    NEL             ....   70
 Basis Dimension        Dim             ....  375

ORBITAL ENERGIES
----------------

  NO   OCC          E(Eh)            E(eV)
   0   2.0000     -11.255729      -306.2840
   1   2.0000     -11.249457      -306.1133
   2   2.0000     -11.216798      -305.2246
   3   2.0000     -11.216781      -305.2241
   4   2.0000     -11.214882      -305.1725
   5   2.0000     -11.214810      -305.1705
   6   2.0000     -11.214787      -305.1699
   7   2.0000     -11.209533      -305.0269
   8   2.0000     -11.205645      -304.9211
   9   2.0000      -1.113086       -30.2886
  10   2.0000      -1.085551       -29.5393
  11   2.0000      -0.980757       -26.6878
  12   2.0000      -0.931624       -25.3508
  13   2.0000      -0.931405       -25.3448
  14   2.0000      -0.930901       -25.3311
  15   2.0000      -0.839181       -22.8353
  16   2.0000      -0.789392       -21.4805
  17   2.0000      -0.662561       -18.0292
  18   2.0000      -0.640297       -17.4234
  19   2.0000      -0.609424       -16.5833
  20   2.0000      -0.599772       -16.3206
  21   2.0000      -0.598780       -16.2936
  22   2.0000      -0.566567       -15.4171
  23   2.0000      -0.543447       -14.7880
  24   2.0000      -0.542927       -14.7738
  25   2.0000      -0.537742       -14.6327
  26   2.0000      -0.521464       -14.1898
  27   2.0000      -0.514386       -13.9972
  28   2.0000      -0.499778       -13.5996
  29   2.0000      -0.491937       -13.3863
  30   2.0000      -0.489470       -13.3192
  31   2.0000      -0.474256       -12.9052
  32   2.0000      -0.474081       -12.9004
  33   2.0000      -0.357518        -9.7286
  34   2.0000      -0.357147        -9.7185
  35   0.0000       0.124554         3.3893
  36   0.0000       0.147173         4.0048
  37   0.0000       0.175413         4.7732
  38   0.0000       0.177329         4.8254
  39   0.0000       0.184180         5.0118

MULLIKEN ATOMIC CHARGES
-----------------------
   0 C :   -0.373795
   1 C :   -0.166462
   2 C :   -0.373914
   3 C :    0.079981
   4 C :   -0.018758
   5 C :   -0.052005
   6 C :   -0.388590
   7 C :   -0.388580
   8 C :   -0.388405
   9 H :    0.128814
  10 H :    0.135190
  11 H :    0.125228
  12 H :    0.111054
  13 H :    0.134945
  14 H :    0.128828
  15 H :    0.125478
  16 H :    0.132066
  17 H :    0.129287
  18 H :    0.132443
  19 H :    0.132136
  20 H :    0.128982
  21 H :    0.132381
  22 H :    0.132297
  23 H :    0.129224
  24 H :    0.132177
Sum of atomic charges:    0.0000000

LOEWDIN ATOMIC CHARGES
----------------------
   0 C :   -0.278260
   1 C :   -0.296229
   2 C :   -0.278266
   3 C :   -0.052890
   4 C :   -0.036009
   5 C :   -0.340128
   6 C :   -0.255387
   7 C :   -0.255688
   8 C :   -0.255498
   9 H :    0.121918
  10 H :    0.125548
  11 H :    0.125406
  12 H :    0.164804
  13 H :    0.125460
  14 H :    0.121924
  15 H :    0.125484
  16 H :    0.127406
  17 H :    0.124406
  18 H :    0.127525
  19 H :    0.127346
  20 H :    0.124396
  21 H :    0.127430
  22 H :    0.127462
  23 H :    0.124397
  24 H :    0.127443

  Mayer bond orders larger than 0.1
B(  0-C ,  1-C ) :   0.9422 B(  0-C ,  9-H ) :   0.9399 B(  0-C , 10-H ) :   0.9370
B(  0-C , 11-H ) :   0.9292 B(  1-C ,  2-C ) :   0.9425 B(  1-C ,  3-C ) :   1.0208
B(  1-C ,  4-C ) :  -0.1024 B(  1-C , 12-H ) :   0.9348 B(  2-C , 13-H ) :   0.9371
B(  2-C , 14-H ) :   0.9399 B(  2-C , 15-H ) :   0.9292 B(  3-C ,  4-C ) :   2.5298
B(  3-C ,  5-C ) :  -0.2039 B(  4-C ,  5-C ) :   1.1551 B(  5-C ,  6-C ) :   0.9259
B(  5-C ,  7-C ) :   0.9148 B(  5-C ,  8-C ) :   0.9229 B(  6-C , 16-H ) :   0.9334
B(  6-C , 17-H ) :   0.9373 B(  6-C , 18-H ) :   0.9336 B(  7-C , 19-H ) :   0.9334
B(  7-C , 20-H ) :   0.9369 B(  7-C , 21-H ) :   0.9334 B(  8-C , 22-H ) :   0.9336
B(  8-C , 23-H ) :   0.9371 B(  8-C , 24-H ) :   0.9334

MP2 TOTAL ENERGY:     -351.695478400 Eh
FINAL SINGLE POINT ENERGY      -351.695478399540

DIPOLE MOMENT
-------------
                                X             Y             Z
Electronic contribution:      1.09626      -0.49897      -1.07394
Nuclear contribution   :     -1.06608       0.50770       1.07098
                        -----------------------------------------
Total Dipole Moment    :      0.03018       0.00873      -0.00295
                        -----------------------------------------
Magnitude (a.u.)       :      0.03155
Magnitude (Debye)      :      0.08020

                             ****ORCA TERMINATED NORMALLY****
TOTAL RUN TIME: 0 days 0 hours 19 minutes 59 seconds 278 msec
