                         Program Version 3.0.3 - RELEASE   -
|  1> ! RI-MP2 RIJK def2-TZVP def2-TZVP/C def2-TZVP/JK TIGHTSCF
|  2> % maxcore 2000
|  3> % mp2 density relaxed end
|  4> *xyz 0 1
|  5>  N        0.0452346824    -1.0902509889    -0.0499690632
|  6>  C        0.0166992633     0.0655059424    -0.0513422550
|  7>  C       -0.0779167369     1.5017440577    -0.0497252339
|  8>  C       -1.2959839337     2.1577142480     0.6105369099
|  9>  C       -1.4657234329     3.4869170748    -0.1708645944
| 10>  C       -0.0805638941     3.7118774567    -0.7875254589
| 11>  C        1.0107238021     3.6336025501     0.3108874933
| 12>  N        1.2693101275     2.1782009197     0.0237379144
| 13>  C        0.4178612387     2.3051485045    -1.1998426218
| 14>  H       -2.1682770080     1.5060718482     0.5249805470
| 15>  H       -1.1189744069     2.3173143501     1.6785251664
| 16>  H       -2.2205059224     3.3778364680    -0.9567550737
| 17>  H       -1.7705758494     4.3159992970     0.4751097303
| 18>  H       -0.0139059197     4.5258961097    -1.5080564898
| 19>  H        1.9224307278     4.1802208216     0.0623487653
| 20>  H        0.7224197630     3.8637251549     1.3419235698
| 21>  H        0.7061767793     1.9153932553    -2.1685724258
| 22> *
| 23>
| 24>                          ****END OF INPUT****

CARTESIAN COORDINATES (ANGSTROEM)
---------------------------------
  N      0.045235   -1.090251   -0.049969
  C      0.016699    0.065506   -0.051342
  C     -0.077917    1.501744   -0.049725
  C     -1.295984    2.157714    0.610537
  C     -1.465723    3.486917   -0.170865
  C     -0.080564    3.711877   -0.787525
  C      1.010724    3.633603    0.310887
  N      1.269310    2.178201    0.023738
  C      0.417861    2.305149   -1.199843
  H     -2.168277    1.506072    0.524981
  H     -1.118974    2.317314    1.678525
  H     -2.220506    3.377836   -0.956755
  H     -1.770576    4.315999    0.475110
  H     -0.013906    4.525896   -1.508056
  H      1.922431    4.180221    0.062349
  H      0.722420    3.863725    1.341924
  H      0.706177    1.915393   -2.168572

 Total Charge           Charge          ....    0
 Multiplicity           Mult            ....    1
 Number of Electrons    NEL             ....   64
 Basis Dimension        Dim             ....  327

ORBITAL ENERGIES
----------------

  NO   OCC          E(Eh)            E(eV)
   0   2.0000     -15.591050      -424.2540
   1   2.0000     -15.568837      -423.6496
   2   2.0000     -11.314218      -307.8755
   3   2.0000     -11.289426      -307.2009
   4   2.0000     -11.275906      -306.8330
   5   2.0000     -11.271961      -306.7257
   6   2.0000     -11.261334      -306.4365
   7   2.0000     -11.256425      -306.3029
   8   2.0000     -11.249871      -306.1246
   9   2.0000      -1.331878       -36.2423
  10   2.0000      -1.213831       -33.0300
  11   2.0000      -1.089554       -29.6483
  12   2.0000      -1.052894       -28.6507
  13   2.0000      -0.948344       -25.8058
  14   2.0000      -0.886459       -24.1218
  15   2.0000      -0.846560       -23.0361
  16   2.0000      -0.767627       -20.8882
  17   2.0000      -0.736609       -20.0442
  18   2.0000      -0.672697       -18.3050
  19   2.0000      -0.637286       -17.3414
  20   2.0000      -0.627636       -17.0789
  21   2.0000      -0.583362       -15.8741
  22   2.0000      -0.565620       -15.3913
  23   2.0000      -0.556442       -15.1415
  24   2.0000      -0.544387       -14.8135
  25   2.0000      -0.519138       -14.1265
  26   2.0000      -0.506100       -13.7717
  27   2.0000      -0.488073       -13.2811
  28   2.0000      -0.473051       -12.8724
  29   2.0000      -0.439307       -11.9542
  30   2.0000      -0.435604       -11.8534
  31   2.0000      -0.385949       -10.5022
  32   0.0000       0.122941         3.3454
  33   0.0000       0.145786         3.9670
  34   0.0000       0.155726         4.2375
  35   0.0000       0.158485         4.3126
  36   0.0000       0.168675         4.5899

MULLIKEN ATOMIC CHARGES
-----------------------
   0 N :   -0.044249
   1 C :   -0.289597
   2 C :    0.300233
   3 C :   -0.216233
   4 C :   -0.277781
   5 C :   -0.000052
   6 C :   -0.173302
   7 N :   -0.234374
   8 C :   -0.156158
   9 H :    0.151283
  10 H :    0.135851
  11 H :    0.126310
  12 H :    0.129783
  13 H :    0.137632
  14 H :    0.138599
  15 H :    0.116960
  16 H :    0.155097
Sum of atomic charges:    0.0000000

LOEWDIN ATOMIC CHARGES
----------------------
   0 N :    0.074012
   1 C :   -0.143512
   2 C :   -0.245030
   3 C :   -0.188481
   4 C :   -0.222838
   5 C :   -0.205022
   6 C :   -0.211584
   7 N :    0.155420
   8 C :   -0.134472
   9 H :    0.149971
  10 H :    0.145326
  11 H :    0.141637
  12 H :    0.138538
  13 H :    0.144422
  14 H :    0.136218
  15 H :    0.125058
  16 H :    0.140336

  Mayer bond orders larger than 0.1
B(  0-N ,  1-C ) :   2.8903 B(  1-C ,  2-C ) :   0.8780 B(  2-C ,  3-C ) :   0.8723
B(  2-C ,  7-N ) :   0.7935 B(  2-C ,  8-C ) :   0.9058 B(  3-C ,  4-C ) :   0.9735
B(  3-C ,  9-H ) :   0.9221 B(  3-C , 10-H ) :   0.9169 B(  4-C ,  5-C ) :   0.9254
B(  4-C , 11-H ) :   0.9216 B(  4-C , 12-H ) :   0.9332 B(  5-C ,  6-C ) :   0.9352
B(  5-C ,  8-C ) :   0.8594 B(  5-C , 13-H ) :   0.9227 B(  6-C ,  7-N ) :   0.9202
B(  6-C , 14-H ) :   0.9244 B(  6-C , 15-H ) :   0.9203 B(  7-N ,  8-C ) :   0.9083
B(  8-C , 16-H ) :   0.8935

MP2 TOTAL ENERGY:     -380.173469326 Eh
FINAL SINGLE POINT ENERGY      -380.173469325729

DIPOLE MOMENT
-------------
                                X             Y             Z
Electronic contribution:      2.78985      -7.06896      -0.77426
Nuclear contribution   :     -3.48544       9.13814       0.54632
                        -----------------------------------------
Total Dipole Moment    :     -0.69560       2.06918      -0.22795
                        -----------------------------------------
Magnitude (a.u.)       :      2.19484
Magnitude (Debye)      :      5.57885

                             ****ORCA TERMINATED NORMALLY****
TOTAL RUN TIME: 0 days 0 hours 18 minutes 52 seconds 533 msec
