                         Program Version 3.0.3 - RELEASE   -
|  1> ! RI-MP2 RIJK def2-TZVP def2-TZVP/C def2-TZVP/JK TIGHTSCF
|  2> % maxcore 2000
|  3> % mp2 density relaxed end
|  4> *xyz 0 1
|  5>  C       -1.0921316386     1.5203351994    -0.8569755776
|  6>  C       -0.0673470731     0.4880377383    -0.3533436073
|  7>  C       -0.7028607366    -0.5223683649     0.4959633942
|  8>  C       -1.2476170019    -1.3414515213     1.1858285640
|  9>  C        0.7146174337    -0.1907081400    -1.4803317114
| 10>  N        0.3533745262     0.0578017938    -2.6866435469
| 11>  O        1.1317619405    -0.5996032111    -3.6262864099
| 12>  C        1.8010830624    -1.0371821703    -1.1198549720
| 13>  C        2.7218417707    -1.7275144739    -0.7677216739
| 14>  H       -0.5974713217     2.2881404463    -1.4556892077
| 15>  H       -1.8526011001     1.0416927423    -1.4760497753
| 16>  H       -1.5810930873     1.9912544695    -0.0009830628
| 17>  H        0.6785578286     1.0131006798     0.2605352769
| 18>  H       -1.7199714537    -2.0686048586     1.7987161196
| 19>  H        0.7384898563    -0.3120730428    -4.4581103351
| 20>  H        3.5323630847    -2.3459787365    -0.4694334948
| 21> *
| 22>
| 23>                          ****END OF INPUT****

CARTESIAN COORDINATES (ANGSTROEM)
---------------------------------
  C     -1.092132    1.520335   -0.856976
  C     -0.067347    0.488038   -0.353344
  C     -0.702861   -0.522368    0.495963
  C     -1.247617   -1.341452    1.185829
  C      0.714617   -0.190708   -1.480332
  N      0.353375    0.057802   -2.686644
  O      1.131762   -0.599603   -3.626286
  C      1.801083   -1.037182   -1.119855
  C      2.721842   -1.727514   -0.767722
  H     -0.597471    2.288140   -1.455689
  H     -1.852601    1.041693   -1.476050
  H     -1.581093    1.991254   -0.000983
  H      0.678558    1.013101    0.260535
  H     -1.719971   -2.068605    1.798716
  H      0.738490   -0.312073   -4.458110
  H      3.532363   -2.345979   -0.469433

 Total Charge           Charge          ....    0
 Multiplicity           Mult            ....    1
 Number of Electrons    NEL             ....   64
 Basis Dimension        Dim             ....  321

ORBITAL ENERGIES
----------------

  NO   OCC          E(Eh)            E(eV)
   0   2.0000     -20.605600      -560.7069
   1   2.0000     -15.637861      -425.5278
   2   2.0000     -11.309505      -307.7473
   3   2.0000     -11.279954      -306.9432
   4   2.0000     -11.249286      -306.1086
   5   2.0000     -11.245403      -306.0030
   6   2.0000     -11.237262      -305.7814
   7   2.0000     -11.226660      -305.4930
   8   2.0000     -11.225772      -305.4688
   9   2.0000      -1.440356       -39.1941
  10   2.0000      -1.193846       -32.4862
  11   2.0000      -1.083166       -29.4745
  12   2.0000      -1.042885       -28.3783
  13   2.0000      -0.999606       -27.2007
  14   2.0000      -0.915478       -24.9114
  15   2.0000      -0.833432       -22.6788
  16   2.0000      -0.756387       -20.5823
  17   2.0000      -0.718634       -19.5550
  18   2.0000      -0.715142       -19.4600
  19   2.0000      -0.679985       -18.5033
  20   2.0000      -0.662423       -18.0254
  21   2.0000      -0.623683       -16.9713
  22   2.0000      -0.602096       -16.3839
  23   2.0000      -0.557507       -15.1705
  24   2.0000      -0.534826       -14.5534
  25   2.0000      -0.525578       -14.3017
  26   2.0000      -0.463351       -12.6084
  27   2.0000      -0.458360       -12.4726
  28   2.0000      -0.410312       -11.1652
  29   2.0000      -0.391945       -10.6654
  30   2.0000      -0.389363       -10.5951
  31   2.0000      -0.368175       -10.0186
  32   0.0000       0.095948         2.6109
  33   0.0000       0.133156         3.6234
  34   0.0000       0.147081         4.0023
  35   0.0000       0.158319         4.3081
  36   0.0000       0.165886         4.5140

MULLIKEN ATOMIC CHARGES
-----------------------
   0 C :   -0.366321
   1 C :   -0.137662
   2 C :   -0.028410
   3 C :   -0.165068
   4 C :   -0.100788
   5 N :   -0.090663
   6 O :   -0.347288
   7 C :    0.069886
   8 C :   -0.111783
   9 H :    0.138049
  10 H :    0.139869
  11 H :    0.140189
  12 H :    0.131162
  13 H :    0.190763
  14 H :    0.339847
  15 H :    0.198219
Sum of atomic charges:   -0.0000000

LOEWDIN ATOMIC CHARGES
----------------------
   0 C :   -0.266374
   1 C :   -0.221765
   2 C :   -0.078185
   3 C :   -0.089891
   4 C :   -0.243330
   5 N :    0.050972
   6 O :   -0.039990
   7 C :   -0.068335
   8 C :   -0.045585
   9 H :    0.127543
  10 H :    0.130928
  11 H :    0.128694
  12 H :    0.182421
  13 H :    0.127434
  14 H :    0.174928
  15 H :    0.130536

  Mayer bond orders larger than 0.1
B(  0-C ,  1-C ) :   0.9223 B(  0-C ,  9-H ) :   0.9336 B(  0-C , 10-H ) :   0.9270
B(  0-C , 11-H ) :   0.9304 B(  1-C ,  2-C ) :   1.0745 B(  1-C ,  4-C ) :   0.9681
B(  1-C , 12-H ) :   0.9258 B(  2-C ,  3-C ) :   2.6197 B(  3-C , 13-H ) :   0.8951
B(  4-C ,  5-N ) :   1.7809 B(  4-C ,  7-C ) :   1.1624 B(  4-C ,  8-C ) :  -0.1187
B(  5-N ,  6-O ) :   0.8373 B(  6-O , 14-H ) :   0.8426 B(  7-C ,  8-C ) :   2.5858
B(  8-C , 15-H ) :   0.8796

MP2 TOTAL ENERGY:     -399.926194197 Eh
FINAL SINGLE POINT ENERGY      -399.926194197059

DIPOLE MOMENT
-------------
                                X             Y             Z
Electronic contribution:      3.41589      -3.61385      -1.93316
Nuclear contribution   :     -3.33300       3.72505       1.90039
                        -----------------------------------------
Total Dipole Moment    :      0.08288       0.11120      -0.03277
                        -----------------------------------------
Magnitude (a.u.)       :      0.14251
Magnitude (Debye)      :      0.36223

                             ****ORCA TERMINATED NORMALLY****
TOTAL RUN TIME: 0 days 0 hours 15 minutes 16 seconds 33 msec
