                         Program Version 3.0.3 - RELEASE   -
|  1> ! RI-MP2 RIJK def2-TZVP def2-TZVP/C def2-TZVP/JK TIGHTSCF
|  2> % maxcore 2000
|  3> % mp2 density relaxed end
|  4> *xyz 0 1
|  5>  C       -0.3160411780     1.4126810625     0.2856125430
|  6>  N       -0.1041482346    -0.0284963793     0.3016676958
|  7>  C        1.1158466030    -0.5490784685    -0.3132700872
|  8>  C        0.9470651743    -0.6043129973     1.1628175680
|  9>  C        1.7175541333     0.1878068461     2.1559799938
| 10>  C        1.5573692524    -0.3111738562     3.3845529985
| 11>  C        0.6426586005    -1.5123720781     3.4048272091
| 12>  C        0.5194577477    -1.8927344108     1.9027347643
| 13>  O       -0.7455008427    -2.3486652044     1.5031042810
| 14>  H        0.6150729512     1.9975148175     0.3088307426
| 15>  H       -0.8627055717     1.6787202381    -0.6244630368
| 16>  H       -0.9239041237     1.7014321176     1.1483348484
| 17>  H        0.9978347901    -1.4515212595    -0.9090577150
| 18>  H        1.8237033759     0.1756051566    -0.7150954201
| 19>  H        2.3129325208     1.0556304497     1.8989756802
| 20>  H        2.0146632123     0.0956499239     4.2800514136
| 21>  H        1.0293220067    -2.3357949037     4.0143345387
| 22>  H       -0.3463425187    -1.2573442539     3.8071818394
| 23>  H        1.2583859238    -2.6766036330     1.6831795079
| 24>  H       -1.1124963026    -1.6206894073     0.9703958550
| 25> *
| 26>
| 27>                          ****END OF INPUT****

CARTESIAN COORDINATES (ANGSTROEM)
---------------------------------
  C     -0.316041    1.412681    0.285613
  N     -0.104148   -0.028496    0.301668
  C      1.115847   -0.549078   -0.313270
  C      0.947065   -0.604313    1.162818
  C      1.717554    0.187807    2.155980
  C      1.557369   -0.311174    3.384553
  C      0.642659   -1.512372    3.404827
  C      0.519458   -1.892734    1.902735
  O     -0.745501   -2.348665    1.503104
  H      0.615073    1.997515    0.308831
  H     -0.862706    1.678720   -0.624463
  H     -0.923904    1.701432    1.148335
  H      0.997835   -1.451521   -0.909058
  H      1.823703    0.175605   -0.715095
  H      2.312933    1.055630    1.898976
  H      2.014663    0.095650    4.280051
  H      1.029322   -2.335795    4.014335
  H     -0.346343   -1.257344    3.807182
  H      1.258386   -2.676604    1.683180
  H     -1.112496   -1.620689    0.970396

 Total Charge           Charge          ....    0
 Multiplicity           Mult            ....    1
 Number of Electrons    NEL             ....   68
 Basis Dimension        Dim             ....  345

ORBITAL ENERGIES
----------------

  NO   OCC          E(Eh)            E(eV)
   0   2.0000     -20.534271      -558.7659
   1   2.0000     -15.569304      -423.6623
   2   2.0000     -11.275532      -306.8228
   3   2.0000     -11.270548      -306.6872
   4   2.0000     -11.259877      -306.3968
   5   2.0000     -11.254190      -306.2421
   6   2.0000     -11.240028      -305.8567
   7   2.0000     -11.233644      -305.6830
   8   2.0000     -11.223879      -305.4173
   9   2.0000      -1.352827       -36.8123
  10   2.0000      -1.277820       -34.7713
  11   2.0000      -1.121419       -30.5154
  12   2.0000      -1.001773       -27.2596
  13   2.0000      -0.959255       -26.1027
  14   2.0000      -0.900697       -24.5092
  15   2.0000      -0.839767       -22.8512
  16   2.0000      -0.776589       -21.1321
  17   2.0000      -0.744118       -20.2485
  18   2.0000      -0.697486       -18.9796
  19   2.0000      -0.661960       -18.0129
  20   2.0000      -0.641563       -17.4578
  21   2.0000      -0.619466       -16.8565
  22   2.0000      -0.605154       -16.4671
  23   2.0000      -0.587200       -15.9785
  24   2.0000      -0.559349       -15.2207
  25   2.0000      -0.546495       -14.8709
  26   2.0000      -0.536306       -14.5936
  27   2.0000      -0.522277       -14.2119
  28   2.0000      -0.482342       -13.1252
  29   2.0000      -0.469536       -12.7767
  30   2.0000      -0.453793       -12.3483
  31   2.0000      -0.423828       -11.5329
  32   2.0000      -0.398898       -10.8546
  33   2.0000      -0.341031        -9.2799
  34   0.0000       0.137403         3.7389
  35   0.0000       0.143500         3.9048
  36   0.0000       0.158062         4.3011
  37   0.0000       0.169951         4.6246
  38   0.0000       0.172488         4.6937

MULLIKEN ATOMIC CHARGES
-----------------------
   0 C :   -0.301913
   1 N :   -0.289578
   2 C :   -0.184350
   3 C :    0.121956
   4 C :   -0.188208
   5 C :   -0.189247
   6 C :   -0.130805
   7 C :    0.074509
   8 O :   -0.487723
   9 H :    0.109603
  10 H :    0.146245
  11 H :    0.141858
  12 H :    0.133990
  13 H :    0.124131
  14 H :    0.134837
  15 H :    0.131116
  16 H :    0.124839
  17 H :    0.110596
  18 H :    0.085250
  19 H :    0.332894
Sum of atomic charges:    0.0000000

LOEWDIN ATOMIC CHARGES
----------------------
   0 C :   -0.324547
   1 N :    0.097723
   2 C :   -0.217481
   3 C :   -0.253630
   4 C :   -0.131378
   5 C :   -0.136776
   6 C :   -0.217911
   7 C :   -0.287725
   8 O :   -0.018629
   9 H :    0.108568
  10 H :    0.120234
  11 H :    0.121386
  12 H :    0.131994
  13 H :    0.128067
  14 H :    0.140717
  15 H :    0.137221
  16 H :    0.137865
  17 H :    0.146160
  18 H :    0.143693
  19 H :    0.174448

  Mayer bond orders larger than 0.1
B(  0-C ,  1-N ) :   0.8726 B(  0-C ,  9-H ) :   0.9284 B(  0-C , 10-H ) :   0.9352
B(  0-C , 11-H ) :   0.9381 B(  1-N ,  2-C ) :   0.8959 B(  1-N ,  3-C ) :   0.7875
B(  2-C ,  3-C ) :   0.9184 B(  2-C , 12-H ) :   0.9037 B(  2-C , 13-H ) :   0.9273
B(  3-C ,  4-C ) :   0.9319 B(  3-C ,  7-C ) :   0.9341 B(  4-C ,  5-C ) :   1.7698
B(  4-C , 14-H ) :   0.9116 B(  5-C ,  6-C ) :   0.9294 B(  5-C , 15-H ) :   0.9256
B(  6-C ,  7-C ) :   0.9092 B(  6-C , 16-H ) :   0.9278 B(  6-C , 17-H ) :   0.8950
B(  7-C ,  8-O ) :   1.0613 B(  7-C , 18-H ) :   0.9355 B(  8-O , 19-H ) :   0.7892

MP2 TOTAL ENERGY:     -402.436231933 Eh
FINAL SINGLE POINT ENERGY      -402.436231933104

DIPOLE MOMENT
-------------
                                X             Y             Z
Electronic contribution:     -0.13402      -3.11641       0.55328
Nuclear contribution   :      0.77733       4.09122      -0.64063
                        -----------------------------------------
Total Dipole Moment    :      0.64332       0.97481      -0.08735
                        -----------------------------------------
Magnitude (a.u.)       :      1.17121
Magnitude (Debye)      :      2.97699

                             ****ORCA TERMINATED NORMALLY****
TOTAL RUN TIME: 0 days 0 hours 19 minutes 7 seconds 193 msec
