                         Program Version 3.0.3 - RELEASE   -
|  1> ! RI-MP2 RIJK def2-TZVP def2-TZVP/C def2-TZVP/JK TIGHTSCF
|  2> % maxcore 2000
|  3> % mp2 density relaxed end
|  4> *xyz 0 1
|  5>  C        0.0823046075     1.4830296221     0.0355954176
|  6>  C        0.0346055172    -0.0109631306    -0.0315258750
|  7>  C        0.0467256576    -0.7806881319    -1.1294342610
|  8>  C        0.0444915966    -2.2397626766    -0.8090923573
|  9>  O       -0.6073954930    -3.1368855912    -1.6522760906
| 10>  C        1.2406670656    -2.7421568070    -0.0550243026
| 11>  O        2.4568788802    -2.0653653930     0.0036461421
| 12>  C        0.0167197428    -2.3014509974     0.7300782653
| 13>  C       -0.0090241855    -0.8620048025     1.2293341871
| 14>  H        0.9727112865     1.8319362696     0.5732732302
| 15>  H        0.0897846434     1.9332451082    -0.9605509918
| 16>  H       -0.7827879361     1.8771815600     0.5842332094
| 17>  H        0.0817905492    -0.4210661283    -2.1525773167
| 18>  H       -1.5457455696    -2.9138776621    -1.6511356689
| 19>  H        1.3914842457    -3.8161897389    -0.1057229856
| 20>  H        2.3243595463    -1.1978544537    -0.3987783799
| 21>  H       -0.5505851033    -3.0668085344     1.2470117891
| 22>  H        0.8563980458    -0.6458333629     1.8710595856
| 23>  H       -0.9022332770    -0.6402039495     1.8274224730
| 24> *
| 25>
| 26>                          ****END OF INPUT****

CARTESIAN COORDINATES (ANGSTROEM)
---------------------------------
  C      0.082305    1.483030    0.035595
  C      0.034606   -0.010963   -0.031526
  C      0.046726   -0.780688   -1.129434
  C      0.044492   -2.239763   -0.809092
  O     -0.607395   -3.136886   -1.652276
  C      1.240667   -2.742157   -0.055024
  O      2.456879   -2.065365    0.003646
  C      0.016720   -2.301451    0.730078
  C     -0.009024   -0.862005    1.229334
  H      0.972711    1.831936    0.573273
  H      0.089785    1.933245   -0.960551
  H     -0.782788    1.877182    0.584233
  H      0.081791   -0.421066   -2.152577
  H     -1.545746   -2.913878   -1.651136
  H      1.391484   -3.816190   -0.105723
  H      2.324360   -1.197854   -0.398778
  H     -0.550585   -3.066809    1.247012
  H      0.856398   -0.645833    1.871060
  H     -0.902233   -0.640204    1.827422

 Total Charge           Charge          ....    0
 Multiplicity           Mult            ....    1
 Number of Electrons    NEL             ....   68
 Basis Dimension        Dim             ....  339

ORBITAL ENERGIES
----------------

  NO   OCC          E(Eh)            E(eV)
   0   2.0000     -20.567982      -559.6832
   1   2.0000     -20.555713      -559.3494
   2   2.0000     -11.288613      -307.1788
   3   2.0000     -11.279934      -306.9426
   4   2.0000     -11.249520      -306.1150
   5   2.0000     -11.236477      -305.7601
   6   2.0000     -11.234654      -305.7105
   7   2.0000     -11.229244      -305.5633
   8   2.0000     -11.227308      -305.5106
   9   2.0000      -1.382382       -37.6165
  10   2.0000      -1.363341       -37.0984
  11   2.0000      -1.169277       -31.8176
  12   2.0000      -1.065797       -29.0018
  13   2.0000      -0.966139       -26.2900
  14   2.0000      -0.956176       -26.0189
  15   2.0000      -0.813134       -22.1265
  16   2.0000      -0.788778       -21.4637
  17   2.0000      -0.739958       -20.1353
  18   2.0000      -0.714216       -19.4348
  19   2.0000      -0.677600       -18.4384
  20   2.0000      -0.636304       -17.3147
  21   2.0000      -0.612921       -16.6784
  22   2.0000      -0.594358       -16.1733
  23   2.0000      -0.591276       -16.0894
  24   2.0000      -0.580395       -15.7934
  25   2.0000      -0.562510       -15.3067
  26   2.0000      -0.551513       -15.0074
  27   2.0000      -0.532095       -14.4791
  28   2.0000      -0.522486       -14.2176
  29   2.0000      -0.494354       -13.4520
  30   2.0000      -0.473266       -12.8782
  31   2.0000      -0.418688       -11.3931
  32   2.0000      -0.380880       -10.3643
  33   2.0000      -0.338484        -9.2106
  34   0.0000       0.125673         3.4197
  35   0.0000       0.130596         3.5537
  36   0.0000       0.157772         4.2932
  37   0.0000       0.167507         4.5581
  38   0.0000       0.176423         4.8007

MULLIKEN ATOMIC CHARGES
-----------------------
   0 C :   -0.429200
   1 C :   -0.040514
   2 C :   -0.310837
   3 C :    0.257224
   4 O :   -0.455353
   5 C :    0.005986
   6 O :   -0.453853
   7 C :   -0.148442
   8 C :   -0.172005
   9 H :    0.144823
  10 H :    0.141088
  11 H :    0.141805
  12 H :    0.131399
  13 H :    0.320790
  14 H :    0.126985
  15 H :    0.331898
  16 H :    0.140398
  17 H :    0.139680
  18 H :    0.128129
Sum of atomic charges:   -0.0000000

LOEWDIN ATOMIC CHARGES
----------------------
   0 C :   -0.274117
   1 C :   -0.181307
   2 C :   -0.124788
   3 C :   -0.329028
   4 O :    0.027952
   5 C :   -0.271680
   6 O :    0.006875
   7 C :   -0.158636
   8 C :   -0.196539
   9 H :    0.133109
  10 H :    0.131628
  11 H :    0.133617
  12 H :    0.144941
  13 H :    0.182572
  14 H :    0.150507
  15 H :    0.181520
  16 H :    0.145288
  17 H :    0.152586
  18 H :    0.145500

  Mayer bond orders larger than 0.1
B(  0-C ,  1-C ) :   0.8943 B(  0-C ,  9-H ) :   0.9282 B(  0-C , 10-H ) :   0.9458
B(  0-C , 11-H ) :   0.9326 B(  1-C ,  2-C ) :   1.6786 B(  1-C ,  8-C ) :   0.9780
B(  2-C ,  3-C ) :   0.9429 B(  2-C , 12-H ) :   0.9489 B(  3-C ,  4-O ) :   0.9973
B(  3-C ,  5-C ) :   0.8911 B(  3-C ,  7-C ) :   0.8012 B(  4-O , 13-H ) :   0.8370
B(  5-C ,  6-O ) :   1.0093 B(  5-C ,  7-C ) :   0.8721 B(  5-C , 14-H ) :   0.9421
B(  6-O , 15-H ) :   0.8238 B(  7-C ,  8-C ) :   0.8911 B(  7-C , 16-H ) :   0.9110
B(  8-C , 17-H ) :   0.8927 B(  8-C , 18-H ) :   0.9065

MP2 TOTAL ENERGY:     -422.315340905 Eh
FINAL SINGLE POINT ENERGY      -422.315340905411

DIPOLE MOMENT
-------------
                                X             Y             Z
Electronic contribution:      0.92228      -5.84351      -2.50144
Nuclear contribution   :     -1.81515       6.71909       2.69021
                        -----------------------------------------
Total Dipole Moment    :     -0.89287       0.87558       0.18877
                        -----------------------------------------
Magnitude (a.u.)       :      1.26471
Magnitude (Debye)      :      3.21464

                             ****ORCA TERMINATED NORMALLY****
TOTAL RUN TIME: 0 days 0 hours 18 minutes 11 seconds 830 msec
