                         Program Version 3.0.3 - RELEASE   -
|  1> ! RI-MP2 RIJK def2-TZVP def2-TZVP/C def2-TZVP/JK TIGHTSCF
|  2> % maxcore 2000
|  3> % mp2 density relaxed end
|  4> *xyz 0 1
|  5>  O        0.2268615567     1.5091443268     0.0499826723
|  6>  C        0.0697676752     0.1129269901    -0.0106627691
|  7>  C        0.6558334758    -0.4533100079    -1.2449661125
|  8>  N        1.1283102788    -0.8964020883    -2.2014951953
|  9>  C        0.6770251896    -0.5533884846     1.2351097050
| 10>  O        1.9614803968     0.0212078012     1.5640104692
| 11>  C        1.5346961144     0.4971128800     2.8665500126
| 12>  C        0.1309560124    -0.0485389294     2.5871376301
| 13>  O       -0.9197510994    -0.0763201124     3.1423714224
| 14>  H        1.1715321573     1.6668325330     0.1876384050
| 15>  H       -1.0069215019    -0.0920031530    -0.0151989161
| 16>  H        0.7141796911    -1.6446084155     1.1314803259
| 17>  H        2.0718879286     0.0097184111     3.6882214266
| 18>  H        1.6059063247     1.5859649690     2.9667737738
| 19> *
| 20>
| 21>                          ****END OF INPUT****

CARTESIAN COORDINATES (ANGSTROEM)
---------------------------------
  O      0.226862    1.509144    0.049983
  C      0.069768    0.112927   -0.010663
  C      0.655833   -0.453310   -1.244966
  N      1.128310   -0.896402   -2.201495
  C      0.677025   -0.553388    1.235110
  O      1.961480    0.021208    1.564010
  C      1.534696    0.497113    2.866550
  C      0.130956   -0.048539    2.587138
  O     -0.919751   -0.076320    3.142371
  H      1.171532    1.666833    0.187638
  H     -1.006922   -0.092003   -0.015199
  H      0.714180   -1.644608    1.131480
  H      2.071888    0.009718    3.688221
  H      1.605906    1.585965    2.966774

 Total Charge           Charge          ....    0
 Multiplicity           Mult            ....    1
 Number of Electrons    NEL             ....   66
 Basis Dimension        Dim             ....  309

ORBITAL ENERGIES
----------------

  NO   OCC          E(Eh)            E(eV)
   0   2.0000     -20.608106      -560.7751
   1   2.0000     -20.606831      -560.7404
   2   2.0000     -20.599972      -560.5537
   3   2.0000     -15.592015      -424.2803
   4   2.0000     -11.376148      -309.5607
   5   2.0000     -11.366375      -309.2948
   6   2.0000     -11.341419      -308.6157
   7   2.0000     -11.328685      -308.2692
   8   2.0000     -11.288625      -307.1791
   9   2.0000      -1.458298       -39.6823
  10   2.0000      -1.432019       -38.9672
  11   2.0000      -1.410727       -38.3878
  12   2.0000      -1.235409       -33.6172
  13   2.0000      -1.076616       -29.2962
  14   2.0000      -1.012720       -27.5575
  15   2.0000      -0.948330       -25.8054
  16   2.0000      -0.794152       -21.6100
  17   2.0000      -0.770030       -20.9536
  18   2.0000      -0.750149       -20.4126
  19   2.0000      -0.717840       -19.5334
  20   2.0000      -0.701617       -19.0920
  21   2.0000      -0.665759       -18.1162
  22   2.0000      -0.651224       -17.7207
  23   2.0000      -0.607894       -16.5416
  24   2.0000      -0.591143       -16.0858
  25   2.0000      -0.571986       -15.5645
  26   2.0000      -0.565192       -15.3797
  27   2.0000      -0.554036       -15.0761
  28   2.0000      -0.529258       -14.4019
  29   2.0000      -0.493164       -13.4197
  30   2.0000      -0.485887       -13.2217
  31   2.0000      -0.469352       -12.7717
  32   2.0000      -0.441307       -12.0086
  33   0.0000       0.096069         2.6142
  34   0.0000       0.116173         3.1612
  35   0.0000       0.139150         3.7865
  36   0.0000       0.141391         3.8475
  37   0.0000       0.159197         4.3320

MULLIKEN ATOMIC CHARGES
-----------------------
   0 O :   -0.449204
   1 C :    0.183365
   2 C :   -0.183967
   3 N :   -0.044990
   4 C :    0.045267
   5 O :   -0.350047
   6 C :   -0.060950
   7 C :    0.146047
   8 O :   -0.216423
   9 H :    0.339505
  10 H :    0.159222
  11 H :    0.146088
  12 H :    0.143313
  13 H :    0.142774
Sum of atomic charges:    0.0000000

LOEWDIN ATOMIC CHARGES
----------------------
   0 O :    0.028689
   1 C :   -0.325893
   2 C :   -0.165847
   3 N :    0.079679
   4 C :   -0.228740
   5 O :    0.144808
   6 C :   -0.232219
   7 C :   -0.297153
   8 O :    0.199280
   9 H :    0.190407
  10 H :    0.178723
  11 H :    0.157744
  12 H :    0.135757
  13 H :    0.134764

  Mayer bond orders larger than 0.1
B(  0-O ,  1-C ) :   0.9332 B(  0-O ,  9-H ) :   0.8173 B(  1-C ,  2-C ) :   0.9160
B(  1-C ,  4-C ) :   0.9053 B(  1-C , 10-H ) :   0.8979 B(  2-C ,  3-N ) :   2.8461
B(  4-C ,  5-O ) :   0.9492 B(  4-C ,  7-C ) :   0.8518 B(  4-C , 11-H ) :   0.8873
B(  5-O ,  6-C ) :   0.9088 B(  6-C ,  7-C ) :   0.9524 B(  6-C , 12-H ) :   0.8976
B(  6-C , 13-H ) :   0.9082 B(  7-C ,  8-O ) :   2.0629

MP2 TOTAL ENERGY:     -473.061863112 Eh
FINAL SINGLE POINT ENERGY      -473.061863111515

DIPOLE MOMENT
-------------
                                X             Y             Z
Electronic contribution:     -1.17767      -1.03420      -1.83966
Nuclear contribution   :      1.40739       1.19084       3.10354
                        -----------------------------------------
Total Dipole Moment    :      0.22972       0.15664       1.26388
                        -----------------------------------------
Magnitude (a.u.)       :      1.29410
Magnitude (Debye)      :      3.28934

                             ****ORCA TERMINATED NORMALLY****
TOTAL RUN TIME: 0 days 0 hours 15 minutes 0 seconds 60 msec
