                         Program Version 3.0.3 - RELEASE   -
|  1> ! RI-MP2 RIJK def2-TZVP def2-TZVP/C def2-TZVP/JK TIGHTSCF
|  2> % maxcore 2000
|  3> % mp2 density relaxed end
|  4> *xyz 0 1
|  5>  C        0.0147790836     1.5756851904     0.1448460347
|  6>  C        0.0110287270     0.0483487101     0.0338643477
|  7>  C       -1.4254066820    -0.5272069375     0.0443749572
|  8>  C       -2.1659208106    -0.1881430301     1.2559652856
|  9>  N       -2.7370931154     0.0859401091     2.2227091017
| 10>  C        0.7192165643    -0.4537531519    -1.2530534401
| 11>  O        0.0398415708    -0.0237634976    -2.4312479772
| 12>  C        2.1350359698    -0.0834933667    -1.2738364904
| 13>  C        3.2895478575     0.2504829514    -1.3004625773
| 14>  H        1.0375396850     1.9611902682     0.1462729365
| 15>  H       -0.5261349541     2.0303345285    -0.6924311526
| 16>  H       -0.4739477059     1.8978236149     1.0675903908
| 17>  H        0.5587245489    -0.3739926004     0.8843655615
| 18>  H       -1.9701802933    -0.1531454859    -0.8287399543
| 19>  H       -1.3971252080    -1.6195670583    -0.0458647133
| 20>  H        0.6465694252    -1.5490574979    -1.2725636913
| 21>  H        0.3533945177     0.8609527092    -2.6467938146
| 22>  H        4.3144349395     0.5295527744    -1.3273727645
| 23> *
| 24>
| 25>                          ****END OF INPUT****

CARTESIAN COORDINATES (ANGSTROEM)
---------------------------------
  C      0.014779    1.575685    0.144846
  C      0.011029    0.048349    0.033864
  C     -1.425407   -0.527207    0.044375
  C     -2.165921   -0.188143    1.255965
  N     -2.737093    0.085940    2.222709
  C      0.719217   -0.453753   -1.253053
  O      0.039842   -0.023763   -2.431248
  C      2.135036   -0.083493   -1.273836
  C      3.289548    0.250483   -1.300463
  H      1.037540    1.961190    0.146273
  H     -0.526135    2.030335   -0.692431
  H     -0.473948    1.897824    1.067590
  H      0.558725   -0.373993    0.884366
  H     -1.970180   -0.153145   -0.828740
  H     -1.397125   -1.619567   -0.045865
  H      0.646569   -1.549057   -1.272564
  H      0.353395    0.860953   -2.646794
  H      4.314435    0.529553   -1.327373

 Total Charge           Charge          ....    0
 Multiplicity           Mult            ....    1
 Number of Electrons    NEL             ....   66
 Basis Dimension        Dim             ....  333

ORBITAL ENERGIES
----------------

  NO   OCC          E(Eh)            E(eV)
   0   2.0000     -20.584151      -560.1232
   1   2.0000     -15.568453      -423.6392
   2   2.0000     -11.331355      -308.3418
   3   2.0000     -11.282231      -307.0051
   4   2.0000     -11.273496      -306.7674
   5   2.0000     -11.269187      -306.6502
   6   2.0000     -11.254192      -306.2421
   7   2.0000     -11.249111      -306.1039
   8   2.0000     -11.232917      -305.6632
   9   2.0000      -1.392194       -37.8835
  10   2.0000      -1.219246       -33.1774
  11   2.0000      -1.125525       -30.6271
  12   2.0000      -1.061681       -28.8898
  13   2.0000      -0.993038       -27.0219
  14   2.0000      -0.959945       -26.1214
  15   2.0000      -0.829615       -22.5750
  16   2.0000      -0.771628       -20.9971
  17   2.0000      -0.717462       -19.5231
  18   2.0000      -0.704891       -19.1811
  19   2.0000      -0.676785       -18.4163
  20   2.0000      -0.639750       -17.4085
  21   2.0000      -0.623873       -16.9764
  22   2.0000      -0.607870       -16.5410
  23   2.0000      -0.561856       -15.2889
  24   2.0000      -0.552902       -15.0452
  25   2.0000      -0.548292       -14.9198
  26   2.0000      -0.525443       -14.2980
  27   2.0000      -0.514546       -14.0015
  28   2.0000      -0.480903       -13.0860
  29   2.0000      -0.456400       -12.4193
  30   2.0000      -0.454225       -12.3601
  31   2.0000      -0.418454       -11.3867
  32   2.0000      -0.408405       -11.1133
  33   0.0000       0.115261         3.1364
  34   0.0000       0.134272         3.6537
  35   0.0000       0.148459         4.0398
  36   0.0000       0.153162         4.1677
  37   0.0000       0.160792         4.3754

MULLIKEN ATOMIC CHARGES
-----------------------
   0 C :   -0.483547
   1 C :    0.000618
   2 C :   -0.155813
   3 C :   -0.183102
   4 N :   -0.056541
   5 C :   -0.043047
   6 O :   -0.468835
   7 C :   -0.070786
   8 C :   -0.101306
   9 H :    0.156529
  10 H :    0.127106
  11 H :    0.167736
  12 H :    0.119729
  13 H :    0.179036
  14 H :    0.154377
  15 H :    0.127824
  16 H :    0.329958
  17 H :    0.200065
Sum of atomic charges:    0.0000000

LOEWDIN ATOMIC CHARGES
----------------------
   0 C :   -0.284712
   1 C :   -0.241205
   2 C :   -0.223003
   3 C :   -0.194280
   4 N :    0.054661
   5 C :   -0.313930
   6 O :    0.000995
   7 C :   -0.094887
   8 C :   -0.077262
   9 H :    0.132457
  10 H :    0.125382
  11 H :    0.135805
  12 H :    0.165622
  13 H :    0.170879
  14 H :    0.166203
  15 H :    0.165177
  16 H :    0.181420
  17 H :    0.130680

  Mayer bond orders larger than 0.1
B(  0-C ,  1-C ) :   0.8809 B(  0-C ,  9-H ) :   0.9338 B(  0-C , 10-H ) :   0.9338
B(  0-C , 11-H ) :   0.9310 B(  1-C ,  2-C ) :   0.8926 B(  1-C ,  5-C ) :   0.8727
B(  1-C , 12-H ) :   0.9135 B(  2-C ,  3-C ) :   0.9123 B(  2-C , 13-H ) :   0.9079
B(  2-C , 14-H ) :   0.9059 B(  3-C ,  4-N ) :   2.8854 B(  5-C ,  6-O ) :   0.9071
B(  5-C ,  7-C ) :   1.1824 B(  5-C , 15-H ) :   0.9170 B(  6-O , 16-H ) :   0.8363
B(  7-C ,  8-C ) :   2.5732 B(  8-C , 17-H ) :   0.8867

MP2 TOTAL ENERGY:     -401.236114706 Eh
FINAL SINGLE POINT ENERGY      -401.236114706493

DIPOLE MOMENT
-------------
                                X             Y             Z
Electronic contribution:     -1.38905      -2.44257       0.71138
Nuclear contribution   :      2.65812       2.54437      -1.64903
                        -----------------------------------------
Total Dipole Moment    :      1.26907       0.10180      -0.93765
                        -----------------------------------------
Magnitude (a.u.)       :      1.58117
Magnitude (Debye)      :      4.01902

                             ****ORCA TERMINATED NORMALLY****
TOTAL RUN TIME: 0 days 0 hours 17 minutes 20 seconds 436 msec
