                         Program Version 3.0.3 - RELEASE   -
|  1> ! RI-MP2 RIJK def2-TZVP def2-TZVP/C def2-TZVP/JK TIGHTSCF
|  2> % maxcore 2000
|  3> % mp2 density relaxed end
|  4> *xyz 0 1
|  5>  C       -0.2057268419     1.4756364754     0.0046708785
|  6>  C       -0.0188256620    -0.0032196858    -0.0234111604
|  7>  C        0.1883201181    -0.8304629269    -1.0738669664
|  8>  O        0.3008359435    -2.1139808056    -0.5973944032
|  9>  C        0.1517665580    -1.9897181622     0.7470729396
| 10>  N       -0.0389643586    -0.7695077237     1.1432501208
| 11>  C        0.2207096397    -3.2006423258     1.5684535629
| 12>  C       -0.3228312927    -4.5192538810     1.0484956564
| 13>  C        1.1572495815    -4.3355380296     1.1950966620
| 14>  H        0.5655863245     1.9546165110     0.6170854355
| 15>  H       -0.1579824729     1.8985106445    -1.0021441956
| 16>  H       -1.1741625367     1.7380811843     0.4436056921
| 17>  H        0.2782326794    -0.7044700100    -2.1388880024
| 18>  H        0.0897497483    -2.9859248125     2.6214473545
| 19>  H       -0.8443231319    -5.1535761617     1.7560883670
| 20>  H       -0.7351637021    -4.5185757789     0.0463798749
| 21>  H        1.7427675442    -4.2110129270     0.2918149411
| 22>  H        1.6699577416    -4.8414896144     2.0051269429
| 23> *
| 24>
| 25>                          ****END OF INPUT****

CARTESIAN COORDINATES (ANGSTROEM)
---------------------------------
  C     -0.205727    1.475636    0.004671
  C     -0.018826   -0.003220   -0.023411
  C      0.188320   -0.830463   -1.073867
  O      0.300836   -2.113981   -0.597394
  C      0.151767   -1.989718    0.747073
  N     -0.038964   -0.769508    1.143250
  C      0.220710   -3.200642    1.568454
  C     -0.322831   -4.519254    1.048496
  C      1.157250   -4.335538    1.195097
  H      0.565586    1.954617    0.617085
  H     -0.157982    1.898511   -1.002144
  H     -1.174163    1.738081    0.443606
  H      0.278233   -0.704470   -2.138888
  H      0.089750   -2.985925    2.621447
  H     -0.844323   -5.153576    1.756088
  H     -0.735164   -4.518576    0.046380
  H      1.742768   -4.211013    0.291815
  H      1.669958   -4.841490    2.005127

 Total Charge           Charge          ....    0
 Multiplicity           Mult            ....    1
 Number of Electrons    NEL             ....   66
 Basis Dimension        Dim             ....  333

ORBITAL ENERGIES
----------------

  NO   OCC          E(Eh)            E(eV)
   0   2.0000     -20.623645      -561.1979
   1   2.0000     -15.547329      -423.0643
   2   2.0000     -11.332649      -308.3770
   3   2.0000     -11.274536      -306.7957
   4   2.0000     -11.258960      -306.3719
   5   2.0000     -11.251136      -306.1590
   6   2.0000     -11.241255      -305.8901
   7   2.0000     -11.240574      -305.8716
   8   2.0000     -11.225294      -305.4558
   9   2.0000      -1.473469       -40.0951
  10   2.0000      -1.222994       -33.2793
  11   2.0000      -1.160399       -31.5761
  12   2.0000      -1.048134       -28.5212
  13   2.0000      -0.956319       -26.0228
  14   2.0000      -0.877924       -23.8895
  15   2.0000      -0.834948       -22.7201
  16   2.0000      -0.806951       -21.9583
  17   2.0000      -0.759503       -20.6671
  18   2.0000      -0.714907       -19.4536
  19   2.0000      -0.660557       -17.9747
  20   2.0000      -0.654655       -17.8141
  21   2.0000      -0.634627       -17.2691
  22   2.0000      -0.596962       -16.2442
  23   2.0000      -0.568286       -15.4638
  24   2.0000      -0.559413       -15.2224
  25   2.0000      -0.537355       -14.6222
  26   2.0000      -0.530956       -14.4481
  27   2.0000      -0.527019       -14.3409
  28   2.0000      -0.466355       -12.6902
  29   2.0000      -0.453589       -12.3428
  30   2.0000      -0.438114       -11.9217
  31   2.0000      -0.420704       -11.4479
  32   2.0000      -0.316167        -8.6034
  33   0.0000       0.146259         3.9799
  34   0.0000       0.151964         4.1351
  35   0.0000       0.156365         4.2549
  36   0.0000       0.173129         4.7111
  37   0.0000       0.183341         4.9890

MULLIKEN ATOMIC CHARGES
-----------------------
   0 C :   -0.414710
   1 C :    0.089031
   2 C :   -0.050407
   3 O :   -0.226061
   4 C :    0.229267
   5 N :   -0.275358
   6 C :   -0.126708
   7 C :   -0.252487
   8 C :   -0.252472
   9 H :    0.145714
  10 H :    0.131558
  11 H :    0.145697
  12 H :    0.150530
  13 H :    0.140349
  14 H :    0.137430
  15 H :    0.145595
  16 H :    0.145600
  17 H :    0.137431
Sum of atomic charges:   -0.0000000

LOEWDIN ATOMIC CHARGES
----------------------
   0 C :   -0.271320
   1 C :   -0.284478
   2 C :   -0.230159
   3 O :    0.343973
   4 C :   -0.328872
   5 N :    0.143155
   6 C :   -0.189794
   7 C :   -0.211372
   8 C :   -0.211377
   9 H :    0.134249
  10 H :    0.130679
  11 H :    0.134241
  12 H :    0.134377
  13 H :    0.163714
  14 H :    0.133656
  15 H :    0.137835
  16 H :    0.137836
  17 H :    0.133656

  Mayer bond orders larger than 0.1
B(  0-C ,  1-C ) :   0.8710 B(  0-C ,  9-H ) :   0.9356 B(  0-C , 10-H ) :   0.9508
B(  0-C , 11-H ) :   0.9356 B(  1-C ,  2-C ) :   1.5931 B(  1-C ,  5-N ) :   1.1464
B(  2-C ,  3-O ) :   1.0139 B(  2-C , 12-H ) :   0.9258 B(  3-O ,  4-C ) :   1.0707
B(  4-C ,  5-N ) :   1.6833 B(  4-C ,  6-C ) :   0.9610 B(  6-C ,  7-C ) :   0.8460
B(  6-C ,  8-C ) :   0.8461 B(  6-C , 13-H ) :   0.9386 B(  7-C ,  8-C ) :   0.8977
B(  7-C , 14-H ) :   0.9296 B(  7-C , 15-H ) :   0.9279 B(  8-C , 16-H ) :   0.9279
B(  8-C , 17-H ) :   0.9296

MP2 TOTAL ENERGY:     -401.278533426 Eh
FINAL SINGLE POINT ENERGY      -401.278533426013

DIPOLE MOMENT
-------------
                                X             Y             Z
Electronic contribution:      0.08242       0.26454      -1.14379
Nuclear contribution   :     -0.00879      -0.52477       0.72446
                        -----------------------------------------
Total Dipole Moment    :      0.07363      -0.26023      -0.41933
                        -----------------------------------------
Magnitude (a.u.)       :      0.49898
Magnitude (Debye)      :      1.26830

                             ****ORCA TERMINATED NORMALLY****
TOTAL RUN TIME: 0 days 0 hours 16 minutes 26 seconds 399 msec
