                         Program Version 3.0.3 - RELEASE   -
|  1> ! RI-MP2 RIJK def2-TZVP def2-TZVP/C def2-TZVP/JK TIGHTSCF
|  2> % maxcore 2000
|  3> % mp2 density relaxed end
|  4> *xyz 0 1
|  5>  C       -0.1178465448     1.5663551583    -0.0430478942
|  6>  C        0.0218441207     0.0781089937     0.0012419383
|  7>  C        0.0211708329    -0.7619106852    -1.0482681704
|  8>  C        0.1970990485    -2.2416725150    -0.6908254095
|  9>  C        0.6013284283    -2.0714941807     0.7538056744
| 10>  C        0.7123462054    -2.6133242073     2.1991988394
| 11>  C        1.3038429711    -1.1615913385     2.1251730779
| 12>  O        2.0009843622    -1.5470541696     0.9024867688
| 13>  C        0.0602340117    -0.7280310353     1.2780638437
| 14>  H        0.7695858495     2.0549464176     0.3782301625
| 15>  H       -0.2520669774     1.9314564889    -1.0651979955
| 16>  H       -0.9733083945     1.9041517834     0.5559974321
| 17>  H       -0.0791680810    -0.4406478180    -2.0806785256
| 18>  H       -0.7308778053    -2.8147716021    -0.8150572597
| 19>  H        0.9764619813    -2.7340006209    -1.2817358020
| 20>  H       -0.2143572308    -2.7784943291     2.7555226266
| 21>  H        1.4585284460    -3.3910429454     2.3639968841
| 22>  H        1.8703704740    -0.6253304105     2.8884529974
| 23>  H       -0.8928773676    -0.7335460444     1.8206111014
| 24> *
| 25>
| 26>                          ****END OF INPUT****

CARTESIAN COORDINATES (ANGSTROEM)
---------------------------------
  C     -0.117847    1.566355   -0.043048
  C      0.021844    0.078109    0.001242
  C      0.021171   -0.761911   -1.048268
  C      0.197099   -2.241673   -0.690825
  C      0.601328   -2.071494    0.753806
  C      0.712346   -2.613324    2.199199
  C      1.303843   -1.161591    2.125173
  O      2.000984   -1.547054    0.902487
  C      0.060234   -0.728031    1.278064
  H      0.769586    2.054946    0.378230
  H     -0.252067    1.931456   -1.065198
  H     -0.973308    1.904152    0.555997
  H     -0.079168   -0.440648   -2.080679
  H     -0.730878   -2.814772   -0.815057
  H      0.976462   -2.734001   -1.281736
  H     -0.214357   -2.778494    2.755523
  H      1.458528   -3.391043    2.363997
  H      1.870370   -0.625330    2.888453
  H     -0.892877   -0.733546    1.820611

 Total Charge           Charge          ....    0
 Multiplicity           Mult            ....    1
 Number of Electrons    NEL             ....   66
 Basis Dimension        Dim             ....  339

ORBITAL ENERGIES
----------------

  NO   OCC          E(Eh)            E(eV)
   0   2.0000     -20.537115      -558.8433
   1   2.0000     -11.301456      -307.5282
   2   2.0000     -11.296543      -307.3946
   3   2.0000     -11.242506      -305.9241
   4   2.0000     -11.234954      -305.7186
   5   2.0000     -11.233856      -305.6888
   6   2.0000     -11.232315      -305.6468
   7   2.0000     -11.222552      -305.3812
   8   2.0000     -11.221291      -305.3469
   9   2.0000      -1.392588       -37.8942
  10   2.0000      -1.128235       -30.7008
  11   2.0000      -1.051951       -28.6250
  12   2.0000      -1.008119       -27.4323
  13   2.0000      -0.927290       -25.2329
  14   2.0000      -0.885354       -24.0917
  15   2.0000      -0.836637       -22.7661
  16   2.0000      -0.754690       -20.5362
  17   2.0000      -0.702954       -19.1284
  18   2.0000      -0.657658       -17.8958
  19   2.0000      -0.630377       -17.1534
  20   2.0000      -0.617448       -16.8016
  21   2.0000      -0.611265       -16.6334
  22   2.0000      -0.571180       -15.5426
  23   2.0000      -0.561046       -15.2668
  24   2.0000      -0.557023       -15.1574
  25   2.0000      -0.515701       -14.0329
  26   2.0000      -0.507792       -13.8177
  27   2.0000      -0.484555       -13.1854
  28   2.0000      -0.475041       -12.9265
  29   2.0000      -0.452208       -12.3052
  30   2.0000      -0.421172       -11.4607
  31   2.0000      -0.395205       -10.7541
  32   2.0000      -0.337015        -9.1706
  33   0.0000       0.140097         3.8122
  34   0.0000       0.149509         4.0683
  35   0.0000       0.158460         4.3119
  36   0.0000       0.172656         4.6982
  37   0.0000       0.182773         4.9735

MULLIKEN ATOMIC CHARGES
-----------------------
   0 C :   -0.424712
   1 C :    0.043763
   2 C :   -0.239903
   3 C :   -0.157887
   4 C :    0.020557
   5 C :   -0.108741
   6 C :   -0.043366
   7 O :   -0.318276
   8 C :   -0.034221
   9 H :    0.144679
  10 H :    0.134655
  11 H :    0.135501
  12 H :    0.120244
  13 H :    0.118698
  14 H :    0.132117
  15 H :    0.114542
  16 H :    0.120813
  17 H :    0.134795
  18 H :    0.106742
Sum of atomic charges:   -0.0000000

LOEWDIN ATOMIC CHARGES
----------------------
   0 C :   -0.273056
   1 C :   -0.167574
   2 C :   -0.117206
   3 C :   -0.203661
   4 C :   -0.228936
   5 C :   -0.177233
   6 C :   -0.220047
   7 O :    0.156482
   8 C :   -0.125629
   9 H :    0.133260
  10 H :    0.129402
  11 H :    0.130064
  12 H :    0.136058
  13 H :    0.146324
  14 H :    0.149431
  15 H :    0.128289
  16 H :    0.132315
  17 H :    0.121401
  18 H :    0.150315

  Mayer bond orders larger than 0.1
B(  0-C ,  1-C ) :   0.8696 B(  0-C ,  9-H ) :   0.9310 B(  0-C , 10-H ) :   0.9493
B(  0-C , 11-H ) :   0.9335 B(  1-C ,  2-C ) :   1.7542 B(  1-C ,  8-C ) :   0.9176
B(  2-C ,  3-C ) :   0.9650 B(  2-C , 12-H ) :   0.9218 B(  3-C ,  4-C ) :   0.9506
B(  3-C , 13-H ) :   0.8893 B(  3-C , 14-H ) :   0.9092 B(  4-C ,  5-C ) :   0.8584
B(  4-C ,  7-O ) :   0.8824 B(  4-C ,  8-C ) :   0.8842 B(  5-C ,  6-C ) :   0.9374
B(  5-C , 15-H ) :   0.9152 B(  5-C , 16-H ) :   0.9204 B(  6-C ,  7-O ) :   0.9361
B(  6-C ,  8-C ) :   0.8769 B(  6-C , 17-H ) :   0.8872 B(  8-C , 18-H ) :   0.9100

MP2 TOTAL ENERGY:     -385.136426864 Eh
FINAL SINGLE POINT ENERGY      -385.136426864388

DIPOLE MOMENT
-------------
                                X             Y             Z
Electronic contribution:      2.64810      -2.62723       0.80518
Nuclear contribution   :     -3.35650       2.64579      -0.57320
                        -----------------------------------------
Total Dipole Moment    :     -0.70840       0.01856       0.23198
                        -----------------------------------------
Magnitude (a.u.)       :      0.74564
Magnitude (Debye)      :      1.89528

                             ****ORCA TERMINATED NORMALLY****
TOTAL RUN TIME: 0 days 0 hours 19 minutes 29 seconds 180 msec
