                         Program Version 3.0.3 - RELEASE   -
|  1> ! RI-MP2 RIJK def2-TZVP def2-TZVP/C def2-TZVP/JK TIGHTSCF
|  2> % maxcore 2000
|  3> % mp2 density relaxed end
|  4> *xyz 0 1
|  5>  N       -0.0208955663    -1.1320450485     0.2283360362
|  6>  C        0.0164992651     0.0100811685     0.0628913793
|  7>  C        0.0632388026     1.4547761200    -0.1775381739
|  8>  N        1.3266366583     2.0134519987     0.2780917179
|  9>  C        1.5038215618     3.3889699556     0.1234199782
| 10>  N        2.7166496092     3.8706143034    -0.1366728712
| 11>  N        2.5416999334     5.2136775289    -0.1465677298
| 12>  C        1.2643616062     5.5828548808     0.0793070135
| 13>  C        0.5418599861     4.4216730109     0.2624821738
| 14>  H       -0.1447283153     1.6326331704    -1.2463610964
| 15>  H       -0.7575451101     1.9157686246     0.3834441908
| 16>  H        2.1323651941     1.5028133709    -0.0605613695
| 17>  H        3.3362952863     5.8029797523    -0.3223800893
| 18>  H        0.9647163830     6.6188775250     0.0973905320
| 19>  H       -0.5108461145     4.3428526484     0.4758146184
| 20> *
| 21>
| 22>                          ****END OF INPUT****

CARTESIAN COORDINATES (ANGSTROEM)
---------------------------------
  N     -0.020896   -1.132045    0.228336
  C      0.016499    0.010081    0.062891
  C      0.063239    1.454776   -0.177538
  N      1.326637    2.013452    0.278092
  C      1.503822    3.388970    0.123420
  N      2.716650    3.870614   -0.136673
  N      2.541700    5.213678   -0.146568
  C      1.264362    5.582855    0.079307
  C      0.541860    4.421673    0.262482
  H     -0.144728    1.632633   -1.246361
  H     -0.757545    1.915769    0.383444
  H      2.132365    1.502813   -0.060561
  H      3.336295    5.802980   -0.322380
  H      0.964716    6.618878    0.097391
  H     -0.510846    4.342853    0.475815

 Total Charge           Charge          ....    0
 Multiplicity           Mult            ....    1
 Number of Electrons    NEL             ....   64
 Basis Dimension        Dim             ....  315

ORBITAL ENERGIES
----------------

  NO   OCC          E(Eh)            E(eV)
   0   2.0000     -15.643911      -425.6924
   1   2.0000     -15.589137      -424.2020
   2   2.0000     -15.583157      -424.0393
   3   2.0000     -15.578192      -423.9042
   4   2.0000     -11.323534      -308.1290
   5   2.0000     -11.305919      -307.6497
   6   2.0000     -11.293779      -307.3194
   7   2.0000     -11.279759      -306.9379
   8   2.0000     -11.231669      -305.6293
   9   2.0000      -1.384092       -37.6631
  10   2.0000      -1.265412       -34.4336
  11   2.0000      -1.220762       -33.2186
  12   2.0000      -1.102586       -30.0029
  13   2.0000      -1.061805       -28.8932
  14   2.0000      -0.994159       -27.0524
  15   2.0000      -0.846761       -23.0415
  16   2.0000      -0.795632       -21.6502
  17   2.0000      -0.757839       -20.6219
  18   2.0000      -0.730234       -19.8707
  19   2.0000      -0.680487       -18.5170
  20   2.0000      -0.645075       -17.5534
  21   2.0000      -0.630921       -17.1682
  22   2.0000      -0.618950       -16.8425
  23   2.0000      -0.606163       -16.4945
  24   2.0000      -0.575936       -15.6720
  25   2.0000      -0.560190       -15.2435
  26   2.0000      -0.490720       -13.3532
  27   2.0000      -0.474621       -12.9151
  28   2.0000      -0.470780       -12.8106
  29   2.0000      -0.457873       -12.4594
  30   2.0000      -0.361989        -9.8502
  31   2.0000      -0.335177        -9.1206
  32   0.0000       0.125420         3.4129
  33   0.0000       0.129539         3.5249
  34   0.0000       0.137820         3.7503
  35   0.0000       0.155267         4.2250
  36   0.0000       0.164935         4.4881

MULLIKEN ATOMIC CHARGES
-----------------------
   0 N :   -0.054325
   1 C :   -0.165340
   2 C :   -0.023228
   3 N :   -0.319893
   4 C :    0.156417
   5 N :   -0.235176
   6 N :   -0.103351
   7 C :   -0.095289
   8 C :   -0.254371
   9 H :    0.150469
  10 H :    0.150035
  11 H :    0.239444
  12 H :    0.260002
  13 H :    0.153558
  14 H :    0.141049
Sum of atomic charges:   -0.0000000

LOEWDIN ATOMIC CHARGES
----------------------
   0 N :    0.067937
   1 C :   -0.186068
   2 C :   -0.272588
   3 N :    0.065641
   4 C :   -0.359310
   5 N :    0.026600
   6 N :    0.128502
   7 C :   -0.244467
   8 C :   -0.198125
   9 H :    0.149013
  10 H :    0.160074
  11 H :    0.193450
  12 H :    0.189243
  13 H :    0.138410
  14 H :    0.141688

  Mayer bond orders larger than 0.1
B(  0-N ,  1-C ) :   2.8587 B(  1-C ,  2-C ) :   0.9170 B(  2-C ,  3-N ) :   0.9455
B(  2-C ,  9-H ) :   0.9089 B(  2-C , 10-H ) :   0.9019 B(  3-N ,  4-C ) :   1.0731
B(  3-N , 11-H ) :   0.8635 B(  4-C ,  5-N ) :   1.5563 B(  4-C ,  8-C ) :   1.2734
B(  5-N ,  6-N ) :   1.0641 B(  5-N ,  7-C ) :   0.1120 B(  6-N ,  7-C ) :   1.2255
B(  6-N , 12-H ) :   0.8720 B(  7-C ,  8-C ) :   1.4552 B(  7-C , 13-H ) :   0.9126
B(  8-C , 14-H ) :   0.9130

MP2 TOTAL ENERGY:     -412.300501833 Eh
FINAL SINGLE POINT ENERGY      -412.300501832639

DIPOLE MOMENT
-------------
                                X             Y             Z
Electronic contribution:      1.53623      -2.63574       0.42242
Nuclear contribution   :     -1.62629       4.78801      -0.93794
                        -----------------------------------------
Total Dipole Moment    :     -0.09006       2.15227      -0.51552
                        -----------------------------------------
Magnitude (a.u.)       :      2.21498
Magnitude (Debye)      :      5.63003

                             ****ORCA TERMINATED NORMALLY****
TOTAL RUN TIME: 0 days 0 hours 15 minutes 6 seconds 335 msec
