                         Program Version 3.0.3 - RELEASE   -
|  1> ! RI-MP2 RIJK def2-TZVP def2-TZVP/C def2-TZVP/JK TIGHTSCF
|  2> % maxcore 2000
|  3> % mp2 density relaxed end
|  4> *xyz 0 1
|  5>  O       -0.1360108475     1.0764695254     1.3455151267
|  6>  C       -0.0175809659     0.0446318300     0.4111357610
|  7>  C       -0.6229921275    -1.2573471696     0.8386901062
|  8>  C       -1.2621054048    -0.4727973915    -0.2851186450
|  9>  C       -2.5934019395     0.2223430073    -0.1419077614
| 10>  C       -3.7342708988    -0.4496673062     0.5634191707
| 11>  N       -3.0899378753     0.7177904632     1.1538024365
| 12>  C       -2.8916891692     1.1019378161    -1.2588250378
| 13>  N       -3.1014477350     1.7797306926    -2.1715878742
| 14>  H       -0.2698976314     1.9057118498     0.8725599410
| 15>  H        0.9195460237     0.0273240688    -0.1431548506
| 16>  H       -0.1247424534    -2.1872777428     0.5914897268
| 17>  H       -1.1022355683    -1.2530964838     1.8128067245
| 18>  H       -1.1064185987    -0.8708738374    -1.2836605757
| 19>  H       -4.7512846446    -0.2888258494     0.2198427567
| 20>  H       -3.5250835427    -1.4383416324     0.9632247230
| 21>  H       -2.4239535912     0.4793143799     1.8833892416
| 22> *
| 23>
| 24>                          ****END OF INPUT****

CARTESIAN COORDINATES (ANGSTROEM)
---------------------------------
  O     -0.136011    1.076470    1.345515
  C     -0.017581    0.044632    0.411136
  C     -0.622992   -1.257347    0.838690
  C     -1.262105   -0.472797   -0.285119
  C     -2.593402    0.222343   -0.141908
  C     -3.734271   -0.449667    0.563419
  N     -3.089938    0.717790    1.153802
  C     -2.891689    1.101938   -1.258825
  N     -3.101448    1.779731   -2.171588
  H     -0.269898    1.905712    0.872560
  H      0.919546    0.027324   -0.143155
  H     -0.124742   -2.187278    0.591490
  H     -1.102236   -1.253096    1.812807
  H     -1.106419   -0.870874   -1.283661
  H     -4.751285   -0.288826    0.219843
  H     -3.525084   -1.438342    0.963225
  H     -2.423954    0.479314    1.883389

 Total Charge           Charge          ....    0
 Multiplicity           Mult            ....    1
 Number of Electrons    NEL             ....   66
 Basis Dimension        Dim             ....  327

ORBITAL ENERGIES
----------------

  NO   OCC          E(Eh)            E(eV)
   0   2.0000     -20.584630      -560.1363
   1   2.0000     -15.589257      -424.2052
   2   2.0000     -15.572009      -423.7359
   3   2.0000     -11.324163      -308.1461
   4   2.0000     -11.308852      -307.7295
   5   2.0000     -11.288015      -307.1625
   6   2.0000     -11.274137      -306.7849
   7   2.0000     -11.268687      -306.6366
   8   2.0000     -11.254053      -306.2384
   9   2.0000      -1.395815       -37.9820
  10   2.0000      -1.304598       -35.4999
  11   2.0000      -1.215326       -33.0707
  12   2.0000      -1.157130       -31.4871
  13   2.0000      -0.983148       -26.7528
  14   2.0000      -0.905752       -24.6468
  15   2.0000      -0.844364       -22.9763
  16   2.0000      -0.836100       -22.7514
  17   2.0000      -0.752461       -20.4755
  18   2.0000      -0.717772       -19.5316
  19   2.0000      -0.699491       -19.0341
  20   2.0000      -0.673330       -18.3222
  21   2.0000      -0.620745       -16.8913
  22   2.0000      -0.581724       -15.8295
  23   2.0000      -0.573913       -15.6170
  24   2.0000      -0.550908       -14.9910
  25   2.0000      -0.549015       -14.9395
  26   2.0000      -0.534772       -14.5519
  27   2.0000      -0.529033       -14.3957
  28   2.0000      -0.467264       -12.7149
  29   2.0000      -0.457622       -12.4525
  30   2.0000      -0.445354       -12.1187
  31   2.0000      -0.442937       -12.0529
  32   2.0000      -0.395845       -10.7715
  33   0.0000       0.126032         3.4295
  34   0.0000       0.135864         3.6970
  35   0.0000       0.145119         3.9489
  36   0.0000       0.159526         4.3409
  37   0.0000       0.177108         4.8193

MULLIKEN ATOMIC CHARGES
-----------------------
   0 O :   -0.467387
   1 C :    0.023807
   2 C :   -0.285251
   3 C :   -0.084038
   4 C :    0.205263
   5 C :   -0.172487
   6 N :   -0.334668
   7 C :   -0.258802
   8 N :   -0.042875
   9 H :    0.338100
  10 H :    0.121759
  11 H :    0.149844
  12 H :    0.139394
  13 H :    0.145109
  14 H :    0.141711
  15 H :    0.142208
  16 H :    0.238312
Sum of atomic charges:    0.0000000

LOEWDIN ATOMIC CHARGES
----------------------
   0 O :    0.007433
   1 C :   -0.308316
   2 C :   -0.200093
   3 C :   -0.172817
   4 C :   -0.284492
   5 C :   -0.210928
   6 N :    0.043951
   7 C :   -0.143377
   8 N :    0.070099
   9 H :    0.188908
  10 H :    0.134248
  11 H :    0.138290
  12 H :    0.140342
  13 H :    0.164431
  14 H :    0.134359
  15 H :    0.129114
  16 H :    0.168847

  Mayer bond orders larger than 0.1
B(  0-O ,  1-C ) :   1.0255 B(  0-O ,  9-H ) :   0.8343 B(  1-C ,  2-C ) :   0.8570
B(  1-C ,  3-C ) :   0.8724 B(  1-C , 10-H ) :   0.9579 B(  2-C ,  3-C ) :   0.8667
B(  2-C , 11-H ) :   0.9244 B(  2-C , 12-H ) :   0.9279 B(  3-C ,  4-C ) :   0.9142
B(  3-C , 13-H ) :   0.9098 B(  4-C ,  5-C ) :   0.8921 B(  4-C ,  6-N ) :   0.8641
B(  4-C ,  7-C ) :   0.8906 B(  5-C ,  6-N ) :   0.9455 B(  5-C , 14-H ) :   0.9126
B(  5-C , 15-H ) :   0.9133 B(  6-N , 16-H ) :   0.8630 B(  7-C ,  8-N ) :   2.8953

MP2 TOTAL ENERGY:     -417.263147907 Eh
FINAL SINGLE POINT ENERGY      -417.263147907210

DIPOLE MOMENT
-------------
                                X             Y             Z
Electronic contribution:     -1.93055       4.37028      -3.16664
Nuclear contribution   :      2.59998      -5.72668       3.79228
                        -----------------------------------------
Total Dipole Moment    :      0.66944      -1.35640       0.62563
                        -----------------------------------------
Magnitude (a.u.)       :      1.63688
Magnitude (Debye)      :      4.16062

                             ****ORCA TERMINATED NORMALLY****
TOTAL RUN TIME: 0 days 0 hours 17 minutes 25 seconds 422 msec
