                         Program Version 3.0.3 - RELEASE   -
|  1> ! RI-MP2 RIJK def2-TZVP def2-TZVP/C def2-TZVP/JK TIGHTSCF
|  2> % maxcore 2000
|  3> % mp2 density relaxed end
|  4> *xyz 0 1
|  5>  C        0.0676013871     1.4340717016     0.2848060096
|  6>  C        0.1200134530    -0.0472149209    -0.0146075250
|  7>  C        0.6782409332    -0.6186837120    -1.3016342821
|  8>  C        1.2362336323     0.2441464952    -2.4137444984
|  9>  C        1.4187983993    -0.8265342227     0.0038454709
| 10>  N        2.6618850379    -0.1415570748     0.2092350824
| 11>  C        3.0798014277     0.2757392693     1.4377593234
| 12>  O        2.4220225925     0.2288439376     2.4536393746
| 13>  H        0.9313833747     1.9697491981    -0.1147115510
| 14>  H       -0.8333146333     1.8857535835    -0.1443019010
| 15>  H        0.0545176627     1.5971819441     1.3660018963
| 16>  H       -0.7187988502    -0.5997596614     0.4003014972
| 17>  H        0.1728048798    -1.5092341223    -1.6663835808
| 18>  H        1.7770466803     1.1147188521    -2.0357448327
| 19>  H        1.9248973467    -0.3278599378    -3.0468114242
| 20>  H        0.4312882763     0.6125716575    -3.0583744933
| 21>  H        1.3840261907    -1.8187284121     0.4476055982
| 22>  H        3.3453868595    -0.1502086305    -0.5326312295
| 23>  H        4.1114958497     0.6828185555     1.4002128054
| 24> *
| 25>
| 26>                          ****END OF INPUT****

CARTESIAN COORDINATES (ANGSTROEM)
---------------------------------
  C      0.067601    1.434072    0.284806
  C      0.120013   -0.047215   -0.014608
  C      0.678241   -0.618684   -1.301634
  C      1.236234    0.244146   -2.413744
  C      1.418798   -0.826534    0.003845
  N      2.661885   -0.141557    0.209235
  C      3.079801    0.275739    1.437759
  O      2.422023    0.228844    2.453639
  H      0.931383    1.969749   -0.114712
  H     -0.833315    1.885754   -0.144302
  H      0.054518    1.597182    1.366002
  H     -0.718799   -0.599760    0.400301
  H      0.172805   -1.509234   -1.666384
  H      1.777047    1.114719   -2.035745
  H      1.924897   -0.327860   -3.046811
  H      0.431288    0.612572   -3.058374
  H      1.384026   -1.818728    0.447606
  H      3.345387   -0.150209   -0.532631
  H      4.111496    0.682819    1.400213

 Total Charge           Charge          ....    0
 Multiplicity           Mult            ....    1
 Number of Electrons    NEL             ....   62
 Basis Dimension        Dim             ....  314

ORBITAL ENERGIES
----------------

  NO   OCC          E(Eh)            E(eV)
   0   2.0000     -20.521707      -558.4240
   1   2.0000     -15.589017      -424.1987
   2   2.0000     -11.346524      -308.7546
   3   2.0000     -11.265680      -306.5547
   4   2.0000     -11.238701      -305.8206
   5   2.0000     -11.231873      -305.6348
   6   2.0000     -11.227450      -305.5144
   7   2.0000     -11.212036      -305.0950
   8   2.0000      -1.381790       -37.6004
   9   2.0000      -1.245070       -33.8801
  10   2.0000      -1.135894       -30.9093
  11   2.0000      -0.986437       -26.8423
  12   2.0000      -0.953391       -25.9431
  13   2.0000      -0.865429       -23.5495
  14   2.0000      -0.779186       -21.2027
  15   2.0000      -0.752881       -20.4869
  16   2.0000      -0.720908       -19.6169
  17   2.0000      -0.694226       -18.8909
  18   2.0000      -0.641947       -17.4683
  19   2.0000      -0.603672       -16.4268
  20   2.0000      -0.594756       -16.1841
  21   2.0000      -0.571299       -15.5458
  22   2.0000      -0.552860       -15.0441
  23   2.0000      -0.547690       -14.9034
  24   2.0000      -0.537604       -14.6289
  25   2.0000      -0.527072       -14.3424
  26   2.0000      -0.487083       -13.2542
  27   2.0000      -0.437881       -11.9153
  28   2.0000      -0.432061       -11.7570
  29   2.0000      -0.407349       -11.0845
  30   2.0000      -0.373686       -10.1685
  31   0.0000       0.122297         3.3279
  32   0.0000       0.144256         3.9254
  33   0.0000       0.163413         4.4467
  34   0.0000       0.175667         4.7802
  35   0.0000       0.180593         4.9142

MULLIKEN ATOMIC CHARGES
-----------------------
   0 C :   -0.410059
   1 C :   -0.066368
   2 C :   -0.081143
   3 C :   -0.437440
   4 C :   -0.005340
   5 N :   -0.362241
   6 C :    0.188032
   7 O :   -0.351233
   8 H :    0.122467
   9 H :    0.134668
  10 H :    0.157628
  11 H :    0.120890
  12 H :    0.122782
  13 H :    0.132344
  14 H :    0.138202
  15 H :    0.142187
  16 H :    0.133538
  17 H :    0.245156
  18 H :    0.075931
Sum of atomic charges:   -0.0000000

LOEWDIN ATOMIC CHARGES
----------------------
   0 C :   -0.290394
   1 C :   -0.209109
   2 C :   -0.217411
   3 C :   -0.298657
   4 C :   -0.226165
   5 N :    0.103068
   6 C :   -0.433520
   7 O :    0.069004
   8 H :    0.124116
   9 H :    0.125809
  10 H :    0.134031
  11 H :    0.151362
  12 H :    0.149566
  13 H :    0.123476
  14 H :    0.125236
  15 H :    0.130253
  16 H :    0.144308
  17 H :    0.187160
  18 H :    0.107868

  Mayer bond orders larger than 0.1
B(  0-C ,  1-C ) :   0.9198 B(  0-C ,  8-H ) :   0.9389 B(  0-C ,  9-H ) :   0.9329
B(  0-C , 10-H ) :   0.9334 B(  1-C ,  2-C ) :   0.8633 B(  1-C ,  4-C ) :   0.8899
B(  1-C , 11-H ) :   0.9264 B(  2-C ,  3-C ) :   0.9038 B(  2-C ,  4-C ) :   0.8730
B(  2-C , 12-H ) :   0.9306 B(  3-C , 13-H ) :   0.9399 B(  3-C , 14-H ) :   0.9378
B(  3-C , 15-H ) :   0.9354 B(  4-C ,  5-N ) :   0.8048 B(  4-C , 16-H ) :   0.9393
B(  5-N ,  6-C ) :   1.1365 B(  5-N , 17-H ) :   0.8678 B(  6-C ,  7-O ) :   1.9115
B(  6-C , 18-H ) :   0.9300

MP2 TOTAL ENERGY:     -364.455157932 Eh
FINAL SINGLE POINT ENERGY      -364.455157932094

DIPOLE MOMENT
-------------
                                X             Y             Z
Electronic contribution:      3.74918      -2.42923       6.11134
Nuclear contribution   :     -3.49768       2.26755      -7.52811
                        -----------------------------------------
Total Dipole Moment    :      0.25150      -0.16168      -1.41677
                        -----------------------------------------
Magnitude (a.u.)       :      1.44797
Magnitude (Debye)      :      3.68045

                             ****ORCA TERMINATED NORMALLY****
TOTAL RUN TIME: 0 days 0 hours 13 minutes 46 seconds 539 msec
