                         Program Version 3.0.3 - RELEASE   -
|  1> ! RI-MP2 RIJK def2-TZVP def2-TZVP/C def2-TZVP/JK TIGHTSCF
|  2> % maxcore 2000
|  3> % mp2 density relaxed end
|  4> *xyz 0 1
|  5>  C       -0.2097993483    -1.2689482958    -0.1623104986
|  6>  C       -0.1202874259    -0.0722666822    -0.0731787594
|  7>  C       -0.0074366810     1.3663619024     0.0546718942
|  8>  C       -0.2798161522     2.0429344462     1.4260430373
|  9>  C        0.4566190599     1.3503342855     2.6004313818
| 10>  C        1.8057282980     1.9568599756     2.1250320286
| 11>  C        2.3513394845     1.2672000561     0.8599422449
| 12>  N        1.3780974586     1.9879780733    -0.0347244988
| 13>  C        1.0069950474     2.8799617905     1.1499449119
| 14>  H       -0.2956318172    -2.3235828324    -0.2541145500
| 15>  H       -0.6129878118     1.8455073056    -0.7238444846
| 16>  H       -1.2800028765     2.4403163677     1.6007984135
| 17>  H        0.1484860489     1.7926050506     3.5521226568
| 18>  H        0.3806042106     0.2614906586     2.6741879669
| 19>  H        2.5109014545     2.2976686747     2.8837911953
| 20>  H        3.3644986538     1.5944101414     0.6054510067
| 21>  H        2.3079824414     0.1752856264     0.8038258273
| 22>  H        1.0793239852     3.9615980759     1.0449712662
| 23> *
| 24>
| 25>                          ****END OF INPUT****

CARTESIAN COORDINATES (ANGSTROEM)
---------------------------------
  C     -0.209799   -1.268948   -0.162310
  C     -0.120287   -0.072267   -0.073179
  C     -0.007437    1.366362    0.054672
  C     -0.279816    2.042934    1.426043
  C      0.456619    1.350334    2.600431
  C      1.805728    1.956860    2.125032
  C      2.351339    1.267200    0.859942
  N      1.378097    1.987978   -0.034724
  C      1.006995    2.879962    1.149945
  H     -0.295632   -2.323583   -0.254115
  H     -0.612988    1.845507   -0.723844
  H     -1.280003    2.440316    1.600798
  H      0.148486    1.792605    3.552123
  H      0.380604    0.261491    2.674188
  H      2.510901    2.297669    2.883791
  H      3.364499    1.594410    0.605451
  H      2.307982    0.175286    0.803826
  H      1.079324    3.961598    1.044971

 Total Charge           Charge          ....    0
 Multiplicity           Mult            ....    1
 Number of Electrons    NEL             ....   64
 Basis Dimension        Dim             ....  333

ORBITAL ENERGIES
----------------

  NO   OCC          E(Eh)            E(eV)
   0   2.0000     -15.550943      -423.1627
   1   2.0000     -11.280596      -306.9606
   2   2.0000     -11.261533      -306.4419
   3   2.0000     -11.247681      -306.0649
   4   2.0000     -11.240214      -305.8618
   5   2.0000     -11.234776      -305.7138
   6   2.0000     -11.233056      -305.6670
   7   2.0000     -11.228337      -305.5386
   8   2.0000     -11.227183      -305.5072
   9   2.0000      -1.278617       -34.7929
  10   2.0000      -1.067046       -29.0358
  11   2.0000      -1.054714       -28.7002
  12   2.0000      -1.002687       -27.2845
  13   2.0000      -0.906594       -24.6697
  14   2.0000      -0.846960       -23.0469
  15   2.0000      -0.822255       -22.3747
  16   2.0000      -0.733076       -19.9480
  17   2.0000      -0.712290       -19.3824
  18   2.0000      -0.683254       -18.5923
  19   2.0000      -0.653670       -17.7873
  20   2.0000      -0.631506       -17.1841
  21   2.0000      -0.607181       -16.5222
  22   2.0000      -0.572898       -15.5894
  23   2.0000      -0.534243       -14.5375
  24   2.0000      -0.503004       -13.6874
  25   2.0000      -0.478318       -13.0157
  26   2.0000      -0.467103       -12.7105
  27   2.0000      -0.445676       -12.1275
  28   2.0000      -0.423130       -11.5140
  29   2.0000      -0.394766       -10.7421
  30   2.0000      -0.384589       -10.4652
  31   2.0000      -0.347382        -9.4528
  32   0.0000       0.143534         3.9058
  33   0.0000       0.153455         4.1757
  34   0.0000       0.157510         4.2861
  35   0.0000       0.163437         4.4474
  36   0.0000       0.174258         4.7418

MULLIKEN ATOMIC CHARGES
-----------------------
   0 C :   -0.154012
   1 C :   -0.055661
   2 C :   -0.132193
   3 C :   -0.010163
   4 C :   -0.289567
   5 C :   -0.058156
   6 C :   -0.184414
   7 N :   -0.179018
   8 C :   -0.121544
   9 H :    0.191325
  10 H :    0.120200
  11 H :    0.125284
  12 H :    0.122805
  13 H :    0.124269
  14 H :    0.122063
  15 H :    0.125469
  16 H :    0.127285
  17 H :    0.126026
Sum of atomic charges:    0.0000000

LOEWDIN ATOMIC CHARGES
----------------------
   0 C :   -0.088610
   1 C :   -0.090129
   2 C :   -0.227162
   3 C :   -0.159084
   4 C :   -0.197509
   5 C :   -0.194396
   6 C :   -0.229107
   7 N :    0.113568
   8 C :   -0.141673
   9 H :    0.127810
  10 H :    0.166983
  11 H :    0.133009
  12 H :    0.139935
  13 H :    0.131513
  14 H :    0.130206
  15 H :    0.131175
  16 H :    0.128352
  17 H :    0.125118

  Mayer bond orders larger than 0.1
B(  0-C ,  1-C ) :   2.5456 B(  0-C ,  9-H ) :   0.9002 B(  1-C ,  2-C ) :   1.1870
B(  2-C ,  3-C ) :   0.9251 B(  2-C ,  7-N ) :   0.9297 B(  2-C , 10-H ) :   0.8961
B(  3-C ,  4-C ) :   0.9291 B(  3-C ,  8-C ) :   0.9004 B(  3-C , 11-H ) :   0.9151
B(  4-C ,  5-C ) :   0.9322 B(  4-C , 12-H ) :   0.9175 B(  4-C , 13-H ) :   0.9112
B(  5-C ,  6-C ) :   0.9229 B(  5-C ,  8-C ) :   0.9019 B(  5-C , 14-H ) :   0.9150
B(  6-C ,  7-N ) :   0.8970 B(  6-C , 15-H ) :   0.9265 B(  6-C , 16-H ) :   0.9238
B(  7-N ,  8-C ) :   0.9182 B(  8-C , 17-H ) :   0.8921

MP2 TOTAL ENERGY:     -364.040846984 Eh
FINAL SINGLE POINT ENERGY      -364.040846983658

DIPOLE MOMENT
-------------
                                X             Y             Z
Electronic contribution:     -1.13222      -0.41359      -3.10180
Nuclear contribution   :      0.96789       0.36715       3.80081
                        -----------------------------------------
Total Dipole Moment    :     -0.16433      -0.04644       0.69901
                        -----------------------------------------
Magnitude (a.u.)       :      0.71956
Magnitude (Debye)      :      1.82899

                             ****ORCA TERMINATED NORMALLY****
TOTAL RUN TIME: 0 days 0 hours 20 minutes 22 seconds 176 msec
