                         Program Version 3.0.3 - RELEASE   -
|  1> ! RI-MP2 RIJK def2-TZVP def2-TZVP/C def2-TZVP/JK TIGHTSCF
|  2> % maxcore 2000
|  3> % mp2 density relaxed end
|  4> *xyz 0 1
|  5>  O       -0.2401079196     1.4496352869     0.0120379148
|  6>  C       -0.0362516206     0.0475881690     0.0028406555
|  7>  C       -1.4115017616    -0.6109646400     0.0122473638
|  8>  C       -1.3138427876    -2.1259770415     0.0031839378
|  9>  O       -2.6620487181    -2.6404181997     0.0133102029
| 10>  C       -2.7857423744    -3.9683772685     0.0072625070
| 11>  N       -1.8076803931    -4.7763651677    -0.0068736226
| 12>  C       -4.1848231243    -4.3642651577     0.0179919692
| 13>  N       -5.2746068680    -4.7487148916     0.0262045942
| 14>  H        0.6195876016     1.8803459747     0.0066042471
| 15>  H        0.5252505444    -0.2705343714    -0.8910321592
| 16>  H        0.5418071269    -0.2797679927     0.8827113270
| 17>  H       -1.9598721572    -0.2801663353     0.9002575131
| 18>  H       -1.9764291062    -0.2706792333    -0.8616892530
| 19>  H       -0.8004208667    -2.5066531690    -0.8863357958
| 20>  H       -0.7835670264    -2.5161311822     0.8786006817
| 21>  H       -2.1222977791    -5.7436743702    -0.0095201937
| 22> *
| 23>
| 24>                          ****END OF INPUT****

CARTESIAN COORDINATES (ANGSTROEM)
---------------------------------
  O     -0.240108    1.449635    0.012038
  C     -0.036252    0.047588    0.002841
  C     -1.411502   -0.610965    0.012247
  C     -1.313843   -2.125977    0.003184
  O     -2.662049   -2.640418    0.013310
  C     -2.785742   -3.968377    0.007263
  N     -1.807680   -4.776365   -0.006874
  C     -4.184823   -4.364265    0.017992
  N     -5.274607   -4.748715    0.026205
  H      0.619588    1.880346    0.006604
  H      0.525251   -0.270534   -0.891032
  H      0.541807   -0.279768    0.882711
  H     -1.959872   -0.280166    0.900258
  H     -1.976429   -0.270679   -0.861689
  H     -0.800421   -2.506653   -0.886336
  H     -0.783567   -2.516131    0.878601
  H     -2.122298   -5.743674   -0.009520

 Total Charge           Charge          ....    0
 Multiplicity           Mult            ....    1
 Number of Electrons    NEL             ....   68
 Basis Dimension        Dim             ....  327

ORBITAL ENERGIES
----------------

  NO   OCC          E(Eh)            E(eV)
   0   2.0000     -20.624744      -561.2278
   1   2.0000     -20.567536      -559.6711
   2   2.0000     -15.606848      -424.6839
   3   2.0000     -15.583074      -424.0370
   4   2.0000     -11.401702      -310.2561
   5   2.0000     -11.304878      -307.6214
   6   2.0000     -11.300520      -307.5028
   7   2.0000     -11.291914      -307.2686
   8   2.0000     -11.236612      -305.7638
   9   2.0000      -1.465770       -39.8856
  10   2.0000      -1.372549       -37.3490
  11   2.0000      -1.256196       -34.1828
  12   2.0000      -1.228758       -33.4362
  13   2.0000      -1.079848       -29.3842
  14   2.0000      -0.975695       -26.5500
  15   2.0000      -0.886440       -24.1213
  16   2.0000      -0.828918       -22.5560
  17   2.0000      -0.787869       -21.4390
  18   2.0000      -0.717181       -19.5155
  19   2.0000      -0.706632       -19.2284
  20   2.0000      -0.705304       -19.1923
  21   2.0000      -0.655938       -17.8490
  22   2.0000      -0.604099       -16.4384
  23   2.0000      -0.589317       -16.0361
  24   2.0000      -0.581601       -15.8262
  25   2.0000      -0.578641       -15.7456
  26   2.0000      -0.525618       -14.3028
  27   2.0000      -0.521249       -14.1839
  28   2.0000      -0.516526       -14.0554
  29   2.0000      -0.499134       -13.5821
  30   2.0000      -0.488591       -13.2952
  31   2.0000      -0.474105       -12.9011
  32   2.0000      -0.457601       -12.4520
  33   2.0000      -0.433536       -11.7971
  34   0.0000       0.087623         2.3843
  35   0.0000       0.123426         3.3586
  36   0.0000       0.130993         3.5645
  37   0.0000       0.148531         4.0417
  38   0.0000       0.160650         4.3715

MULLIKEN ATOMIC CHARGES
-----------------------
   0 O :   -0.460647
   1 C :   -0.082706
   2 C :   -0.131603
   3 C :   -0.107946
   4 O :   -0.221572
   5 C :    0.319846
   6 N :   -0.378852
   7 C :   -0.158061
   8 N :   -0.043896
   9 H :    0.318357
  10 H :    0.097023
  11 H :    0.097032
  12 H :    0.126898
  13 H :    0.126908
  14 H :    0.128119
  15 H :    0.128109
  16 H :    0.242991
Sum of atomic charges:   -0.0000000

LOEWDIN ATOMIC CHARGES
----------------------
   0 O :   -0.045547
   1 C :   -0.350307
   2 C :   -0.267229
   3 C :   -0.268351
   4 O :    0.282022
   5 C :   -0.431247
   6 N :   -0.019133
   7 C :   -0.138941
   8 N :    0.095246
   9 H :    0.174352
  10 H :    0.115878
  11 H :    0.115878
  12 H :    0.145808
  13 H :    0.145811
  14 H :    0.133114
  15 H :    0.133113
  16 H :    0.179534

  Mayer bond orders larger than 0.1
B(  0-O ,  1-C ) :   1.0152 B(  0-O ,  9-H ) :   0.8470 B(  1-C ,  2-C ) :   0.9282
B(  1-C , 10-H ) :   0.9281 B(  1-C , 11-H ) :   0.9281 B(  2-C ,  3-C ) :   0.9207
B(  2-C , 12-H ) :   0.9183 B(  2-C , 13-H ) :   0.9183 B(  3-C ,  4-O ) :   0.8360
B(  3-C , 14-H ) :   0.9273 B(  3-C , 15-H ) :   0.9273 B(  4-O ,  5-C ) :   1.1518
B(  5-C ,  6-N ) :   1.8834 B(  5-C ,  7-C ) :   0.9091 B(  6-N , 16-H ) :   0.8571
B(  7-C ,  8-N ) :   2.8108

MP2 TOTAL ENERGY:     -454.411459737 Eh
FINAL SINGLE POINT ENERGY      -454.411459737388

DIPOLE MOMENT
-------------
                                X             Y             Z
Electronic contribution:     -8.49089      -7.63699       0.03918
Nuclear contribution   :     10.14485       7.92890      -0.05292
                        -----------------------------------------
Total Dipole Moment    :      1.65396       0.29191      -0.01374
                        -----------------------------------------
Magnitude (a.u.)       :      1.67958
Magnitude (Debye)      :      4.26914

                             ****ORCA TERMINATED NORMALLY****
TOTAL RUN TIME: 0 days 0 hours 13 minutes 34 seconds 595 msec
