                         Program Version 3.0.3 - RELEASE   -
|  1> ! RI-MP2 RIJK def2-TZVP def2-TZVP/C def2-TZVP/JK TIGHTSCF
|  2> % maxcore 2000
|  3> % mp2 density relaxed end
|  4> *xyz 0 1
|  5>  C       -0.1567377126     1.5069226830    -0.0747710568
|  6>  C       -0.0947877963    -0.0109329574    -0.0916898013
|  7>  O       -1.4168828683    -0.5056121040     0.0420885840
|  8>  C       -1.5406023844    -1.8996200708    -0.0701526328
|  9>  C       -1.1617776669    -2.6436766582     1.2263900535
| 10>  C       -2.9896387565    -2.2050222954    -0.4287521615
| 11>  O       -3.9065925900    -1.4288108437    -0.3294767284
| 12>  C       -3.2981001265    -3.6140294057    -0.9596157151
| 13>  O       -2.4687837759    -4.4666063932    -1.1425775713
| 14>  H        0.8472928510     1.9287712168    -0.1792208288
| 15>  H       -0.7788098356     1.8738537603    -0.8955759200
| 16>  H       -0.5873208135     1.8614685012     0.8657209807
| 17>  H        0.3466357120    -0.3716952749    -1.0356284578
| 18>  H        0.5468618833    -0.3743210938     0.7259085530
| 19>  H       -0.9144903320    -2.2879666355    -0.8908132523
| 20>  H       -1.2776141670    -3.7226533421     1.1024068923
| 21>  H       -0.1179493985    -2.4437148025     1.4805090376
| 22>  H       -1.7918980511    -2.3005194154     2.0517891442
| 23>  H       -4.3787938411    -3.7530859088    -1.1752098893
| 24> *
| 25>
| 26>                          ****END OF INPUT****

CARTESIAN COORDINATES (ANGSTROEM)
---------------------------------
  C     -0.156738    1.506923   -0.074771
  C     -0.094788   -0.010933   -0.091690
  O     -1.416883   -0.505612    0.042089
  C     -1.540602   -1.899620   -0.070153
  C     -1.161778   -2.643677    1.226390
  C     -2.989639   -2.205022   -0.428752
  O     -3.906593   -1.428811   -0.329477
  C     -3.298100   -3.614029   -0.959616
  O     -2.468784   -4.466606   -1.142578
  H      0.847293    1.928771   -0.179221
  H     -0.778810    1.873854   -0.895576
  H     -0.587321    1.861469    0.865721
  H      0.346636   -0.371695   -1.035628
  H      0.546862   -0.374321    0.725909
  H     -0.914490   -2.287967   -0.890813
  H     -1.277614   -3.722653    1.102407
  H     -0.117949   -2.443715    1.480509
  H     -1.791898   -2.300519    2.051789
  H     -4.378794   -3.753086   -1.175210

 Total Charge           Charge          ....    0
 Multiplicity           Mult            ....    1
 Number of Electrons    NEL             ....   70
 Basis Dimension        Dim             ....  339

ORBITAL ENERGIES
----------------

  NO   OCC          E(Eh)            E(eV)
   0   2.0000     -20.596817      -560.4679
   1   2.0000     -20.583405      -560.1029
   2   2.0000     -20.565808      -559.6241
   3   2.0000     -11.358581      -309.0827
   4   2.0000     -11.350854      -308.8724
   5   2.0000     -11.308082      -307.7085
   6   2.0000     -11.285056      -307.0820
   7   2.0000     -11.235575      -305.7355
   8   2.0000     -11.219342      -305.2938
   9   2.0000      -1.437499       -39.1163
  10   2.0000      -1.419619       -38.6298
  11   2.0000      -1.386918       -37.7400
  12   2.0000      -1.072439       -29.1826
  13   2.0000      -1.007503       -27.4156
  14   2.0000      -0.948477       -25.8094
  15   2.0000      -0.886896       -24.1337
  16   2.0000      -0.835956       -22.7475
  17   2.0000      -0.764682       -20.8081
  18   2.0000      -0.712549       -19.3894
  19   2.0000      -0.697464       -18.9790
  20   2.0000      -0.678160       -18.4537
  21   2.0000      -0.660927       -17.9847
  22   2.0000      -0.648280       -17.6406
  23   2.0000      -0.612017       -16.6538
  24   2.0000      -0.583926       -15.8894
  25   2.0000      -0.564434       -15.3590
  26   2.0000      -0.557748       -15.1771
  27   2.0000      -0.544294       -14.8110
  28   2.0000      -0.535582       -14.5739
  29   2.0000      -0.524102       -14.2615
  30   2.0000      -0.509729       -13.8704
  31   2.0000      -0.500930       -13.6310
  32   2.0000      -0.485079       -13.1997
  33   2.0000      -0.436491       -11.8775
  34   2.0000      -0.413478       -11.2513
  35   0.0000       0.054269         1.4767
  36   0.0000       0.134088         3.6487
  37   0.0000       0.155993         4.2448
  38   0.0000       0.165209         4.4956
  39   0.0000       0.175519         4.7761

MULLIKEN ATOMIC CHARGES
-----------------------
   0 C :   -0.362379
   1 C :   -0.054050
   2 O :   -0.272517
   3 C :    0.103846
   4 C :   -0.447693
   5 C :    0.209563
   6 O :   -0.236348
   7 C :    0.076854
   8 O :   -0.248547
   9 H :    0.122132
  10 H :    0.133369
  11 H :    0.133049
  12 H :    0.094078
  13 H :    0.092153
  14 H :    0.097329
  15 H :    0.157505
  16 H :    0.138600
  17 H :    0.143948
  18 H :    0.119108
Sum of atomic charges:    0.0000000

LOEWDIN ATOMIC CHARGES
----------------------
   0 C :   -0.313791
   1 C :   -0.345539
   2 O :    0.198372
   3 C :   -0.333530
   4 C :   -0.281885
   5 C :   -0.304790
   6 O :    0.202086
   7 C :   -0.253351
   8 O :    0.159114
   9 H :    0.124721
  10 H :    0.125582
  11 H :    0.125700
  12 H :    0.117476
  13 H :    0.116396
  14 H :    0.151777
  15 H :    0.132203
  16 H :    0.126309
  17 H :    0.130717
  18 H :    0.122433

  Mayer bond orders larger than 0.1
B(  0-C ,  1-C ) :   0.9582 B(  0-C ,  9-H ) :   0.9311 B(  0-C , 10-H ) :   0.9366
B(  0-C , 11-H ) :   0.9358 B(  1-C ,  2-O ) :   0.9122 B(  1-C , 12-H ) :   0.9225
B(  1-C , 13-H ) :   0.9214 B(  2-O ,  3-C ) :   0.9859 B(  3-C ,  4-C ) :   0.8701
B(  3-C ,  5-C ) :   0.8744 B(  3-C , 14-H ) :   0.9240 B(  4-C , 15-H ) :   0.9241
B(  4-C , 16-H ) :   0.9311 B(  4-C , 17-H ) :   0.9319 B(  5-C ,  6-O ) :   1.9737
B(  5-C ,  7-C ) :   0.8543 B(  7-C ,  8-O ) :   1.9500 B(  7-C , 18-H ) :   0.9268

MP2 TOTAL ENERGY:     -459.425248793 Eh
FINAL SINGLE POINT ENERGY      -459.425248793266

DIPOLE MOMENT
-------------
                                X             Y             Z
Electronic contribution:     -9.20753      -6.80709      -3.64366
Nuclear contribution   :      9.94096       6.73920       3.75613
                        -----------------------------------------
Total Dipole Moment    :      0.73344      -0.06789       0.11247
                        -----------------------------------------
Magnitude (a.u.)       :      0.74511
Magnitude (Debye)      :      1.89392

                             ****ORCA TERMINATED NORMALLY****
TOTAL RUN TIME: 0 days 0 hours 16 minutes 1 seconds 428 msec
