                         Program Version 3.0.3 - RELEASE   -
|  1> ! RI-MP2 RIJK def2-TZVP def2-TZVP/C def2-TZVP/JK TIGHTSCF
|  2> % maxcore 2000
|  3> % mp2 density relaxed end
|  4> *xyz 0 1
|  5>  C        0.2057927817     1.0879902933    -0.5038441324
|  6>  N        0.0003556928    -0.1097187817     0.3102336548
|  7>  C        0.5394293107     0.0258294125     1.6649853646
|  8>  C       -1.2687375171    -0.6694363159     0.2291836492
|  9>  C       -1.6681309388    -1.9085167823    -0.1820325528
| 10>  N       -0.8323193336    -2.9578798547    -0.5865712663
| 11>  C       -3.0956981547    -1.9483785170    -0.0317191703
| 12>  C       -3.4551201875    -0.7338476692     0.4614139211
| 13>  O       -2.3780749792     0.0606446136     0.6430087400
| 14>  H        1.2768353611     1.3118835252    -0.5575063285
| 15>  H       -0.1629555579     0.9061042272    -1.5161627009
| 16>  H       -0.3091463026     1.9751154218    -0.1012645824
| 17>  H        0.0564661092     0.8330085613     2.2394929870
| 18>  H        0.4005456067    -0.9136429366     2.2045768554
| 19>  H        1.6122392902     0.2415095240     1.6104318182
| 20>  H        0.1024822218    -2.6140832842    -0.7757875308
| 21>  H       -1.1843277843    -3.4513148003    -1.3975894300
| 22>  H       -3.7525319975    -2.7744082804    -0.2569234765
| 23>  H       -4.4096605308    -0.3042615866     0.7203021305
| 24> *
| 25>
| 26>                          ****END OF INPUT****

CARTESIAN COORDINATES (ANGSTROEM)
---------------------------------
  C      0.205793    1.087990   -0.503844
  N      0.000356   -0.109719    0.310234
  C      0.539429    0.025829    1.664985
  C     -1.268738   -0.669436    0.229184
  C     -1.668131   -1.908517   -0.182033
  N     -0.832319   -2.957880   -0.586571
  C     -3.095698   -1.948379   -0.031719
  C     -3.455120   -0.733848    0.461414
  O     -2.378075    0.060645    0.643009
  H      1.276835    1.311884   -0.557506
  H     -0.162956    0.906104   -1.516163
  H     -0.309146    1.975115   -0.101265
  H      0.056466    0.833009    2.239493
  H      0.400546   -0.913643    2.204577
  H      1.612239    0.241510    1.610432
  H      0.102482   -2.614083   -0.775788
  H     -1.184328   -3.451315   -1.397589
  H     -3.752532   -2.774408   -0.256923
  H     -4.409661   -0.304262    0.720302

 Total Charge           Charge          ....    0
 Multiplicity           Mult            ....    1
 Number of Electrons    NEL             ....   68
 Basis Dimension        Dim             ....  339

ORBITAL ENERGIES
----------------

  NO   OCC          E(Eh)            E(eV)
   0   2.0000     -20.604295      -560.6714
   1   2.0000     -15.560042      -423.4103
   2   2.0000     -15.554658      -423.2638
   3   2.0000     -11.283911      -307.0508
   4   2.0000     -11.282546      -307.0137
   5   2.0000     -11.256496      -306.3048
   6   2.0000     -11.246296      -306.0273
   7   2.0000     -11.245324      -306.0008
   8   2.0000     -11.219616      -305.3013
   9   2.0000      -1.442288       -39.2467
  10   2.0000      -1.235620       -33.6229
  11   2.0000      -1.200481       -32.6667
  12   2.0000      -1.051056       -28.6007
  13   2.0000      -0.982127       -26.7250
  14   2.0000      -0.953309       -25.9408
  15   2.0000      -0.869519       -23.6608
  16   2.0000      -0.800103       -21.7719
  17   2.0000      -0.751508       -20.4496
  18   2.0000      -0.710208       -19.3257
  19   2.0000      -0.662783       -18.0352
  20   2.0000      -0.644027       -17.5249
  21   2.0000      -0.639793       -17.4097
  22   2.0000      -0.616871       -16.7859
  23   2.0000      -0.597338       -16.2544
  24   2.0000      -0.590592       -16.0708
  25   2.0000      -0.561692       -15.2844
  26   2.0000      -0.542658       -14.7665
  27   2.0000      -0.542008       -14.7488
  28   2.0000      -0.516309       -14.0495
  29   2.0000      -0.513610       -13.9761
  30   2.0000      -0.483548       -13.1580
  31   2.0000      -0.374613       -10.1937
  32   2.0000      -0.357710        -9.7338
  33   2.0000      -0.287878        -7.8336
  34   0.0000       0.134435         3.6582
  35   0.0000       0.151379         4.1192
  36   0.0000       0.155368         4.2278
  37   0.0000       0.178924         4.8688
  38   0.0000       0.190490         5.1835

MULLIKEN ATOMIC CHARGES
-----------------------
   0 C :   -0.307092
   1 N :   -0.212747
   2 C :   -0.306605
   3 C :    0.190388
   4 C :    0.062958
   5 N :   -0.511674
   6 C :   -0.240796
   7 C :   -0.014141
   8 O :   -0.228128
   9 H :    0.130693
  10 H :    0.139329
  11 H :    0.127660
  12 H :    0.125462
  13 H :    0.147750
  14 H :    0.129691
  15 H :    0.245224
  16 H :    0.246752
  17 H :    0.132718
  18 H :    0.142560
Sum of atomic charges:   -0.0000000

LOEWDIN ATOMIC CHARGES
----------------------
   0 C :   -0.309379
   1 N :    0.078016
   2 C :   -0.307330
   3 C :   -0.312906
   4 C :   -0.261417
   5 N :   -0.091915
   6 C :   -0.174911
   7 C :   -0.258714
   8 O :    0.335542
   9 H :    0.116213
  10 H :    0.122018
  11 H :    0.108976
  12 H :    0.108556
  13 H :    0.124256
  14 H :    0.116019
  15 H :    0.168367
  16 H :    0.165933
  17 H :    0.142367
  18 H :    0.130309

  Mayer bond orders larger than 0.1
B(  0-C ,  1-N ) :   0.8950 B(  0-C ,  9-H ) :   0.9345 B(  0-C , 10-H ) :   0.9382
B(  0-C , 11-H ) :   0.9321 B(  1-N ,  2-C ) :   0.8933 B(  1-N ,  3-C ) :   1.0132
B(  2-C , 12-H ) :   0.9306 B(  2-C , 13-H ) :   0.9380 B(  2-C , 14-H ) :   0.9348
B(  3-C ,  4-C ) :   1.5223 B(  3-C ,  8-O ) :   0.9702 B(  4-C ,  5-N ) :   1.0215
B(  4-C ,  6-C ) :   1.2295 B(  5-N , 15-H ) :   0.8721 B(  5-N , 16-H ) :   0.8749
B(  6-C ,  7-C ) :   1.5500 B(  6-C , 17-H ) :   0.9218 B(  7-C ,  8-O ) :   1.0797
B(  7-C , 18-H ) :   0.9357

MP2 TOTAL ENERGY:     -418.503391130 Eh
FINAL SINGLE POINT ENERGY      -418.503391130305

DIPOLE MOMENT
-------------
                                X             Y             Z
Electronic contribution:     -5.80782      -2.58511      -0.35705
Nuclear contribution   :      5.99911       2.69552      -0.06521
                        -----------------------------------------
Total Dipole Moment    :      0.19129       0.11041      -0.42226
                        -----------------------------------------
Magnitude (a.u.)       :      0.47653
Magnitude (Debye)      :      1.21125

                             ****ORCA TERMINATED NORMALLY****
TOTAL RUN TIME: 0 days 0 hours 18 minutes 22 seconds 802 msec
