                         Program Version 3.0.3 - RELEASE   -
|  1> ! RI-MP2 RIJK def2-TZVP def2-TZVP/C def2-TZVP/JK TIGHTSCF
|  2> % maxcore 2000
|  3> % mp2 density relaxed end
|  4> *xyz 0 1
|  5>  N        0.0195906523     1.2908938028    -0.4176834214
|  6>  C        0.0165514610     0.0972246552    -0.0551855396
|  7>  O        1.0104786694    -0.7078384978     0.4751282034
|  8>  C        0.1006154818    -1.8492014844     0.6008742477
|  9>  C        0.0062136641    -2.3090118517     1.9822748986
| 10>  N        0.0062812764    -2.7018968225     3.0679695689
| 11>  C       -1.0406558039    -0.9906590436    -0.0108755145
| 12>  C       -2.3079677866    -0.6917339543     0.7694522613
| 13>  O       -2.7684480913    -1.4173735571     1.6064419427
| 14>  H        0.9271987746     1.7396164204    -0.2889098504
| 15>  H        0.4358288834    -2.6726598395    -0.0343055749
| 16>  H       -1.3343609430    -1.3215213980    -1.0128814973
| 17>  H       -2.7875798080     0.2644245906     0.4750471455
| 18> *
| 19>
| 20>                          ****END OF INPUT****

CARTESIAN COORDINATES (ANGSTROEM)
---------------------------------
  N      0.019591    1.290894   -0.417683
  C      0.016551    0.097225   -0.055186
  O      1.010479   -0.707838    0.475128
  C      0.100615   -1.849201    0.600874
  C      0.006214   -2.309012    1.982275
  N      0.006281   -2.701897    3.067970
  C     -1.040656   -0.990659   -0.010876
  C     -2.307968   -0.691734    0.769452
  O     -2.768448   -1.417374    1.606442
  H      0.927199    1.739616   -0.288910
  H      0.435829   -2.672660   -0.034306
  H     -1.334361   -1.321521   -1.012881
  H     -2.787580    0.264425    0.475047

 Total Charge           Charge          ....    0
 Multiplicity           Mult            ....    1
 Number of Electrons    NEL             ....   64
 Basis Dimension        Dim             ....  303

ORBITAL ENERGIES
----------------

  NO   OCC          E(Eh)            E(eV)
   0   2.0000     -20.640085      -561.6453
   1   2.0000     -20.593414      -560.3753
   2   2.0000     -15.595079      -424.3637
   3   2.0000     -15.578372      -423.9090
   4   2.0000     -11.383988      -309.7741
   5   2.0000     -11.382787      -309.7414
   6   2.0000     -11.371341      -309.4299
   7   2.0000     -11.312630      -307.8323
   8   2.0000     -11.291725      -307.2635
   9   2.0000      -1.482447       -40.3394
  10   2.0000      -1.433765       -39.0147
  11   2.0000      -1.244486       -33.8642
  12   2.0000      -1.234377       -33.5891
  13   2.0000      -1.112898       -30.2835
  14   2.0000      -1.004542       -27.3350
  15   2.0000      -0.882379       -24.0108
  16   2.0000      -0.797186       -21.6925
  17   2.0000      -0.765943       -20.8424
  18   2.0000      -0.746985       -20.3265
  19   2.0000      -0.730532       -19.8788
  20   2.0000      -0.694109       -18.8877
  21   2.0000      -0.652905       -17.7665
  22   2.0000      -0.613111       -16.6836
  23   2.0000      -0.589299       -16.0356
  24   2.0000      -0.585947       -15.9444
  25   2.0000      -0.571423       -15.5492
  26   2.0000      -0.540653       -14.7119
  27   2.0000      -0.497866       -13.5476
  28   2.0000      -0.484649       -13.1880
  29   2.0000      -0.471194       -12.8218
  30   2.0000      -0.459184       -12.4950
  31   2.0000      -0.441118       -12.0034
  32   0.0000       0.086532         2.3547
  33   0.0000       0.114761         3.1228
  34   0.0000       0.127648         3.4735
  35   0.0000       0.145535         3.9602
  36   0.0000       0.149950         4.0803

MULLIKEN ATOMIC CHARGES
-----------------------
   0 N :   -0.350638
   1 C :    0.120588
   2 O :   -0.244706
   3 C :    0.163545
   4 C :   -0.171691
   5 N :   -0.033622
   6 C :   -0.001017
   7 C :    0.053771
   8 O :   -0.231289
   9 H :    0.245347
  10 H :    0.157228
  11 H :    0.166558
  12 H :    0.125924
Sum of atomic charges:    0.0000000

LOEWDIN ATOMIC CHARGES
----------------------
   0 N :   -0.027429
   1 C :   -0.374579
   2 O :    0.250676
   3 C :   -0.203913
   4 C :   -0.161965
   5 N :    0.100364
   6 C :   -0.160072
   7 C :   -0.257162
   8 O :    0.174194
   9 H :    0.182093
  10 H :    0.166524
  11 H :    0.182155
  12 H :    0.129115

  Mayer bond orders larger than 0.1
B(  0-N ,  1-C ) :   2.0669 B(  0-N ,  9-H ) :   0.8390 B(  1-C ,  2-O ) :   1.0417
B(  1-C ,  6-C ) :   0.8805 B(  2-O ,  3-C ) :   0.9028 B(  3-C ,  4-C ) :   0.9321
B(  3-C ,  6-C ) :   0.9296 B(  3-C , 10-H ) :   0.9038 B(  4-C ,  5-N ) :   2.8145
B(  6-C ,  7-C ) :   0.8307 B(  6-C , 11-H ) :   0.8909 B(  7-C ,  8-O ) :   1.9862
B(  7-C , 12-H ) :   0.9352

MP2 TOTAL ENERGY:     -452.001482106 Eh
FINAL SINGLE POINT ENERGY      -452.001482106131

DIPOLE MOMENT
-------------
                                X             Y             Z
Electronic contribution:      0.71147      -1.71427       2.42993
Nuclear contribution   :     -0.49646       1.90705      -4.09520
                        -----------------------------------------
Total Dipole Moment    :      0.21501       0.19278      -1.66526
                        -----------------------------------------
Magnitude (a.u.)       :      1.69011
Magnitude (Debye)      :      4.29593

                             ****ORCA TERMINATED NORMALLY****
TOTAL RUN TIME: 0 days 0 hours 13 minutes 29 seconds 547 msec
