                         Program Version 3.0.3 - RELEASE   -
|  1> ! RI-MP2 RIJK def2-TZVP def2-TZVP/C def2-TZVP/JK TIGHTSCF
|  2> % maxcore 2000
|  3> % mp2 density relaxed end
|  4> *xyz 0 1
|  5>  C       -0.0707263936     1.4951004902     0.1105911344
|  6>  C       -0.0073882733     0.0433906140     0.0414808974
|  7>  C        0.0460397205    -1.1608252264    -0.0154071921
|  8>  C        0.0888348998    -2.5713501660    -0.0887910798
|  9>  C        1.1654179670    -3.4117255720     0.1677959788
| 10>  N        0.7353553371    -4.6795580185    -0.0196702093
| 11>  C        1.5047184920    -5.9017204541     0.0731760993
| 12>  N       -0.5611217022    -4.7349504146    -0.3916333374
| 13>  C       -0.9565155682    -3.4695119114    -0.4330696166
| 14>  H        0.6915892997     1.9607406798    -0.5246849903
| 15>  H       -1.0472208173     1.8636087119    -0.2229473784
| 16>  H        0.0859046582     1.8563384383     1.1336510581
| 17>  H        2.1774501791    -3.1894472015     0.4656217700
| 18>  H        2.4224127711    -5.7050657423     0.6301357430
| 19>  H        0.9159608734    -6.6571268888     0.5966461767
| 20>  H        1.7606500233    -6.2796073975    -0.9217682769
| 21>  H       -1.9736951967    -3.2242434212    -0.6992136769
| 22> *
| 23>
| 24>                          ****END OF INPUT****

CARTESIAN COORDINATES (ANGSTROEM)
---------------------------------
  C     -0.070726    1.495100    0.110591
  C     -0.007388    0.043391    0.041481
  C      0.046040   -1.160825   -0.015407
  C      0.088835   -2.571350   -0.088791
  C      1.165418   -3.411726    0.167796
  N      0.735355   -4.679558   -0.019670
  C      1.504718   -5.901720    0.073176
  N     -0.561122   -4.734950   -0.391633
  C     -0.956516   -3.469512   -0.433070
  H      0.691589    1.960741   -0.524685
  H     -1.047221    1.863609   -0.222947
  H      0.085905    1.856338    1.133651
  H      2.177450   -3.189447    0.465622
  H      2.422413   -5.705066    0.630136
  H      0.915961   -6.657127    0.596646
  H      1.760650   -6.279607   -0.921768
  H     -1.973695   -3.224243   -0.699214

 Total Charge           Charge          ....    0
 Multiplicity           Mult            ....    1
 Number of Electrons    NEL             ....   64
 Basis Dimension        Dim             ....  327

ORBITAL ENERGIES
----------------

  NO   OCC          E(Eh)            E(eV)
   0   2.0000     -15.644413      -425.7061
   1   2.0000     -15.584727      -424.0820
   2   2.0000     -11.280343      -306.9537
   3   2.0000     -11.277457      -306.8752
   4   2.0000     -11.255415      -306.2754
   5   2.0000     -11.244806      -305.9867
   6   2.0000     -11.240261      -305.8630
   7   2.0000     -11.223371      -305.4034
   8   2.0000     -11.219220      -305.2905
   9   2.0000      -1.382256       -37.6131
  10   2.0000      -1.129690       -30.7404
  11   2.0000      -1.086632       -29.5688
  12   2.0000      -1.042134       -28.3579
  13   2.0000      -0.972957       -26.4755
  14   2.0000      -0.932991       -25.3880
  15   2.0000      -0.827946       -22.5296
  16   2.0000      -0.782608       -21.2959
  17   2.0000      -0.737055       -20.0563
  18   2.0000      -0.660173       -17.9642
  19   2.0000      -0.656338       -17.8599
  20   2.0000      -0.619428       -16.8555
  21   2.0000      -0.599127       -16.3031
  22   2.0000      -0.585726       -15.9384
  23   2.0000      -0.584586       -15.9074
  24   2.0000      -0.577157       -15.7052
  25   2.0000      -0.557560       -15.1720
  26   2.0000      -0.553892       -15.0722
  27   2.0000      -0.466686       -12.6992
  28   2.0000      -0.429269       -11.6810
  29   2.0000      -0.370563       -10.0835
  30   2.0000      -0.358433        -9.7535
  31   2.0000      -0.306086        -8.3290
  32   0.0000       0.134524         3.6606
  33   0.0000       0.137553         3.7430
  34   0.0000       0.140807         3.8315
  35   0.0000       0.165660         4.5079
  36   0.0000       0.177211         4.8222

MULLIKEN ATOMIC CHARGES
-----------------------
   0 C :   -0.466244
   1 C :    0.005822
   2 C :    0.045844
   3 C :   -0.114858
   4 C :   -0.149182
   5 N :    0.122868
   6 C :   -0.315289
   7 N :   -0.249800
   8 C :   -0.119774
   9 H :    0.160943
  10 H :    0.162384
  11 H :    0.161090
  12 H :    0.156260
  13 H :    0.144656
  14 H :    0.164208
  15 H :    0.153410
  16 H :    0.137661
Sum of atomic charges:    0.0000000

LOEWDIN ATOMIC CHARGES
----------------------
   0 C :   -0.296043
   1 C :   -0.087722
   2 C :   -0.053236
   3 C :   -0.195505
   4 C :   -0.179877
   5 N :    0.175865
   6 C :   -0.271661
   7 N :    0.048341
   8 C :   -0.225581
   9 H :    0.140634
  10 H :    0.141693
  11 H :    0.140593
  12 H :    0.142417
  13 H :    0.126673
  14 H :    0.129844
  15 H :    0.125007
  16 H :    0.138559

  Mayer bond orders larger than 0.1
B(  0-C ,  1-C ) :   0.8686 B(  0-C ,  9-H ) :   0.9442 B(  0-C , 10-H ) :   0.9448
B(  0-C , 11-H ) :   0.9443 B(  1-C ,  2-C ) :   2.6135 B(  1-C ,  3-C ) :  -0.1714
B(  2-C ,  3-C ) :   1.1094 B(  3-C ,  4-C ) :   1.3792 B(  3-C ,  8-C ) :   1.2768
B(  4-C ,  5-N ) :   1.2282 B(  4-C ,  7-N ) :   0.1014 B(  4-C , 12-H ) :   0.8941
B(  5-N ,  6-C ) :   0.8665 B(  5-N ,  7-N ) :   1.0143 B(  6-C , 13-H ) :   0.9299
B(  6-C , 14-H ) :   0.9303 B(  6-C , 15-H ) :   0.9271 B(  7-N ,  8-C ) :   1.4954
B(  8-C , 16-H ) :   0.9324

MP2 TOTAL ENERGY:     -380.182515097 Eh
FINAL SINGLE POINT ENERGY      -380.182515097233

DIPOLE MOMENT
-------------
                                X             Y             Z
Electronic contribution:     -2.01805      -2.45789      -0.62033
Nuclear contribution   :      2.92262       2.49495       0.86681
                        -----------------------------------------
Total Dipole Moment    :      0.90457       0.03707       0.24648
                        -----------------------------------------
Magnitude (a.u.)       :      0.93829
Magnitude (Debye)      :      2.38493

                             ****ORCA TERMINATED NORMALLY****
TOTAL RUN TIME: 0 days 0 hours 14 minutes 45 seconds 383 msec
