                         Program Version 3.0.3 - RELEASE   -
|  1> ! RI-MP2 RIJK def2-TZVP def2-TZVP/C def2-TZVP/JK TIGHTSCF
|  2> % maxcore 2000
|  3> % mp2 density relaxed end
|  4> *xyz 0 1
|  5>  O        0.2927451043     1.2212850108    -0.5400360700
|  6>  C        0.0523386775    -0.0497830233    -0.0186334135
|  7>  C        0.1138344798    -0.3081998891     1.5280073191
|  8>  C       -1.2971010309    -0.9234564510     1.4670992523
|  9>  O       -2.3184054731     0.0953361492     1.7362477814
| 10>  C       -2.4383743667     0.3929860218     0.3983284291
| 11>  O       -3.1178078297     1.2349215002    -0.0970765390
| 12>  C       -1.4054435526    -0.6332729089    -0.0509744473
| 13>  H       -0.3899178794     1.8299829700    -0.2346925700
| 14>  H        0.7312202190    -0.7223751087    -0.5478398919
| 15>  H        0.9055501858    -1.0000635208     1.8225246594
| 16>  H        0.1673924389     0.5862047798     2.1521117044
| 17>  H       -1.5349435609    -1.8660896588     1.9538781775
| 18>  H       -1.6885569517    -1.3285583612    -0.8377795017
| 19> *
| 20>
| 21>                          ****END OF INPUT****

CARTESIAN COORDINATES (ANGSTROEM)
---------------------------------
  O      0.292745    1.221285   -0.540036
  C      0.052339   -0.049783   -0.018633
  C      0.113834   -0.308200    1.528007
  C     -1.297101   -0.923456    1.467099
  O     -2.318405    0.095336    1.736248
  C     -2.438374    0.392986    0.398328
  O     -3.117808    1.234922   -0.097077
  C     -1.405444   -0.633273   -0.050974
  H     -0.389918    1.829983   -0.234693
  H      0.731220   -0.722375   -0.547840
  H      0.905550   -1.000064    1.822525
  H      0.167392    0.586205    2.152112
  H     -1.534944   -1.866090    1.953878
  H     -1.688557   -1.328558   -0.837780

 Total Charge           Charge          ....    0
 Multiplicity           Mult            ....    1
 Number of Electrons    NEL             ....   60
 Basis Dimension        Dim             ....  284

ORBITAL ENERGIES
----------------

  NO   OCC          E(Eh)            E(eV)
   0   2.0000     -20.610763      -560.8474
   1   2.0000     -20.578797      -559.9775
   2   2.0000     -20.564445      -559.5870
   3   2.0000     -11.394778      -310.0677
   4   2.0000     -11.322814      -308.1094
   5   2.0000     -11.319126      -308.0091
   6   2.0000     -11.271553      -306.7145
   7   2.0000     -11.252270      -306.1898
   8   2.0000      -1.475494       -40.1502
   9   2.0000      -1.392143       -37.8821
  10   2.0000      -1.388351       -37.7789
  11   2.0000      -1.140589       -31.0370
  12   2.0000      -0.983573       -26.7644
  13   2.0000      -0.914548       -24.8861
  14   2.0000      -0.844381       -22.9768
  15   2.0000      -0.747310       -20.3353
  16   2.0000      -0.738293       -20.0900
  17   2.0000      -0.717073       -19.5126
  18   2.0000      -0.689431       -18.7604
  19   2.0000      -0.645149       -17.5554
  20   2.0000      -0.635867       -17.3028
  21   2.0000      -0.615693       -16.7538
  22   2.0000      -0.584064       -15.8932
  23   2.0000      -0.579728       -15.7752
  24   2.0000      -0.539269       -14.6742
  25   2.0000      -0.525964       -14.3122
  26   2.0000      -0.471189       -12.8217
  27   2.0000      -0.467120       -12.7110
  28   2.0000      -0.448966       -12.2170
  29   2.0000      -0.440268       -11.9803
  30   0.0000       0.123899         3.3715
  31   0.0000       0.143520         3.9054
  32   0.0000       0.156374         4.2552
  33   0.0000       0.162457         4.4207
  34   0.0000       0.181740         4.9454

MULLIKEN ATOMIC CHARGES
-----------------------
   0 O :   -0.438064
   1 C :   -0.000988
   2 C :   -0.217218
   3 C :    0.027352
   4 O :   -0.233285
   5 C :    0.203905
   6 O :   -0.257453
   7 C :   -0.093672
   8 H :    0.329476
   9 H :    0.120589
  10 H :    0.130580
  11 H :    0.134227
  12 H :    0.140555
  13 H :    0.153996
Sum of atomic charges:    0.0000000

LOEWDIN ATOMIC CHARGES
----------------------
   0 O :    0.007986
   1 C :   -0.304297
   2 C :   -0.203164
   3 C :   -0.204209
   4 O :    0.252314
   5 C :   -0.452755
   6 O :    0.156525
   7 C :   -0.146329
   8 H :    0.182992
   9 H :    0.146975
  10 H :    0.138684
  11 H :    0.143131
  12 H :    0.132621
  13 H :    0.149527

  Mayer bond orders larger than 0.1
B(  0-O ,  1-C ) :   1.0229 B(  0-O ,  8-H ) :   0.8293 B(  1-C ,  2-C ) :   0.9132
B(  1-C ,  7-C ) :   0.8601 B(  1-C ,  9-H ) :   0.9266 B(  2-C ,  3-C ) :   0.9431
B(  2-C , 10-H ) :   0.9137 B(  2-C , 11-H ) :   0.8931 B(  3-C ,  4-O ) :   0.8695
B(  3-C ,  7-C ) :   0.9004 B(  3-C , 12-H ) :   0.9237 B(  4-O ,  5-C ) :   1.0870
B(  5-C ,  6-O ) :   2.0395 B(  5-C ,  7-C ) :   0.9167 B(  7-C , 13-H ) :   0.9015

MP2 TOTAL ENERGY:     -419.016479700 Eh
FINAL SINGLE POINT ENERGY      -419.016479700261

DIPOLE MOMENT
-------------
                                X             Y             Z
Electronic contribution:     -4.61056       2.08232      -0.62499
Nuclear contribution   :      5.38001      -3.30420       0.98271
                        -----------------------------------------
Total Dipole Moment    :      0.76945      -1.22188       0.35772
                        -----------------------------------------
Magnitude (a.u.)       :      1.48762
Magnitude (Debye)      :      3.78122

                             ****ORCA TERMINATED NORMALLY****
TOTAL RUN TIME: 0 days 0 hours 11 minutes 34 seconds 413 msec
