                         Program Version 3.0.3 - RELEASE   -
|  1> ! RI-MP2 RIJK def2-TZVP def2-TZVP/C def2-TZVP/JK TIGHTSCF
|  2> % maxcore 2000
|  3> % mp2 density relaxed end
|  4> *xyz 0 1
|  5>  N       -0.3482510151    -1.1808048660    -0.1831725444
|  6>  C       -0.1427733821    -0.0446586749    -0.0964695058
|  7>  C        0.0259708591     1.3769805027     0.0056626789
|  8>  C        0.4801611694     2.0853884487     1.2767312222
|  9>  C        1.2626954105     1.3235569384     2.3551140875
| 10>  C        2.6704463238     1.0704436044     1.7936763657
| 11>  C        2.8551545105     0.0772622385     0.6777408204
| 12>  C        2.6910885914     1.5435827172     0.3507627779
| 13>  C        1.3416436892     2.1577661838     0.0410500948
| 14>  H       -0.7646061227     1.8984589518    -0.5280919366
| 15>  H       -0.1422045316     2.9154660677     1.5926309404
| 16>  H        1.3284449623     1.9537958764     3.2467859692
| 17>  H        0.7592027541     0.3986248682     2.6575506051
| 18>  H        3.5106928601     1.2565348317     2.4534507461
| 19>  H        3.8539757564    -0.3269078686     0.5478220540
| 20>  H        2.0694502375    -0.6280594752     0.4465992165
| 21>  H        3.5457821187     2.0702557458    -0.0575259983
| 22>  H        1.3481052584     3.0413234895    -0.5870539036
| 23> *
| 24>
| 25>                          ****END OF INPUT****

CARTESIAN COORDINATES (ANGSTROEM)
---------------------------------
  N     -0.348251   -1.180805   -0.183173
  C     -0.142773   -0.044659   -0.096470
  C      0.025971    1.376981    0.005663
  C      0.480161    2.085388    1.276731
  C      1.262695    1.323557    2.355114
  C      2.670446    1.070444    1.793676
  C      2.855155    0.077262    0.677741
  C      2.691089    1.543583    0.350763
  C      1.341644    2.157766    0.041050
  H     -0.764606    1.898459   -0.528092
  H     -0.142205    2.915466    1.592631
  H      1.328445    1.953796    3.246786
  H      0.759203    0.398625    2.657551
  H      3.510693    1.256535    2.453451
  H      3.853976   -0.326908    0.547822
  H      2.069450   -0.628059    0.446599
  H      3.545782    2.070256   -0.057526
  H      1.348105    3.041323   -0.587054

 Total Charge           Charge          ....    0
 Multiplicity           Mult            ....    1
 Number of Electrons    NEL             ....   64
 Basis Dimension        Dim             ....  333

ORBITAL ENERGIES
----------------

  NO   OCC          E(Eh)            E(eV)
   0   2.0000     -15.563327      -423.4997
   1   2.0000     -11.282293      -307.0068
   2   2.0000     -11.272010      -306.7270
   3   2.0000     -11.264867      -306.5326
   4   2.0000     -11.259193      -306.3782
   5   2.0000     -11.243890      -305.9618
   6   2.0000     -11.240964      -305.8822
   7   2.0000     -11.237383      -305.7847
   8   2.0000     -11.229195      -305.5619
   9   2.0000      -1.226663       -33.3792
  10   2.0000      -1.200680       -32.6722
  11   2.0000      -1.123407       -30.5695
  12   2.0000      -0.995157       -27.0796
  13   2.0000      -0.928984       -25.2789
  14   2.0000      -0.847401       -23.0590
  15   2.0000      -0.790131       -21.5005
  16   2.0000      -0.771085       -20.9823
  17   2.0000      -0.729460       -19.8496
  18   2.0000      -0.664103       -18.0712
  19   2.0000      -0.648926       -17.6582
  20   2.0000      -0.603858       -16.4318
  21   2.0000      -0.586874       -15.9697
  22   2.0000      -0.571711       -15.5570
  23   2.0000      -0.554334       -15.0842
  24   2.0000      -0.519450       -14.1349
  25   2.0000      -0.510104       -13.8806
  26   2.0000      -0.496460       -13.5094
  27   2.0000      -0.466563       -12.6958
  28   2.0000      -0.456134       -12.4120
  29   2.0000      -0.419043       -11.4027
  30   2.0000      -0.410251       -11.1635
  31   2.0000      -0.381423       -10.3791
  32   0.0000       0.124604         3.3906
  33   0.0000       0.154730         4.2104
  34   0.0000       0.157745         4.2925
  35   0.0000       0.166370         4.5272
  36   0.0000       0.173169         4.7122

MULLIKEN ATOMIC CHARGES
-----------------------
   0 N :   -0.059980
   1 C :   -0.185824
   2 C :   -0.084904
   3 C :   -0.086047
   4 C :   -0.232798
   5 C :   -0.110620
   6 C :   -0.282784
   7 C :   -0.143559
   8 C :   -0.072791
   9 H :    0.154644
  10 H :    0.137974
  11 H :    0.130919
  12 H :    0.141042
  13 H :    0.128361
  14 H :    0.131365
  15 H :    0.169923
  16 H :    0.128306
  17 H :    0.136771
Sum of atomic charges:   -0.0000000

LOEWDIN ATOMIC CHARGES
----------------------
   0 N :    0.056513
   1 C :   -0.187016
   2 C :   -0.174755
   3 C :   -0.147093
   4 C :   -0.200672
   5 C :   -0.187474
   6 C :   -0.193257
   7 C :   -0.175605
   8 C :   -0.135973
   9 H :    0.177093
  10 H :    0.147197
  11 H :    0.147411
  12 H :    0.148105
  13 H :    0.142569
  14 H :    0.137140
  15 H :    0.144329
  16 H :    0.148198
  17 H :    0.153289

  Mayer bond orders larger than 0.1
B(  0-N ,  1-C ) :   2.8338 B(  1-C ,  2-C ) :   0.9937 B(  2-C ,  3-C ) :   0.8454
B(  2-C ,  8-C ) :   0.8473 B(  2-C ,  9-H ) :   0.9094 B(  3-C ,  4-C ) :   0.9665
B(  3-C ,  8-C ) :   0.8501 B(  3-C , 10-H ) :   0.9225 B(  4-C ,  5-C ) :   0.9507
B(  4-C , 11-H ) :   0.9255 B(  4-C , 12-H ) :   0.9154 B(  5-C ,  6-C ) :   0.8871
B(  5-C ,  7-C ) :   0.8637 B(  5-C , 13-H ) :   0.9277 B(  6-C ,  7-C ) :   0.8946
B(  6-C , 14-H ) :   0.9343 B(  6-C , 15-H ) :   0.9092 B(  7-C ,  8-C ) :   0.9389
B(  7-C , 16-H ) :   0.9287 B(  8-C , 17-H ) :   0.9241

MP2 TOTAL ENERGY:     -364.140391186 Eh
FINAL SINGLE POINT ENERGY      -364.140391185859

DIPOLE MOMENT
-------------
                                X             Y             Z
Electronic contribution:     -3.75352      -2.33047      -2.84582
Nuclear contribution   :      4.26100       3.90184       3.19667
                        -----------------------------------------
Total Dipole Moment    :      0.50748       1.57137       0.35086
                        -----------------------------------------
Magnitude (a.u.)       :      1.68815
Magnitude (Debye)      :      4.29094

                             ****ORCA TERMINATED NORMALLY****
TOTAL RUN TIME: 0 days 0 hours 19 minutes 59 seconds 74 msec
