                         Program Version 3.0.3 - RELEASE   -
|  1> ! RI-MP2 RIJK def2-TZVP def2-TZVP/C def2-TZVP/JK TIGHTSCF
|  2> % maxcore 2000
|  3> % mp2 density relaxed end
|  4> *xyz 0 1
|  5>  C       -0.0228833242     1.4775032153     0.0601524629
|  6>  C       -0.0085446695    -0.0095233701    -0.0383864197
|  7>  C       -0.0562626456    -0.7979632008    -1.1142887840
|  8>  C       -0.0020192386    -2.2333967081    -0.7178487150
|  9>  O        0.0460361189    -3.2172840548    -1.4218124012
| 10>  N       -0.0259496394    -2.2235441888     0.6684112608
| 11>  C        0.0556589167    -0.8826263377     1.2188956984
| 12>  C        1.2624254871    -0.6456907975     2.0142653842
| 13>  C        2.2450039047    -0.4505161118     2.6777523325
| 14>  H        0.8598078290     1.8380217491     0.6005357964
| 15>  H       -0.0409326447     1.9394054919    -0.9292392647
| 16>  H       -0.9001888290     1.8268900929     0.6186170038
| 17>  H       -0.1130168698    -0.4922643811    -2.1497289843
| 18>  H        0.2398250535    -3.0387846938     1.1961621614
| 19>  H       -0.8221068106    -0.6665820374     1.8490841768
| 20>  H        3.1178448215    -0.2842514972     3.2601576518
| 21> *
| 22>
| 23>                          ****END OF INPUT****

CARTESIAN COORDINATES (ANGSTROEM)
---------------------------------
  C     -0.022883    1.477503    0.060152
  C     -0.008545   -0.009523   -0.038386
  C     -0.056263   -0.797963   -1.114289
  C     -0.002019   -2.233397   -0.717849
  O      0.046036   -3.217284   -1.421812
  N     -0.025950   -2.223544    0.668411
  C      0.055659   -0.882626    1.218896
  C      1.262425   -0.645691    2.014265
  C      2.245004   -0.450516    2.677752
  H      0.859808    1.838022    0.600536
  H     -0.040933    1.939405   -0.929239
  H     -0.900189    1.826890    0.618617
  H     -0.113017   -0.492264   -2.149729
  H      0.239825   -3.038785    1.196162
  H     -0.822107   -0.666582    1.849084
  H      3.117845   -0.284251    3.260158

 Total Charge           Charge          ....    0
 Multiplicity           Mult            ....    1
 Number of Electrons    NEL             ....   64
 Basis Dimension        Dim             ....  321

ORBITAL ENERGIES
----------------

  NO   OCC          E(Eh)            E(eV)
   0   2.0000     -20.518546      -558.3380
   1   2.0000     -15.584534      -424.0767
   2   2.0000     -11.350556      -308.8643
   3   2.0000     -11.320596      -308.0491
   4   2.0000     -11.280948      -306.9702
   5   2.0000     -11.254419      -306.2483
   6   2.0000     -11.249055      -306.1024
   7   2.0000     -11.246371      -306.0293
   8   2.0000     -11.243410      -305.9487
   9   2.0000      -1.382000       -37.6061
  10   2.0000      -1.267329       -34.4858
  11   2.0000      -1.105361       -30.0784
  12   2.0000      -1.064620       -28.9698
  13   2.0000      -0.991235       -26.9729
  14   2.0000      -0.962372       -26.1875
  15   2.0000      -0.804576       -21.8936
  16   2.0000      -0.784453       -21.3461
  17   2.0000      -0.746023       -20.3003
  18   2.0000      -0.701598       -19.0915
  19   2.0000      -0.683007       -18.5856
  20   2.0000      -0.642183       -17.4747
  21   2.0000      -0.616732       -16.7821
  22   2.0000      -0.600663       -16.3449
  23   2.0000      -0.588476       -16.0133
  24   2.0000      -0.571249       -15.5445
  25   2.0000      -0.558425       -15.1955
  26   2.0000      -0.534693       -14.5497
  27   2.0000      -0.437027       -11.8921
  28   2.0000      -0.417053       -11.3486
  29   2.0000      -0.410579       -11.1724
  30   2.0000      -0.397264       -10.8101
  31   2.0000      -0.384058       -10.4507
  32   0.0000       0.103559         2.8180
  33   0.0000       0.124989         3.4011
  34   0.0000       0.148373         4.0374
  35   0.0000       0.155600         4.2341
  36   0.0000       0.157953         4.2981

MULLIKEN ATOMIC CHARGES
-----------------------
   0 C :   -0.431613
   1 C :    0.042395
   2 C :   -0.199650
   3 C :    0.248397
   4 O :   -0.336023
   5 N :   -0.319019
   6 C :    0.011341
   7 C :   -0.066308
   8 C :   -0.152197
   9 H :    0.163696
  10 H :    0.149420
  11 H :    0.149599
  12 H :    0.147999
  13 H :    0.248051
  14 H :    0.145479
  15 H :    0.198432
Sum of atomic charges:    0.0000000

LOEWDIN ATOMIC CHARGES
----------------------
   0 C :   -0.260242
   1 C :   -0.132338
   2 C :   -0.086972
   3 C :   -0.430386
   4 O :    0.093263
   5 N :    0.144189
   6 C :   -0.223238
   7 C :   -0.082741
   8 C :   -0.079542
   9 H :    0.141521
  10 H :    0.136292
  11 H :    0.137960
  12 H :    0.150283
  13 H :    0.187555
  14 H :    0.174000
  15 H :    0.130396

  Mayer bond orders larger than 0.1
B(  0-C ,  1-C ) :   0.8883 B(  0-C ,  9-H ) :   0.9245 B(  0-C , 10-H ) :   0.9445
B(  0-C , 11-H ) :   0.9288 B(  1-C ,  2-C ) :   1.6785 B(  1-C ,  6-C ) :   0.9393
B(  2-C ,  3-C ) :   0.9791 B(  2-C , 12-H ) :   0.9262 B(  3-C ,  4-O ) :   1.9827
B(  3-C ,  5-N ) :   1.1261 B(  5-N ,  6-C ) :   0.8968 B(  5-N , 13-H ) :   0.8634
B(  6-C ,  7-C ) :   1.0523 B(  6-C , 14-H ) :   0.9428 B(  7-C ,  8-C ) :   2.6235
B(  8-C , 15-H ) :   0.8961

MP2 TOTAL ENERGY:     -400.058380138 Eh
FINAL SINGLE POINT ENERGY      -400.058380137504

DIPOLE MOMENT
-------------
                                X             Y             Z
Electronic contribution:      0.31840      -6.37828      -0.87928
Nuclear contribution   :     -0.22026       7.73810       1.95930
                        -----------------------------------------
Total Dipole Moment    :      0.09814       1.35982       1.08002
                        -----------------------------------------
Magnitude (a.u.)       :      1.73930
Magnitude (Debye)      :      4.42096

                             ****ORCA TERMINATED NORMALLY****
TOTAL RUN TIME: 0 days 0 hours 16 minutes 28 seconds 108 msec
