                         Program Version 3.0.3 - RELEASE   -
|  1> ! RI-MP2 RIJK def2-TZVP def2-TZVP/C def2-TZVP/JK TIGHTSCF
|  2> % maxcore 2000
|  3> % mp2 density relaxed end
|  4> *xyz 0 1
|  5>  C       -0.0107487416     1.5479890624    -0.0427307292
|  6>  C       -0.0290981786     0.0187149568     0.0165372745
|  7>  N       -1.3764286773    -0.5431760584     0.0078724613
|  8>  C       -2.0573332698    -0.9085061878     1.1274212488
|  9>  C       -3.3311567973    -1.3239917862     0.7720629200
| 10>  C       -3.4263260666    -1.2011500980    -0.6231499207
| 11>  C       -2.2104964095    -0.7120500186    -1.0922282446
| 12>  C       -1.8262264610    -0.4321305280    -2.4609471021
| 13>  O       -2.5582007030    -0.5778865370    -3.4202646425
| 14>  H        1.0206656404     1.9116160070    -0.0059808099
| 15>  H       -0.4697118721     1.9133475503    -0.9652056088
| 16>  H       -0.5582311222     1.9749327462     0.8022859276
| 17>  H        0.5354935867    -0.4066506763    -0.8176777118
| 18>  H        0.4540856280    -0.3304594330     0.9334975806
| 19>  H       -1.5845114303    -0.8498298224     2.0962652239
| 20>  H       -4.0887630087    -1.6817832826     1.4517787750
| 21>  H       -4.2653435224    -1.4417482391    -1.2569765217
| 22>  H       -0.7849356947    -0.0638873352    -2.6014851305
| 23> *
| 24>
| 25>                          ****END OF INPUT****

CARTESIAN COORDINATES (ANGSTROEM)
---------------------------------
  C     -0.010749    1.547989   -0.042731
  C     -0.029098    0.018715    0.016537
  N     -1.376429   -0.543176    0.007872
  C     -2.057333   -0.908506    1.127421
  C     -3.331157   -1.323992    0.772063
  C     -3.426326   -1.201150   -0.623150
  C     -2.210496   -0.712050   -1.092228
  C     -1.826226   -0.432131   -2.460947
  O     -2.558201   -0.577887   -3.420265
  H      1.020666    1.911616   -0.005981
  H     -0.469712    1.913348   -0.965206
  H     -0.558231    1.974933    0.802286
  H      0.535494   -0.406651   -0.817678
  H      0.454086   -0.330459    0.933498
  H     -1.584511   -0.849830    2.096265
  H     -4.088763   -1.681783    1.451779
  H     -4.265344   -1.441748   -1.256977
  H     -0.784936   -0.063887   -2.601485

 Total Charge           Charge          ....    0
 Multiplicity           Mult            ....    1
 Number of Electrons    NEL             ....   66
 Basis Dimension        Dim             ....  333

ORBITAL ENERGIES
----------------

  NO   OCC          E(Eh)            E(eV)
   0   2.0000     -20.538077      -558.8695
   1   2.0000     -15.627397      -425.2431
   2   2.0000     -11.328484      -308.2637
   3   2.0000     -11.293789      -307.3196
   4   2.0000     -11.275809      -306.8304
   5   2.0000     -11.257640      -306.3360
   6   2.0000     -11.240227      -305.8621
   7   2.0000     -11.233156      -305.6697
   8   2.0000     -11.223218      -305.3993
   9   2.0000      -1.376229       -37.4491
  10   2.0000      -1.319971       -35.9182
  11   2.0000      -1.106606       -30.1123
  12   2.0000      -1.020098       -27.7583
  13   2.0000      -1.011864       -27.5342
  14   2.0000      -0.887923       -24.1616
  15   2.0000      -0.866205       -23.5706
  16   2.0000      -0.795773       -21.6541
  17   2.0000      -0.741825       -20.1861
  18   2.0000      -0.716219       -19.4893
  19   2.0000      -0.662492       -18.0273
  20   2.0000      -0.638164       -17.3653
  21   2.0000      -0.628759       -17.1094
  22   2.0000      -0.608266       -16.5517
  23   2.0000      -0.596380       -16.2283
  24   2.0000      -0.561261       -15.2727
  25   2.0000      -0.554807       -15.0971
  26   2.0000      -0.544789       -14.8245
  27   2.0000      -0.539806       -14.6889
  28   2.0000      -0.518840       -14.1184
  29   2.0000      -0.508022       -13.8240
  30   2.0000      -0.422214       -11.4890
  31   2.0000      -0.354674        -9.6512
  32   2.0000      -0.311885        -8.4868
  33   0.0000       0.082498         2.2449
  34   0.0000       0.124882         3.3982
  35   0.0000       0.154225         4.1967
  36   0.0000       0.165845         4.5129
  37   0.0000       0.173585         4.7235

MULLIKEN ATOMIC CHARGES
-----------------------
   0 C :   -0.368889
   1 C :   -0.210320
   2 N :    0.026093
   3 C :   -0.126041
   4 C :   -0.148679
   5 C :   -0.219065
   6 C :    0.079959
   7 C :    0.047580
   8 O :   -0.292175
   9 H :    0.138070
  10 H :    0.142703
  11 H :    0.139384
  12 H :    0.147781
  13 H :    0.142324
  14 H :    0.148304
  15 H :    0.138698
  16 H :    0.147425
  17 H :    0.066850
Sum of atomic charges:   -0.0000000

LOEWDIN ATOMIC CHARGES
----------------------
   0 C :   -0.307054
   1 C :   -0.264197
   2 N :    0.283700
   3 C :   -0.202807
   4 C :   -0.179182
   5 C :   -0.128093
   6 C :   -0.219194
   7 C :   -0.299482
   8 O :    0.112678
   9 H :    0.127897
  10 H :    0.125953
  11 H :    0.126977
  12 H :    0.138980
  13 H :    0.142430
  14 H :    0.137212
  15 H :    0.141806
  16 H :    0.149316
  17 H :    0.113061

  Mayer bond orders larger than 0.1
B(  0-C ,  1-C ) :   0.9221 B(  0-C ,  9-H ) :   0.9317 B(  0-C , 10-H ) :   0.9318
B(  0-C , 11-H ) :   0.9318 B(  1-C ,  2-N ) :   0.8395 B(  1-C , 12-H ) :   0.9333
B(  1-C , 13-H ) :   0.9306 B(  2-N ,  3-C ) :   1.1820 B(  2-N ,  6-C ) :   1.1106
B(  3-C ,  4-C ) :   1.3799 B(  3-C , 14-H ) :   0.9128 B(  4-C ,  5-C ) :   1.3362
B(  4-C , 15-H ) :   0.9326 B(  5-C ,  6-C ) :   1.3343 B(  5-C , 16-H ) :   0.9393
B(  6-C ,  7-C ) :   0.8696 B(  6-C ,  8-O ) :  -0.1377 B(  6-C , 17-H ) :  -0.1203
B(  7-C ,  8-O ) :   1.9975 B(  7-C , 17-H ) :   0.9907

MP2 TOTAL ENERGY:     -401.300816208 Eh
FINAL SINGLE POINT ENERGY      -401.300816207734

DIPOLE MOMENT
-------------
                                X             Y             Z
Electronic contribution:     -5.07601      -4.15218      -3.87713
Nuclear contribution   :      6.26959       4.52341       5.28782
                        -----------------------------------------
Total Dipole Moment    :      1.19358       0.37123       1.41069
                        -----------------------------------------
Magnitude (a.u.)       :      1.88480
Magnitude (Debye)      :      4.79078

                             ****ORCA TERMINATED NORMALLY****
TOTAL RUN TIME: 0 days 0 hours 17 minutes 51 seconds 841 msec
