                         Program Version 3.0.3 - RELEASE   -
|  1> ! RI-MP2 RIJK def2-TZVP def2-TZVP/C def2-TZVP/JK TIGHTSCF
|  2> % maxcore 2000
|  3> % mp2 density relaxed end
|  4> *xyz 0 1
|  5>  N       -0.0716214770     1.0297695380     0.6136303414
|  6>  C       -0.0068907090    -0.0623589213    -0.0040851545
|  7>  O        1.1367373019    -0.7118600776    -0.3949930169
|  8>  C        0.7909109589    -1.9339162399    -1.0438132964
|  9>  C        0.8234452152    -3.2261045016    -0.2213187371
| 10>  C        0.0549180478    -3.0681165547     1.0566802487
| 11>  C       -0.7268161637    -3.2505012987    -0.2085763327
| 12>  C       -0.7475908684    -1.9554361588    -1.0286669862
| 13>  O       -1.1215915851    -0.7490360453    -0.3712472545
| 14>  H        0.8646960375     1.3847958758     0.7914728762
| 15>  H        1.2916195144    -1.9849815961    -2.0109969589
| 16>  H        1.5154078970    -4.0415738276    -0.3864435380
| 17>  H        0.0742527697    -3.9401194543     1.7016318719
| 18>  H        0.0406357727    -2.1263774080     1.5952017679
| 19>  H       -1.3953804267    -4.0868392349    -0.3648529289
| 20>  H       -1.2656586155    -2.0201799352    -1.9857775921
| 21> *
| 22>
| 23>                          ****END OF INPUT****

CARTESIAN COORDINATES (ANGSTROEM)
---------------------------------
  N     -0.071621    1.029770    0.613630
  C     -0.006891   -0.062359   -0.004085
  O      1.136737   -0.711860   -0.394993
  C      0.790911   -1.933916   -1.043813
  C      0.823445   -3.226105   -0.221319
  C      0.054918   -3.068117    1.056680
  C     -0.726816   -3.250501   -0.208576
  C     -0.747591   -1.955436   -1.028667
  O     -1.121592   -0.749036   -0.371247
  H      0.864696    1.384796    0.791473
  H      1.291620   -1.984982   -2.010997
  H      1.515408   -4.041574   -0.386444
  H      0.074253   -3.940119    1.701632
  H      0.040636   -2.126377    1.595202
  H     -1.395380   -4.086839   -0.364853
  H     -1.265659   -2.020180   -1.985778

 Total Charge           Charge          ....    0
 Multiplicity           Mult            ....    1
 Number of Electrons    NEL             ....   66
 Basis Dimension        Dim             ....  321

ORBITAL ENERGIES
----------------

  NO   OCC          E(Eh)            E(eV)
   0   2.0000     -20.609626      -560.8164
   1   2.0000     -20.604909      -560.6881
   2   2.0000     -15.523134      -422.4059
   3   2.0000     -11.390786      -309.9590
   4   2.0000     -11.316422      -307.9355
   5   2.0000     -11.314915      -307.8945
   6   2.0000     -11.261776      -306.4485
   7   2.0000     -11.260970      -306.4266
   8   2.0000     -11.252893      -306.2068
   9   2.0000      -1.494497       -40.6673
  10   2.0000      -1.382294       -37.6141
  11   2.0000      -1.226497       -33.3747
  12   2.0000      -1.182477       -32.1768
  13   2.0000      -1.009763       -27.4770
  14   2.0000      -0.926812       -25.2198
  15   2.0000      -0.846569       -23.0363
  16   2.0000      -0.806243       -21.9390
  17   2.0000      -0.797011       -21.6878
  18   2.0000      -0.749033       -20.3822
  19   2.0000      -0.707983       -19.2652
  20   2.0000      -0.670347       -18.2411
  21   2.0000      -0.663947       -18.0669
  22   2.0000      -0.630820       -17.1655
  23   2.0000      -0.595594       -16.2069
  24   2.0000      -0.590302       -16.0629
  25   2.0000      -0.570503       -15.5242
  26   2.0000      -0.557278       -15.1643
  27   2.0000      -0.496264       -13.5040
  28   2.0000      -0.476223       -12.9587
  29   2.0000      -0.447140       -12.1673
  30   2.0000      -0.439249       -11.9526
  31   2.0000      -0.415324       -11.3015
  32   2.0000      -0.388319       -10.5667
  33   0.0000       0.134130         3.6498
  34   0.0000       0.156137         4.2487
  35   0.0000       0.158149         4.3034
  36   0.0000       0.164435         4.4745
  37   0.0000       0.190590         5.1862

MULLIKEN ATOMIC CHARGES
-----------------------
   0 N :   -0.381901
   1 C :    0.259732
   2 O :   -0.282188
   3 C :    0.074465
   4 C :   -0.155411
   5 C :   -0.266897
   6 C :   -0.152904
   7 C :    0.070543
   8 O :   -0.249980
   9 H :    0.233439
  10 H :    0.126342
  11 H :    0.144587
  12 H :    0.142342
  13 H :    0.164943
  14 H :    0.145689
  15 H :    0.127199
Sum of atomic charges:   -0.0000000

LOEWDIN ATOMIC CHARGES
----------------------
   0 N :   -0.078107
   1 C :   -0.533035
   2 O :    0.250183
   3 C :   -0.229713
   4 C :   -0.153247
   5 C :   -0.188673
   6 C :   -0.151304
   7 C :   -0.228258
   8 O :    0.279750
   9 H :    0.174346
  10 H :    0.144555
  11 H :    0.138544
  12 H :    0.147103
  13 H :    0.143783
  14 H :    0.138855
  15 H :    0.145218

  Mayer bond orders larger than 0.1
B(  0-N ,  1-C ) :   2.0195 B(  0-N ,  9-H ) :   0.8469 B(  1-C ,  2-O ) :   1.0712
B(  1-C ,  8-O ) :   1.0817 B(  2-O ,  3-C ) :   0.9098 B(  3-C ,  4-C ) :   0.9146
B(  3-C ,  7-C ) :   0.9799 B(  3-C , 10-H ) :   0.9470 B(  4-C ,  5-C ) :   0.8752
B(  4-C ,  6-C ) :   0.8228 B(  4-C , 11-H ) :   0.9191 B(  5-C ,  6-C ) :   0.8761
B(  5-C , 12-H ) :   0.9280 B(  5-C , 13-H ) :   0.9192 B(  6-C ,  7-C ) :   0.9108
B(  6-C , 14-H ) :   0.9193 B(  7-C ,  8-O ) :   0.9148 B(  7-C , 15-H ) :   0.9473

MP2 TOTAL ENERGY:     -437.148731328 Eh
FINAL SINGLE POINT ENERGY      -437.148731328487

DIPOLE MOMENT
-------------
                                X             Y             Z
Electronic contribution:     -0.33814       4.23227      -1.16126
Nuclear contribution   :      0.91697      -5.87159       0.52030
                        -----------------------------------------
Total Dipole Moment    :      0.57882      -1.63932      -0.64096
                        -----------------------------------------
Magnitude (a.u.)       :      1.85290
Magnitude (Debye)      :      4.70970

                             ****ORCA TERMINATED NORMALLY****
TOTAL RUN TIME: 0 days 0 hours 15 minutes 50 seconds 295 msec
