                         Program Version 3.0.3 - RELEASE   -
|  1> ! RI-MP2 RIJK def2-TZVP def2-TZVP/C def2-TZVP/JK TIGHTSCF
|  2> % maxcore 2000
|  3> % mp2 density relaxed end
|  4> *xyz 0 1
|  5>  O       -0.1501008599     1.4959167508     0.0888979900
|  6>  C       -0.0244287376     0.0814252802     0.0339828650
|  7>  C        0.5366811364    -0.5143035691     1.3392996434
|  8>  O       -0.5918887493    -0.7772834450     2.1841242776
|  9>  C       -1.7323197620    -0.8658473776     1.4334305101
| 10>  N       -2.8672232640    -1.1984477908     1.8766949907
| 11>  C       -1.4144148134    -0.5176993056     0.0199091314
| 12>  C       -2.5003855431    -0.0612236649    -0.9158506675
| 13>  C       -1.9154267373    -1.4277213884    -1.0898417792
| 14>  H        0.7338151274     1.8762313926     0.1264023426
| 15>  H        0.5793595569    -0.2229890655    -0.8312663970
| 16>  H        1.0729108613    -1.4531986885     1.1506786145
| 17>  H        1.2003209583     0.1780848333     1.8643577007
| 18>  H       -2.8218957470    -1.4155407511     2.8723960769
| 19>  H       -3.4898962612     0.0138617004    -0.4802874846
| 20>  H       -2.2350395293     0.7153935901    -1.6233529523
| 21>  H       -1.2490363878    -1.6071924968    -1.9272526656
| 22>  H       -2.5080841785    -2.2788819540    -0.7751308368
| 23> *
| 24>
| 25>                          ****END OF INPUT****

CARTESIAN COORDINATES (ANGSTROEM)
---------------------------------
  O     -0.150101    1.495917    0.088898
  C     -0.024429    0.081425    0.033983
  C      0.536681   -0.514304    1.339300
  O     -0.591889   -0.777283    2.184124
  C     -1.732320   -0.865847    1.433431
  N     -2.867223   -1.198448    1.876695
  C     -1.414415   -0.517699    0.019909
  C     -2.500386   -0.061224   -0.915851
  C     -1.915427   -1.427721   -1.089842
  H      0.733815    1.876231    0.126402
  H      0.579360   -0.222989   -0.831266
  H      1.072911   -1.453199    1.150679
  H      1.200321    0.178085    1.864358
  H     -2.821896   -1.415541    2.872396
  H     -3.489896    0.013862   -0.480287
  H     -2.235040    0.715394   -1.623353
  H     -1.249036   -1.607192   -1.927253
  H     -2.508084   -2.278882   -0.775131

 Total Charge           Charge          ....    0
 Multiplicity           Mult            ....    1
 Number of Electrons    NEL             ....   68
 Basis Dimension        Dim             ....  333

ORBITAL ENERGIES
----------------

  NO   OCC          E(Eh)            E(eV)
   0   2.0000     -20.592505      -560.3506
   1   2.0000     -20.571580      -559.7812
   2   2.0000     -15.521924      -422.3730
   3   2.0000     -11.332017      -308.3599
   4   2.0000     -11.304160      -307.6018
   5   2.0000     -11.298980      -307.4609
   6   2.0000     -11.249163      -306.1053
   7   2.0000     -11.241150      -305.8872
   8   2.0000     -11.233355      -305.6751
   9   2.0000      -1.431132       -38.9431
  10   2.0000      -1.376412       -37.4541
  11   2.0000      -1.196100       -32.5475
  12   2.0000      -1.152657       -31.3654
  13   2.0000      -1.021037       -27.7838
  14   2.0000      -0.933786       -25.4096
  15   2.0000      -0.834340       -22.7035
  16   2.0000      -0.833776       -22.6882
  17   2.0000      -0.747386       -20.3374
  18   2.0000      -0.714197       -19.4343
  19   2.0000      -0.695752       -18.9324
  20   2.0000      -0.671577       -18.2745
  21   2.0000      -0.663509       -18.0550
  22   2.0000      -0.647019       -17.6063
  23   2.0000      -0.597856       -16.2685
  24   2.0000      -0.578940       -15.7537
  25   2.0000      -0.565132       -15.3780
  26   2.0000      -0.533984       -14.5304
  27   2.0000      -0.518621       -14.1124
  28   2.0000      -0.498980       -13.5779
  29   2.0000      -0.462213       -12.5774
  30   2.0000      -0.440778       -11.9942
  31   2.0000      -0.434633       -11.8270
  32   2.0000      -0.428676       -11.6649
  33   2.0000      -0.379733       -10.3331
  34   0.0000       0.122510         3.3337
  35   0.0000       0.152254         4.1431
  36   0.0000       0.160905         4.3784
  37   0.0000       0.175476         4.7750
  38   0.0000       0.177434         4.8282

MULLIKEN ATOMIC CHARGES
-----------------------
   0 O :   -0.447465
   1 C :   -0.016768
   2 C :   -0.010315
   3 O :   -0.255173
   4 C :    0.099082
   5 N :   -0.407534
   6 C :    0.169111
   7 C :   -0.257437
   8 C :   -0.301053
   9 H :    0.313603
  10 H :    0.101584
  11 H :    0.101614
  12 H :    0.106718
  13 H :    0.222221
  14 H :    0.156872
  15 H :    0.142436
  16 H :    0.133052
  17 H :    0.149453
Sum of atomic charges:    0.0000000

LOEWDIN ATOMIC CHARGES
----------------------
   0 O :   -0.006031
   1 C :   -0.304231
   2 C :   -0.251413
   3 O :    0.237760
   4 C :   -0.366758
   5 N :   -0.059830
   6 C :   -0.196352
   7 C :   -0.175056
   8 C :   -0.180261
   9 H :    0.173740
  10 H :    0.138471
  11 H :    0.128023
  12 H :    0.128177
  13 H :    0.168314
  14 H :    0.147680
  15 H :    0.140831
  16 H :    0.133764
  17 H :    0.143172

  Mayer bond orders larger than 0.1
B(  0-O ,  1-C ) :   1.0684 B(  0-O ,  6-C ) :  -0.1340 B(  0-O ,  9-H ) :   0.8436
B(  1-C ,  2-C ) :   0.9537 B(  1-C ,  6-C ) :   0.8868 B(  1-C , 10-H ) :   0.9305
B(  2-C ,  3-O ) :   0.8995 B(  2-C , 11-H ) :   0.9105 B(  2-C , 12-H ) :   0.9200
B(  3-O ,  4-C ) :   1.0889 B(  4-C ,  5-N ) :   2.0274 B(  4-C ,  6-C ) :   0.9147
B(  5-N , 13-H ) :   0.8574 B(  6-C ,  7-C ) :   0.8135 B(  6-C ,  8-C ) :   0.8335
B(  7-C ,  8-C ) :   0.9742 B(  7-C , 14-H ) :   0.9176 B(  7-C , 15-H ) :   0.9231
B(  8-C , 16-H ) :   0.9213 B(  8-C , 17-H ) :   0.9138

MP2 TOTAL ENERGY:     -438.370707000 Eh
FINAL SINGLE POINT ENERGY      -438.370706999572

DIPOLE MOMENT
-------------
                                X             Y             Z
Electronic contribution:      0.00667       0.65238       3.89388
Nuclear contribution   :      1.49752      -0.64875      -4.46371
                        -----------------------------------------
Total Dipole Moment    :      1.50419       0.00363      -0.56984
                        -----------------------------------------
Magnitude (a.u.)       :      1.60851
Magnitude (Debye)      :      4.08852

                             ****ORCA TERMINATED NORMALLY****
TOTAL RUN TIME: 0 days 0 hours 17 minutes 40 seconds 806 msec
