                         Program Version 3.0.3 - RELEASE   -
|  1> ! RI-MP2 RIJK def2-TZVP def2-TZVP/C def2-TZVP/JK TIGHTSCF
|  2> % maxcore 2000
|  3> % mp2 density relaxed end
|  4> *xyz 0 1
|  5>  O        0.1672516605    -0.0622280001    -0.0400828144
|  6>  C        0.0263023208     1.1268009267     0.0830718001
|  7>  C       -1.3370814551     1.7777099357     0.3829061555
|  8>  C       -1.3153160210     3.2516849644     0.8760570827
|  9>  C       -0.0662357712     3.5558551757     1.6849156862
| 10>  C        1.0627702020     3.0564171667     1.2099348081
| 11>  C        2.4967251561     2.7065744090     1.5187362569
| 12>  O        2.4806903371     1.7143667126     0.4503557554
| 13>  C        1.1668093364     2.1360929546     0.0299244079
| 14>  H       -1.9554565119     1.6792842110    -0.5169870630
| 15>  H       -1.8021768991     1.1348951622     1.1368313845
| 16>  H       -1.3772257314     3.9358252229     0.0191371476
| 17>  H       -2.2144921071     3.4395828692     1.4695118431
| 18>  H       -0.1335113315     4.1260096311     2.6057601937
| 19>  H        3.2379590359     3.4923510209     1.3214023185
| 20>  H        2.6960287256     2.2604957010     2.5002010718
| 21>  H        1.1851685439     2.6138734965    -0.9640210345
| 22> *
| 23>
| 24>                          ****END OF INPUT****

CARTESIAN COORDINATES (ANGSTROEM)
---------------------------------
  O      0.167252   -0.062228   -0.040083
  C      0.026302    1.126801    0.083072
  C     -1.337081    1.777710    0.382906
  C     -1.315316    3.251685    0.876057
  C     -0.066236    3.555855    1.684916
  C      1.062770    3.056417    1.209935
  C      2.496725    2.706574    1.518736
  O      2.480690    1.714367    0.450356
  C      1.166809    2.136093    0.029924
  H     -1.955457    1.679284   -0.516987
  H     -1.802177    1.134895    1.136831
  H     -1.377226    3.935825    0.019137
  H     -2.214492    3.439583    1.469512
  H     -0.133511    4.126010    2.605760
  H      3.237959    3.492351    1.321402
  H      2.696029    2.260496    2.500201
  H      1.185169    2.613873   -0.964021

 Total Charge           Charge          ....    0
 Multiplicity           Mult            ....    1
 Number of Electrons    NEL             ....   66
 Basis Dimension        Dim             ....  327

ORBITAL ENERGIES
----------------

  NO   OCC          E(Eh)            E(eV)
   0   2.0000     -20.565537      -559.6167
   1   2.0000     -20.547481      -559.1254
   2   2.0000     -11.334535      -308.4284
   3   2.0000     -11.299988      -307.4883
   4   2.0000     -11.299357      -307.4711
   5   2.0000     -11.253743      -306.2299
   6   2.0000     -11.253380      -306.2200
   7   2.0000     -11.249994      -306.1279
   8   2.0000     -11.248816      -306.0958
   9   2.0000      -1.403509       -38.1914
  10   2.0000      -1.382858       -37.6295
  11   2.0000      -1.130957       -30.7749
  12   2.0000      -1.028358       -27.9830
  13   2.0000      -0.990428       -26.9509
  14   2.0000      -0.947242       -25.7758
  15   2.0000      -0.853006       -23.2115
  16   2.0000      -0.789048       -21.4711
  17   2.0000      -0.719153       -19.5692
  18   2.0000      -0.691259       -18.8101
  19   2.0000      -0.674778       -18.3616
  20   2.0000      -0.653908       -17.7937
  21   2.0000      -0.632603       -17.2140
  22   2.0000      -0.604920       -16.4607
  23   2.0000      -0.591775       -16.1030
  24   2.0000      -0.575370       -15.6566
  25   2.0000      -0.548524       -14.9261
  26   2.0000      -0.535900       -14.5826
  27   2.0000      -0.507917       -13.8211
  28   2.0000      -0.497809       -13.5461
  29   2.0000      -0.470558       -12.8045
  30   2.0000      -0.454389       -12.3646
  31   2.0000      -0.410460       -11.1692
  32   2.0000      -0.361241        -9.8299
  33   0.0000       0.115195         3.1346
  34   0.0000       0.124020         3.3747
  35   0.0000       0.143506         3.9050
  36   0.0000       0.157949         4.2980
  37   0.0000       0.164422         4.4742

MULLIKEN ATOMIC CHARGES
-----------------------
   0 O :   -0.256788
   1 C :    0.108956
   2 C :   -0.262480
   3 C :   -0.182199
   4 C :   -0.166232
   5 C :   -0.129727
   6 C :   -0.007055
   7 O :   -0.319595
   8 C :    0.170345
   9 H :    0.147836
  10 H :    0.146825
  11 H :    0.128467
  12 H :    0.137935
  13 H :    0.138873
  14 H :    0.111288
  15 H :    0.120469
  16 H :    0.113080
Sum of atomic charges:    0.0000000

LOEWDIN ATOMIC CHARGES
----------------------
   0 O :    0.169782
   1 C :   -0.299093
   2 C :   -0.218070
   3 C :   -0.238919
   4 C :   -0.139137
   5 C :   -0.148609
   6 C :   -0.215733
   7 O :    0.151818
   8 C :   -0.217521
   9 H :    0.153546
  10 H :    0.157509
  11 H :    0.146108
  12 H :    0.143793
  13 H :    0.143288
  14 H :    0.127568
  15 H :    0.128692
  16 H :    0.154977

  Mayer bond orders larger than 0.1
B(  0-O ,  1-C ) :   2.0443 B(  1-C ,  2-C ) :   0.8869 B(  1-C ,  8-C ) :   0.8593
B(  2-C ,  3-C ) :   0.9156 B(  2-C ,  9-H ) :   0.9124 B(  2-C , 10-H ) :   0.9132
B(  3-C ,  4-C ) :   0.9238 B(  3-C , 11-H ) :   0.9195 B(  3-C , 12-H ) :   0.9314
B(  4-C ,  5-C ) :   1.6948 B(  4-C , 13-H ) :   0.9147 B(  5-C ,  6-C ) :   1.0087
B(  5-C ,  8-C ) :   0.9793 B(  6-C ,  7-O ) :   0.9458 B(  6-C , 14-H ) :   0.8947
B(  6-C , 15-H ) :   0.9136 B(  7-O ,  8-C ) :   0.9719 B(  8-C , 16-H ) :   0.8872

MP2 TOTAL ENERGY:     -421.099398688 Eh
FINAL SINGLE POINT ENERGY      -421.099398687510

DIPOLE MOMENT
-------------
                                X             Y             Z
Electronic contribution:      3.64453      -3.96538      -1.58782
Nuclear contribution   :     -4.33410       5.47297       2.03018
                        -----------------------------------------
Total Dipole Moment    :     -0.68957       1.50759       0.44236
                        -----------------------------------------
Magnitude (a.u.)       :      1.71581
Magnitude (Debye)      :      4.36125

                             ****ORCA TERMINATED NORMALLY****
TOTAL RUN TIME: 0 days 0 hours 17 minutes 45 seconds 442 msec
