                         Program Version 3.0.3 - RELEASE   -
|  1> ! RI-MP2 RIJK def2-TZVP def2-TZVP/C def2-TZVP/JK TIGHTSCF
|  2> % maxcore 2000
|  3> % mp2 density relaxed end
|  4> *xyz 0 1
|  5>  N        0.0530271513     1.3430308113     0.0660821643
|  6>  C       -0.0557153569     0.0005159051     0.0226340805
|  7>  C       -1.2406014148    -0.7121588274     0.0146318557
|  8>  C       -1.1099072422    -2.1040017660    -0.0094601882
|  9>  N        0.0193582540    -2.7825018840    -0.0243123827
| 10>  C        1.1927475363    -2.1108862566    -0.0163316510
| 11>  O        2.3116215512    -2.5179384681    -0.0256718613
| 12>  O        1.1059729568    -0.6217566867     0.0049636685
| 13>  H        0.9642931097     1.7577529941    -0.0337416491
| 14>  H       -0.7604499558     1.9237414944    -0.0330377977
| 15>  H       -2.2014812102    -0.2189560515     0.0289644854
| 16>  H       -2.0157733395    -2.7100876347    -0.0179341844
| 17> *
| 18>
| 19>                          ****END OF INPUT****

CARTESIAN COORDINATES (ANGSTROEM)
---------------------------------
  N      0.053027    1.343031    0.066082
  C     -0.055715    0.000516    0.022634
  C     -1.240601   -0.712159    0.014632
  C     -1.109907   -2.104002   -0.009460
  N      0.019358   -2.782502   -0.024312
  C      1.192748   -2.110886   -0.016332
  O      2.311622   -2.517938   -0.025672
  O      1.105973   -0.621757    0.004964
  H      0.964293    1.757753   -0.033742
  H     -0.760450    1.923741   -0.033038
  H     -2.201481   -0.218956    0.028964
  H     -2.015773   -2.710088   -0.017934

 Total Charge           Charge          ....    0
 Multiplicity           Mult            ....    1
 Number of Electrons    NEL             ....   58
 Basis Dimension        Dim             ....  272

ORBITAL ENERGIES
----------------

  NO   OCC          E(Eh)            E(eV)
   0   2.0000     -20.636014      -561.5345
   1   2.0000     -20.534786      -558.7799
   2   2.0000     -15.625922      -425.2030
   3   2.0000     -15.555588      -423.2891
   4   2.0000     -11.406887      -310.3972
   5   2.0000     -11.405932      -310.3712
   6   2.0000     -11.323440      -308.1265
   7   2.0000     -11.236744      -305.7674
   8   2.0000      -1.487962       -40.4895
   9   2.0000      -1.391311       -37.8595
  10   2.0000      -1.268722       -34.5237
  11   2.0000      -1.246162       -33.9098
  12   2.0000      -1.069889       -29.1132
  13   2.0000      -0.919336       -25.0164
  14   2.0000      -0.900694       -24.5091
  15   2.0000      -0.784107       -21.3366
  16   2.0000      -0.757166       -20.6035
  17   2.0000      -0.714749       -19.4493
  18   2.0000      -0.684429       -18.6243
  19   2.0000      -0.678518       -18.4634
  20   2.0000      -0.652345       -17.7512
  21   2.0000      -0.621890       -16.9225
  22   2.0000      -0.572674       -15.5833
  23   2.0000      -0.568730       -15.4759
  24   2.0000      -0.501249       -13.6397
  25   2.0000      -0.470671       -12.8076
  26   2.0000      -0.469669       -12.7803
  27   2.0000      -0.433546       -11.7974
  28   2.0000      -0.339568        -9.2401
  29   0.0000       0.081222         2.2102
  30   0.0000       0.107176         2.9164
  31   0.0000       0.147594         4.0162
  32   0.0000       0.164663         4.4807
  33   0.0000       0.173352         4.7171

MULLIKEN ATOMIC CHARGES
-----------------------
   0 N :   -0.472364
   1 C :    0.396183
   2 C :   -0.297334
   3 C :    0.005111
   4 N :   -0.277164
   5 C :    0.287167
   6 O :   -0.261928
   7 O :   -0.215029
   8 H :    0.283374
   9 H :    0.273813
  10 H :    0.140500
  11 H :    0.137671
Sum of atomic charges:   -0.0000000

LOEWDIN ATOMIC CHARGES
----------------------
   0 N :    0.018685
   1 C :   -0.351993
   2 C :   -0.211536
   3 C :   -0.192340
   4 N :    0.104012
   5 C :   -0.488728
   6 O :    0.149439
   7 O :    0.306099
   8 H :    0.186256
   9 H :    0.183047
  10 H :    0.150400
  11 H :    0.146657

  Mayer bond orders larger than 0.1
B(  0-N ,  1-C ) :   1.2036 B(  0-N ,  8-H ) :   0.8515 B(  0-N ,  9-H ) :   0.8675
B(  1-C ,  2-C ) :   1.3503 B(  1-C ,  7-O ) :   1.2211 B(  2-C ,  3-C ) :   1.2817
B(  2-C , 10-H ) :   0.9079 B(  3-C ,  4-N ) :   1.4977 B(  3-C , 11-H ) :   0.9402
B(  4-N ,  5-C ) :   1.2397 B(  5-C ,  6-O ) :   2.0536 B(  5-C ,  7-O ) :   0.8214

MP2 TOTAL ENERGY:     -414.045318640 Eh
FINAL SINGLE POINT ENERGY      -414.045318640281

DIPOLE MOMENT
-------------
                                X             Y             Z
Electronic contribution:      3.38076      -2.61399      -0.01652
Nuclear contribution   :     -4.96892       5.01073      -0.06373
                        -----------------------------------------
Total Dipole Moment    :     -1.58816       2.39674      -0.08025
                        -----------------------------------------
Magnitude (a.u.)       :      2.87630
Magnitude (Debye)      :      7.31096

                             ****ORCA TERMINATED NORMALLY****
TOTAL RUN TIME: 0 days 0 hours 9 minutes 1 seconds 451 msec
