                         Program Version 3.0.3 - RELEASE   -
|  1> ! RI-MP2 RIJK def2-TZVP def2-TZVP/C def2-TZVP/JK TIGHTSCF
|  2> % maxcore 2000
|  3> % mp2 density relaxed end
|  4> *xyz 0 1
|  5>  C       -0.8159949747     1.4589398581     0.3562296965
|  6>  C       -0.1312565494     0.1344058382     0.1162311644
|  7>  C       -0.8163410555    -1.1497100233     0.5268362457
|  8>  C        0.4445505541    -0.7097532726     1.2368155510
|  9>  C        1.7630266957    -1.3072889679     0.7777173751
| 10>  C        1.7159503185    -1.2116403467    -0.7771841904
| 11>  C        0.8322962703     0.0376619757    -1.0613105832
| 12>  C        3.0265980669    -1.1660646824    -1.4069399031
| 13>  C        4.1133107008    -1.1140577944    -1.9193995213
| 14>  H       -0.0857540061     2.2708871913     0.4560797434
| 15>  H       -1.4861872029     1.7177817518    -0.4722460840
| 16>  H       -1.4175337563     1.4355595886     1.2705838544
| 17>  H       -1.7465310175    -1.0491508414     1.0766046003
| 18>  H       -0.7919633676    -2.0172955620    -0.1256555837
| 19>  H        0.3614037545    -0.3869385754     2.2695451742
| 20>  H        2.5961516602    -0.7063908408     1.1580824349
| 21>  H        1.9253373440    -2.3380714425     1.1091667236
| 22>  H        1.1922501639    -2.0959298923    -1.1586818625
| 23>  H        0.3328932947    -0.0360079015    -2.0333302774
| 24>  H        1.4622768754     0.9344154476    -1.0870239762
| 25>  H        5.0712122911    -1.0742646680    -2.3752622518
| 26> *
| 27>
| 28>                          ****END OF INPUT****

CARTESIAN COORDINATES (ANGSTROEM)
---------------------------------
  C     -0.815995    1.458940    0.356230
  C     -0.131257    0.134406    0.116231
  C     -0.816341   -1.149710    0.526836
  C      0.444551   -0.709753    1.236816
  C      1.763027   -1.307289    0.777717
  C      1.715950   -1.211640   -0.777184
  C      0.832296    0.037662   -1.061311
  C      3.026598   -1.166065   -1.406940
  C      4.113311   -1.114058   -1.919400
  H     -0.085754    2.270887    0.456080
  H     -1.486187    1.717782   -0.472246
  H     -1.417534    1.435560    1.270584
  H     -1.746531   -1.049151    1.076605
  H     -0.791963   -2.017296   -0.125656
  H      0.361404   -0.386939    2.269545
  H      2.596152   -0.706391    1.158082
  H      1.925337   -2.338071    1.109167
  H      1.192250   -2.095930   -1.158682
  H      0.332893   -0.036008   -2.033330
  H      1.462277    0.934415   -1.087024
  H      5.071212   -1.074265   -2.375262

 Total Charge           Charge          ....    0
 Multiplicity           Mult            ....    1
 Number of Electrons    NEL             ....   66
 Basis Dimension        Dim             ....  351

ORBITAL ENERGIES
----------------

  NO   OCC          E(Eh)            E(eV)
   0   2.0000     -11.252594      -306.1986
   1   2.0000     -11.235438      -305.7318
   2   2.0000     -11.228683      -305.5480
   3   2.0000     -11.228341      -305.5387
   4   2.0000     -11.227398      -305.5130
   5   2.0000     -11.227282      -305.5099
   6   2.0000     -11.222181      -305.3711
   7   2.0000     -11.218467      -305.2700
   8   2.0000     -11.215403      -305.1866
   9   2.0000      -1.183374       -32.2013
  10   2.0000      -1.074292       -29.2330
  11   2.0000      -0.998152       -27.1611
  12   2.0000      -0.987251       -26.8645
  13   2.0000      -0.930489       -25.3199
  14   2.0000      -0.864958       -23.5367
  15   2.0000      -0.778802       -21.1923
  16   2.0000      -0.735194       -20.0056
  17   2.0000      -0.714452       -19.4412
  18   2.0000      -0.673291       -18.3212
  19   2.0000      -0.643104       -17.4997
  20   2.0000      -0.603623       -16.4254
  21   2.0000      -0.589702       -16.0466
  22   2.0000      -0.578323       -15.7370
  23   2.0000      -0.555001       -15.1023
  24   2.0000      -0.535563       -14.5734
  25   2.0000      -0.502848       -13.6832
  26   2.0000      -0.497968       -13.5504
  27   2.0000      -0.496779       -13.5181
  28   2.0000      -0.482757       -13.1365
  29   2.0000      -0.402545       -10.9538
  30   2.0000      -0.385046       -10.4776
  31   2.0000      -0.377934       -10.2841
  32   2.0000      -0.376318       -10.2401
  33   0.0000       0.134576         3.6620
  34   0.0000       0.152110         4.1391
  35   0.0000       0.163083         4.4377
  36   0.0000       0.168442         4.5835
  37   0.0000       0.177968         4.8428

MULLIKEN ATOMIC CHARGES
-----------------------
   0 C :   -0.423573
   1 C :    0.121689
   2 C :   -0.314427
   3 C :   -0.097334
   4 C :   -0.234155
   5 C :   -0.231550
   6 C :   -0.244594
   7 C :   -0.011685
   8 C :   -0.129395
   9 H :    0.129886
  10 H :    0.134270
  11 H :    0.127917
  12 H :    0.129839
  13 H :    0.129459
  14 H :    0.122271
  15 H :    0.122576
  16 H :    0.121884
  17 H :    0.115278
  18 H :    0.123319
  19 H :    0.119485
  20 H :    0.188840
Sum of atomic charges:   -0.0000000

LOEWDIN ATOMIC CHARGES
----------------------
   0 C :   -0.269055
   1 C :   -0.248395
   2 C :   -0.188277
   3 C :   -0.182321
   4 C :   -0.192468
   5 C :   -0.220232
   6 C :   -0.167660
   7 C :   -0.091010
   8 C :   -0.106759
   9 H :    0.126689
  10 H :    0.127615
  11 H :    0.128214
  12 H :    0.136310
  13 H :    0.133222
  14 H :    0.144365
  15 H :    0.146805
  16 H :    0.138955
  17 H :    0.168717
  18 H :    0.140802
  19 H :    0.148994
  20 H :    0.125488

  Mayer bond orders larger than 0.1
B(  0-C ,  1-C ) :   0.8995 B(  0-C ,  9-H ) :   0.9393 B(  0-C , 10-H ) :   0.9428
B(  0-C , 11-H ) :   0.9343 B(  1-C ,  2-C ) :   0.8706 B(  1-C ,  3-C ) :   0.8462
B(  1-C ,  6-C ) :   0.9281 B(  2-C ,  3-C ) :   0.8812 B(  2-C , 12-H ) :   0.9289
B(  2-C , 13-H ) :   0.9178 B(  3-C ,  4-C ) :   0.9308 B(  3-C , 14-H ) :   0.9278
B(  4-C ,  5-C ) :   0.9448 B(  4-C , 15-H ) :   0.9270 B(  4-C , 16-H ) :   0.9201
B(  5-C ,  6-C ) :   0.9381 B(  5-C ,  7-C ) :   1.2067 B(  5-C ,  8-C ) :  -0.1324
B(  5-C , 17-H ) :   0.9046 B(  6-C , 18-H ) :   0.9182 B(  6-C , 19-H ) :   0.9238
B(  7-C ,  8-C ) :   2.5861 B(  8-C , 20-H ) :   0.8844

MP2 TOTAL ENERGY:     -349.277057973 Eh
FINAL SINGLE POINT ENERGY      -349.277057973036

DIPOLE MOMENT
-------------
                                X             Y             Z
Electronic contribution:      4.89203      -2.72588      -2.32781
Nuclear contribution   :     -5.14354       2.83330       2.49405
                        -----------------------------------------
Total Dipole Moment    :     -0.25151       0.10742       0.16623
                        -----------------------------------------
Magnitude (a.u.)       :      0.32005
Magnitude (Debye)      :      0.81350

                             ****ORCA TERMINATED NORMALLY****
TOTAL RUN TIME: 0 days 0 hours 19 minutes 43 seconds 733 msec
