                         Program Version 3.0.3 - RELEASE   -
|  1> ! RI-MP2 RIJK def2-TZVP def2-TZVP/C def2-TZVP/JK TIGHTSCF
|  2> % maxcore 2000
|  3> % mp2 density relaxed end
|  4> *xyz 0 1
|  5>  C       -0.0069626162    -1.1371925672    -0.0756750903
|  6>  C        0.0130843019     0.0649321016    -0.0172673732
|  7>  C        0.0033848455     1.4966118809     0.0162216153
|  8>  C       -0.6625518112     2.4446744039     1.0795209575
|  9>  C       -0.0453478092     3.4049108192     0.0164637698
| 10>  C        1.2171989688     2.4895611286     0.0300966122
| 11>  C       -0.6112914141     2.4469770518    -1.0438665963
| 12>  C       -0.6703658122     2.3845711331    -2.5065196741
| 13>  N       -1.9099153443     2.4335433892    -1.6651366635
| 14>  H       -0.0146020906    -2.1982479062    -0.1172153897
| 15>  H       -1.7516991922     2.4116884065     1.1403131996
| 16>  H       -0.1942721173     2.4456805756     2.0667435684
| 17>  H       -0.0739510133     4.4925555803     0.0136812659
| 18>  H        1.8058269742     2.4949543721     0.9501411432
| 19>  H        1.8475240533     2.4934534231    -0.8615842960
| 20>  H       -0.5053090276     3.2694707458    -3.1150221177
| 21>  H       -0.4185295464     1.4436267143    -2.9899252310
| 22>  H       -2.3249156890     1.5049701374    -1.6117475802
| 23> *
| 24>
| 25>                          ****END OF INPUT****

CARTESIAN COORDINATES (ANGSTROEM)
---------------------------------
  C     -0.006963   -1.137193   -0.075675
  C      0.013084    0.064932   -0.017267
  C      0.003385    1.496612    0.016222
  C     -0.662552    2.444674    1.079521
  C     -0.045348    3.404911    0.016464
  C      1.217199    2.489561    0.030097
  C     -0.611291    2.446977   -1.043867
  C     -0.670366    2.384571   -2.506520
  N     -1.909915    2.433543   -1.665137
  H     -0.014602   -2.198248   -0.117215
  H     -1.751699    2.411688    1.140313
  H     -0.194272    2.445681    2.066744
  H     -0.073951    4.492556    0.013681
  H      1.805827    2.494954    0.950141
  H      1.847524    2.493453   -0.861584
  H     -0.505309    3.269471   -3.115022
  H     -0.418530    1.443627   -2.989925
  H     -2.324916    1.504970   -1.611748

 Total Charge           Charge          ....    0
 Multiplicity           Mult            ....    1
 Number of Electrons    NEL             ....   64
 Basis Dimension        Dim             ....  333

ORBITAL ENERGIES
----------------

  NO   OCC          E(Eh)            E(eV)
   0   2.0000     -15.555807      -423.2950
   1   2.0000     -11.278101      -306.8927
   2   2.0000     -11.275292      -306.8163
   3   2.0000     -11.253955      -306.2357
   4   2.0000     -11.251108      -306.1582
   5   2.0000     -11.243636      -305.9549
   6   2.0000     -11.242125      -305.9138
   7   2.0000     -11.239656      -305.8466
   8   2.0000     -11.231481      -305.6241
   9   2.0000      -1.278212       -34.7819
  10   2.0000      -1.196352       -32.5544
  11   2.0000      -1.040722       -28.3195
  12   2.0000      -0.922259       -25.0959
  13   2.0000      -0.899690       -24.4818
  14   2.0000      -0.886153       -24.1135
  15   2.0000      -0.850960       -23.1558
  16   2.0000      -0.754296       -20.5254
  17   2.0000      -0.728534       -19.8244
  18   2.0000      -0.694556       -18.8998
  19   2.0000      -0.664352       -18.0779
  20   2.0000      -0.636307       -17.3148
  21   2.0000      -0.592905       -16.1338
  22   2.0000      -0.535971       -14.5845
  23   2.0000      -0.504384       -13.7250
  24   2.0000      -0.499662       -13.5965
  25   2.0000      -0.487028       -13.2527
  26   2.0000      -0.481395       -13.0994
  27   2.0000      -0.456708       -12.4277
  28   2.0000      -0.447471       -12.1763
  29   2.0000      -0.394764       -10.7421
  30   2.0000      -0.381235       -10.3739
  31   2.0000      -0.373408       -10.1609
  32   0.0000       0.135361         3.6834
  33   0.0000       0.149378         4.0648
  34   0.0000       0.153844         4.1863
  35   0.0000       0.161981         4.4077
  36   0.0000       0.170376         4.6362

MULLIKEN ATOMIC CHARGES
-----------------------
   0 C :   -0.126114
   1 C :    0.027631
   2 C :   -0.247204
   3 C :   -0.169852
   4 C :   -0.049573
   5 C :   -0.179622
   6 C :    0.070858
   7 C :   -0.231132
   8 N :   -0.408120
   9 H :    0.191425
  10 H :    0.123827
  11 H :    0.118633
  12 H :    0.144095
  13 H :    0.121609
  14 H :    0.120527
  15 H :    0.126063
  16 H :    0.137131
  17 H :    0.229817
Sum of atomic charges:   -0.0000000

LOEWDIN ATOMIC CHARGES
----------------------
   0 C :   -0.083242
   1 C :   -0.073038
   2 C :   -0.175449
   3 C :   -0.143275
   4 C :   -0.134795
   5 C :   -0.144741
   6 C :   -0.247480
   7 C :   -0.225977
   8 N :    0.010138
   9 H :    0.127855
  10 H :    0.134988
  11 H :    0.131955
  12 H :    0.129790
  13 H :    0.133202
  14 H :    0.133317
  15 H :    0.127561
  16 H :    0.127349
  17 H :    0.171844

  Mayer bond orders larger than 0.1
B(  0-C ,  1-C ) :   2.6658 B(  0-C ,  2-C ) :  -0.1609 B(  0-C ,  9-H ) :   0.8674
B(  1-C ,  2-C ) :   1.1489 B(  2-C ,  3-C ) :   0.8895 B(  2-C ,  5-C ) :   0.8846
B(  2-C ,  6-C ) :   0.8703 B(  3-C ,  4-C ) :   0.9051 B(  3-C , 10-H ) :   0.9245
B(  3-C , 11-H ) :   0.9177 B(  4-C ,  5-C ) :   0.9057 B(  4-C ,  6-C ) :   0.8032
B(  4-C , 12-H ) :   0.8929 B(  5-C , 13-H ) :   0.9202 B(  5-C , 14-H ) :   0.9298
B(  6-C ,  7-C ) :   0.9695 B(  6-C ,  8-N ) :   0.9228 B(  7-C ,  8-N ) :   0.9703
B(  7-C , 15-H ) :   0.9126 B(  7-C , 16-H ) :   0.9168 B(  8-N , 17-H ) :   0.8630

MP2 TOTAL ENERGY:     -364.028575163 Eh
FINAL SINGLE POINT ENERGY      -364.028575163101

DIPOLE MOMENT
-------------
                                X             Y             Z
Electronic contribution:     -0.71420      -2.22503       0.17331
Nuclear contribution   :      1.12322       1.93029      -0.14716
                        -----------------------------------------
Total Dipole Moment    :      0.40901      -0.29474       0.02615
                        -----------------------------------------
Magnitude (a.u.)       :      0.50483
Magnitude (Debye)      :      1.28317

                             ****ORCA TERMINATED NORMALLY****
TOTAL RUN TIME: 0 days 0 hours 19 minutes 17 seconds 365 msec
