                         Program Version 3.0.3 - RELEASE   -
|  1> ! RI-MP2 RIJK def2-TZVP def2-TZVP/C def2-TZVP/JK TIGHTSCF
|  2> % maxcore 2000
|  3> % mp2 density relaxed end
|  4> *xyz 0 1
|  5>  C        0.0216415205     1.5572915440    -0.1202375630
|  6>  C       -0.0213673763     0.0217864199    -0.0252412120
|  7>  C        0.8227000242    -0.4372059824     1.1800586816
|  8>  C       -1.4747424298    -0.4592633470     0.1407970572
|  9>  C        0.5508662254    -0.6464730929    -1.2801465557
| 10>  C        0.1009898760    -0.2174815237    -2.6915855182
| 11>  C        1.5669187650     0.1776489828    -2.8639136016
| 12>  O        2.2670788341     0.6343451751    -3.7082852601
| 13>  O        1.9237276451    -0.2011756604    -1.5942980647
| 14>  H        1.0408292563     1.9146868748    -0.2890915167
| 15>  H       -0.6148250264     1.9414719982    -0.9237948493
| 16>  H       -0.3387393024     1.9977534506     0.8145619183
| 17>  H        0.4461788881     0.0089856466     2.1060290759
| 18>  H        0.7894259791    -1.5262254470     1.2957401427
| 19>  H        1.8687535741    -0.1421759444     1.0589264953
| 20>  H       -2.1024525953    -0.1464140131    -0.7004676327
| 21>  H       -1.5297104960    -1.5510630532     0.2157896414
| 22>  H       -1.9113506583    -0.0421982583     1.0537383007
| 23>  H        0.5647265900    -1.7328084679    -1.1455866565
| 24>  H       -0.2285756486    -1.0161071807    -3.3579031817
| 25>  H       -0.5964726847     0.6184377390    -2.7533194209
| 26> *
| 27>
| 28>                          ****END OF INPUT****

CARTESIAN COORDINATES (ANGSTROEM)
---------------------------------
  C      0.021642    1.557292   -0.120238
  C     -0.021367    0.021786   -0.025241
  C      0.822700   -0.437206    1.180059
  C     -1.474742   -0.459263    0.140797
  C      0.550866   -0.646473   -1.280147
  C      0.100990   -0.217482   -2.691586
  C      1.566919    0.177649   -2.863914
  O      2.267079    0.634345   -3.708285
  O      1.923728   -0.201176   -1.594298
  H      1.040829    1.914687   -0.289092
  H     -0.614825    1.941472   -0.923795
  H     -0.338739    1.997753    0.814562
  H      0.446179    0.008986    2.106029
  H      0.789426   -1.526225    1.295740
  H      1.868754   -0.142176    1.058926
  H     -2.102453   -0.146414   -0.700468
  H     -1.529710   -1.551063    0.215790
  H     -1.911351   -0.042198    1.053738
  H      0.564727   -1.732808   -1.145587
  H     -0.228576   -1.016107   -3.357903
  H     -0.596473    0.618438   -2.753319

 Total Charge           Charge          ....    0
 Multiplicity           Mult            ....    1
 Number of Electrons    NEL             ....   70
 Basis Dimension        Dim             ....  351

ORBITAL ENERGIES
----------------

  NO   OCC          E(Eh)            E(eV)
   0   2.0000     -20.597115      -560.4760
   1   2.0000     -20.550130      -559.1975
   2   2.0000     -11.382525      -309.7343
   3   2.0000     -11.310421      -307.7722
   4   2.0000     -11.261649      -306.4451
   5   2.0000     -11.256188      -306.2964
   6   2.0000     -11.231998      -305.6382
   7   2.0000     -11.224406      -305.4316
   8   2.0000     -11.222958      -305.3922
   9   2.0000      -1.460714       -39.7480
  10   2.0000      -1.377025       -37.4707
  11   2.0000      -1.123251       -30.5652
  12   2.0000      -1.041231       -28.3333
  13   2.0000      -0.948617       -25.8132
  14   2.0000      -0.945459       -25.7272
  15   2.0000      -0.910528       -24.7767
  16   2.0000      -0.771679       -20.9985
  17   2.0000      -0.748632       -20.3713
  18   2.0000      -0.705679       -19.2025
  19   2.0000      -0.680039       -18.5048
  20   2.0000      -0.678615       -18.4660
  21   2.0000      -0.617962       -16.8156
  22   2.0000      -0.609998       -16.5989
  23   2.0000      -0.604235       -16.4421
  24   2.0000      -0.563811       -15.3421
  25   2.0000      -0.562832       -15.3154
  26   2.0000      -0.557262       -15.1639
  27   2.0000      -0.540166       -14.6987
  28   2.0000      -0.527818       -14.3627
  29   2.0000      -0.522428       -14.2160
  30   2.0000      -0.499467       -13.5912
  31   2.0000      -0.478143       -13.0109
  32   2.0000      -0.468714       -12.7543
  33   2.0000      -0.447360       -12.1733
  34   2.0000      -0.441591       -12.0163
  35   0.0000       0.118608         3.2275
  36   0.0000       0.147129         4.0036
  37   0.0000       0.152436         4.1480
  38   0.0000       0.167255         4.5512
  39   0.0000       0.171963         4.6794

MULLIKEN ATOMIC CHARGES
-----------------------
   0 C :   -0.451032
   1 C :    0.066097
   2 C :   -0.417894
   3 C :   -0.408759
   4 C :    0.100040
   5 C :   -0.300720
   6 C :    0.265513
   7 O :   -0.260524
   8 O :   -0.256104
   9 H :    0.161480
  10 H :    0.126313
  11 H :    0.139004
  12 H :    0.133716
  13 H :    0.127446
  14 H :    0.156406
  15 H :    0.131829
  16 H :    0.133742
  17 H :    0.140791
  18 H :    0.115990
  19 H :    0.151278
  20 H :    0.145388
Sum of atomic charges:   -0.0000000

LOEWDIN ATOMIC CHARGES
----------------------
   0 C :   -0.265503
   1 C :   -0.343608
   2 C :   -0.264701
   3 C :   -0.263114
   4 C :   -0.209696
   5 C :   -0.193238
   6 C :   -0.461561
   7 O :    0.152870
   8 O :    0.250811
   9 H :    0.133391
  10 H :    0.123389
  11 H :    0.129909
  12 H :    0.126912
  13 H :    0.125886
  14 H :    0.132510
  15 H :    0.125932
  16 H :    0.127413
  17 H :    0.130365
  18 H :    0.146661
  19 H :    0.147620
  20 H :    0.147751

  Mayer bond orders larger than 0.1
B(  0-C ,  1-C ) :   0.8957 B(  0-C ,  9-H ) :   0.9354 B(  0-C , 10-H ) :   0.9325
B(  0-C , 11-H ) :   0.9320 B(  1-C ,  2-C ) :   0.9165 B(  1-C ,  3-C ) :   0.9171
B(  1-C ,  4-C ) :   0.8936 B(  2-C , 12-H ) :   0.9344 B(  2-C , 13-H ) :   0.9290
B(  2-C , 14-H ) :   0.9316 B(  3-C , 15-H ) :   0.9303 B(  3-C , 16-H ) :   0.9313
B(  3-C , 17-H ) :   0.9340 B(  4-C ,  5-C ) :   0.8841 B(  4-C ,  8-O ) :   0.8851
B(  4-C , 18-H ) :   0.9231 B(  5-C ,  6-C ) :   0.9435 B(  5-C , 19-H ) :   0.9039
B(  5-C , 20-H ) :   0.9049 B(  6-C ,  7-O ) :   2.0645 B(  6-C ,  8-O ) :   1.0845

MP2 TOTAL ENERGY:     -423.564182211 Eh
FINAL SINGLE POINT ENERGY      -423.564182210978

DIPOLE MOMENT
-------------
                                X             Y             Z
Electronic contribution:      8.31185      -0.13812     -10.35173
Nuclear contribution   :     -9.71920      -0.32452      11.15018
                        -----------------------------------------
Total Dipole Moment    :     -1.40735      -0.46263       0.79845
                        -----------------------------------------
Magnitude (a.u.)       :      1.68291
Magnitude (Debye)      :      4.27761

                             ****ORCA TERMINATED NORMALLY****
TOTAL RUN TIME: 0 days 0 hours 23 minutes 23 seconds 685 msec
