                         Program Version 3.0.3 - RELEASE   -
|  1> ! RI-MP2 RIJK def2-TZVP def2-TZVP/C def2-TZVP/JK TIGHTSCF
|  2> % maxcore 2000
|  3> % mp2 density relaxed end
|  4> *xyz 0 1
|  5>  O        0.0118890176    -0.0756392798     0.0703444836
|  6>  C       -0.0267246504     1.1409781956     0.0217649931
|  7>  N       -1.1820315247     1.8661580803    -0.0030299603
|  8>  C       -1.1519495124     3.2915603479    -0.0604311937
|  9>  C       -0.1100500716     4.1024805525     0.6697827569
| 10>  C       -0.1155209933     4.0409983185    -0.8607908504
| 11>  C        1.2468544846     3.3100309501    -0.8226392649
| 12>  C        1.2522088614     3.3703802449     0.6806850685
| 13>  C        1.1808610974     2.0155641119    -0.0175429754
| 14>  H       -2.0551685142     1.3637933613     0.0198961881
| 15>  H       -2.1429427109     3.7321720675    -0.0745600994
| 16>  H       -0.3593751232     4.9227098644     1.3302165215
| 17>  H       -0.3698040247     4.8056812703    -1.5830873833
| 18>  H        2.0506215300     3.4876826079    -1.5236026747
| 19>  H        2.0608912350     3.6034360219     1.3594115012
| 20>  H        2.1075216197     1.4531320647     0.0017280992
| 21> *
| 22>
| 23>                          ****END OF INPUT****

CARTESIAN COORDINATES (ANGSTROEM)
---------------------------------
  O      0.011889   -0.075639    0.070344
  C     -0.026725    1.140978    0.021765
  N     -1.182032    1.866158   -0.003030
  C     -1.151950    3.291560   -0.060431
  C     -0.110050    4.102481    0.669783
  C     -0.115521    4.040998   -0.860791
  C      1.246854    3.310031   -0.822639
  C      1.252209    3.370380    0.680685
  C      1.180861    2.015564   -0.017543
  H     -2.055169    1.363793    0.019896
  H     -2.142943    3.732172   -0.074560
  H     -0.359375    4.922710    1.330217
  H     -0.369804    4.805681   -1.583087
  H      2.050622    3.487683   -1.523603
  H      2.060891    3.603436    1.359412
  H      2.107522    1.453132    0.001728

 Total Charge           Charge          ....    0
 Multiplicity           Mult            ....    1
 Number of Electrons    NEL             ....   64
 Basis Dimension        Dim             ....  321

ORBITAL ENERGIES
----------------

  NO   OCC          E(Eh)            E(eV)
   0   2.0000     -20.505993      -557.9964
   1   2.0000     -15.581952      -424.0065
   2   2.0000     -11.341973      -308.6308
   3   2.0000     -11.292854      -307.2942
   4   2.0000     -11.258209      -306.3514
   5   2.0000     -11.257487      -306.3318
   6   2.0000     -11.252116      -306.1856
   7   2.0000     -11.251600      -306.1716
   8   2.0000     -11.251516      -306.1693
   9   2.0000      -1.372490       -37.3474
  10   2.0000      -1.274820       -34.6896
  11   2.0000      -1.195158       -32.5219
  12   2.0000      -1.090518       -29.6745
  13   2.0000      -0.905663       -24.6443
  14   2.0000      -0.891392       -24.2560
  15   2.0000      -0.869248       -23.6534
  16   2.0000      -0.755601       -20.5609
  17   2.0000      -0.742022       -20.1915
  18   2.0000      -0.706631       -19.2284
  19   2.0000      -0.694501       -18.8983
  20   2.0000      -0.647208       -17.6114
  21   2.0000      -0.628048       -17.0900
  22   2.0000      -0.599043       -16.3008
  23   2.0000      -0.579572       -15.7710
  24   2.0000      -0.543350       -14.7853
  25   2.0000      -0.510041       -13.8789
  26   2.0000      -0.508094       -13.8259
  27   2.0000      -0.478736       -13.0271
  28   2.0000      -0.431151       -11.7322
  29   2.0000      -0.419999       -11.4287
  30   2.0000      -0.361965        -9.8496
  31   2.0000      -0.350207        -9.5296
  32   0.0000       0.131261         3.5718
  33   0.0000       0.154969         4.2169
  34   0.0000       0.158683         4.3180
  35   0.0000       0.165490         4.5032
  36   0.0000       0.175421         4.7734

MULLIKEN ATOMIC CHARGES
-----------------------
   0 O :   -0.355186
   1 C :    0.209859
   2 N :   -0.281166
   3 C :   -0.040430
   4 C :   -0.129827
   5 C :   -0.129817
   6 C :   -0.121519
   7 C :   -0.121501
   8 C :   -0.146897
   9 H :    0.234883
  10 H :    0.141093
  11 H :    0.147030
  12 H :    0.147029
  13 H :    0.151476
  14 H :    0.151477
  15 H :    0.143496
Sum of atomic charges:   -0.0000000

LOEWDIN ATOMIC CHARGES
----------------------
   0 O :    0.072299
   1 C :   -0.440906
   2 N :    0.151745
   3 C :   -0.217592
   4 C :   -0.132838
   5 C :   -0.132840
   6 C :   -0.128542
   7 C :   -0.128542
   8 C :   -0.127350
   9 H :    0.191765
  10 H :    0.156969
  11 H :    0.140017
  12 H :    0.140016
  13 H :    0.143693
  14 H :    0.143694
  15 H :    0.168411

  Mayer bond orders larger than 0.1
B(  0-O ,  1-C ) :   1.9874 B(  1-C ,  2-N ) :   1.1979 B(  1-C ,  8-C ) :   0.9654
B(  2-N ,  3-C ) :   0.9877 B(  2-N ,  8-C ) :  -0.1016 B(  2-N ,  9-H ) :   0.8628
B(  3-C ,  4-C ) :   0.8901 B(  3-C ,  5-C ) :   0.8901 B(  3-C , 10-H ) :   0.9213
B(  4-C ,  5-C ) :   0.8331 B(  4-C ,  7-C ) :   0.8999 B(  4-C , 11-H ) :   0.9159
B(  5-C ,  6-C ) :   0.8999 B(  5-C , 12-H ) :   0.9159 B(  6-C ,  7-C ) :   0.8931
B(  6-C ,  8-C ) :   0.8088 B(  6-C , 13-H ) :   0.9186 B(  7-C ,  8-C ) :   0.8088
B(  7-C , 14-H ) :   0.9186 B(  8-C , 15-H ) :   0.9393

MP2 TOTAL ENERGY:     -400.030866930 Eh
FINAL SINGLE POINT ENERGY      -400.030866930026

DIPOLE MOMENT
-------------
                                X             Y             Z
Electronic contribution:     -0.82921      -3.67190       0.15036
Nuclear contribution   :      0.53838       5.40248      -0.21886
                        -----------------------------------------
Total Dipole Moment    :     -0.29084       1.73058      -0.06850
                        -----------------------------------------
Magnitude (a.u.)       :      1.75618
Magnitude (Debye)      :      4.46387

                             ****ORCA TERMINATED NORMALLY****
TOTAL RUN TIME: 0 days 0 hours 17 minutes 2 seconds 172 msec
