                         Program Version 3.0.3 - RELEASE   -
|  1> ! RI-MP2 RIJK def2-TZVP def2-TZVP/C def2-TZVP/JK TIGHTSCF
|  2> % maxcore 2000
|  3> % mp2 density relaxed end
|  4> *xyz 0 1
|  5>  N       -0.4030351133     1.4137531843    -0.3522974225
|  6>  C       -0.1983804733     0.0481625543    -0.1145792602
|  7>  C       -1.1184324750    -0.9673746105    -0.1122330241
|  8>  C       -2.6067549429    -1.0549719083    -0.2208808511
|  9>  C       -3.2302524811    -0.3611024822    -1.4322869681
| 10>  O       -3.2192729138     1.0488624056    -1.2000253849
| 11>  O       -0.4676214889    -2.1706739905     0.0699490093
| 12>  C        0.8507003366    -1.9019438491     0.2017590028
| 13>  C        1.0833915916    -0.5697745083     0.0937837124
| 14>  H        0.0723165588     2.0056387325     0.3167723688
| 15>  H       -1.3887998136     1.6444909004    -0.4136680815
| 16>  H       -2.8665585895    -2.1176753690    -0.2592742727
| 17>  H       -3.0989760101    -0.6456088380     0.6733058534
| 18>  H       -2.6693869154    -0.6153828783    -2.3414911499
| 19>  H       -4.2665224318    -0.7087931755    -1.5579401798
| 20>  H       -3.3950187824     1.4958791332    -2.0331498695
| 21>  H        1.4923647792    -2.7539550906     0.3574275772
| 22>  H        2.0397758347    -0.0716784399     0.1393558704
| 23> *
| 24>
| 25>                          ****END OF INPUT****

CARTESIAN COORDINATES (ANGSTROEM)
---------------------------------
  N     -0.403035    1.413753   -0.352297
  C     -0.198380    0.048163   -0.114579
  C     -1.118432   -0.967375   -0.112233
  C     -2.606755   -1.054972   -0.220881
  C     -3.230252   -0.361102   -1.432287
  O     -3.219273    1.048862   -1.200025
  O     -0.467621   -2.170674    0.069949
  C      0.850700   -1.901944    0.201759
  C      1.083392   -0.569775    0.093784
  H      0.072317    2.005639    0.316772
  H     -1.388800    1.644491   -0.413668
  H     -2.866559   -2.117675   -0.259274
  H     -3.098976   -0.645609    0.673306
  H     -2.669387   -0.615383   -2.341491
  H     -4.266522   -0.708793   -1.557940
  H     -3.395019    1.495879   -2.033150
  H      1.492365   -2.753955    0.357428
  H      2.039776   -0.071678    0.139356

 Total Charge           Charge          ....    0
 Multiplicity           Mult            ....    1
 Number of Electrons    NEL             ....   68
 Basis Dimension        Dim             ....  333

ORBITAL ENERGIES
----------------

  NO   OCC          E(Eh)            E(eV)
   0   2.0000     -20.602589      -560.6249
   1   2.0000     -20.567858      -559.6799
   2   2.0000     -15.541462      -422.9047
   3   2.0000     -11.284770      -307.0742
   4   2.0000     -11.277061      -306.8644
   5   2.0000     -11.261288      -306.4352
   6   2.0000     -11.251729      -306.1751
   7   2.0000     -11.233686      -305.6841
   8   2.0000     -11.214618      -305.1653
   9   2.0000      -1.439170       -39.1618
  10   2.0000      -1.370906       -37.3042
  11   2.0000      -1.193804       -32.4851
  12   2.0000      -1.057241       -28.7690
  13   2.0000      -1.044250       -28.4155
  14   2.0000      -0.958173       -26.0732
  15   2.0000      -0.852205       -23.1897
  16   2.0000      -0.794268       -21.6131
  17   2.0000      -0.747306       -20.3352
  18   2.0000      -0.714591       -19.4450
  19   2.0000      -0.700937       -19.0735
  20   2.0000      -0.658493       -17.9185
  21   2.0000      -0.643385       -17.5074
  22   2.0000      -0.626640       -17.0517
  23   2.0000      -0.600048       -16.3281
  24   2.0000      -0.584088       -15.8938
  25   2.0000      -0.562432       -15.3046
  26   2.0000      -0.545224       -14.8363
  27   2.0000      -0.538389       -14.6503
  28   2.0000      -0.509197       -13.8560
  29   2.0000      -0.501697       -13.6519
  30   2.0000      -0.466495       -12.6940
  31   2.0000      -0.457496       -12.4491
  32   2.0000      -0.351660        -9.5691
  33   2.0000      -0.281748        -7.6668
  34   0.0000       0.128490         3.4964
  35   0.0000       0.157306         4.2805
  36   0.0000       0.160142         4.3577
  37   0.0000       0.168137         4.5752
  38   0.0000       0.184340         5.0161

MULLIKEN ATOMIC CHARGES
-----------------------
   0 N :   -0.532939
   1 C :    0.112663
   2 C :    0.118429
   3 C :   -0.249758
   4 C :   -0.041042
   5 O :   -0.504917
   6 O :   -0.232261
   7 C :   -0.004035
   8 C :   -0.259617
   9 H :    0.239900
  10 H :    0.257892
  11 H :    0.143220
  12 H :    0.131168
  13 H :    0.119043
  14 H :    0.105017
  15 H :    0.326647
  16 H :    0.139979
  17 H :    0.130610
Sum of atomic charges:    0.0000000

LOEWDIN ATOMIC CHARGES
----------------------
   0 N :   -0.096720
   1 C :   -0.261901
   2 C :   -0.239816
   3 C :   -0.244963
   4 C :   -0.333349
   5 O :   -0.054105
   6 O :    0.341634
   7 C :   -0.261354
   8 C :   -0.174651
   9 H :    0.163626
  10 H :    0.162635
  11 H :    0.158467
  12 H :    0.152387
  13 H :    0.122364
  14 H :    0.118215
  15 H :    0.175297
  16 H :    0.129989
  17 H :    0.142244

  Mayer bond orders larger than 0.1
B(  0-N ,  1-C ) :   1.0017 B(  0-N ,  9-H ) :   0.8785 B(  0-N , 10-H ) :   0.8618
B(  1-C ,  2-C ) :   1.4766 B(  1-C ,  8-C ) :   1.2318 B(  2-C ,  3-C ) :   0.9026
B(  2-C ,  6-O ) :   1.0032 B(  3-C ,  4-C ) :   0.9174 B(  3-C , 11-H ) :   0.9423
B(  3-C , 12-H ) :   0.9201 B(  4-C ,  5-O ) :   0.9358 B(  4-C , 13-H ) :   0.9299
B(  4-C , 14-H ) :   0.9286 B(  5-O , 15-H ) :   0.8424 B(  6-O ,  7-C ) :   1.0612
B(  7-C ,  8-C ) :   1.5537 B(  7-C , 16-H ) :   0.9374 B(  8-C , 17-H ) :   0.9242

MP2 TOTAL ENERGY:     -438.382378794 Eh
FINAL SINGLE POINT ENERGY      -438.382378793957

DIPOLE MOMENT
-------------
                                X             Y             Z
Electronic contribution:      3.37811      -1.94829       1.39045
Nuclear contribution   :     -3.82964       2.17872      -1.67294
                        -----------------------------------------
Total Dipole Moment    :     -0.45153       0.23042      -0.28250
                        -----------------------------------------
Magnitude (a.u.)       :      0.58032
Magnitude (Debye)      :      1.47507

                             ****ORCA TERMINATED NORMALLY****
TOTAL RUN TIME: 0 days 0 hours 16 minutes 16 seconds 76 msec
