                         Program Version 3.0.3 - RELEASE   -
|  1> ! RI-MP2 RIJK def2-TZVP def2-TZVP/C def2-TZVP/JK TIGHTSCF
|  2> % maxcore 2000
|  3> % mp2 density relaxed end
|  4> *xyz 0 1
|  5>  C        0.2276347869     1.6127938388    -0.1198145784
|  6>  C        0.0450558152     0.1181166233     0.0820551579
|  7>  C        0.8038992152    -0.8823224127    -0.8299110148
|  8>  N        1.2582574661    -1.6935617982     0.3477317772
|  9>  C        2.6627482808    -1.3731270773     0.7580793324
| 10>  C        2.1954036993    -0.2064306982     1.6659638237
| 11>  C        0.7391028861    -0.6035323181     1.2798257406
| 12>  C       -0.1229776294    -0.9879960198     2.3863611474
| 13>  N       -0.8155243042    -1.2641151801     3.2705647503
| 14>  H        1.2836363347     1.8963698916    -0.1743888703
| 15>  H       -0.2435902372     1.9265930554    -1.0571768693
| 16>  H       -0.2362170586     2.1831266622     0.6916658795
| 17>  H       -1.0216868263    -0.1193269220     0.1060104525
| 18>  H        0.1882155297    -1.4571670598    -1.5263034384
| 19>  H        1.6338955927    -0.4329368064    -1.3892947846
| 20>  H        3.1143235874    -2.2076754919     1.3011911950
| 21>  H        3.3156638906    -1.1085492619    -0.0793606010
| 22>  H        2.4230031016    -0.3159234162     2.7267881458
| 23>  H        2.4880604094     0.7956463513     1.3480381945
| 24> *
| 25>
| 26>                          ****END OF INPUT****

CARTESIAN COORDINATES (ANGSTROEM)
---------------------------------
  C      0.227635    1.612794   -0.119815
  C      0.045056    0.118117    0.082055
  C      0.803899   -0.882322   -0.829911
  N      1.258257   -1.693562    0.347732
  C      2.662748   -1.373127    0.758079
  C      2.195404   -0.206431    1.665964
  C      0.739103   -0.603532    1.279826
  C     -0.122978   -0.987996    2.386361
  N     -0.815524   -1.264115    3.270565
  H      1.283636    1.896370   -0.174389
  H     -0.243590    1.926593   -1.057177
  H     -0.236217    2.183127    0.691666
  H     -1.021687   -0.119327    0.106010
  H      0.188216   -1.457167   -1.526303
  H      1.633896   -0.432937   -1.389295
  H      3.114324   -2.207675    1.301191
  H      3.315664   -1.108549   -0.079361
  H      2.423003   -0.315923    2.726788
  H      2.488060    0.795646    1.348038

 Total Charge           Charge          ....    0
 Multiplicity           Mult            ....    1
 Number of Electrons    NEL             ....   66
 Basis Dimension        Dim             ....  339

ORBITAL ENERGIES
----------------

  NO   OCC          E(Eh)            E(eV)
   0   2.0000     -15.568975      -423.6534
   1   2.0000     -15.568828      -423.6494
   2   2.0000     -11.310365      -307.7707
   3   2.0000     -11.270303      -306.6805
   4   2.0000     -11.268141      -306.6217
   5   2.0000     -11.267428      -306.6023
   6   2.0000     -11.259657      -306.3908
   7   2.0000     -11.253485      -306.2229
   8   2.0000     -11.237338      -305.7835
   9   2.0000      -1.289271       -35.0828
  10   2.0000      -1.211991       -32.9800
  11   2.0000      -1.074839       -29.2479
  12   2.0000      -1.028405       -27.9843
  13   2.0000      -0.969434       -26.3796
  14   2.0000      -0.902687       -24.5634
  15   2.0000      -0.834069       -22.6962
  16   2.0000      -0.790736       -21.5170
  17   2.0000      -0.707195       -19.2437
  18   2.0000      -0.673242       -18.3198
  19   2.0000      -0.639053       -17.3895
  20   2.0000      -0.613352       -16.6902
  21   2.0000      -0.601000       -16.3540
  22   2.0000      -0.578269       -15.7355
  23   2.0000      -0.563195       -15.3253
  24   2.0000      -0.548512       -14.9258
  25   2.0000      -0.534165       -14.5354
  26   2.0000      -0.526061       -14.3148
  27   2.0000      -0.504479       -13.7276
  28   2.0000      -0.480977       -13.0880
  29   2.0000      -0.470068       -12.7912
  30   2.0000      -0.447584       -12.1794
  31   2.0000      -0.431704       -11.7473
  32   2.0000      -0.382057       -10.3963
  33   0.0000       0.119199         3.2436
  34   0.0000       0.137419         3.7394
  35   0.0000       0.146183         3.9778
  36   0.0000       0.157612         4.2888
  37   0.0000       0.170152         4.6301

MULLIKEN ATOMIC CHARGES
-----------------------
   0 C :   -0.435752
   1 C :   -0.061409
   2 C :   -0.189783
   3 N :   -0.176199
   4 C :   -0.154189
   5 C :   -0.288880
   6 C :    0.307028
   7 C :   -0.268436
   8 N :   -0.043320
   9 H :    0.123800
  10 H :    0.146389
  11 H :    0.148017
  12 H :    0.130489
  13 H :    0.125483
  14 H :    0.112905
  15 H :    0.129732
  16 H :    0.117162
  17 H :    0.148173
  18 H :    0.128790
Sum of atomic charges:   -0.0000000

LOEWDIN ATOMIC CHARGES
----------------------
   0 C :   -0.292815
   1 C :   -0.206960
   2 C :   -0.218348
   3 N :    0.122808
   4 C :   -0.244535
   5 C :   -0.182358
   6 C :   -0.223052
   7 C :   -0.148768
   8 N :    0.071315
   9 H :    0.121799
  10 H :    0.131140
  11 H :    0.131216
  12 H :    0.161534
  13 H :    0.125866
  14 H :    0.124908
  15 H :    0.129415
  16 H :    0.121455
  17 H :    0.140775
  18 H :    0.134605

  Mayer bond orders larger than 0.1
B(  0-C ,  1-C ) :   0.8926 B(  0-C ,  9-H ) :   0.9379 B(  0-C , 10-H ) :   0.9351
B(  0-C , 11-H ) :   0.9322 B(  1-C ,  2-C ) :   0.9545 B(  1-C ,  6-C ) :   0.8900
B(  1-C , 12-H ) :   0.9150 B(  2-C ,  3-N ) :   0.9120 B(  2-C , 13-H ) :   0.9136
B(  2-C , 14-H ) :   0.9286 B(  3-N ,  4-C ) :   0.8980 B(  3-N ,  6-C ) :   0.9166
B(  4-C ,  5-C ) :   0.9613 B(  4-C , 15-H ) :   0.9212 B(  4-C , 16-H ) :   0.9347
B(  5-C ,  6-C ) :   0.8668 B(  5-C , 17-H ) :   0.9182 B(  5-C , 18-H ) :   0.9122
B(  6-C ,  7-C ) :   0.9019 B(  7-C ,  8-N ) :   2.8833

MP2 TOTAL ENERGY:     -381.362669629 Eh
FINAL SINGLE POINT ENERGY      -381.362669628613

DIPOLE MOMENT
-------------
                                X             Y             Z
Electronic contribution:     -3.57134      -5.27210       5.79186
Nuclear contribution   :      4.61813       6.31200      -7.02337
                        -----------------------------------------
Total Dipole Moment    :      1.04680       1.03989      -1.23151
                        -----------------------------------------
Magnitude (a.u.)       :      1.92192
Magnitude (Debye)      :      4.88513

                             ****ORCA TERMINATED NORMALLY****
TOTAL RUN TIME: 0 days 0 hours 24 minutes 56 seconds 264 msec
