                         Program Version 3.0.3 - RELEASE   -
|  1> ! RI-MP2 RIJK def2-TZVP def2-TZVP/C def2-TZVP/JK TIGHTSCF
|  2> % maxcore 2000
|  3> % mp2 density relaxed end
|  4> *xyz 0 1
|  5>  C       -0.2074309457     1.6094220100     0.1060894073
|  6>  C       -0.0296994312     0.0889508942    -0.0178522922
|  7>  C       -1.3888915369    -0.6105513586     0.0658891313
|  8>  C        0.6611629175    -0.3030912690    -1.3394945406
|  9>  N        1.9880557824     0.2223594193    -1.6245560777
| 10>  C        2.9528073703     0.1431367791    -0.8177522131
| 11>  O        3.0034132414    -0.3011797473     0.4708034232
| 12>  C        1.9525109031     0.0649943157     1.3696336524
| 13>  O        0.7100444949    -0.4688719346     1.0914667265
| 14>  H        0.7140626633     2.1625983492    -0.0877829191
| 15>  H       -0.9456406275     1.9463829671    -0.6273360491
| 16>  H       -0.5741643415     1.8701703568     1.1034112262
| 17>  H       -2.0271269270    -0.3236470341    -0.7743961458
| 18>  H       -1.2579688232    -1.6958989965     0.0539326159
| 19>  H       -1.8962030752    -0.3386851104     0.9955268562
| 20>  H        0.7208946695    -1.3999390979    -1.3637636320
| 21>  H        0.0069488552    -0.0015611981    -2.1648675443
| 22>  H        3.9541028396     0.4138798110    -1.1552167813
| 23>  H        2.2635841527    -0.3498638184     2.3298145233
| 24>  H        1.9273146882     1.1611074525     1.4215004928
| 25> *
| 26>
| 27>                          ****END OF INPUT****

CARTESIAN COORDINATES (ANGSTROEM)
---------------------------------
  C     -0.207431    1.609422    0.106089
  C     -0.029699    0.088951   -0.017852
  C     -1.388892   -0.610551    0.065889
  C      0.661163   -0.303091   -1.339495
  N      1.988056    0.222359   -1.624556
  C      2.952807    0.143137   -0.817752
  O      3.003413   -0.301180    0.470803
  C      1.952511    0.064994    1.369634
  O      0.710044   -0.468872    1.091467
  H      0.714063    2.162598   -0.087783
  H     -0.945641    1.946383   -0.627336
  H     -0.574164    1.870170    1.103411
  H     -2.027127   -0.323647   -0.774396
  H     -1.257969   -1.695899    0.053933
  H     -1.896203   -0.338685    0.995527
  H      0.720895   -1.399939   -1.363764
  H      0.006949   -0.001561   -2.164868
  H      3.954103    0.413880   -1.155217
  H      2.263584   -0.349864    2.329815
  H      1.927315    1.161107    1.421500

 Total Charge           Charge          ....    0
 Multiplicity           Mult            ....    1
 Number of Electrons    NEL             ....   70
 Basis Dimension        Dim             ....  345

ORBITAL ENERGIES
----------------

  NO   OCC          E(Eh)            E(eV)
   0   2.0000     -20.590221      -560.2884
   1   2.0000     -20.569623      -559.7279
   2   2.0000     -15.548921      -423.1077
   3   2.0000     -11.343292      -308.6667
   4   2.0000     -11.332509      -308.3733
   5   2.0000     -11.298611      -307.4508
   6   2.0000     -11.255580      -306.2799
   7   2.0000     -11.224129      -305.4241
   8   2.0000     -11.220315      -305.3203
   9   2.0000      -1.440826       -39.2069
  10   2.0000      -1.375254       -37.4226
  11   2.0000      -1.220568       -33.2133
  12   2.0000      -1.077485       -29.3199
  13   2.0000      -0.975554       -26.5462
  14   2.0000      -0.953677       -25.9509
  15   2.0000      -0.923375       -25.1263
  16   2.0000      -0.791195       -21.5295
  17   2.0000      -0.783030       -21.3073
  18   2.0000      -0.718218       -19.5437
  19   2.0000      -0.706950       -19.2371
  20   2.0000      -0.667515       -18.1640
  21   2.0000      -0.639535       -17.4026
  22   2.0000      -0.613612       -16.6972
  23   2.0000      -0.611910       -16.6509
  24   2.0000      -0.575966       -15.6728
  25   2.0000      -0.560942       -15.2640
  26   2.0000      -0.545448       -14.8424
  27   2.0000      -0.542061       -14.7502
  28   2.0000      -0.526583       -14.3291
  29   2.0000      -0.513943       -13.9851
  30   2.0000      -0.502482       -13.6732
  31   2.0000      -0.469121       -12.7654
  32   2.0000      -0.454124       -12.3573
  33   2.0000      -0.406222       -11.0539
  34   2.0000      -0.390189       -10.6176
  35   0.0000       0.134168         3.6509
  36   0.0000       0.143515         3.9052
  37   0.0000       0.173776         4.7287
  38   0.0000       0.185688         5.0528
  39   0.0000       0.187040         5.0896

MULLIKEN ATOMIC CHARGES
-----------------------
   0 C :   -0.448580
   1 C :    0.144339
   2 C :   -0.374842
   3 C :   -0.095618
   4 N :   -0.259918
   5 C :    0.069109
   6 O :   -0.269826
   7 C :    0.047352
   8 O :   -0.282376
   9 H :    0.149636
  10 H :    0.139772
  11 H :    0.146216
  12 H :    0.126500
  13 H :    0.140896
  14 H :    0.137516
  15 H :    0.126756
  16 H :    0.124467
  17 H :    0.129085
  18 H :    0.139295
  19 H :    0.110222
Sum of atomic charges:   -0.0000000

LOEWDIN ATOMIC CHARGES
----------------------
   0 C :   -0.275746
   1 C :   -0.392025
   2 C :   -0.265586
   3 C :   -0.259769
   4 N :    0.081887
   5 C :   -0.364678
   6 O :    0.202815
   7 C :   -0.383162
   8 O :    0.212994
   9 H :    0.125714
  10 H :    0.134924
  11 H :    0.130194
  12 H :    0.128425
  13 H :    0.130148
  14 H :    0.129954
  15 H :    0.147817
  16 H :    0.142145
  17 H :    0.131209
  18 H :    0.127858
  19 H :    0.114882

  Mayer bond orders larger than 0.1
B(  0-C ,  1-C ) :   0.9235 B(  0-C ,  9-H ) :   0.9227 B(  0-C , 10-H ) :   0.9270
B(  0-C , 11-H ) :   0.9376 B(  1-C ,  2-C ) :   0.9021 B(  1-C ,  3-C ) :   0.9204
B(  1-C ,  8-O ) :   0.8897 B(  2-C , 12-H ) :   0.9306 B(  2-C , 13-H ) :   0.9352
B(  2-C , 14-H ) :   0.9368 B(  3-C ,  4-N ) :   0.8973 B(  3-C , 15-H ) :   0.9128
B(  3-C , 16-H ) :   0.9283 B(  4-N ,  5-C ) :   1.8680 B(  5-C ,  6-O ) :   1.0365
B(  5-C , 17-H ) :   0.9319 B(  6-O ,  7-C ) :   0.8931 B(  7-C ,  8-O ) :   1.0310
B(  7-C , 18-H ) :   0.9302 B(  7-C , 19-H ) :   0.9396

MP2 TOTAL ENERGY:     -439.570955936 Eh
FINAL SINGLE POINT ENERGY      -439.570955936058

DIPOLE MOMENT
-------------
                                X             Y             Z
Electronic contribution:      7.78606      -2.35849       0.14314
Nuclear contribution   :     -8.25017       2.72501       0.21384
                        -----------------------------------------
Total Dipole Moment    :     -0.46411       0.36652       0.35698
                        -----------------------------------------
Magnitude (a.u.)       :      0.69077
Magnitude (Debye)      :      1.75581

                             ****ORCA TERMINATED NORMALLY****
TOTAL RUN TIME: 0 days 0 hours 19 minutes 57 seconds 749 msec
