                         Program Version 3.0.3 - RELEASE   -
|  1> ! RI-MP2 RIJK def2-TZVP def2-TZVP/C def2-TZVP/JK TIGHTSCF
|  2> % maxcore 2000
|  3> % mp2 density relaxed end
|  4> *xyz 0 1
|  5>  C       -0.0758781173     1.4058263380     0.0465308245
|  6>  O       -0.0409880835    -0.0002346326     0.0861026209
|  7>  C       -1.3153783529    -0.6366297596     0.0509504327
|  8>  C       -1.8967426513    -0.6390953677    -1.3650201864
|  9>  C       -1.0961964096    -2.0556949061     0.6125753726
| 10>  C       -0.6210711794    -2.0529077755     2.0934646987
| 11>  C       -1.8509146044    -2.4668755202     2.9447629526
| 12>  C       -2.7832254038    -3.0757891742     1.9255964276
| 13>  C       -2.3717306033    -2.8694505480     0.6758508033
| 14>  H        0.9508550640     1.7569215324     0.1803537830
| 15>  H       -0.4521096836     1.7983787266    -0.9097803140
| 16>  H       -0.6989061627     1.8209860717     0.8548107961
| 17>  H       -2.0047110813    -0.0967080137     0.7235437610
| 18>  H       -2.8960272752    -1.0832146162    -1.3752406475
| 19>  H       -1.9856734839     0.3766129789    -1.7605962491
| 20>  H       -1.2522455724    -1.2121359204    -2.0398989632
| 21>  H       -0.3469701441    -2.5257811196    -0.0378068403
| 22>  H        0.1750748605    -2.7921809724     2.2190589262
| 23>  H       -0.2029770168    -1.0855817136     2.3777111351
| 24>  H       -1.5853496256    -3.1695478921     3.7431707577
| 25>  H       -2.3238507045    -1.6096531079     3.4443346845
| 26>  H       -3.6890220220    -3.6047090566     2.2032694638
| 27>  H       -2.8906819470    -3.2128877712    -0.2121726997
| 28> *
| 29>
| 30>                          ****END OF INPUT****

CARTESIAN COORDINATES (ANGSTROEM)
---------------------------------
  C     -0.075878    1.405826    0.046531
  O     -0.040988   -0.000235    0.086103
  C     -1.315378   -0.636630    0.050950
  C     -1.896743   -0.639095   -1.365020
  C     -1.096196   -2.055695    0.612575
  C     -0.621071   -2.052908    2.093465
  C     -1.850915   -2.466876    2.944763
  C     -2.783225   -3.075789    1.925596
  C     -2.371731   -2.869451    0.675851
  H      0.950855    1.756922    0.180354
  H     -0.452110    1.798379   -0.909780
  H     -0.698906    1.820986    0.854811
  H     -2.004711   -0.096708    0.723544
  H     -2.896027   -1.083215   -1.375241
  H     -1.985673    0.376613   -1.760596
  H     -1.252246   -1.212136   -2.039899
  H     -0.346970   -2.525781   -0.037807
  H      0.175075   -2.792181    2.219059
  H     -0.202977   -1.085582    2.377711
  H     -1.585350   -3.169548    3.743171
  H     -2.323851   -1.609653    3.444335
  H     -3.689022   -3.604709    2.203269
  H     -2.890682   -3.212888   -0.212173

 Total Charge           Charge          ....    0
 Multiplicity           Mult            ....    1
 Number of Electrons    NEL             ....   70
 Basis Dimension        Dim             ....  363

ORBITAL ENERGIES
----------------

  NO   OCC          E(Eh)            E(eV)
   0   2.0000     -20.547705      -559.1315
   1   2.0000     -11.275471      -306.8212
   2   2.0000     -11.267295      -306.5987
   3   2.0000     -11.222618      -305.3830
   4   2.0000     -11.221614      -305.3556
   5   2.0000     -11.219259      -305.2916
   6   2.0000     -11.217553      -305.2451
   7   2.0000     -11.212513      -305.1080
   8   2.0000     -11.211222      -305.0729
   9   2.0000      -1.368824       -37.2476
  10   2.0000      -1.131573       -30.7917
  11   2.0000      -1.033031       -28.1102
  12   2.0000      -0.962057       -26.1789
  13   2.0000      -0.942964       -25.6594
  14   2.0000      -0.919054       -25.0087
  15   2.0000      -0.819906       -22.3108
  16   2.0000      -0.767963       -20.8973
  17   2.0000      -0.722474       -19.6595
  18   2.0000      -0.679178       -18.4814
  19   2.0000      -0.663754       -18.0617
  20   2.0000      -0.631048       -17.1717
  21   2.0000      -0.626859       -17.0577
  22   2.0000      -0.600675       -16.3452
  23   2.0000      -0.567795       -15.4505
  24   2.0000      -0.548463       -14.9244
  25   2.0000      -0.533860       -14.5271
  26   2.0000      -0.526152       -14.3173
  27   2.0000      -0.504947       -13.7403
  28   2.0000      -0.484839       -13.1931
  29   2.0000      -0.483499       -13.1567
  30   2.0000      -0.475723       -12.9451
  31   2.0000      -0.459972       -12.5165
  32   2.0000      -0.454418       -12.3653
  33   2.0000      -0.414994       -11.2926
  34   2.0000      -0.341925        -9.3043
  35   0.0000       0.136255         3.7077
  36   0.0000       0.156024         4.2456
  37   0.0000       0.159189         4.3318
  38   0.0000       0.166148         4.5211
  39   0.0000       0.174899         4.7592

MULLIKEN ATOMIC CHARGES
-----------------------
   0 C :   -0.220821
   1 O :   -0.307273
   2 C :    0.052118
   3 C :   -0.419084
   4 C :    0.080647
   5 C :   -0.270139
   6 C :   -0.185850
   7 C :   -0.163186
   8 C :   -0.233592
   9 H :    0.139518
  10 H :    0.109673
  11 H :    0.110719
  12 H :    0.072667
  13 H :    0.134151
  14 H :    0.129820
  15 H :    0.132290
  16 H :    0.098833
  17 H :    0.117982
  18 H :    0.135719
  19 H :    0.118832
  20 H :    0.110920
  21 H :    0.124630
  22 H :    0.131426
Sum of atomic charges:    0.0000000

LOEWDIN ATOMIC CHARGES
----------------------
   0 C :   -0.365186
   1 O :    0.157188
   2 C :   -0.325501
   3 C :   -0.294952
   4 C :   -0.212811
   5 C :   -0.211507
   6 C :   -0.245451
   7 C :   -0.159357
   8 C :   -0.147103
   9 H :    0.113626
  10 H :    0.099784
  11 H :    0.100898
  12 H :    0.138175
  13 H :    0.126538
  14 H :    0.121404
  15 H :    0.127168
  16 H :    0.156066
  17 H :    0.138058
  18 H :    0.137594
  19 H :    0.135775
  20 H :    0.137219
  21 H :    0.135093
  22 H :    0.137284

  Mayer bond orders larger than 0.1
B(  0-C ,  1-O ) :   0.9183 B(  0-C ,  9-H ) :   0.9409 B(  0-C , 10-H ) :   0.9328
B(  0-C , 11-H ) :   0.9367 B(  1-O ,  2-C ) :   0.9358 B(  2-C ,  3-C ) :   0.9052
B(  2-C ,  4-C ) :   0.9024 B(  2-C , 12-H ) :   0.9293 B(  3-C , 13-H ) :   0.9337
B(  3-C , 14-H ) :   0.9362 B(  3-C , 15-H ) :   0.9363 B(  4-C ,  5-C ) :   0.8851
B(  4-C ,  8-C ) :   0.8897 B(  4-C , 16-H ) :   0.9227 B(  5-C ,  6-C ) :   0.9562
B(  5-C , 17-H ) :   0.9331 B(  5-C , 18-H ) :   0.9397 B(  6-C ,  7-C ) :   0.9318
B(  6-C , 19-H ) :   0.9300 B(  6-C , 20-H ) :   0.9105 B(  7-C ,  8-C ) :   1.7853
B(  7-C , 21-H ) :   0.9272 B(  8-C , 22-H ) :   0.9243

MP2 TOTAL ENERGY:     -387.614153035 Eh
FINAL SINGLE POINT ENERGY      -387.614153034571

DIPOLE MOMENT
-------------
                                X             Y             Z
Electronic contribution:      0.56354      -3.02100       1.05611
Nuclear contribution   :     -0.89917       3.31014      -1.04294
                        -----------------------------------------
Total Dipole Moment    :     -0.33563       0.28914       0.01317
                        -----------------------------------------
Magnitude (a.u.)       :      0.44320
Magnitude (Debye)      :      1.12652

                             ****ORCA TERMINATED NORMALLY****
TOTAL RUN TIME: 0 days 0 hours 19 minutes 9 seconds 39 msec
