                         Program Version 3.0.3 - RELEASE   -
|  1> ! RI-MP2 RIJK def2-TZVP def2-TZVP/C def2-TZVP/JK TIGHTSCF
|  2> % maxcore 2000
|  3> % mp2 density relaxed end
|  4> *xyz 0 1
|  5>  C       -0.2455825515     1.6311936286    -0.0104512456
|  6>  C       -0.2464291851     0.1698921791     0.3722925280
|  7>  C       -1.2404030043    -0.7789056358    -0.1409657015
|  8>  O        0.0888866702    -0.7598327872    -0.6653892808
|  9>  C        1.1671992493     2.1579188614    -0.1677622339
| 10>  C        1.5563053178     3.6258110000    -0.2241055857
| 11>  C        0.7646974488     4.4227074695     0.8067101208
| 12>  O        1.1055218462     3.4809652800     1.8603635400
| 13>  C        1.9535773550     2.7629571198     0.9559258438
| 14>  H       -0.8019896089     1.7559171862    -0.9466383485
| 15>  H       -0.7668171482     2.1970496355     0.7689247004
| 16>  H        0.2237183598    -0.0580476079     1.3305738343
| 17>  H       -1.5027069691    -1.6619729883     0.4402618670
| 18>  H       -2.0155590071    -0.4261110397    -0.8207106648
| 19>  H        1.7883241830     1.5593550865    -0.8316382544
| 20>  H        2.1520004267     4.0459656897    -1.0231496427
| 21>  H        1.2015388432     5.4044359717     1.0206593912
| 22>  H       -0.3182042469     4.5246093761     0.6677876004
| 23>  H        2.9095919310     2.4163506350     1.3318677319
| 24> *
| 25>
| 26>                          ****END OF INPUT****

CARTESIAN COORDINATES (ANGSTROEM)
---------------------------------
  C     -0.245583    1.631194   -0.010451
  C     -0.246429    0.169892    0.372293
  C     -1.240403   -0.778906   -0.140966
  O      0.088887   -0.759833   -0.665389
  C      1.167199    2.157919   -0.167762
  C      1.556305    3.625811   -0.224106
  C      0.764697    4.422707    0.806710
  O      1.105522    3.480965    1.860364
  C      1.953577    2.762957    0.955926
  H     -0.801990    1.755917   -0.946638
  H     -0.766817    2.197050    0.768925
  H      0.223718   -0.058048    1.330574
  H     -1.502707   -1.661973    0.440262
  H     -2.015559   -0.426111   -0.820711
  H      1.788324    1.559355   -0.831638
  H      2.152000    4.045966   -1.023150
  H      1.201539    5.404436    1.020659
  H     -0.318204    4.524609    0.667788
  H      2.909592    2.416351    1.331868

 Total Charge           Charge          ....    0
 Multiplicity           Mult            ....    1
 Number of Electrons    NEL             ....   68
 Basis Dimension        Dim             ....  339

ORBITAL ENERGIES
----------------

  NO   OCC          E(Eh)            E(eV)
   0   2.0000     -20.563888      -559.5718
   1   2.0000     -20.556774      -559.3782
   2   2.0000     -11.289615      -307.2060
   3   2.0000     -11.287449      -307.1471
   4   2.0000     -11.284693      -307.0721
   5   2.0000     -11.280223      -306.9505
   6   2.0000     -11.241776      -305.9043
   7   2.0000     -11.240564      -305.8713
   8   2.0000     -11.231139      -305.6148
   9   2.0000      -1.406933       -38.2846
  10   2.0000      -1.394130       -37.9362
  11   2.0000      -1.129558       -30.7368
  12   2.0000      -1.018213       -27.7070
  13   2.0000      -0.950368       -25.8608
  14   2.0000      -0.911714       -24.8090
  15   2.0000      -0.831315       -22.6212
  16   2.0000      -0.777928       -21.1685
  17   2.0000      -0.758047       -20.6275
  18   2.0000      -0.721123       -19.6228
  19   2.0000      -0.691110       -18.8061
  20   2.0000      -0.654417       -17.8076
  21   2.0000      -0.643033       -17.4978
  22   2.0000      -0.623125       -16.9561
  23   2.0000      -0.584659       -15.9094
  24   2.0000      -0.558530       -15.1984
  25   2.0000      -0.536657       -14.6032
  26   2.0000      -0.533990       -14.5306
  27   2.0000      -0.510496       -13.8913
  28   2.0000      -0.494321       -13.4512
  29   2.0000      -0.479545       -13.0491
  30   2.0000      -0.451326       -12.2812
  31   2.0000      -0.437801       -11.9132
  32   2.0000      -0.397392       -10.8136
  33   2.0000      -0.380138       -10.3441
  34   0.0000       0.150703         4.1008
  35   0.0000       0.157461         4.2847
  36   0.0000       0.162642         4.4257
  37   0.0000       0.174322         4.7435
  38   0.0000       0.183215         4.9855

MULLIKEN ATOMIC CHARGES
-----------------------
   0 C :   -0.226642
   1 C :    0.025643
   2 C :   -0.069662
   3 O :   -0.342160
   4 C :   -0.119518
   5 C :   -0.200153
   6 C :   -0.025620
   7 O :   -0.347450
   8 C :    0.044852
   9 H :    0.125777
  10 H :    0.135723
  11 H :    0.130782
  12 H :    0.115427
  13 H :    0.112498
  14 H :    0.137080
  15 H :    0.142279
  16 H :    0.115854
  17 H :    0.109900
  18 H :    0.135388
Sum of atomic charges:   -0.0000000

LOEWDIN ATOMIC CHARGES
----------------------
   0 C :   -0.228749
   1 C :   -0.285868
   2 C :   -0.268370
   3 O :    0.136157
   4 C :   -0.193806
   5 C :   -0.183209
   6 C :   -0.245874
   7 O :    0.139316
   8 C :   -0.228529
   9 H :    0.148514
  10 H :    0.155204
  11 H :    0.140269
  12 H :    0.118576
  13 H :    0.119242
  14 H :    0.166767
  15 H :    0.137003
  16 H :    0.125655
  17 H :    0.117202
  18 H :    0.130501

  Mayer bond orders larger than 0.1
B(  0-C ,  1-C ) :   0.9410 B(  0-C ,  4-C ) :   0.8989 B(  0-C ,  9-H ) :   0.9259
B(  0-C , 10-H ) :   0.9203 B(  1-C ,  2-C ) :   0.9830 B(  1-C ,  3-O ) :   0.8574
B(  1-C , 11-H ) :   0.9180 B(  2-C ,  3-O ) :   0.9198 B(  2-C , 12-H ) :   0.9210
B(  2-C , 13-H ) :   0.9072 B(  4-C ,  5-C ) :   0.8591 B(  4-C ,  8-C ) :   0.8875
B(  4-C , 14-H ) :   0.9284 B(  5-C ,  6-C ) :   0.9631 B(  5-C ,  8-C ) :   0.8910
B(  5-C , 15-H ) :   0.9187 B(  6-C ,  7-O ) :   0.9059 B(  6-C , 16-H ) :   0.9172
B(  6-C , 17-H ) :   0.9231 B(  7-O ,  8-C ) :   0.9307 B(  8-C , 18-H ) :   0.9213

MP2 TOTAL ENERGY:     -422.239044594 Eh
FINAL SINGLE POINT ENERGY      -422.239044594420

DIPOLE MOMENT
-------------
                                X             Y             Z
Electronic contribution:      2.00959      -0.86378       0.95436
Nuclear contribution   :     -2.25499       1.30580      -1.16236
                        -----------------------------------------
Total Dipole Moment    :     -0.24540       0.44202      -0.20800
                        -----------------------------------------
Magnitude (a.u.)       :      0.54668
Magnitude (Debye)      :      1.38956

                             ****ORCA TERMINATED NORMALLY****
TOTAL RUN TIME: 0 days 0 hours 15 minutes 58 seconds 655 msec
