                         Program Version 3.0.3 - RELEASE   -
|  1> ! RI-MP2 RIJK def2-TZVP def2-TZVP/C def2-TZVP/JK TIGHTSCF
|  2> % maxcore 2000
|  3> % mp2 density relaxed end
|  4> *xyz 0 1
|  5>  C        0.1452367833     1.4918121802     0.0519005409
|  6>  C       -0.0716870987    -0.0114603294    -0.1062860937
|  7>  C       -1.5375160626    -0.4192892905    -0.0138370236
|  8>  O       -2.4402219984     0.3779232293     0.0072599472
|  9>  C       -1.7792179277    -1.9273747254     0.0516685959
| 10>  O       -3.1474809474    -2.2039971553    -0.0095680674
| 11>  C       -3.4200215214    -3.5904198329     0.0778175726
| 12>  C       -4.8560617944    -3.8207883906     0.0053960156
| 13>  C       -6.0342627004    -4.0434599543    -0.0518243144
| 14>  H        1.2031354519     1.7437571576    -0.0610550197
| 15>  H       -0.4281891866     2.0450935982    -0.6951882371
| 16>  H       -0.1879857188     1.8335858985     1.0354719887
| 17>  H        0.3027464135    -0.3591168758    -1.0799334192
| 18>  H        0.5004475547    -0.5803477385     0.6391261761
| 19>  H       -1.2233141240    -2.4141763743    -0.7707326719
| 20>  H       -1.3271682177    -2.3030895903     0.9890946029
| 21>  H       -2.9151166455    -4.1357352509    -0.7384414639
| 22>  H       -3.0246330361    -4.0021129375     1.0226564899
| 23>  H       -7.0786943838    -4.2288795581    -0.1029429789
| 24> *
| 25>
| 26>                          ****END OF INPUT****

CARTESIAN COORDINATES (ANGSTROEM)
---------------------------------
  C      0.145237    1.491812    0.051901
  C     -0.071687   -0.011460   -0.106286
  C     -1.537516   -0.419289   -0.013837
  O     -2.440222    0.377923    0.007260
  C     -1.779218   -1.927375    0.051669
  O     -3.147481   -2.203997   -0.009568
  C     -3.420022   -3.590420    0.077818
  C     -4.856062   -3.820788    0.005396
  C     -6.034263   -4.043460   -0.051824
  H      1.203135    1.743757   -0.061055
  H     -0.428189    2.045094   -0.695188
  H     -0.187986    1.833586    1.035472
  H      0.302746   -0.359117   -1.079933
  H      0.500448   -0.580348    0.639126
  H     -1.223314   -2.414176   -0.770733
  H     -1.327168   -2.303090    0.989095
  H     -2.915117   -4.135735   -0.738441
  H     -3.024633   -4.002113    1.022656
  H     -7.078694   -4.228880   -0.102943

 Total Charge           Charge          ....    0
 Multiplicity           Mult            ....    1
 Number of Electrons    NEL             ....   68
 Basis Dimension        Dim             ....  339

ORBITAL ENERGIES
----------------

  NO   OCC          E(Eh)            E(eV)
   0   2.0000     -20.576711      -559.9208
   1   2.0000     -20.547082      -559.1145
   2   2.0000     -11.331977      -308.3588
   3   2.0000     -11.316752      -307.9445
   4   2.0000     -11.302234      -307.5494
   5   2.0000     -11.246132      -306.0228
   6   2.0000     -11.237275      -305.7818
   7   2.0000     -11.229562      -305.5719
   8   2.0000     -11.221417      -305.3503
   9   2.0000      -1.410623       -38.3850
  10   2.0000      -1.383471       -37.6462
  11   2.0000      -1.073206       -29.2034
  12   2.0000      -1.056705       -28.7544
  13   2.0000      -0.995883       -27.0994
  14   2.0000      -0.935721       -25.4623
  15   2.0000      -0.869624       -23.6637
  16   2.0000      -0.755505       -20.5583
  17   2.0000      -0.726851       -19.7786
  18   2.0000      -0.697745       -18.9866
  19   2.0000      -0.690621       -18.7927
  20   2.0000      -0.681858       -18.5543
  21   2.0000      -0.637063       -17.3354
  22   2.0000      -0.631425       -17.1819
  23   2.0000      -0.611831       -16.6488
  24   2.0000      -0.591670       -16.1002
  25   2.0000      -0.536753       -14.6058
  26   2.0000      -0.523134       -14.2352
  27   2.0000      -0.517265       -14.0755
  28   2.0000      -0.515567       -14.0293
  29   2.0000      -0.490443       -13.3456
  30   2.0000      -0.452111       -12.3026
  31   2.0000      -0.414742       -11.2857
  32   2.0000      -0.400742       -10.9048
  33   2.0000      -0.390925       -10.6376
  34   0.0000       0.115987         3.1562
  35   0.0000       0.136961         3.7269
  36   0.0000       0.144340         3.9277
  37   0.0000       0.162887         4.4324
  38   0.0000       0.169925         4.6239

MULLIKEN ATOMIC CHARGES
-----------------------
   0 C :   -0.369584
   1 C :   -0.257890
   2 C :    0.195605
   3 O :   -0.260289
   4 C :   -0.086056
   5 O :   -0.240009
   6 C :   -0.219789
   7 C :   -0.032581
   8 C :   -0.069437
   9 H :    0.132993
  10 H :    0.141228
  11 H :    0.131595
  12 H :    0.134406
  13 H :    0.129009
  14 H :    0.113014
  15 H :    0.113519
  16 H :    0.123989
  17 H :    0.125012
  18 H :    0.195267
Sum of atomic charges:    0.0000000

LOEWDIN ATOMIC CHARGES
----------------------
   0 C :   -0.310057
   1 C :   -0.271422
   2 C :   -0.329099
   3 O :    0.176684
   4 C :   -0.313342
   5 O :    0.192423
   6 C :   -0.308399
   7 C :   -0.102102
   8 C :   -0.081523
   9 H :    0.121497
  10 H :    0.128961
  11 H :    0.126755
  12 H :    0.151607
  13 H :    0.147400
  14 H :    0.132344
  15 H :    0.133440
  16 H :    0.138102
  17 H :    0.138266
  18 H :    0.128464

  Mayer bond orders larger than 0.1
B(  0-C ,  1-C ) :   0.9341 B(  0-C ,  9-H ) :   0.9390 B(  0-C , 10-H ) :   0.9344
B(  0-C , 11-H ) :   0.9376 B(  1-C ,  2-C ) :   0.9040 B(  1-C , 12-H ) :   0.9015
B(  1-C , 13-H ) :   0.9183 B(  2-C ,  3-O ) :   2.0215 B(  2-C ,  4-C ) :   0.9257
B(  4-C ,  5-O ) :   0.9701 B(  4-C , 14-H ) :   0.9063 B(  4-C , 15-H ) :   0.9081
B(  5-O ,  6-C ) :   0.9865 B(  6-C ,  7-C ) :   1.1378 B(  6-C ,  8-C ) :  -0.1112
B(  6-C , 16-H ) :   0.9174 B(  6-C , 17-H ) :   0.9178 B(  7-C ,  8-C ) :   2.6228
B(  8-C , 18-H ) :   0.8942

MP2 TOTAL ENERGY:     -422.268212030 Eh
FINAL SINGLE POINT ENERGY      -422.268212030185

DIPOLE MOMENT
-------------
                                X             Y             Z
Electronic contribution:     -8.90161      -3.39284      -0.17120
Nuclear contribution   :     10.07921       2.49075       0.19486
                        -----------------------------------------
Total Dipole Moment    :      1.17760      -0.90208       0.02367
                        -----------------------------------------
Magnitude (a.u.)       :      1.48360
Magnitude (Debye)      :      3.77101

                             ****ORCA TERMINATED NORMALLY****
TOTAL RUN TIME: 0 days 0 hours 14 minutes 8 seconds 353 msec
