                         Program Version 3.0.3 - RELEASE   -
|  1> ! RI-MP2 RIJK def2-TZVP def2-TZVP/C def2-TZVP/JK TIGHTSCF
|  2> % maxcore 2000
|  3> % mp2 density relaxed end
|  4> *xyz 0 1
|  5>  O       -0.1262527824     1.4402183615     0.0490550185
|  6>  C       -0.0342693002     0.0281491556    -0.0361311394
|  7>  C        0.7210224073    -0.6326411896     1.1495467108
|  8>  C       -0.0147859641    -1.9501454527     1.3583424014
|  9>  O        0.4529071725    -3.0224852142     1.6711283028
| 10>  C       -1.4279869750    -1.7926058763     0.9172262056
| 11>  O       -2.1379584335    -2.9556765331     0.7084978911
| 12>  C       -2.1477676995    -0.5259594611     1.3134721422
| 13>  C       -1.4336127976    -0.5711264105    -0.0087970435
| 14>  H        0.7541401271     1.8085849024    -0.0778399780
| 15>  H        0.4548159184    -0.2669139134    -0.9762846805
| 16>  H        1.7833155156    -0.8045116987     0.9667984460
| 17>  H        0.6266501144    -0.0031614290     2.0418717043
| 18>  H       -1.5185728919    -3.6694413082     0.9257859956
| 19>  H       -3.2273290360    -0.6191540147     1.2738825693
| 20>  H       -1.7734975493     0.1029813623     2.1137052283
| 21>  H       -2.0223047858    -0.5779849703    -0.9179684944
| 22> *
| 23>
| 24>                          ****END OF INPUT****

CARTESIAN COORDINATES (ANGSTROEM)
---------------------------------
  O     -0.126253    1.440218    0.049055
  C     -0.034269    0.028149   -0.036131
  C      0.721022   -0.632641    1.149547
  C     -0.014786   -1.950145    1.358342
  O      0.452907   -3.022485    1.671128
  C     -1.427987   -1.792606    0.917226
  O     -2.137958   -2.955677    0.708498
  C     -2.147768   -0.525959    1.313472
  C     -1.433613   -0.571126   -0.008797
  H      0.754140    1.808585   -0.077840
  H      0.454816   -0.266914   -0.976285
  H      1.783316   -0.804512    0.966798
  H      0.626650   -0.003161    2.041872
  H     -1.518573   -3.669441    0.925786
  H     -3.227329   -0.619154    1.273883
  H     -1.773498    0.102981    2.113705
  H     -2.022305   -0.577985   -0.917968

 Total Charge           Charge          ....    0
 Multiplicity           Mult            ....    1
 Number of Electrons    NEL             ....   68
 Basis Dimension        Dim             ....  327

ORBITAL ENERGIES
----------------

  NO   OCC          E(Eh)            E(eV)
   0   2.0000     -20.574331      -559.8560
   1   2.0000     -20.570978      -559.7648
   2   2.0000     -20.561308      -559.5016
   3   2.0000     -11.344500      -308.6995
   4   2.0000     -11.309889      -307.7577
   5   2.0000     -11.305143      -307.6286
   6   2.0000     -11.252089      -306.1849
   7   2.0000     -11.251779      -306.1765
   8   2.0000     -11.246728      -306.0390
   9   2.0000      -1.415426       -38.5157
  10   2.0000      -1.381792       -37.6005
  11   2.0000      -1.377119       -37.4733
  12   2.0000      -1.183633       -32.2083
  13   2.0000      -1.044792       -28.4302
  14   2.0000      -0.938855       -25.5475
  15   2.0000      -0.878384       -23.9020
  16   2.0000      -0.792735       -21.5714
  17   2.0000      -0.770883       -20.9768
  18   2.0000      -0.719488       -19.5783
  19   2.0000      -0.715683       -19.4747
  20   2.0000      -0.673054       -18.3147
  21   2.0000      -0.643688       -17.5156
  22   2.0000      -0.629463       -17.1285
  23   2.0000      -0.615865       -16.7585
  24   2.0000      -0.596844       -16.2410
  25   2.0000      -0.578989       -15.7551
  26   2.0000      -0.561491       -15.2789
  27   2.0000      -0.548560       -14.9271
  28   2.0000      -0.520325       -14.1588
  29   2.0000      -0.502684       -13.6787
  30   2.0000      -0.480301       -13.0697
  31   2.0000      -0.446214       -12.1421
  32   2.0000      -0.418164       -11.3788
  33   2.0000      -0.390004       -10.6125
  34   0.0000       0.120794         3.2870
  35   0.0000       0.128215         3.4889
  36   0.0000       0.149410         4.0656
  37   0.0000       0.161737         4.4011
  38   0.0000       0.174498         4.7483

MULLIKEN ATOMIC CHARGES
-----------------------
   0 O :   -0.444852
   1 C :   -0.011471
   2 C :   -0.222621
   3 C :    0.132806
   4 O :   -0.308239
   5 C :    0.160787
   6 O :   -0.451746
   7 C :   -0.294039
   8 C :   -0.043718
   9 H :    0.315924
  10 H :    0.097129
  11 H :    0.142878
  12 H :    0.148863
  13 H :    0.341043
  14 H :    0.146840
  15 H :    0.143524
  16 H :    0.146893
Sum of atomic charges:    0.0000000

LOEWDIN ATOMIC CHARGES
----------------------
   0 O :   -0.012695
   1 C :   -0.317733
   2 C :   -0.197498
   3 C :   -0.294555
   4 O :    0.139547
   5 C :   -0.315806
   6 O :    0.043243
   7 C :   -0.160694
   8 C :   -0.143478
   9 H :    0.175878
  10 H :    0.141027
  11 H :    0.146119
  12 H :    0.156967
  13 H :    0.196361
  14 H :    0.150732
  15 H :    0.139985
  16 H :    0.152599

  Mayer bond orders larger than 0.1
B(  0-O ,  1-C ) :   1.0780 B(  0-O ,  9-H ) :   0.8443 B(  1-C ,  2-C ) :   0.8971
B(  1-C ,  8-C ) :   0.8863 B(  1-C , 10-H ) :   0.9478 B(  2-C ,  3-C ) :   0.8966
B(  2-C , 11-H ) :   0.9055 B(  2-C , 12-H ) :   0.9011 B(  3-C ,  4-O ) :   1.9266
B(  3-C ,  5-C ) :   0.9502 B(  5-C ,  6-O ) :   1.1167 B(  5-C ,  7-C ) :   0.8745
B(  5-C ,  8-C ) :   0.7532 B(  6-O , 13-H ) :   0.8043 B(  7-C ,  8-C ) :   0.8722
B(  7-C , 14-H ) :   0.9215 B(  7-C , 15-H ) :   0.8934 B(  8-C , 16-H ) :   0.9117

MP2 TOTAL ENERGY:     -458.244362564 Eh
FINAL SINGLE POINT ENERGY      -458.244362564184

DIPOLE MOMENT
-------------
                                X             Y             Z
Electronic contribution:      0.17567      -3.74419       0.58443
Nuclear contribution   :      0.42448       4.52296      -0.87412
                        -----------------------------------------
Total Dipole Moment    :      0.60014       0.77877      -0.28969
                        -----------------------------------------
Magnitude (a.u.)       :      1.02497
Magnitude (Debye)      :      2.60527

                             ****ORCA TERMINATED NORMALLY****
TOTAL RUN TIME: 0 days 0 hours 16 minutes 51 seconds 416 msec
