                         Program Version 3.0.3 - RELEASE   -
|  1> ! RI-MP2 RIJK def2-TZVP def2-TZVP/C def2-TZVP/JK TIGHTSCF
|  2> % maxcore 2000
|  3> % mp2 density relaxed end
|  4> *xyz 0 1
|  5>  N        0.1440799179     0.9089537944    -1.0859663520
|  6>  C       -0.0169239889     0.1890981626    -0.0498173137
|  7>  O        0.9158000029     0.1415347239     0.9576465008
|  8>  N        1.4680078579    -1.2614404410     1.2926713784
|  9>  N        0.7110259515    -1.9889830567     1.8741735438
| 10>  C       -0.6585072950    -1.6918974164     2.2642856862
| 11>  N       -1.0262958908    -1.9505969937     3.4489777044
| 12>  C       -1.5919979205    -1.2763055102     1.2148178835
| 13>  C       -1.2914477424    -0.5040689052     0.1638146491
| 14>  H        1.0736896775     1.3341676263    -1.0702949949
| 15>  H       -0.2500822684    -2.3153808561     4.0060708493
| 16>  H       -2.5999110934    -1.6545197209     1.3482696895
| 17>  H       -2.0428359382    -0.2889110370    -0.5872468845
| 18> *
| 19>
| 20>                          ****END OF INPUT****

CARTESIAN COORDINATES (ANGSTROEM)
---------------------------------
  N      0.144080    0.908954   -1.085966
  C     -0.016924    0.189098   -0.049817
  O      0.915800    0.141535    0.957647
  N      1.468008   -1.261440    1.292671
  N      0.711026   -1.988983    1.874174
  C     -0.658507   -1.691897    2.264286
  N     -1.026296   -1.950597    3.448978
  C     -1.591998   -1.276306    1.214818
  C     -1.291448   -0.504069    0.163815
  H      1.073690    1.334168   -1.070295
  H     -0.250082   -2.315381    4.006071
  H     -2.599911   -1.654520    1.348270
  H     -2.042836   -0.288911   -0.587247

 Total Charge           Charge          ....    0
 Multiplicity           Mult            ....    1
 Number of Electrons    NEL             ....   64
 Basis Dimension        Dim             ....  303

ORBITAL ENERGIES
----------------

  NO   OCC          E(Eh)            E(eV)
   0   2.0000     -20.625690      -561.2536
   1   2.0000     -15.754169      -428.6927
   2   2.0000     -15.687412      -426.8762
   3   2.0000     -15.598565      -424.4585
   4   2.0000     -15.567935      -423.6251
   5   2.0000     -11.369315      -309.3748
   6   2.0000     -11.360922      -309.1464
   7   2.0000     -11.285527      -307.0948
   8   2.0000     -11.283669      -307.0442
   9   2.0000      -1.492752       -40.6198
  10   2.0000      -1.379937       -37.5500
  11   2.0000      -1.269769       -34.5522
  12   2.0000      -1.212203       -32.9857
  13   2.0000      -1.112087       -30.2614
  14   2.0000      -0.988999       -26.9120
  15   2.0000      -0.932731       -25.3809
  16   2.0000      -0.817978       -22.2583
  17   2.0000      -0.808396       -21.9976
  18   2.0000      -0.731475       -19.9045
  19   2.0000      -0.710663       -19.3381
  20   2.0000      -0.691474       -18.8160
  21   2.0000      -0.648180       -17.6379
  22   2.0000      -0.636684       -17.3251
  23   2.0000      -0.619359       -16.8536
  24   2.0000      -0.579172       -15.7601
  25   2.0000      -0.543055       -14.7773
  26   2.0000      -0.504766       -13.7354
  27   2.0000      -0.503421       -13.6988
  28   2.0000      -0.486009       -13.2250
  29   2.0000      -0.455201       -12.3867
  30   2.0000      -0.438737       -11.9387
  31   2.0000      -0.377668       -10.2769
  32   0.0000       0.029162         0.7935
  33   0.0000       0.091103         2.4790
  34   0.0000       0.141715         3.8563
  35   0.0000       0.147324         4.0089
  36   0.0000       0.164459         4.4752

MULLIKEN ATOMIC CHARGES
-----------------------
   0 N :   -0.336689
   1 C :    0.157893
   2 O :   -0.261109
   3 N :    0.073845
   4 N :   -0.054469
   5 C :    0.136306
   6 N :   -0.297140
   7 C :   -0.092559
   8 C :   -0.124242
   9 H :    0.234309
  10 H :    0.239871
  11 H :    0.164246
  12 H :    0.159739
Sum of atomic charges:    0.0000000

LOEWDIN ATOMIC CHARGES
----------------------
   0 N :   -0.011114
   1 C :   -0.439154
   2 O :    0.107269
   3 N :    0.072619
   4 N :    0.098943
   5 C :   -0.332649
   6 N :    0.028370
   7 C :   -0.110716
   8 C :   -0.097382
   9 H :    0.172648
  10 H :    0.176587
  11 H :    0.167130
  12 H :    0.167449

  Mayer bond orders larger than 0.1
B(  0-N ,  1-C ) :   1.9589 B(  0-N ,  9-H ) :   0.8548 B(  1-C ,  2-O ) :   1.0649
B(  1-C ,  8-C ) :   0.9860 B(  2-O ,  3-N ) :   0.6288 B(  3-N ,  4-N ) :   1.7714
B(  4-N ,  5-C ) :   0.8978 B(  5-C ,  6-N ) :   1.9661 B(  5-C ,  7-C ) :   0.9637
B(  6-N , 10-H ) :   0.8480 B(  7-C ,  8-C ) :   1.6818 B(  7-C , 11-H ) :   0.9170
B(  8-C , 12-H ) :   0.9185

MP2 TOTAL ENERGY:     -448.102915181 Eh
FINAL SINGLE POINT ENERGY      -448.102915181457

DIPOLE MOMENT
-------------
                                X             Y             Z
Electronic contribution:      2.93037      -0.77934       0.99034
Nuclear contribution   :     -3.14160       0.29539      -0.75173
                        -----------------------------------------
Total Dipole Moment    :     -0.21123      -0.48395       0.23861
                        -----------------------------------------
Magnitude (a.u.)       :      0.57945
Magnitude (Debye)      :      1.47284

                             ****ORCA TERMINATED NORMALLY****
TOTAL RUN TIME: 0 days 0 hours 15 minutes 23 seconds 426 msec
