                         Program Version 3.0.3 - RELEASE   -
|  1> ! RI-MP2 RIJK def2-TZVP def2-TZVP/C def2-TZVP/JK TIGHTSCF
|  2> % maxcore 2000
|  3> % mp2 density relaxed end
|  4> *xyz 0 1
|  5>  C        0.0853030718     1.4710975157     0.0592261087
|  6>  C       -0.0083555929    -0.0153459889    -0.0201847107
|  7>  N       -0.2225761608    -0.7171083770    -1.1194961460
|  8>  C       -0.1970268413    -2.0302928309    -0.7359082834
|  9>  C        0.0220514150    -2.1438675696     0.6167910952
| 10>  N        0.1257926135    -0.8329184470     1.0630867353
| 11>  C        0.1058510238    -3.3374374472     1.4672236736
| 12>  N       -0.0164492137    -3.0967044649     2.8326020366
| 13>  O        0.3072399660    -4.4498031725     1.0201403959
| 14>  H        1.0700848231     1.7977503407     0.4127592667
| 15>  H       -0.0766036022     1.8827794131    -0.9373193164
| 16>  H       -0.6664075354     1.8912034129     0.7368543769
| 17>  H       -0.3526549661    -2.8366197308    -1.4354748202
| 18>  H        0.4196544380    -0.5537938832     1.9849165638
| 19>  H       -0.6560082859    -2.3704685898     3.1210564082
| 20>  H       -0.0893407229    -3.9459478507     3.3763678159
| 21> *
| 22>
| 23>                          ****END OF INPUT****

CARTESIAN COORDINATES (ANGSTROEM)
---------------------------------
  C      0.085303    1.471098    0.059226
  C     -0.008356   -0.015346   -0.020185
  N     -0.222576   -0.717108   -1.119496
  C     -0.197027   -2.030293   -0.735908
  C      0.022051   -2.143868    0.616791
  N      0.125793   -0.832918    1.063087
  C      0.105851   -3.337437    1.467224
  N     -0.016449   -3.096704    2.832602
  O      0.307240   -4.449803    1.020140
  H      1.070085    1.797750    0.412759
  H     -0.076604    1.882779   -0.937319
  H     -0.666408    1.891203    0.736854
  H     -0.352655   -2.836620   -1.435475
  H      0.419654   -0.553794    1.984917
  H     -0.656008   -2.370469    3.121056
  H     -0.089341   -3.945948    3.376368

 Total Charge           Charge          ....    0
 Multiplicity           Mult            ....    1
 Number of Electrons    NEL             ....   66
 Basis Dimension        Dim             ....  321

ORBITAL ENERGIES
----------------

  NO   OCC          E(Eh)            E(eV)
   0   2.0000     -20.525574      -558.5293
   1   2.0000     -15.630296      -425.3220
   2   2.0000     -15.590001      -424.2255
   3   2.0000     -15.552092      -423.1939
   4   2.0000     -11.364533      -309.2447
   5   2.0000     -11.320743      -308.0531
   6   2.0000     -11.267388      -306.6012
   7   2.0000     -11.262431      -306.4663
   8   2.0000     -11.250500      -306.1417
   9   2.0000      -1.390394       -37.8346
  10   2.0000      -1.353321       -36.8257
  11   2.0000      -1.217503       -33.1299
  12   2.0000      -1.177499       -32.0414
  13   2.0000      -1.065818       -29.0024
  14   2.0000      -0.975291       -26.5390
  15   2.0000      -0.868791       -23.6410
  16   2.0000      -0.830122       -22.5888
  17   2.0000      -0.780681       -21.2434
  18   2.0000      -0.749351       -20.3909
  19   2.0000      -0.698996       -19.0206
  20   2.0000      -0.655289       -17.8313
  21   2.0000      -0.638883       -17.3849
  22   2.0000      -0.618652       -16.8344
  23   2.0000      -0.604536       -16.4503
  24   2.0000      -0.585967       -15.9450
  25   2.0000      -0.576306       -15.6821
  26   2.0000      -0.557457       -15.1692
  27   2.0000      -0.552638       -15.0380
  28   2.0000      -0.453794       -12.3484
  29   2.0000      -0.440683       -11.9916
  30   2.0000      -0.428911       -11.6713
  31   2.0000      -0.414783       -11.2868
  32   2.0000      -0.326496        -8.8844
  33   0.0000       0.104007         2.8302
  34   0.0000       0.109068         2.9679
  35   0.0000       0.138242         3.7618
  36   0.0000       0.167046         4.5456
  37   0.0000       0.181744         4.9455

MULLIKEN ATOMIC CHARGES
-----------------------
   0 C :   -0.453111
   1 C :    0.243292
   2 N :   -0.275560
   3 C :   -0.110970
   4 C :    0.126044
   5 N :   -0.321460
   6 C :    0.240281
   7 N :   -0.510758
   8 O :   -0.324546
   9 H :    0.146139
  10 H :    0.171781
  11 H :    0.144532
  12 H :    0.152782
  13 H :    0.256231
  14 H :    0.252479
  15 H :    0.262846
Sum of atomic charges:    0.0000000

LOEWDIN ATOMIC CHARGES
----------------------
   0 C :   -0.275898
   1 C :   -0.333946
   2 N :    0.115416
   3 C :   -0.198322
   4 C :   -0.211446
   5 N :    0.214451
   6 C :   -0.453539
   7 N :   -0.056549
   8 O :    0.107457
   9 H :    0.132986
  10 H :    0.145772
  11 H :    0.131998
  12 H :    0.143179
  13 H :    0.196121
  14 H :    0.166802
  15 H :    0.175517

  Mayer bond orders larger than 0.1
B(  0-C ,  1-C ) :   0.8556 B(  0-C ,  9-H ) :   0.9329 B(  0-C , 10-H ) :   0.9503
B(  0-C , 11-H ) :   0.9333 B(  1-C ,  2-N ) :   1.5566 B(  1-C ,  5-N ) :   1.1738
B(  2-N ,  3-C ) :   1.2962 B(  3-C ,  4-C ) :   1.4629 B(  3-C , 12-H ) :   0.9346
B(  4-C ,  5-N ) :   1.0572 B(  4-C ,  6-C ) :   0.9025 B(  5-N , 13-H ) :   0.8568
B(  6-C ,  7-N ) :   1.1094 B(  6-C ,  8-O ) :   2.0340 B(  7-N , 14-H ) :   0.8668
B(  7-N , 15-H ) :   0.8651

MP2 TOTAL ENERGY:     -433.426220757 Eh
FINAL SINGLE POINT ENERGY      -433.426220757290

DIPOLE MOMENT
-------------
                                X             Y             Z
Electronic contribution:      0.20968      -5.97127      -0.87354
Nuclear contribution   :     -0.48750       7.27101       2.66505
                        -----------------------------------------
Total Dipole Moment    :     -0.27782       1.29974       1.79151
                        -----------------------------------------
Magnitude (a.u.)       :      2.23069
Magnitude (Debye)      :      5.66997

                             ****ORCA TERMINATED NORMALLY****
TOTAL RUN TIME: 0 days 0 hours 15 minutes 42 seconds 87 msec
