                         Program Version 3.0.3 - RELEASE   -
|  1> ! RI-MP2 RIJK def2-TZVP def2-TZVP/C def2-TZVP/JK TIGHTSCF
|  2> % maxcore 2000
|  3> % mp2 density relaxed end
|  4> *xyz 0 1
|  5>  C       -3.5773687925     0.1379052553     1.5348923796
|  6>  O       -2.9060829048    -1.0317013265     1.1221158560
|  7>  C       -2.0191925184    -0.8073400967     0.0504024220
|  8>  C       -1.2640540596    -2.0954196760    -0.2099892408
|  9>  C       -0.3613204350    -2.5700439288     0.9159414016
| 10>  C        0.8545808125    -1.6752782480     1.0768561103
| 11>  O        1.2230611973    -1.2029191598     2.1211750713
| 12>  C       -1.7969316609    -3.0458651812    -1.1941533682
| 13>  O       -0.7025046699    -2.1840576527    -1.5261859777
| 14>  H       -4.2255486902    -0.1369308027     2.3698937256
| 15>  H       -2.8717530980     0.9136118592     1.8694047286
| 16>  H       -4.1953673283     0.5585556737     0.7264926307
| 17>  H       -2.5541558007    -0.5070730668    -0.8641848854
| 18>  H       -1.3100316130     0.0021227928     0.2970410326
| 19>  H       -0.9111745774    -2.6045291316     1.8592388181
| 20>  H        0.0055299649    -3.5767368538     0.6788934194
| 21>  H        1.4073920854    -1.4871379052     0.1298674786
| 22>  H       -1.5497630192    -4.1026342205    -1.1088355988
| 23>  H       -2.7338632519    -2.8255142506    -1.7025907635
| 24> *
| 25>
| 26>                          ****END OF INPUT****

CARTESIAN COORDINATES (ANGSTROEM)
---------------------------------
  C     -3.577369    0.137905    1.534892
  O     -2.906083   -1.031701    1.122116
  C     -2.019193   -0.807340    0.050402
  C     -1.264054   -2.095420   -0.209989
  C     -0.361320   -2.570044    0.915941
  C      0.854581   -1.675278    1.076856
  O      1.223061   -1.202919    2.121175
  C     -1.796932   -3.045865   -1.194153
  O     -0.702505   -2.184058   -1.526186
  H     -4.225549   -0.136931    2.369894
  H     -2.871753    0.913612    1.869405
  H     -4.195367    0.558556    0.726493
  H     -2.554156   -0.507073   -0.864185
  H     -1.310032    0.002123    0.297041
  H     -0.911175   -2.604529    1.859239
  H      0.005530   -3.576737    0.678893
  H      1.407392   -1.487138    0.129867
  H     -1.549763   -4.102634   -1.108836
  H     -2.733863   -2.825514   -1.702591

 Total Charge           Charge          ....    0
 Multiplicity           Mult            ....    1
 Number of Electrons    NEL             ....   70
 Basis Dimension        Dim             ....  339

ORBITAL ENERGIES
----------------

  NO   OCC          E(Eh)            E(eV)
   0   2.0000     -20.583103      -560.0947
   1   2.0000     -20.571736      -559.7854
   2   2.0000     -20.558402      -559.4226
   3   2.0000     -11.332507      -308.3732
   4   2.0000     -11.309804      -307.7554
   5   2.0000     -11.295758      -307.3732
   6   2.0000     -11.294165      -307.3299
   7   2.0000     -11.281529      -306.9860
   8   2.0000     -11.247217      -306.0523
   9   2.0000      -1.429248       -38.8918
  10   2.0000      -1.396674       -38.0054
  11   2.0000      -1.391589       -37.8671
  12   2.0000      -1.069378       -29.0992
  13   2.0000      -0.995167       -27.0799
  14   2.0000      -0.929802       -25.3012
  15   2.0000      -0.903255       -24.5788
  16   2.0000      -0.823410       -22.4061
  17   2.0000      -0.779889       -21.2218
  18   2.0000      -0.714073       -19.4309
  19   2.0000      -0.693788       -18.8789
  20   2.0000      -0.670084       -18.2339
  21   2.0000      -0.666237       -18.1292
  22   2.0000      -0.646155       -17.5828
  23   2.0000      -0.629115       -17.1191
  24   2.0000      -0.612475       -16.6663
  25   2.0000      -0.589967       -16.0538
  26   2.0000      -0.560114       -15.2415
  27   2.0000      -0.539924       -14.6921
  28   2.0000      -0.531470       -14.4620
  29   2.0000      -0.509507       -13.8644
  30   2.0000      -0.498136       -13.5550
  31   2.0000      -0.469185       -12.7672
  32   2.0000      -0.455637       -12.3985
  33   2.0000      -0.439476       -11.9588
  34   2.0000      -0.412151       -11.2152
  35   0.0000       0.128193         3.4883
  36   0.0000       0.137524         3.7422
  37   0.0000       0.156710         4.2643
  38   0.0000       0.171846         4.6762
  39   0.0000       0.173713         4.7270

MULLIKEN ATOMIC CHARGES
-----------------------
   0 C :   -0.222252
   1 O :   -0.308848
   2 C :   -0.106083
   3 C :    0.186397
   4 C :   -0.147135
   5 C :    0.053565
   6 O :   -0.260241
   7 C :   -0.081300
   8 O :   -0.343138
   9 H :    0.143232
  10 H :    0.121958
  11 H :    0.114498
  12 H :    0.114237
  13 H :    0.116465
  14 H :    0.143564
  15 H :    0.131282
  16 H :    0.102425
  17 H :    0.118916
  18 H :    0.122457
Sum of atomic charges:    0.0000000

LOEWDIN ATOMIC CHARGES
----------------------
   0 C :   -0.354150
   1 O :    0.142269
   2 C :   -0.285711
   3 C :   -0.329157
   4 C :   -0.217567
   5 C :   -0.288110
   6 O :    0.133262
   7 C :   -0.233654
   8 O :    0.166615
   9 H :    0.115219
  10 H :    0.104811
  11 H :    0.103083
  12 H :    0.130905
  13 H :    0.129752
  14 H :    0.158080
  15 H :    0.160327
  16 H :    0.116371
  17 H :    0.122897
  18 H :    0.124761

  Mayer bond orders larger than 0.1
B(  0-C ,  1-O ) :   0.9097 B(  0-C ,  9-H ) :   0.9386 B(  0-C , 10-H ) :   0.9379
B(  0-C , 11-H ) :   0.9366 B(  1-O ,  2-C ) :   0.9512 B(  2-C ,  3-C ) :   0.9508
B(  2-C , 12-H ) :   0.9121 B(  2-C , 13-H ) :   0.9235 B(  3-C ,  4-C ) :   0.8815
B(  3-C ,  7-C ) :   0.9645 B(  3-C ,  8-O ) :   0.8247 B(  4-C ,  5-C ) :   0.8703
B(  4-C , 14-H ) :   0.9066 B(  4-C , 15-H ) :   0.9078 B(  5-C ,  6-O ) :   1.9961
B(  5-C , 16-H ) :   0.9383 B(  7-C ,  8-O ) :   0.9056 B(  7-C , 17-H ) :   0.9033
B(  7-C , 18-H ) :   0.9130

MP2 TOTAL ENERGY:     -459.393003631 Eh
FINAL SINGLE POINT ENERGY      -459.393003630873

DIPOLE MOMENT
-------------
                                X             Y             Z
Electronic contribution:      5.57899      -2.08545      -0.27157
Nuclear contribution   :     -6.55366       1.89305      -0.17411
                        -----------------------------------------
Total Dipole Moment    :     -0.97467      -0.19240      -0.44568
                        -----------------------------------------
Magnitude (a.u.)       :      1.08887
Magnitude (Debye)      :      2.76768

                             ****ORCA TERMINATED NORMALLY****
TOTAL RUN TIME: 0 days 0 hours 17 minutes 29 seconds 260 msec
