                         Program Version 3.0.3 - RELEASE   -
|  1> ! RI-MP2 RIJK def2-TZVP def2-TZVP/C def2-TZVP/JK TIGHTSCF
|  2> % maxcore 2000
|  3> % mp2 density relaxed end
|  4> *xyz 0 1
|  5>  C       -0.0068855676     1.5292008097     0.1888023663
|  6>  N        1.5118004880     1.3082307946     0.1341271016
|  7>  C        1.2052894560     0.0560435206     0.9946648723
|  8>  C        0.0796215873    -0.0014517875    -0.0770051431
|  9>  C       -0.9487320578    -0.8870660737    -0.7822574308
| 10>  C       -0.7346972247    -0.4577259176    -2.2504664139
| 11>  N       -0.8609389706     0.9913148662    -2.4758803317
| 12>  C        0.4974304530     0.4152728218    -2.4054672260
| 13>  C        1.1882694765     0.3288008665    -1.0605707139
| 14>  H       -0.3519986446     1.8395749495     1.1801980004
| 15>  H       -0.3918732672     2.1750171214    -0.5933276560
| 16>  H        1.9864393979    -0.7091494300     0.9630041935
| 17>  H        0.9347017284     0.3161561185     2.0212619744
| 18>  H       -0.7190102414    -1.9533617677    -0.6758578451
| 19>  H       -1.9794975748    -0.7227428442    -0.4544223161
| 20>  H       -1.0413214529    -1.1311565784    -3.0452791766
| 21>  H       -1.0848681312     1.1676893312    -3.4517025454
| 22>  H        1.0843164602     0.3763974358    -3.3178132174
| 23>  H        2.0043656457    -0.3967427564    -1.1604983925
| 24> *
| 25>
| 26>                          ****END OF INPUT****

CARTESIAN COORDINATES (ANGSTROEM)
---------------------------------
  C     -0.006886    1.529201    0.188802
  N      1.511800    1.308231    0.134127
  C      1.205289    0.056044    0.994665
  C      0.079622   -0.001452   -0.077005
  C     -0.948732   -0.887066   -0.782257
  C     -0.734697   -0.457726   -2.250466
  N     -0.860939    0.991315   -2.475880
  C      0.497430    0.415273   -2.405467
  C      1.188269    0.328801   -1.060571
  H     -0.351999    1.839575    1.180198
  H     -0.391873    2.175017   -0.593328
  H      1.986439   -0.709149    0.963004
  H      0.934702    0.316156    2.021262
  H     -0.719010   -1.953362   -0.675858
  H     -1.979498   -0.722743   -0.454422
  H     -1.041321   -1.131157   -3.045279
  H     -1.084868    1.167689   -3.451703
  H      1.084316    0.376397   -3.317813
  H      2.004366   -0.396743   -1.160498

 Total Charge           Charge          ....    0
 Multiplicity           Mult            ....    1
 Number of Electrons    NEL             ....   66
 Basis Dimension        Dim             ....  339

ORBITAL ENERGIES
----------------

  NO   OCC          E(Eh)            E(eV)
   0   2.0000     -15.565392      -423.5558
   1   2.0000     -15.564231      -423.5243
   2   2.0000     -11.269861      -306.6685
   3   2.0000     -11.268425      -306.6294
   4   2.0000     -11.259880      -306.3969
   5   2.0000     -11.254474      -306.2498
   6   2.0000     -11.240250      -305.8627
   7   2.0000     -11.239586      -305.8447
   8   2.0000     -11.233547      -305.6804
   9   2.0000      -1.296372       -35.2761
  10   2.0000      -1.257135       -34.2084
  11   2.0000      -1.035053       -28.1652
  12   2.0000      -0.961250       -26.1569
  13   2.0000      -0.910533       -24.7769
  14   2.0000      -0.885380       -24.0924
  15   2.0000      -0.844157       -22.9707
  16   2.0000      -0.780077       -21.2270
  17   2.0000      -0.726747       -19.7758
  18   2.0000      -0.714537       -19.4435
  19   2.0000      -0.625044       -17.0083
  20   2.0000      -0.618316       -16.8252
  21   2.0000      -0.609352       -16.5813
  22   2.0000      -0.588764       -16.0211
  23   2.0000      -0.549658       -14.9569
  24   2.0000      -0.510412       -13.8890
  25   2.0000      -0.502364       -13.6700
  26   2.0000      -0.486142       -13.2286
  27   2.0000      -0.476078       -12.9547
  28   2.0000      -0.457409       -12.4467
  29   2.0000      -0.443890       -12.0789
  30   2.0000      -0.423975       -11.5369
  31   2.0000      -0.375756       -10.2248
  32   2.0000      -0.351474        -9.5641
  33   0.0000       0.131352         3.5743
  34   0.0000       0.151323         4.1177
  35   0.0000       0.165995         4.5170
  36   0.0000       0.174150         4.7389
  37   0.0000       0.192005         5.2247

MULLIKEN ATOMIC CHARGES
-----------------------
   0 C :   -0.169581
   1 N :   -0.188143
   2 C :   -0.112251
   3 C :   -0.014393
   4 C :   -0.186079
   5 C :   -0.049388
   6 N :   -0.385503
   7 C :   -0.107313
   8 C :   -0.057896
   9 H :    0.101753
  10 H :    0.146396
  11 H :    0.108849
  12 H :    0.115965
  13 H :    0.111555
  14 H :    0.118241
  15 H :    0.129748
  16 H :    0.219295
  17 H :    0.133193
  18 H :    0.085551
Sum of atomic charges:   -0.0000000

LOEWDIN ATOMIC CHARGES
----------------------
   0 C :   -0.203422
   1 N :    0.095288
   2 C :   -0.206099
   3 C :   -0.215802
   4 C :   -0.206217
   5 C :   -0.224854
   6 N :    0.008737
   7 C :   -0.225657
   8 C :   -0.193450
   9 H :    0.120663
  10 H :    0.130226
  11 H :    0.122580
  12 H :    0.123997
  13 H :    0.143857
  14 H :    0.142343
  15 H :    0.132182
  16 H :    0.170382
  17 H :    0.135370
  18 H :    0.149875

  Mayer bond orders larger than 0.1
B(  0-C ,  1-N ) :   0.9225 B(  0-C ,  3-C ) :   0.9517 B(  0-C ,  9-H ) :   0.9266
B(  0-C , 10-H ) :   0.9087 B(  1-N ,  2-C ) :   0.9368 B(  1-N ,  8-C ) :   0.9002
B(  2-C ,  3-C ) :   0.9219 B(  2-C , 11-H ) :   0.9195 B(  2-C , 12-H ) :   0.9217
B(  3-C ,  4-C ) :   0.9029 B(  3-C ,  8-C ) :   0.9348 B(  4-C ,  5-C ) :   0.9419
B(  4-C , 13-H ) :   0.9101 B(  4-C , 14-H ) :   0.8972 B(  5-C ,  6-N ) :   0.9276
B(  5-C ,  7-C ) :   0.8743 B(  5-C , 15-H ) :   0.9247 B(  6-N ,  7-C ) :   0.9261
B(  6-N , 16-H ) :   0.8678 B(  7-C ,  8-C ) :   0.9353 B(  7-C , 17-H ) :   0.9335
B(  8-C , 18-H ) :   0.9369

MP2 TOTAL ENERGY:     -381.276150215 Eh
FINAL SINGLE POINT ENERGY      -381.276150215426

DIPOLE MOMENT
-------------
                                X             Y             Z
Electronic contribution:      1.00853       1.60968      -0.79411
Nuclear contribution   :     -1.49981      -2.54380       0.14293
                        -----------------------------------------
Total Dipole Moment    :     -0.49128      -0.93412      -0.65118
                        -----------------------------------------
Magnitude (a.u.)       :      1.24015
Magnitude (Debye)      :      3.15221

                             ****ORCA TERMINATED NORMALLY****
TOTAL RUN TIME: 0 days 0 hours 20 minutes 26 seconds 319 msec
