                         Program Version 3.0.3 - RELEASE   -
|  1> ! RI-MP2 RIJK def2-TZVP def2-TZVP/C def2-TZVP/JK TIGHTSCF
|  2> % maxcore 2000
|  3> % mp2 density relaxed end
|  4> *xyz 0 1
|  5>  C        0.1390581464     1.6102515264     0.0255659104
|  6>  C        0.0611550056     0.0970259400    -0.0102240788
|  7>  O       -1.2776153169    -0.3748452590     0.1401650605
|  8>  C        0.6704143391    -0.7235822455    -1.1869439355
|  9>  C        2.0302911989    -0.2528165726    -1.7143520155
| 10>  O        2.7380121364    -0.9351108850    -0.6470842185
| 11>  C        1.5221580162    -1.5748606391    -0.1868879308
| 12>  C        0.9386584282    -0.7434492365     0.9731062000
| 13>  O        1.0293611382    -0.7568800097     2.1654435113
| 14>  H        1.1614185257     1.9703434964    -0.1184766581
| 15>  H       -0.5049707321     2.0437552198    -0.7457662454
| 16>  H       -0.1990851808     1.9732073620     1.0024270326
| 17>  H       -1.5523172927    -0.1816415410     1.0449415207
| 18>  H       -0.0617726026    -1.1352497987    -1.8766654561
| 19>  H        2.2967641368    -0.6771008077    -2.6899477795
| 20>  H        2.2314320505     0.8234031080    -1.7269643496
| 21>  H        1.5953768532    -2.6630796178    -0.1276025276
| 22> *
| 23>
| 24>                          ****END OF INPUT****

CARTESIAN COORDINATES (ANGSTROEM)
---------------------------------
  C      0.139058    1.610252    0.025566
  C      0.061155    0.097026   -0.010224
  O     -1.277615   -0.374845    0.140165
  C      0.670414   -0.723582   -1.186944
  C      2.030291   -0.252817   -1.714352
  O      2.738012   -0.935111   -0.647084
  C      1.522158   -1.574861   -0.186888
  C      0.938658   -0.743449    0.973106
  O      1.029361   -0.756880    2.165444
  H      1.161419    1.970343   -0.118477
  H     -0.504971    2.043755   -0.745766
  H     -0.199085    1.973207    1.002427
  H     -1.552317   -0.181642    1.044942
  H     -0.061773   -1.135250   -1.876665
  H      2.296764   -0.677101   -2.689948
  H      2.231432    0.823403   -1.726964
  H      1.595377   -2.663080   -0.127603

 Total Charge           Charge          ....    0
 Multiplicity           Mult            ....    1
 Number of Electrons    NEL             ....   68
 Basis Dimension        Dim             ....  327

ORBITAL ENERGIES
----------------

  NO   OCC          E(Eh)            E(eV)
   0   2.0000     -20.581641      -560.0549
   1   2.0000     -20.573793      -559.8414
   2   2.0000     -20.571414      -559.7766
   3   2.0000     -11.340088      -308.5795
   4   2.0000     -11.314305      -307.8779
   5   2.0000     -11.307123      -307.6825
   6   2.0000     -11.299249      -307.4682
   7   2.0000     -11.255673      -306.2824
   8   2.0000     -11.237645      -305.7919
   9   2.0000      -1.420592       -38.6563
  10   2.0000      -1.396516       -38.0011
  11   2.0000      -1.383809       -37.6554
  12   2.0000      -1.116372       -30.3780
  13   2.0000      -1.003377       -27.3033
  14   2.0000      -0.979443       -26.6520
  15   2.0000      -0.863298       -23.4915
  16   2.0000      -0.826594       -22.4928
  17   2.0000      -0.742640       -20.2083
  18   2.0000      -0.705998       -19.2112
  19   2.0000      -0.699194       -19.0260
  20   2.0000      -0.667528       -18.1644
  21   2.0000      -0.659833       -17.9550
  22   2.0000      -0.621836       -16.9210
  23   2.0000      -0.608852       -16.5677
  24   2.0000      -0.601794       -16.3757
  25   2.0000      -0.577463       -15.7136
  26   2.0000      -0.563725       -15.3397
  27   2.0000      -0.531206       -14.4549
  28   2.0000      -0.515874       -14.0376
  29   2.0000      -0.502124       -13.6635
  30   2.0000      -0.487446       -13.2641
  31   2.0000      -0.455894       -12.4055
  32   2.0000      -0.447516       -12.1775
  33   2.0000      -0.389335       -10.5944
  34   0.0000       0.110483         3.0064
  35   0.0000       0.130942         3.5631
  36   0.0000       0.152536         4.1507
  37   0.0000       0.164296         4.4707
  38   0.0000       0.180036         4.8990

MULLIKEN ATOMIC CHARGES
-----------------------
   0 C :   -0.413765
   1 C :    0.276515
   2 O :   -0.466939
   3 C :   -0.131133
   4 C :   -0.053889
   5 O :   -0.328269
   6 C :    0.093876
   7 C :    0.013341
   8 O :   -0.237201
   9 H :    0.135553
  10 H :    0.147422
  11 H :    0.138859
  12 H :    0.328494
  13 H :    0.145940
  14 H :    0.111295
  15 H :    0.109038
  16 H :    0.130863
Sum of atomic charges:    0.0000000

LOEWDIN ATOMIC CHARGES
----------------------
   0 C :   -0.272760
   1 C :   -0.335910
   2 O :    0.022967
   3 C :   -0.151259
   4 C :   -0.243041
   5 O :    0.144234
   6 C :   -0.190910
   7 C :   -0.259742
   8 O :    0.180713
   9 H :    0.131928
  10 H :    0.133407
  11 H :    0.133697
  12 H :    0.185036
  13 H :    0.146440
  14 H :    0.123951
  15 H :    0.119401
  16 H :    0.131848

  Mayer bond orders larger than 0.1
B(  0-C ,  1-C ) :   0.9048 B(  0-C ,  9-H ) :   0.9271 B(  0-C , 10-H ) :   0.9384
B(  0-C , 11-H ) :   0.9175 B(  1-C ,  2-O ) :   0.8978 B(  1-C ,  3-C ) :   0.8735
B(  1-C ,  6-C ) :  -0.1297 B(  1-C ,  7-C ) :   0.8157 B(  2-O , 12-H ) :   0.8324
B(  3-C ,  4-C ) :   0.9585 B(  3-C ,  6-C ) :   0.9498 B(  3-C , 13-H ) :   0.9054
B(  4-C ,  5-O ) :   0.9223 B(  4-C , 14-H ) :   0.9223 B(  4-C , 15-H ) :   0.9102
B(  5-O ,  6-C ) :   0.9008 B(  6-C ,  7-C ) :   0.8282 B(  6-C , 16-H ) :   0.9110
B(  7-C ,  8-O ) :   2.0409

MP2 TOTAL ENERGY:     -458.194064524 Eh
FINAL SINGLE POINT ENERGY      -458.194064524460

DIPOLE MOMENT
-------------
                                X             Y             Z
Electronic contribution:      1.25759      -4.51765       3.85635
Nuclear contribution   :     -1.74028       4.93396      -4.65605
                        -----------------------------------------
Total Dipole Moment    :     -0.48269       0.41631      -0.79970
                        -----------------------------------------
Magnitude (a.u.)       :      1.02265
Magnitude (Debye)      :      2.59937

                             ****ORCA TERMINATED NORMALLY****
TOTAL RUN TIME: 0 days 0 hours 20 minutes 0 seconds 847 msec
