                         Program Version 3.0.3 - RELEASE   -
|  1> ! RI-MP2 RIJK def2-TZVP def2-TZVP/C def2-TZVP/JK TIGHTSCF
|  2> % maxcore 2000
|  3> % mp2 density relaxed end
|  4> *xyz 0 1
|  5>  O        0.0306673203     1.2617095851    -0.0179251721
|  6>  N        0.0551484535    -0.1364869334    -0.0382505374
|  7>  C       -1.0990577780    -0.6726062942     0.0267356807
|  8>  C       -2.4381219441     0.0083137558     0.0663522185
|  9>  C       -3.3339198576    -0.5899027656    -1.0376716474
| 10>  O       -3.3873974313    -2.0010375720    -0.9611525602
| 11>  C       -2.1167827145    -2.5942497963    -1.1472116824
| 12>  C       -1.1362035742    -2.1831678605    -0.0263879826
| 13>  O        0.1186924946    -2.7734199182    -0.2460274637
| 14>  H        0.9655155846     1.4857686685    -0.0755378984
| 15>  H       -2.9103054228    -0.1804807263     1.0381043941
| 16>  H       -2.3303339147     1.0870579231    -0.0573186276
| 17>  H       -4.3615792112    -0.2324775350    -0.9329163668
| 18>  H       -2.9588306740    -0.2752825501    -2.0252087336
| 19>  H       -2.2608760907    -3.6770796370    -1.1368856910
| 20>  H       -1.6782661111    -2.3083500262    -2.1169167807
| 21>  H       -1.5603164386    -2.5423411266     0.9263357009
| 22>  H        0.7597763999    -2.0487061911    -0.2628609004
| 23> *
| 24>
| 25>                          ****END OF INPUT****

CARTESIAN COORDINATES (ANGSTROEM)
---------------------------------
  O      0.030667    1.261710   -0.017925
  N      0.055148   -0.136487   -0.038251
  C     -1.099058   -0.672606    0.026736
  C     -2.438122    0.008314    0.066352
  C     -3.333920   -0.589903   -1.037672
  O     -3.387397   -2.001038   -0.961153
  C     -2.116783   -2.594250   -1.147212
  C     -1.136204   -2.183168   -0.026388
  O      0.118692   -2.773420   -0.246027
  H      0.965516    1.485769   -0.075538
  H     -2.910305   -0.180481    1.038104
  H     -2.330334    1.087058   -0.057319
  H     -4.361579   -0.232478   -0.932916
  H     -2.958831   -0.275283   -2.025209
  H     -2.260876   -3.677080   -1.136886
  H     -1.678266   -2.308350   -2.116917
  H     -1.560316   -2.542341    0.926336
  H      0.759776   -2.048706   -0.262861

 Total Charge           Charge          ....    0
 Multiplicity           Mult            ....    1
 Number of Electrons    NEL             ....   70
 Basis Dimension        Dim             ....  333

ORBITAL ENERGIES
----------------

  NO   OCC          E(Eh)            E(eV)
   0   2.0000     -20.605605      -560.7070
   1   2.0000     -20.567606      -559.6730
   2   2.0000     -20.555968      -559.3563
   3   2.0000     -15.628735      -425.2795
   4   2.0000     -11.294365      -307.3353
   5   2.0000     -11.292191      -307.2761
   6   2.0000     -11.292112      -307.2740
   7   2.0000     -11.281784      -306.9929
   8   2.0000     -11.247958      -306.0725
   9   2.0000      -1.434674       -39.0395
  10   2.0000      -1.393118       -37.9087
  11   2.0000      -1.368670       -37.2434
  12   2.0000      -1.180657       -32.1273
  13   2.0000      -1.046202       -28.4686
  14   2.0000      -1.020553       -27.7707
  15   2.0000      -0.879723       -23.9385
  16   2.0000      -0.853509       -23.2252
  17   2.0000      -0.770940       -20.9783
  18   2.0000      -0.718390       -19.5484
  19   2.0000      -0.702898       -19.1268
  20   2.0000      -0.672672       -18.3043
  21   2.0000      -0.662300       -18.0221
  22   2.0000      -0.640678       -17.4337
  23   2.0000      -0.635991       -17.3062
  24   2.0000      -0.614572       -16.7233
  25   2.0000      -0.589520       -16.0417
  26   2.0000      -0.579120       -15.7586
  27   2.0000      -0.560480       -15.2514
  28   2.0000      -0.533747       -14.5240
  29   2.0000      -0.511958       -13.9311
  30   2.0000      -0.474789       -12.9197
  31   2.0000      -0.462428       -12.5833
  32   2.0000      -0.444924       -12.1070
  33   2.0000      -0.437717       -11.9109
  34   2.0000      -0.387972       -10.5573
  35   0.0000       0.126561         3.4439
  36   0.0000       0.141545         3.8516
  37   0.0000       0.158057         4.3010
  38   0.0000       0.166908         4.5418
  39   0.0000       0.177715         4.8359

MULLIKEN ATOMIC CHARGES
-----------------------
   0 O :   -0.376872
   1 N :   -0.157535
   2 C :    0.067521
   3 C :   -0.217559
   4 C :   -0.077619
   5 O :   -0.305088
   6 C :   -0.021072
   7 C :    0.047827
   8 O :   -0.474213
   9 H :    0.340586
  10 H :    0.129828
  11 H :    0.150952
  12 H :    0.131765
  13 H :    0.108689
  14 H :    0.133915
  15 H :    0.088164
  16 H :    0.092212
  17 H :    0.338499
Sum of atomic charges:    0.0000000

LOEWDIN ATOMIC CHARGES
----------------------
   0 O :   -0.069133
   1 N :    0.006429
   2 C :   -0.266718
   3 C :   -0.228218
   4 C :   -0.306743
   5 O :    0.160158
   6 C :   -0.287609
   7 C :   -0.328177
   8 O :   -0.001766
   9 H :    0.172772
  10 H :    0.155339
  11 H :    0.152202
  12 H :    0.131857
  13 H :    0.124685
  14 H :    0.134430
  15 H :    0.124604
  16 H :    0.149910
  17 H :    0.175979

  Mayer bond orders larger than 0.1
B(  0-O ,  1-N ) :   0.8236 B(  0-O ,  9-H ) :   0.8412 B(  1-N ,  2-C ) :   1.7432
B(  2-C ,  3-C ) :   0.9450 B(  2-C ,  7-C ) :   0.9613 B(  3-C ,  4-C ) :   0.9193
B(  3-C , 10-H ) :   0.9049 B(  3-C , 11-H ) :   0.9127 B(  4-C ,  5-O ) :   0.9344
B(  4-C , 12-H ) :   0.9274 B(  4-C , 13-H ) :   0.9362 B(  5-O ,  6-C ) :   0.9168
B(  6-C ,  7-C ) :   0.8596 B(  6-C , 14-H ) :   0.9244 B(  6-C , 15-H ) :   0.9187
B(  7-C ,  8-O ) :   1.0973 B(  7-C , 16-H ) :   0.9295 B(  8-O , 17-H ) :   0.8053

MP2 TOTAL ENERGY:     -475.437778021 Eh
FINAL SINGLE POINT ENERGY      -475.437778020682

DIPOLE MOMENT
-------------
                                X             Y             Z
Electronic contribution:      3.18454       0.12310       1.10269
Nuclear contribution   :     -3.12479       0.81660      -1.11922
                        -----------------------------------------
Total Dipole Moment    :      0.05975       0.93969      -0.01653
                        -----------------------------------------
Magnitude (a.u.)       :      0.94174
Magnitude (Debye)      :      2.39371

                             ****ORCA TERMINATED NORMALLY****
TOTAL RUN TIME: 0 days 0 hours 17 minutes 38 seconds 381 msec
