                         Program Version 3.0.3 - RELEASE   -
|  1> ! RI-MP2 RIJK def2-TZVP def2-TZVP/C def2-TZVP/JK TIGHTSCF
|  2> % maxcore 2000
|  3> % mp2 density relaxed end
|  4> *xyz 0 1
|  5>  C       -0.0243471869     1.3831347316    -0.3417404787
|  6>  O        1.2545718507     1.6910227632     0.2540015946
|  7>  C        1.4089174222     0.3381425313     0.7459058645
|  8>  C        1.3909388747     0.2353707167     2.2681991464
|  9>  C        1.2816152279    -1.2071752411     2.7131941041
| 10>  C        0.3526639852    -2.0780399664     2.3162184912
| 11>  C       -0.8045905370    -1.8342603981     1.3827519320
| 12>  O       -0.9486442228    -0.5037522055     0.9204716333
| 13>  C        0.0840041923    -0.0933360285     0.0644356278
| 14>  H       -0.8546800284     1.9066736095     0.1465662986
| 15>  H       -0.0383218978     1.5922288332    -1.4172043038
| 16>  H        2.3140290456    -0.1275047778     0.3360779824
| 17>  H        2.3006187863     0.6917841301     2.6698285904
| 18>  H        0.5459796046     0.8216890023     2.6434841526
| 19>  H        2.0410673268    -1.5613610422     3.4056634717
| 20>  H        0.3924433095    -3.0976535225     2.6976831737
| 21>  H       -0.7332449260    -2.5278170617     0.5241675706
| 22>  H       -1.7447152432    -2.0748600658     1.8952974342
| 23>  H        0.2048074563    -0.8026858384    -0.7658411755
| 24> *
| 25>
| 26>                          ****END OF INPUT****

CARTESIAN COORDINATES (ANGSTROEM)
---------------------------------
  C     -0.024347    1.383135   -0.341740
  O      1.254572    1.691023    0.254002
  C      1.408917    0.338143    0.745906
  C      1.390939    0.235371    2.268199
  C      1.281615   -1.207175    2.713194
  C      0.352664   -2.078040    2.316218
  C     -0.804591   -1.834260    1.382752
  O     -0.948644   -0.503752    0.920472
  C      0.084004   -0.093336    0.064436
  H     -0.854680    1.906674    0.146566
  H     -0.038322    1.592229   -1.417204
  H      2.314029   -0.127505    0.336078
  H      2.300619    0.691784    2.669829
  H      0.545980    0.821689    2.643484
  H      2.041067   -1.561361    3.405663
  H      0.392443   -3.097654    2.697683
  H     -0.733245   -2.527817    0.524168
  H     -1.744715   -2.074860    1.895297
  H      0.204807   -0.802686   -0.765841

 Total Charge           Charge          ....    0
 Multiplicity           Mult            ....    1
 Number of Electrons    NEL             ....   68
 Basis Dimension        Dim             ....  339

ORBITAL ENERGIES
----------------

  NO   OCC          E(Eh)            E(eV)
   0   2.0000     -20.566988      -559.6562
   1   2.0000     -20.546107      -559.0880
   2   2.0000     -11.289743      -307.2095
   3   2.0000     -11.285742      -307.1006
   4   2.0000     -11.281444      -306.9837
   5   2.0000     -11.275956      -306.8344
   6   2.0000     -11.236147      -305.7511
   7   2.0000     -11.234412      -305.7039
   8   2.0000     -11.226331      -305.4840
   9   2.0000      -1.400664       -38.1140
  10   2.0000      -1.366665       -37.1888
  11   2.0000      -1.090644       -29.6779
  12   2.0000      -1.035774       -28.1848
  13   2.0000      -0.975179       -26.5360
  14   2.0000      -0.919975       -25.0338
  15   2.0000      -0.874787       -23.8042
  16   2.0000      -0.757008       -20.5992
  17   2.0000      -0.753189       -20.4953
  18   2.0000      -0.702109       -19.1054
  19   2.0000      -0.684975       -18.6391
  20   2.0000      -0.655750       -17.8439
  21   2.0000      -0.624381       -16.9903
  22   2.0000      -0.610079       -16.6011
  23   2.0000      -0.591100       -16.0847
  24   2.0000      -0.584025       -15.8921
  25   2.0000      -0.564405       -15.3582
  26   2.0000      -0.538465       -14.6524
  27   2.0000      -0.523579       -14.2473
  28   2.0000      -0.497638       -13.5414
  29   2.0000      -0.479191       -13.0395
  30   2.0000      -0.450592       -12.2612
  31   2.0000      -0.417781       -11.3684
  32   2.0000      -0.414760       -11.2862
  33   2.0000      -0.356408        -9.6984
  34   0.0000       0.136052         3.7022
  35   0.0000       0.148318         4.0359
  36   0.0000       0.162882         4.4323
  37   0.0000       0.168462         4.5841
  38   0.0000       0.176412         4.8004

MULLIKEN ATOMIC CHARGES
-----------------------
   0 C :   -0.019065
   1 O :   -0.335968
   2 C :    0.131369
   3 C :   -0.201062
   4 C :   -0.208123
   5 C :   -0.187589
   6 C :   -0.014422
   7 O :   -0.304335
   8 C :   -0.004962
   9 H :    0.103215
  10 H :    0.101426
  11 H :    0.090908
  12 H :    0.132410
  13 H :    0.132046
  14 H :    0.125499
  15 H :    0.123547
  16 H :    0.104363
  17 H :    0.137785
  18 H :    0.092958
Sum of atomic charges:   -0.0000000

LOEWDIN ATOMIC CHARGES
----------------------
   0 C :   -0.247343
   1 O :    0.130533
   2 C :   -0.261530
   3 C :   -0.233982
   4 C :   -0.167966
   5 C :   -0.182230
   6 C :   -0.305648
   7 O :    0.190561
   8 C :   -0.293073
   9 H :    0.124541
  10 H :    0.118615
  11 H :    0.136063
  12 H :    0.144969
  13 H :    0.154455
  14 H :    0.144628
  15 H :    0.147985
  16 H :    0.128606
  17 H :    0.139961
  18 H :    0.130856

  Mayer bond orders larger than 0.1
B(  0-C ,  1-O ) :   0.9568 B(  0-C ,  8-C ) :   0.9662 B(  0-C ,  9-H ) :   0.9027
B(  0-C , 10-H ) :   0.9145 B(  1-O ,  2-C ) :   0.9442 B(  2-C ,  3-C ) :   0.9117
B(  2-C ,  8-C ) :   0.9372 B(  2-C , 11-H ) :   0.9100 B(  3-C ,  4-C ) :   0.9181
B(  3-C , 12-H ) :   0.9308 B(  3-C , 13-H ) :   0.9106 B(  4-C ,  5-C ) :   1.8236
B(  4-C , 14-H ) :   0.9285 B(  5-C ,  6-C ) :   0.9171 B(  5-C , 15-H ) :   0.9161
B(  6-C ,  7-O ) :   0.9281 B(  6-C , 16-H ) :   0.9385 B(  6-C , 17-H ) :   0.9208
B(  7-O ,  8-C ) :   0.9871 B(  8-C , 18-H ) :   0.9328

MP2 TOTAL ENERGY:     -422.291734112 Eh
FINAL SINGLE POINT ENERGY      -422.291734112480

DIPOLE MOMENT
-------------
                                X             Y             Z
Electronic contribution:     -0.24397       2.08059      -0.95402
Nuclear contribution   :      0.15497      -2.95166       0.89063
                        -----------------------------------------
Total Dipole Moment    :     -0.08899      -0.87107      -0.06340
                        -----------------------------------------
Magnitude (a.u.)       :      0.87789
Magnitude (Debye)      :      2.23143

                             ****ORCA TERMINATED NORMALLY****
TOTAL RUN TIME: 0 days 0 hours 17 minutes 0 seconds 674 msec
