                         Program Version 3.0.3 - RELEASE   -
|  1> ! RI-MP2 RIJK def2-TZVP def2-TZVP/C def2-TZVP/JK TIGHTSCF
|  2> % maxcore 2000
|  3> % mp2 density relaxed end
|  4> *xyz 0 1
|  5>  C       -0.1273753595     1.5271874804     0.1157909842
|  6>  C        0.0183269329     0.0077277441    -0.0115327466
|  7>  C       -1.3267278745    -0.6460699027    -0.3705269567
|  8>  C       -1.8633240159    -0.2003452008    -1.7117139334
|  9>  O       -2.9535674517     0.2770778250    -1.8992488431
| 10>  C        1.2535151404    -0.3964889022    -0.8854983763
| 11>  C        2.0816150244    -0.5899966757     0.4122455445
| 12>  C        0.7558096111    -0.6113472189     1.2193025474
| 13>  H        0.8232176007     1.9940993422     0.3928231193
| 14>  H       -0.4572388685     1.9795578088    -0.8261267979
| 15>  H       -0.8643201337     1.7861877099     0.8841902847
| 16>  H       -1.1868519323    -1.7356582871    -0.4234574679
| 17>  H       -2.0854399930    -0.4387589911     0.3917011663
| 18>  H       -1.1558866123    -0.3479691981    -2.5616904815
| 19>  H        1.0926600810    -1.3432363654    -1.4104266213
| 20>  H        1.6106648721     0.3414811075    -1.6089531146
| 21>  H        2.7119595442    -1.4796973036     0.4699858701
| 22>  H        2.6994260701     0.2804569174     0.6465442966
| 23>  H        0.7184959220    -0.0396127806     2.1507268663
| 24>  H        0.4174935325    -1.6310033190     1.4267271499
| 25> *
| 26>
| 27>                          ****END OF INPUT****

CARTESIAN COORDINATES (ANGSTROEM)
---------------------------------
  C     -0.127375    1.527187    0.115791
  C      0.018327    0.007728   -0.011533
  C     -1.326728   -0.646070   -0.370527
  C     -1.863324   -0.200345   -1.711714
  O     -2.953567    0.277078   -1.899249
  C      1.253515   -0.396489   -0.885498
  C      2.081615   -0.589997    0.412246
  C      0.755810   -0.611347    1.219303
  H      0.823218    1.994099    0.392823
  H     -0.457239    1.979558   -0.826127
  H     -0.864320    1.786188    0.884190
  H     -1.186852   -1.735658   -0.423457
  H     -2.085440   -0.438759    0.391701
  H     -1.155887   -0.347969   -2.561690
  H      1.092660   -1.343236   -1.410427
  H      1.610665    0.341481   -1.608953
  H      2.711960   -1.479697    0.469986
  H      2.699426    0.280457    0.646544
  H      0.718496   -0.039613    2.150727
  H      0.417494   -1.631003    1.426727

 Total Charge           Charge          ....    0
 Multiplicity           Mult            ....    1
 Number of Electrons    NEL             ....   62
 Basis Dimension        Dim             ....  320

ORBITAL ENERGIES
----------------

  NO   OCC          E(Eh)            E(eV)
   0   2.0000     -20.553493      -559.2890
   1   2.0000     -11.328404      -308.2616
   2   2.0000     -11.250036      -306.1291
   3   2.0000     -11.236683      -305.7657
   4   2.0000     -11.229557      -305.5718
   5   2.0000     -11.228479      -305.5424
   6   2.0000     -11.227677      -305.5206
   7   2.0000     -11.222146      -305.3701
   8   2.0000      -1.391863       -37.8745
   9   2.0000      -1.153421       -31.3862
  10   2.0000      -1.032454       -28.0945
  11   2.0000      -0.964418       -26.2432
  12   2.0000      -0.910158       -24.7666
  13   2.0000      -0.852637       -23.2014
  14   2.0000      -0.793509       -21.5925
  15   2.0000      -0.727794       -19.8043
  16   2.0000      -0.674673       -18.3588
  17   2.0000      -0.648126       -17.6364
  18   2.0000      -0.645559       -17.5665
  19   2.0000      -0.627778       -17.0827
  20   2.0000      -0.588029       -16.0011
  21   2.0000      -0.571914       -15.5626
  22   2.0000      -0.551452       -15.0058
  23   2.0000      -0.537145       -14.6165
  24   2.0000      -0.530561       -14.4373
  25   2.0000      -0.496401       -13.5078
  26   2.0000      -0.479837       -13.0570
  27   2.0000      -0.458039       -12.4639
  28   2.0000      -0.451440       -12.2843
  29   2.0000      -0.434243       -11.8164
  30   2.0000      -0.404952       -11.0193
  31   0.0000       0.122719         3.3394
  32   0.0000       0.139810         3.8044
  33   0.0000       0.153913         4.1882
  34   0.0000       0.158449         4.3116
  35   0.0000       0.161166         4.3855

MULLIKEN ATOMIC CHARGES
-----------------------
   0 C :   -0.450109
   1 C :    0.124311
   2 C :   -0.188305
   3 C :    0.086086
   4 O :   -0.262759
   5 C :   -0.275139
   6 C :   -0.234296
   7 C :   -0.247470
   8 H :    0.136281
   9 H :    0.140768
  10 H :    0.136803
  11 H :    0.127556
  12 H :    0.120693
  13 H :    0.081165
  14 H :    0.112197
  15 H :    0.122647
  16 H :    0.117009
  17 H :    0.121280
  18 H :    0.119126
  19 H :    0.112155
Sum of atomic charges:    0.0000000

LOEWDIN ATOMIC CHARGES
----------------------
   0 C :   -0.264032
   1 C :   -0.278160
   2 C :   -0.230007
   3 C :   -0.293274
   4 O :    0.129512
   5 C :   -0.206424
   6 C :   -0.241228
   7 C :   -0.199434
   8 H :    0.129353
   9 H :    0.128565
  10 H :    0.129417
  11 H :    0.153912
  12 H :    0.149592
  13 H :    0.111491
  14 H :    0.134376
  15 H :    0.127611
  16 H :    0.123907
  17 H :    0.132209
  18 H :    0.127676
  19 H :    0.134939

  Mayer bond orders larger than 0.1
B(  0-C ,  1-C ) :   0.9260 B(  0-C ,  8-H ) :   0.9314 B(  0-C ,  9-H ) :   0.9317
B(  0-C , 10-H ) :   0.9364 B(  1-C ,  2-C ) :   0.8783 B(  1-C ,  5-C ) :   0.8911
B(  1-C ,  7-C ) :   0.8799 B(  2-C ,  3-C ) :   0.8782 B(  2-C , 11-H ) :   0.9065
B(  2-C , 12-H ) :   0.9129 B(  3-C ,  4-O ) :   2.0023 B(  3-C , 13-H ) :   0.9411
B(  5-C ,  6-C ) :   0.9528 B(  5-C , 14-H ) :   0.9193 B(  5-C , 15-H ) :   0.9274
B(  6-C ,  7-C ) :   0.9492 B(  6-C , 16-H ) :   0.9261 B(  6-C , 17-H ) :   0.9275
B(  7-C , 18-H ) :   0.9308 B(  7-C , 19-H ) :   0.9158

MP2 TOTAL ENERGY:     -348.398779717 Eh
FINAL SINGLE POINT ENERGY      -348.398779716758

DIPOLE MOMENT
-------------
                                X             Y             Z
Electronic contribution:     -6.37160      -0.48413      -3.71669
Nuclear contribution   :      7.36820       0.12552       4.12101
                        -----------------------------------------
Total Dipole Moment    :      0.99660      -0.35862       0.40432
                        -----------------------------------------
Magnitude (a.u.)       :      1.13371
Magnitude (Debye)      :      2.88166

                             ****ORCA TERMINATED NORMALLY****
TOTAL RUN TIME: 0 days 0 hours 15 minutes 22 seconds 653 msec
