                         Program Version 3.0.3 - RELEASE   -
|  1> ! RI-MP2 RIJK def2-TZVP def2-TZVP/C def2-TZVP/JK TIGHTSCF
|  2> % maxcore 2000
|  3> % mp2 density relaxed end
|  4> *xyz 0 1
|  5>  C       -0.1729418697     1.5635502484     0.0156048104
|  6>  C       -0.0424193544     0.0415011468     0.0266697973
|  7>  C       -1.3168473618    -0.6270176724    -0.4852150421
|  8>  C        1.2626454926    -0.5048987500    -0.6053432289
|  9>  O        1.7137688700    -1.0511417957     0.6543890944
| 10>  C        0.5209940848    -0.6028138653     1.3384827745
| 11>  C        0.8475370020     0.2698420504     2.5266343615
| 12>  C        1.9839885007    -0.0867073451     3.4083876562
| 13>  N        2.0640129299     1.0938132851     2.5238801924
| 14>  H        0.7143639688     2.0565259659     0.4203563361
| 15>  H       -0.3271357533     1.9220097179    -1.0085587405
| 16>  H       -1.0338171580     1.8899287820     0.6094213073
| 17>  H       -1.5496832692    -0.2992486033    -1.5046260623
| 18>  H       -1.2201043398    -1.7175845133    -0.4965429801
| 19>  H       -2.1739275551    -0.3718295754     0.1483779524
| 20>  H        1.1296644397    -1.2896077536    -1.3603987740
| 21>  H        1.9579846805     0.2499983932    -0.9933494919
| 22>  H       -0.0817045613    -1.4592697030     1.6756898381
| 23>  H       -0.0206450190     0.7548688551     2.9704340534
| 24>  H        1.9386089061     0.1329362574     4.4710762523
| 25>  H        2.5720691216    -0.9594355209     3.1390375837
| 26>  H        2.6124707148     0.8164367857     1.7103913200
| 27> *
| 28>
| 29>                          ****END OF INPUT****

CARTESIAN COORDINATES (ANGSTROEM)
---------------------------------
  C     -0.172942    1.563550    0.015605
  C     -0.042419    0.041501    0.026670
  C     -1.316847   -0.627018   -0.485215
  C      1.262645   -0.504899   -0.605343
  O      1.713769   -1.051142    0.654389
  C      0.520994   -0.602814    1.338483
  C      0.847537    0.269842    2.526634
  C      1.983989   -0.086707    3.408388
  N      2.064013    1.093813    2.523880
  H      0.714364    2.056526    0.420356
  H     -0.327136    1.922010   -1.008559
  H     -1.033817    1.889929    0.609421
  H     -1.549683   -0.299249   -1.504626
  H     -1.220104   -1.717585   -0.496543
  H     -2.173928   -0.371830    0.148378
  H      1.129664   -1.289608   -1.360399
  H      1.957985    0.249998   -0.993349
  H     -0.081705   -1.459270    1.675690
  H     -0.020645    0.754869    2.970434
  H      1.938609    0.132936    4.471076
  H      2.572069   -0.959436    3.139038
  H      2.612471    0.816437    1.710391

 Total Charge           Charge          ....    0
 Multiplicity           Mult            ....    1
 Number of Electrons    NEL             ....   70
 Basis Dimension        Dim             ....  357

ORBITAL ENERGIES
----------------

  NO   OCC          E(Eh)            E(eV)
   0   2.0000     -20.554495      -559.3163
   1   2.0000     -15.549608      -423.1263
   2   2.0000     -11.286888      -307.1318
   3   2.0000     -11.279513      -306.9312
   4   2.0000     -11.255719      -306.2837
   5   2.0000     -11.247136      -306.0501
   6   2.0000     -11.246379      -306.0295
   7   2.0000     -11.224921      -305.4456
   8   2.0000     -11.219628      -305.3016
   9   2.0000      -1.385485       -37.7010
  10   2.0000      -1.252869       -34.0923
  11   2.0000      -1.085805       -29.5463
  12   2.0000      -0.971554       -26.4373
  13   2.0000      -0.942927       -25.6584
  14   2.0000      -0.908963       -24.7341
  15   2.0000      -0.876011       -23.8375
  16   2.0000      -0.814952       -22.1760
  17   2.0000      -0.733038       -19.9470
  18   2.0000      -0.695911       -18.9367
  19   2.0000      -0.655418       -17.8348
  20   2.0000      -0.654388       -17.8068
  21   2.0000      -0.614555       -16.7229
  22   2.0000      -0.613329       -16.6895
  23   2.0000      -0.577264       -15.7081
  24   2.0000      -0.569831       -15.5059
  25   2.0000      -0.550633       -14.9835
  26   2.0000      -0.541675       -14.7397
  27   2.0000      -0.527002       -14.3405
  28   2.0000      -0.494647       -13.4600
  29   2.0000      -0.488190       -13.2843
  30   2.0000      -0.471154       -12.8208
  31   2.0000      -0.443931       -12.0800
  32   2.0000      -0.435801       -11.8587
  33   2.0000      -0.420864       -11.4523
  34   2.0000      -0.380027       -10.3411
  35   0.0000       0.127636         3.4732
  36   0.0000       0.157284         4.2799
  37   0.0000       0.167741         4.5645
  38   0.0000       0.169957         4.6248
  39   0.0000       0.189353         5.1525

MULLIKEN ATOMIC CHARGES
-----------------------
   0 C :   -0.424912
   1 C :    0.131386
   2 C :   -0.432680
   3 C :   -0.075100
   4 O :   -0.348491
   5 C :    0.011398
   6 C :   -0.026040
   7 C :   -0.185636
   8 N :   -0.387793
   9 H :    0.157287
  10 H :    0.135507
  11 H :    0.126927
  12 H :    0.135394
  13 H :    0.140491
  14 H :    0.132622
  15 H :    0.101046
  16 H :    0.102637
  17 H :    0.093252
  18 H :    0.119893
  19 H :    0.121387
  20 H :    0.141881
  21 H :    0.229544
Sum of atomic charges:   -0.0000000

LOEWDIN ATOMIC CHARGES
----------------------
   0 C :   -0.269702
   1 C :   -0.289587
   2 C :   -0.274272
   3 C :   -0.229167
   4 O :    0.134861
   5 C :   -0.234952
   6 C :   -0.274832
   7 C :   -0.260616
   8 N :   -0.020245
   9 H :    0.132569
  10 H :    0.127826
  11 H :    0.128259
  12 H :    0.127466
  13 H :    0.127687
  14 H :    0.127529
  15 H :    0.119984
  16 H :    0.118743
  17 H :    0.143705
  18 H :    0.146345
  19 H :    0.123074
  20 H :    0.127335
  21 H :    0.167989

  Mayer bond orders larger than 0.1
B(  0-C ,  1-C ) :   0.9140 B(  0-C ,  9-H ) :   0.9322 B(  0-C , 10-H ) :   0.9307
B(  0-C , 11-H ) :   0.9313 B(  1-C ,  2-C ) :   0.9072 B(  1-C ,  3-C ) :   0.9440
B(  1-C ,  5-C ) :   0.9203 B(  2-C , 12-H ) :   0.9356 B(  2-C , 13-H ) :   0.9324
B(  2-C , 14-H ) :   0.9358 B(  3-C ,  4-O ) :   0.9357 B(  3-C , 15-H ) :   0.9047
B(  3-C , 16-H ) :   0.9150 B(  4-O ,  5-C ) :   0.9432 B(  5-C ,  6-C ) :   0.9495
B(  5-C , 17-H ) :   0.9127 B(  6-C ,  7-C ) :   0.9384 B(  6-C ,  8-N ) :   0.9312
B(  6-C , 18-H ) :   0.9022 B(  7-C ,  8-N ) :   0.9156 B(  7-C , 19-H ) :   0.9272
B(  7-C , 20-H ) :   0.9111 B(  8-N , 21-H ) :   0.8730

MP2 TOTAL ENERGY:     -403.617600617 Eh
FINAL SINGLE POINT ENERGY      -403.617600617192

DIPOLE MOMENT
-------------
                                X             Y             Z
Electronic contribution:      4.45263      -1.78894       2.84744
Nuclear contribution   :     -5.12922       1.52447      -3.33005
                        -----------------------------------------
Total Dipole Moment    :     -0.67659      -0.26447      -0.48261
                        -----------------------------------------
Magnitude (a.u.)       :      0.87215
Magnitude (Debye)      :      2.21682

                             ****ORCA TERMINATED NORMALLY****
TOTAL RUN TIME: 0 days 0 hours 20 minutes 14 seconds 458 msec
