                         Program Version 3.0.3 - RELEASE   -
|  1> ! RI-MP2 RIJK def2-TZVP def2-TZVP/C def2-TZVP/JK TIGHTSCF
|  2> % maxcore 2000
|  3> % mp2 density relaxed end
|  4> *xyz 0 1
|  5>  C        0.6360288079     0.7523089816    -1.0334684118
|  6>  C       -0.3977009410    -0.3609867752    -1.0330112841
|  7>  O        0.1608655744    -1.6023275156    -1.5263493380
|  8>  C        0.8550261681    -2.3451803996    -0.6606576149
|  9>  N        1.0050406052    -2.0802782333     0.5639658730
| 10>  O        1.3809942709    -3.4539852712    -1.2575019148
| 11>  C        1.1911315122    -3.6461398405    -2.6559271587
| 12>  C        2.0232442173    -2.7516654956    -3.4729410013
| 13>  N        2.6818011663    -2.0652240060    -4.1276011796
| 14>  H        1.4353724236     0.5322910979    -0.3230875817
| 15>  H        1.0666831762     0.8825788693    -2.0301365648
| 16>  H        0.1588351454     1.6917450198    -0.7367590189
| 17>  H       -0.7969580102    -0.5382635487    -0.0323332489
| 18>  H       -1.2169496284    -0.1495096488    -1.7239059407
| 19>  H        1.5652389457    -2.7954876707     1.0200010129
| 20>  H        1.4879268098    -4.6804000558    -2.8462472183
| 21>  H        0.1433270066    -3.5191807576    -2.9387237993
| 22> *
| 23>
| 24>                          ****END OF INPUT****

CARTESIAN COORDINATES (ANGSTROEM)
---------------------------------
  C      0.636029    0.752309   -1.033468
  C     -0.397701   -0.360987   -1.033011
  O      0.160866   -1.602328   -1.526349
  C      0.855026   -2.345180   -0.660658
  N      1.005041   -2.080278    0.563966
  O      1.380994   -3.453985   -1.257502
  C      1.191132   -3.646140   -2.655927
  C      2.023244   -2.751665   -3.472941
  N      2.681801   -2.065224   -4.127601
  H      1.435372    0.532291   -0.323088
  H      1.066683    0.882579   -2.030137
  H      0.158835    1.691745   -0.736759
  H     -0.796958   -0.538264   -0.032333
  H     -1.216950   -0.149510   -1.723906
  H      1.565239   -2.795488    1.020001
  H      1.487927   -4.680400   -2.846247
  H      0.143327   -3.519181   -2.938724

 Total Charge           Charge          ....    0
 Multiplicity           Mult            ....    1
 Number of Electrons    NEL             ....   68
 Basis Dimension        Dim             ....  327

ORBITAL ENERGIES
----------------

  NO   OCC          E(Eh)            E(eV)
   0   2.0000     -20.629996      -561.3707
   1   2.0000     -20.614224      -560.9416
   2   2.0000     -15.586671      -424.1349
   3   2.0000     -15.536521      -422.7702
   4   2.0000     -11.407830      -310.4228
   5   2.0000     -11.357835      -309.0624
   6   2.0000     -11.297153      -307.4112
   7   2.0000     -11.285864      -307.1040
   8   2.0000     -11.222231      -305.3724
   9   2.0000      -1.496903       -40.7328
  10   2.0000      -1.409964       -38.3671
  11   2.0000      -1.232595       -33.5406
  12   2.0000      -1.205128       -32.7932
  13   2.0000      -1.044745       -28.4290
  14   2.0000      -1.030873       -28.0515
  15   2.0000      -0.899206       -24.4686
  16   2.0000      -0.807067       -21.9614
  17   2.0000      -0.777816       -21.1654
  18   2.0000      -0.747197       -20.3323
  19   2.0000      -0.713894       -19.4260
  20   2.0000      -0.668492       -18.1906
  21   2.0000      -0.655930       -17.8488
  22   2.0000      -0.643345       -17.5063
  23   2.0000      -0.593485       -16.1495
  24   2.0000      -0.582399       -15.8479
  25   2.0000      -0.566419       -15.4131
  26   2.0000      -0.556184       -15.1345
  27   2.0000      -0.537880       -14.6365
  28   2.0000      -0.504625       -13.7315
  29   2.0000      -0.495141       -13.4735
  30   2.0000      -0.485822       -13.2199
  31   2.0000      -0.474221       -12.9042
  32   2.0000      -0.457897       -12.4600
  33   2.0000      -0.406885       -11.0719
  34   0.0000       0.125380         3.4118
  35   0.0000       0.143776         3.9123
  36   0.0000       0.152138         4.1399
  37   0.0000       0.164401         4.4736
  38   0.0000       0.177140         4.8202

MULLIKEN ATOMIC CHARGES
-----------------------
   0 C :   -0.411917
   1 C :   -0.039758
   2 O :   -0.281110
   3 C :    0.370520
   4 N :   -0.451587
   5 O :   -0.271001
   6 C :    0.062168
   7 C :   -0.185289
   8 N :   -0.062404
   9 H :    0.160570
  10 H :    0.141288
  11 H :    0.132089
  12 H :    0.137653
  13 H :    0.128429
  14 H :    0.233680
  15 H :    0.172476
  16 H :    0.164194
Sum of atomic charges:    0.0000000

LOEWDIN ATOMIC CHARGES
----------------------
   0 C :   -0.315357
   1 C :   -0.289661
   2 O :    0.254959
   3 C :   -0.548221
   4 N :   -0.087120
   5 O :    0.244347
   6 C :   -0.280134
   7 C :   -0.188741
   8 N :    0.073707
   9 H :    0.130663
  10 H :    0.127224
  11 H :    0.129562
  12 H :    0.134562
  13 H :    0.128931
  14 H :    0.174130
  15 H :    0.157422
  16 H :    0.153727

  Mayer bond orders larger than 0.1
B(  0-C ,  1-C ) :   0.9402 B(  0-C ,  9-H ) :   0.9333 B(  0-C , 10-H ) :   0.9300
B(  0-C , 11-H ) :   0.9276 B(  1-C ,  2-O ) :   0.8171 B(  1-C , 12-H ) :   0.9303
B(  1-C , 13-H ) :   0.9301 B(  2-O ,  3-C ) :   1.0726 B(  3-C ,  4-N ) :   1.8938
B(  3-C ,  5-O ) :   1.0610 B(  4-N , 14-H ) :   0.8538 B(  5-O ,  6-C ) :   0.8978
B(  6-C ,  7-C ) :   0.8945 B(  6-C , 15-H ) :   0.9062 B(  6-C , 16-H ) :   0.9300
B(  7-C ,  8-N ) :   2.8333

MP2 TOTAL ENERGY:     -454.420752691 Eh
FINAL SINGLE POINT ENERGY      -454.420752691203

DIPOLE MOMENT
-------------
                                X             Y             Z
Electronic contribution:      3.16905      -7.00004      -3.17887
Nuclear contribution   :     -4.12043       6.45702       3.31988
                        -----------------------------------------
Total Dipole Moment    :     -0.95138      -0.54302       0.14101
                        -----------------------------------------
Magnitude (a.u.)       :      1.10448
Magnitude (Debye)      :      2.80738

                             ****ORCA TERMINATED NORMALLY****
TOTAL RUN TIME: 0 days 0 hours 14 minutes 12 seconds 261 msec
