                         Program Version 3.0.3 - RELEASE   -
|  1> ! RI-MP2 RIJK def2-TZVP def2-TZVP/C def2-TZVP/JK TIGHTSCF
|  2> % maxcore 2000
|  3> % mp2 density relaxed end
|  4> *xyz 0 1
|  5>  C       -0.2183899132     1.4045948279    -0.0527377026
|  6>  N        0.0036801031    -0.0298825449     0.0556839166
|  7>  C        1.3667844644    -0.5150898970    -0.1725314222
|  8>  C        0.7657430660    -0.5121277282     1.1848172130
|  9>  C        1.3182451572     0.2372008211     2.4321976997
| 10>  C        0.9395718013    -1.0179161749     3.2523557160
| 11>  C        1.5883243056    -1.5409221776     4.4913517065
| 12>  O       -0.4770785225    -1.1754898057     3.0948097962
| 13>  C        0.3830195540    -1.6878749315     2.0591847948
| 14>  H        0.6352111626     2.0137466213     0.2881405334
| 15>  H       -0.4214853608     1.6570936192    -1.0981378706
| 16>  H       -1.0951122951     1.6783140812     0.5420803590
| 17>  H        1.4534171177    -1.4328607902    -0.7496628137
| 18>  H        2.1497517559     0.2190617074    -0.3644647767
| 19>  H        2.3929348427     0.4300112863     2.3795943096
| 20>  H        0.7931536557     1.1458298180     2.7374188317
| 21>  H        1.4041600744    -0.8709122301     5.3389215784
| 22>  H        1.1878073035    -2.5261227830     4.7440734638
| 23>  H        2.6718619185    -1.6236495985     4.3584693449
| 24>  H        0.2827107790    -2.7364655308     1.8018933423
| 25> *
| 26>
| 27>                          ****END OF INPUT****

CARTESIAN COORDINATES (ANGSTROEM)
---------------------------------
  C     -0.218390    1.404595   -0.052738
  N      0.003680   -0.029883    0.055684
  C      1.366784   -0.515090   -0.172531
  C      0.765743   -0.512128    1.184817
  C      1.318245    0.237201    2.432198
  C      0.939572   -1.017916    3.252356
  C      1.588324   -1.540922    4.491352
  O     -0.477079   -1.175490    3.094810
  C      0.383020   -1.687875    2.059185
  H      0.635211    2.013747    0.288141
  H     -0.421485    1.657094   -1.098138
  H     -1.095112    1.678314    0.542080
  H      1.453417   -1.432861   -0.749663
  H      2.149752    0.219062   -0.364465
  H      2.392935    0.430011    2.379594
  H      0.793154    1.145830    2.737419
  H      1.404160   -0.870912    5.338922
  H      1.187807   -2.526123    4.744073
  H      2.671862   -1.623650    4.358469
  H      0.282711   -2.736466    1.801893

 Total Charge           Charge          ....    0
 Multiplicity           Mult            ....    1
 Number of Electrons    NEL             ....   68
 Basis Dimension        Dim             ....  345

ORBITAL ENERGIES
----------------

  NO   OCC          E(Eh)            E(eV)
   0   2.0000     -20.561810      -559.5153
   1   2.0000     -15.558266      -423.3620
   2   2.0000     -11.292096      -307.2736
   3   2.0000     -11.280363      -306.9543
   4   2.0000     -11.270841      -306.6952
   5   2.0000     -11.255416      -306.2754
   6   2.0000     -11.245617      -306.0088
   7   2.0000     -11.236783      -305.7684
   8   2.0000     -11.230164      -305.5883
   9   2.0000      -1.414075       -38.4789
  10   2.0000      -1.275800       -34.7163
  11   2.0000      -1.069425       -29.1005
  12   2.0000      -1.004250       -27.3270
  13   2.0000      -0.972948       -26.4753
  14   2.0000      -0.895193       -24.3594
  15   2.0000      -0.833532       -22.6816
  16   2.0000      -0.786914       -21.4130
  17   2.0000      -0.736535       -20.0421
  18   2.0000      -0.685241       -18.6464
  19   2.0000      -0.664822       -18.0907
  20   2.0000      -0.623025       -16.9534
  21   2.0000      -0.609403       -16.5827
  22   2.0000      -0.604694       -16.4546
  23   2.0000      -0.588932       -16.0257
  24   2.0000      -0.565010       -15.3747
  25   2.0000      -0.545880       -14.8541
  26   2.0000      -0.528562       -14.3829
  27   2.0000      -0.521664       -14.1952
  28   2.0000      -0.499780       -13.5997
  29   2.0000      -0.462421       -12.5831
  30   2.0000      -0.454018       -12.3545
  31   2.0000      -0.432650       -11.7730
  32   2.0000      -0.388254       -10.5649
  33   2.0000      -0.368519       -10.0279
  34   0.0000       0.135565         3.6889
  35   0.0000       0.152328         4.1451
  36   0.0000       0.170185         4.6310
  37   0.0000       0.178996         4.8707
  38   0.0000       0.193609         5.2684

MULLIKEN ATOMIC CHARGES
-----------------------
   0 C :   -0.301952
   1 N :   -0.244594
   2 C :   -0.233444
   3 C :    0.127698
   4 C :   -0.192776
   5 C :    0.164355
   6 C :   -0.419844
   7 O :   -0.321073
   8 C :   -0.019351
   9 H :    0.109454
  10 H :    0.140031
  11 H :    0.144963
  12 H :    0.126529
  13 H :    0.117867
  14 H :    0.122765
  15 H :    0.121406
  16 H :    0.140449
  17 H :    0.146837
  18 H :    0.133759
  19 H :    0.136921
Sum of atomic charges:    0.0000000

LOEWDIN ATOMIC CHARGES
----------------------
   0 C :   -0.325239
   1 N :    0.112389
   2 C :   -0.222642
   3 C :   -0.254737
   4 C :   -0.158202
   5 C :   -0.297124
   6 C :   -0.272063
   7 O :    0.190181
   8 C :   -0.182194
   9 H :    0.105608
  10 H :    0.118409
  11 H :    0.121233
  12 H :    0.126454
  13 H :    0.125060
  14 H :    0.138431
  15 H :    0.137630
  16 H :    0.133354
  17 H :    0.136615
  18 H :    0.132677
  19 H :    0.134162

  Mayer bond orders larger than 0.1
B(  0-C ,  1-N ) :   0.8777 B(  0-C ,  9-H ) :   0.9267 B(  0-C , 10-H ) :   0.9366
B(  0-C , 11-H ) :   0.9388 B(  1-N ,  2-C ) :   0.9519 B(  1-N ,  3-C ) :   0.8262
B(  2-C ,  3-C ) :   0.8996 B(  2-C , 12-H ) :   0.9108 B(  2-C , 13-H ) :   0.9206
B(  3-C ,  4-C ) :   0.9417 B(  3-C ,  8-C ) :   0.8723 B(  4-C ,  5-C ) :   0.9306
B(  4-C , 14-H ) :   0.9082 B(  4-C , 15-H ) :   0.8962 B(  5-C ,  6-C ) :   0.8797
B(  5-C ,  7-O ) :   0.9305 B(  5-C ,  8-C ) :   0.9056 B(  6-C , 16-H ) :   0.9391
B(  6-C , 17-H ) :   0.9409 B(  6-C , 18-H ) :   0.9332 B(  7-O ,  8-C ) :   0.9036
B(  8-C , 19-H ) :   0.9242

MP2 TOTAL ENERGY:     -402.383030833 Eh
FINAL SINGLE POINT ENERGY      -402.383030832922

DIPOLE MOMENT
-------------
                                X             Y             Z
Electronic contribution:     -3.22866      -3.23573       0.13791
Nuclear contribution   :      4.31622       3.42539      -0.12096
                        -----------------------------------------
Total Dipole Moment    :      1.08756       0.18965       0.01695
                        -----------------------------------------
Magnitude (a.u.)       :      1.10411
Magnitude (Debye)      :      2.80642

                             ****ORCA TERMINATED NORMALLY****
TOTAL RUN TIME: 0 days 0 hours 16 minutes 58 seconds 750 msec
