                         Program Version 3.0.3 - RELEASE   -
|  1> ! RI-MP2 RIJK def2-TZVP def2-TZVP/C def2-TZVP/JK TIGHTSCF
|  2> % maxcore 2000
|  3> % mp2 density relaxed end
|  4> *xyz 0 1
|  5>  C       -0.0381359694     1.6975687566     0.1728907974
|  6>  C        0.0852576440     0.1705296948     0.0884318906
|  7>  C       -1.2803418156    -0.5130186119     0.0162079289
|  8>  C       -2.0754682503    -0.4859340729    -1.3729072867
|  9>  C       -1.8259511106    -2.0066273061    -1.4416250792
| 10>  C       -2.2648101880    -3.5050660058    -1.3977121061
| 11>  C       -0.9006155236    -3.3878269737    -0.5740832890
| 12>  C       -0.3779309939    -2.5263918952    -1.7354586076
| 13>  C       -1.5257753034    -2.0907148563     0.0553952268
| 14>  H        0.9466371087     2.1725650696     0.2246294475
| 15>  H       -0.5567984115     2.1029280039    -0.7027908032
| 16>  H       -0.6031269406     2.0008553619     1.0613239998
| 17>  H        0.7063295984    -0.0827909363    -0.7758934733
| 18>  H        0.6191079838    -0.2027974452     0.9715979519
| 19>  H       -1.8918535710    -0.0799288831     0.8149495998
| 20>  H       -3.1228361417    -0.2048773183    -1.2323365951
| 21>  H       -1.6521473337     0.1169046608    -2.1828680645
| 22>  H       -3.1649792097    -3.7287576015    -0.8190015395
| 23>  H       -2.2175033200    -4.0994908378    -2.3166196206
| 24>  H       -0.3865989370    -4.2200434120    -0.0830918185
| 25>  H       -0.2400467526    -3.0260070615    -2.6991228367
| 26>  H        0.4596259422    -1.8669981674    -1.5187323675
| 27>  H       -2.3861402944    -2.2979559824     0.6995505348
| 28> *
| 29>
| 30>                          ****END OF INPUT****

CARTESIAN COORDINATES (ANGSTROEM)
---------------------------------
  C     -0.038136    1.697569    0.172891
  C      0.085258    0.170530    0.088432
  C     -1.280342   -0.513019    0.016208
  C     -2.075468   -0.485934   -1.372907
  C     -1.825951   -2.006627   -1.441625
  C     -2.264810   -3.505066   -1.397712
  C     -0.900616   -3.387827   -0.574083
  C     -0.377931   -2.526392   -1.735459
  C     -1.525775   -2.090715    0.055395
  H      0.946637    2.172565    0.224629
  H     -0.556798    2.102928   -0.702791
  H     -0.603127    2.000855    1.061324
  H      0.706330   -0.082791   -0.775893
  H      0.619108   -0.202797    0.971598
  H     -1.891854   -0.079929    0.814950
  H     -3.122836   -0.204877   -1.232337
  H     -1.652147    0.116905   -2.182868
  H     -3.164979   -3.728758   -0.819002
  H     -2.217503   -4.099491   -2.316620
  H     -0.386599   -4.220043   -0.083092
  H     -0.240047   -3.026007   -2.699123
  H      0.459626   -1.866998   -1.518732
  H     -2.386140   -2.297956    0.699551

 Total Charge           Charge          ....    0
 Multiplicity           Mult            ....    1
 Number of Electrons    NEL             ....   68
 Basis Dimension        Dim             ....  363

ORBITAL ENERGIES
----------------

  NO   OCC          E(Eh)            E(eV)
   0   2.0000     -11.248905      -306.0983
   1   2.0000     -11.236698      -305.7661
   2   2.0000     -11.236470      -305.7599
   3   2.0000     -11.235404      -305.7309
   4   2.0000     -11.227661      -305.5202
   5   2.0000     -11.218176      -305.2621
   6   2.0000     -11.216537      -305.2175
   7   2.0000     -11.213986      -305.1481
   8   2.0000     -11.211796      -305.0885
   9   2.0000      -1.217356       -33.1259
  10   2.0000      -1.072483       -29.1838
  11   2.0000      -1.002833       -27.2885
  12   2.0000      -0.904817       -24.6213
  13   2.0000      -0.895251       -24.3610
  14   2.0000      -0.861415       -23.4403
  15   2.0000      -0.800565       -21.7845
  16   2.0000      -0.775536       -21.1034
  17   2.0000      -0.699116       -19.0239
  18   2.0000      -0.650078       -17.6895
  19   2.0000      -0.627358       -17.0713
  20   2.0000      -0.599577       -16.3153
  21   2.0000      -0.588412       -16.0115
  22   2.0000      -0.582698       -15.8560
  23   2.0000      -0.541870       -14.7450
  24   2.0000      -0.530931       -14.4474
  25   2.0000      -0.519893       -14.1470
  26   2.0000      -0.497155       -13.5283
  27   2.0000      -0.478828       -13.0296
  28   2.0000      -0.458484       -12.4760
  29   2.0000      -0.443017       -12.0551
  30   2.0000      -0.430217       -11.7068
  31   2.0000      -0.416905       -11.3446
  32   2.0000      -0.411265       -11.1911
  33   2.0000      -0.345656        -9.4058
  34   0.0000       0.138924         3.7803
  35   0.0000       0.154091         4.1930
  36   0.0000       0.159386         4.3371
  37   0.0000       0.168041         4.5726
  38   0.0000       0.186518         5.0754

MULLIKEN ATOMIC CHARGES
-----------------------
   0 C :   -0.399106
   1 C :   -0.205494
   2 C :   -0.081016
   3 C :   -0.261304
   4 C :   -0.014093
   5 C :   -0.171500
   6 C :   -0.123250
   7 C :   -0.203882
   8 C :   -0.114346
   9 H :    0.133832
  10 H :    0.126224
  11 H :    0.123591
  12 H :    0.094691
  13 H :    0.119224
  14 H :    0.096831
  15 H :    0.116855
  16 H :    0.117576
  17 H :    0.112047
  18 H :    0.109031
  19 H :    0.125340
  20 H :    0.106724
  21 H :    0.106239
  22 H :    0.085784
Sum of atomic charges:    0.0000000

LOEWDIN ATOMIC CHARGES
----------------------
   0 C :   -0.317471
   1 C :   -0.284854
   2 C :   -0.187698
   3 C :   -0.183640
   4 C :   -0.188874
   5 C :   -0.171672
   6 C :   -0.166487
   7 C :   -0.176959
   8 C :   -0.133750
   9 H :    0.120532
  10 H :    0.120621
  11 H :    0.119969
  12 H :    0.132535
  13 H :    0.140106
  14 H :    0.149086
  15 H :    0.134393
  16 H :    0.128033
  17 H :    0.127327
  18 H :    0.123565
  19 H :    0.119029
  20 H :    0.127482
  21 H :    0.127059
  22 H :    0.141667

  Mayer bond orders larger than 0.1
B(  0-C ,  1-C ) :   0.9134 B(  0-C ,  9-H ) :   0.9406 B(  0-C , 10-H ) :   0.9392
B(  0-C , 11-H ) :   0.9398 B(  1-C ,  2-C ) :   0.9218 B(  1-C , 12-H ) :   0.9266
B(  1-C , 13-H ) :   0.9351 B(  2-C ,  3-C ) :   0.9248 B(  2-C ,  8-C ) :   0.8827
B(  2-C , 14-H ) :   0.9204 B(  3-C ,  4-C ) :   0.9094 B(  3-C , 15-H ) :   0.9107
B(  3-C , 16-H ) :   0.9176 B(  4-C ,  5-C ) :   0.8833 B(  4-C ,  7-C ) :   0.9018
B(  4-C ,  8-C ) :   0.8305 B(  5-C ,  6-C ) :   0.8977 B(  5-C , 17-H ) :   0.9229
B(  5-C , 18-H ) :   0.9226 B(  6-C ,  7-C ) :   0.9168 B(  6-C ,  8-C ) :   0.9074
B(  6-C , 19-H ) :   0.8890 B(  7-C , 20-H ) :   0.9277 B(  7-C , 21-H ) :   0.9109
B(  8-C , 22-H ) :   0.9332

MP2 TOTAL ENERGY:     -350.390464888 Eh
FINAL SINGLE POINT ENERGY      -350.390464887994

DIPOLE MOMENT
-------------
                                X             Y             Z
Electronic contribution:     -1.99187      -5.06594      -0.86755
Nuclear contribution   :      1.97685       5.19271       0.88686
                        -----------------------------------------
Total Dipole Moment    :     -0.01502       0.12678       0.01932
                        -----------------------------------------
Magnitude (a.u.)       :      0.12912
Magnitude (Debye)      :      0.32819

                             ****ORCA TERMINATED NORMALLY****
TOTAL RUN TIME: 0 days 0 hours 34 minutes 19 seconds 556 msec
