                         Program Version 3.0.3 - RELEASE   -
|  1> ! RI-MP2 RIJK def2-TZVP def2-TZVP/C def2-TZVP/JK TIGHTSCF
|  2> % maxcore 2000
|  3> % mp2 density relaxed end
|  4> *xyz 0 1
|  5>  C        0.0500331689     1.3382701996     0.0592809861
|  6>  C       -0.1084070337    -0.1573158859     0.3538426775
|  7>  C       -1.5074967046    -0.6614626148     0.0720516138
|  8>  C       -1.9060110912    -1.1164994595    -1.3129010302
|  9>  C       -1.7971640442    -2.1193760182    -0.1931184023
| 10>  N       -0.7275872680    -3.0750775101    -0.2403817934
| 11>  C       -0.1442675085    -3.5826310011     0.8819775384
| 12>  O       -0.3691938967    -3.2136018138     2.0135107164
| 13>  H        1.0676298826     1.6773055080     0.2768465581
| 14>  H       -0.1620726792     1.5602152199    -0.9922034087
| 15>  H       -0.6364050477     1.9372432325     0.6679153104
| 16>  H        0.6098386260    -0.7291489369    -0.2444693428
| 17>  H        0.1352252974    -0.3636416999     1.4021521179
| 18>  H       -2.2841809916    -0.1573436894     0.6421817423
| 19>  H       -2.8916094533    -0.8820059147    -1.6986288150
| 20>  H       -1.1230133344    -1.1354877509    -2.0655879383
| 21>  H       -2.7232218596    -2.5087727085     0.2228812016
| 22>  H       -0.5403745411    -3.5411991978    -1.1148931375
| 23>  H        0.5850118288    -4.3821211387     0.6367917656
| 24> *
| 25>
| 26>                          ****END OF INPUT****

CARTESIAN COORDINATES (ANGSTROEM)
---------------------------------
  C      0.050033    1.338270    0.059281
  C     -0.108407   -0.157316    0.353843
  C     -1.507497   -0.661463    0.072052
  C     -1.906011   -1.116499   -1.312901
  C     -1.797164   -2.119376   -0.193118
  N     -0.727587   -3.075078   -0.240382
  C     -0.144268   -3.582631    0.881978
  O     -0.369194   -3.213602    2.013511
  H      1.067630    1.677306    0.276847
  H     -0.162073    1.560215   -0.992203
  H     -0.636405    1.937243    0.667915
  H      0.609839   -0.729149   -0.244469
  H      0.135225   -0.363642    1.402152
  H     -2.284181   -0.157344    0.642182
  H     -2.891609   -0.882006   -1.698629
  H     -1.123013   -1.135488   -2.065588
  H     -2.723222   -2.508773    0.222881
  H     -0.540375   -3.541199   -1.114893
  H      0.585012   -4.382121    0.636792

 Total Charge           Charge          ....    0
 Multiplicity           Mult            ....    1
 Number of Electrons    NEL             ....   62
 Basis Dimension        Dim             ....  314

ORBITAL ENERGIES
----------------

  NO   OCC          E(Eh)            E(eV)
   0   2.0000     -20.522657      -558.4499
   1   2.0000     -15.590186      -424.2305
   2   2.0000     -11.347304      -308.7758
   3   2.0000     -11.270336      -306.6814
   4   2.0000     -11.233743      -305.6857
   5   2.0000     -11.233062      -305.6672
   6   2.0000     -11.218625      -305.2743
   7   2.0000     -11.211181      -305.0717
   8   2.0000      -1.382678       -37.6246
   9   2.0000      -1.245752       -33.8986
  10   2.0000      -1.134258       -30.8647
  11   2.0000      -1.021433       -27.7946
  12   2.0000      -0.882188       -24.0056
  13   2.0000      -0.864547       -23.5255
  14   2.0000      -0.808813       -22.0089
  15   2.0000      -0.757882       -20.6230
  16   2.0000      -0.724396       -19.7118
  17   2.0000      -0.687683       -18.7128
  18   2.0000      -0.651909       -17.7394
  19   2.0000      -0.609859       -16.5951
  20   2.0000      -0.602595       -16.3974
  21   2.0000      -0.571549       -15.5526
  22   2.0000      -0.555022       -15.1029
  23   2.0000      -0.543754       -14.7963
  24   2.0000      -0.519616       -14.1395
  25   2.0000      -0.493192       -13.4204
  26   2.0000      -0.477065       -12.9816
  27   2.0000      -0.442696       -12.0464
  28   2.0000      -0.434784       -11.8311
  29   2.0000      -0.418891       -11.3986
  30   2.0000      -0.378489       -10.2992
  31   0.0000       0.127969         3.4822
  32   0.0000       0.144437         3.9303
  33   0.0000       0.154276         4.1981
  34   0.0000       0.175493         4.7754
  35   0.0000       0.180187         4.9031

MULLIKEN ATOMIC CHARGES
-----------------------
   0 C :   -0.382488
   1 C :   -0.215195
   2 C :   -0.064506
   3 C :   -0.313911
   4 C :    0.023954
   5 N :   -0.349461
   6 C :    0.190782
   7 O :   -0.351281
   8 H :    0.134344
   9 H :    0.123050
  10 H :    0.122484
  11 H :    0.100233
  12 H :    0.138452
  13 H :    0.120922
  14 H :    0.137279
  15 H :    0.135674
  16 H :    0.130165
  17 H :    0.242205
  18 H :    0.077297
Sum of atomic charges:    0.0000000

LOEWDIN ATOMIC CHARGES
----------------------
   0 C :   -0.314412
   1 C :   -0.272697
   2 C :   -0.204460
   3 C :   -0.210692
   4 C :   -0.240881
   5 N :    0.098156
   6 C :   -0.432383
   7 O :    0.068796
   8 H :    0.120766
   9 H :    0.120120
  10 H :    0.120885
  11 H :    0.138590
  12 H :    0.145978
  13 H :    0.152434
  14 H :    0.132673
  15 H :    0.136916
  16 H :    0.145308
  17 H :    0.186906
  18 H :    0.107998

  Mayer bond orders larger than 0.1
B(  0-C ,  1-C ) :   0.9137 B(  0-C ,  8-H ) :   0.9432 B(  0-C ,  9-H ) :   0.9396
B(  0-C , 10-H ) :   0.9385 B(  1-C ,  2-C ) :   0.9357 B(  1-C , 11-H ) :   0.9286
B(  1-C , 12-H ) :   0.9331 B(  2-C ,  3-C ) :   0.8691 B(  2-C ,  4-C ) :   0.8896
B(  2-C , 13-H ) :   0.9215 B(  3-C ,  4-C ) :   0.8934 B(  3-C , 14-H ) :   0.9287
B(  3-C , 15-H ) :   0.9295 B(  4-C ,  5-N ) :   0.8137 B(  4-C , 16-H ) :   0.9356
B(  5-N ,  6-C ) :   1.1327 B(  5-N , 17-H ) :   0.8695 B(  6-C ,  7-O ) :   1.9106
B(  6-C , 18-H ) :   0.9304

MP2 TOTAL ENERGY:     -364.454362866 Eh
FINAL SINGLE POINT ENERGY      -364.454362866096

DIPOLE MOMENT
-------------
                                X             Y             Z
Electronic contribution:     -0.77449      -8.30567       3.00350
Nuclear contribution   :      0.66542       8.27016      -4.37315
                        -----------------------------------------
Total Dipole Moment    :     -0.10907      -0.03551      -1.36966
                        -----------------------------------------
Magnitude (a.u.)       :      1.37445
Magnitude (Debye)      :      3.49358

                             ****ORCA TERMINATED NORMALLY****
TOTAL RUN TIME: 0 days 0 hours 13 minutes 38 seconds 599 msec
