                         Program Version 3.0.3 - RELEASE   -
|  1> ! RI-MP2 RIJK def2-TZVP def2-TZVP/C def2-TZVP/JK TIGHTSCF
|  2> % maxcore 2000
|  3> % mp2 density relaxed end
|  4> *xyz 0 1
|  5>  C       -1.4667146664    -0.0951684696    -0.2017625690
|  6>  C        0.0628394569    -0.0673722028    -0.0699186782
|  7>  C        0.4866335734    -0.6209254774     1.2952309826
|  8>  O        0.0289413428     0.2887379628     2.2911678331
|  9>  C        0.7686889399    -0.8195682423    -1.2093271367
| 10>  O        0.4109211559    -2.1823770865    -1.0678269997
| 11>  C        0.5705882017    -0.1758565050    -2.6188716832
| 12>  C        1.9606340648     0.4969158228    -2.4802945137
| 13>  C        2.2942273276    -0.4946692944    -1.3356841359
| 14>  H       -1.8122985701     0.4487173806    -1.0854683813
| 15>  H       -1.8222801353    -1.1267398061    -0.2785055777
| 16>  H       -1.9186072275     0.3666764917     0.6788379464
| 17>  H        0.4019942111     0.9763828886    -0.1038921947
| 18>  H        0.0517182045    -1.6198492367     1.4335932572
| 19>  H        1.5806685017    -0.7287428489     1.3429826403
| 20>  H        0.1553027432    -0.1226142685     3.1505395832
| 21>  H        0.8175043150    -2.6758552623    -1.7867642196
| 22>  H        0.5696123905    -0.9503204151    -3.3938947050
| 23>  H       -0.3007821396     0.4635778126    -2.7744195327
| 24>  H        2.6107768192     0.4821169284    -3.3571378345
| 25>  H        1.8874221087     1.5278677465    -2.1256191695
| 26>  H        2.8116501968    -0.1074713839    -0.4547594706
| 27>  H        2.8434042551    -1.3693452943    -1.7005958808
| 28> *
| 29>
| 30>                          ****END OF INPUT****

CARTESIAN COORDINATES (ANGSTROEM)
---------------------------------
  C     -1.466715   -0.095168   -0.201763
  C      0.062839   -0.067372   -0.069919
  C      0.486634   -0.620925    1.295231
  O      0.028941    0.288738    2.291168
  C      0.768689   -0.819568   -1.209327
  O      0.410921   -2.182377   -1.067827
  C      0.570588   -0.175857   -2.618872
  C      1.960634    0.496916   -2.480295
  C      2.294227   -0.494669   -1.335684
  H     -1.812299    0.448717   -1.085468
  H     -1.822280   -1.126740   -0.278506
  H     -1.918607    0.366676    0.678838
  H      0.401994    0.976383   -0.103892
  H      0.051718   -1.619849    1.433593
  H      1.580669   -0.728743    1.342983
  H      0.155303   -0.122614    3.150540
  H      0.817504   -2.675855   -1.786764
  H      0.569612   -0.950320   -3.393895
  H     -0.300782    0.463578   -2.774420
  H      2.610777    0.482117   -3.357138
  H      1.887422    1.527868   -2.125619
  H      2.811650   -0.107471   -0.454759
  H      2.843404   -1.369345   -1.700596

 Total Charge           Charge          ....    0
 Multiplicity           Mult            ....    1
 Number of Electrons    NEL             ....   72
 Basis Dimension        Dim             ....  363

ORBITAL ENERGIES
----------------

  NO   OCC          E(Eh)            E(eV)
   0   2.0000     -20.554421      -559.3142
   1   2.0000     -20.547664      -559.1304
   2   2.0000     -11.283892      -307.0503
   3   2.0000     -11.263505      -306.4955
   4   2.0000     -11.223867      -305.4170
   5   2.0000     -11.221797      -305.3606
   6   2.0000     -11.221320      -305.3476
   7   2.0000     -11.220693      -305.3306
   8   2.0000     -11.197368      -304.6959
   9   2.0000      -1.365300       -37.1517
  10   2.0000      -1.350837       -36.7581
  11   2.0000      -1.126175       -30.6448
  12   2.0000      -1.045072       -28.4379
  13   2.0000      -0.920686       -25.0531
  14   2.0000      -0.895573       -24.3698
  15   2.0000      -0.881691       -23.9920
  16   2.0000      -0.799779       -21.7631
  17   2.0000      -0.749786       -20.4027
  18   2.0000      -0.689982       -18.7754
  19   2.0000      -0.681073       -18.5329
  20   2.0000      -0.647131       -17.6093
  21   2.0000      -0.627513       -17.0755
  22   2.0000      -0.596983       -16.2447
  23   2.0000      -0.589364       -16.0374
  24   2.0000      -0.571497       -15.5512
  25   2.0000      -0.559119       -15.2144
  26   2.0000      -0.538741       -14.6599
  27   2.0000      -0.528536       -14.3822
  28   2.0000      -0.508296       -13.8314
  29   2.0000      -0.488199       -13.2846
  30   2.0000      -0.474176       -12.9030
  31   2.0000      -0.464046       -12.6273
  32   2.0000      -0.459870       -12.5137
  33   2.0000      -0.434763       -11.8305
  34   2.0000      -0.423860       -11.5338
  35   2.0000      -0.406557       -11.0630
  36   0.0000       0.130248         3.5442
  37   0.0000       0.145874         3.9694
  38   0.0000       0.153868         4.1870
  39   0.0000       0.167411         4.5555
  40   0.0000       0.174609         4.7514

MULLIKEN ATOMIC CHARGES
-----------------------
   0 C :   -0.438184
   1 C :   -0.025966
   2 C :   -0.095173
   3 O :   -0.472462
   4 C :    0.163108
   5 O :   -0.468000
   6 C :   -0.219853
   7 C :   -0.252094
   8 C :   -0.219771
   9 H :    0.118265
  10 H :    0.138408
  11 H :    0.155804
  12 H :    0.090539
  13 H :    0.117348
  14 H :    0.092307
  15 H :    0.315470
  16 H :    0.308403
  17 H :    0.103292
  18 H :    0.121106
  19 H :    0.116435
  20 H :    0.125011
  21 H :    0.120896
  22 H :    0.105108
Sum of atomic charges:    0.0000000

LOEWDIN ATOMIC CHARGES
----------------------
   0 C :   -0.287904
   1 C :   -0.248007
   2 C :   -0.319371
   3 O :   -0.051913
   4 C :   -0.340397
   5 O :    0.016447
   6 C :   -0.207929
   7 C :   -0.245818
   8 C :   -0.212340
   9 H :    0.118400
  10 H :    0.127872
  11 H :    0.129290
  12 H :    0.163128
  13 H :    0.122384
  14 H :    0.116498
  15 H :    0.170886
  16 H :    0.171620
  17 H :    0.133321
  18 H :    0.127600
  19 H :    0.123268
  20 H :    0.133152
  21 H :    0.126904
  22 H :    0.132908

  Mayer bond orders larger than 0.1
B(  0-C ,  1-C ) :   0.9173 B(  0-C ,  9-H ) :   0.9364 B(  0-C , 10-H ) :   0.9333
B(  0-C , 11-H ) :   0.9375 B(  1-C ,  2-C ) :   0.9214 B(  1-C ,  4-C ) :   0.9036
B(  1-C , 12-H ) :   0.9191 B(  2-C ,  3-O ) :   1.0172 B(  2-C , 13-H ) :   0.9280
B(  2-C , 14-H ) :   0.9305 B(  3-O , 15-H ) :   0.8492 B(  4-C ,  5-O ) :   1.0068
B(  4-C ,  6-C ) :   0.8679 B(  4-C ,  8-C ) :   0.8665 B(  5-O , 16-H ) :   0.8390
B(  6-C ,  7-C ) :   0.9527 B(  6-C , 17-H ) :   0.9165 B(  6-C , 18-H ) :   0.9296
B(  7-C ,  8-C ) :   0.9512 B(  7-C , 19-H ) :   0.9288 B(  7-C , 20-H ) :   0.9262
B(  8-C , 21-H ) :   0.9264 B(  8-C , 22-H ) :   0.9167

MP2 TOTAL ENERGY:     -424.718543485 Eh
FINAL SINGLE POINT ENERGY      -424.718543484921

DIPOLE MOMENT
-------------
                                X             Y             Z
Electronic contribution:      0.36423      -1.85006       2.36049
Nuclear contribution   :      0.20116       1.48393      -2.66326
                        -----------------------------------------
Total Dipole Moment    :      0.56539      -0.36613      -0.30277
                        -----------------------------------------
Magnitude (a.u.)       :      0.73850
Magnitude (Debye)      :      1.87712

                             ****ORCA TERMINATED NORMALLY****
TOTAL RUN TIME: 0 days 0 hours 20 minutes 44 seconds 12 msec
