                         Program Version 3.0.3 - RELEASE   -
|  1> ! RI-MP2 RIJK def2-TZVP def2-TZVP/C def2-TZVP/JK TIGHTSCF
|  2> % maxcore 2000
|  3> % mp2 density relaxed end
|  4> *xyz 0 1
|  5>  C        0.0298330073     1.3736254285    -0.0448919235
|  6>  O        0.1383716525    -0.0574765381    -0.0166230481
|  7>  C        0.6632625731    -0.6177409760    -1.1232698493
|  8>  O        1.0476034265    -0.0105793624    -2.0852190876
|  9>  C        0.6337361730    -2.1317213352    -0.9781704499
| 10>  C       -0.7507143191    -2.7396901857    -1.3832403595
| 11>  N       -0.4659969176    -3.5207492501    -2.5945617313
| 12>  C        0.7823036115    -3.4358722601    -2.7784454098
| 13>  O        1.5484735097    -2.7190530141    -1.9161136799
| 14>  H        1.0174157590     1.8299249545    -0.1465765860
| 15>  H       -0.5946363850     1.6950684582    -0.8819799908
| 16>  H       -0.4258643587     1.6551035704     0.9040641924
| 17>  H        0.9375744190    -2.4087028262     0.0330536552
| 18>  H       -1.1561228992    -3.3895057406    -0.6018869536
| 19>  H       -1.4999410520    -1.9710238537    -1.5942578026
| 20>  H        1.3381556801    -3.9028758294    -3.5828517956
| 21> *
| 22>
| 23>                          ****END OF INPUT****

CARTESIAN COORDINATES (ANGSTROEM)
---------------------------------
  C      0.029833    1.373625   -0.044892
  O      0.138372   -0.057477   -0.016623
  C      0.663263   -0.617741   -1.123270
  O      1.047603   -0.010579   -2.085219
  C      0.633736   -2.131721   -0.978170
  C     -0.750714   -2.739690   -1.383240
  N     -0.465997   -3.520749   -2.594562
  C      0.782304   -3.435872   -2.778445
  O      1.548474   -2.719053   -1.916114
  H      1.017416    1.829925   -0.146577
  H     -0.594636    1.695068   -0.881980
  H     -0.425864    1.655104    0.904064
  H      0.937574   -2.408703    0.033054
  H     -1.156123   -3.389506   -0.601887
  H     -1.499941   -1.971024   -1.594258
  H      1.338156   -3.902876   -3.582852

 Total Charge           Charge          ....    0
 Multiplicity           Mult            ....    1
 Number of Electrons    NEL             ....   68
 Basis Dimension        Dim             ....  321

ORBITAL ENERGIES
----------------

  NO   OCC          E(Eh)            E(eV)
   0   2.0000     -20.616771      -561.0109
   1   2.0000     -20.606892      -560.7420
   2   2.0000     -20.556044      -559.3584
   3   2.0000     -15.557912      -423.3523
   4   2.0000     -11.389234      -309.9168
   5   2.0000     -11.339396      -308.5606
   6   2.0000     -11.320080      -308.0350
   7   2.0000     -11.295784      -307.3739
   8   2.0000     -11.279350      -306.9267
   9   2.0000      -1.476933       -40.1894
  10   2.0000      -1.449172       -39.4340
  11   2.0000      -1.373591       -37.3773
  12   2.0000      -1.224038       -33.3078
  13   2.0000      -1.067801       -29.0563
  14   2.0000      -0.981798       -26.7161
  15   2.0000      -0.891093       -24.2479
  16   2.0000      -0.828302       -22.5392
  17   2.0000      -0.780879       -21.2488
  18   2.0000      -0.740261       -20.1435
  19   2.0000      -0.727200       -19.7881
  20   2.0000      -0.686981       -18.6937
  21   2.0000      -0.681802       -18.5528
  22   2.0000      -0.653191       -17.7742
  23   2.0000      -0.607251       -16.5241
  24   2.0000      -0.590804       -16.0766
  25   2.0000      -0.574886       -15.6435
  26   2.0000      -0.568923       -15.4812
  27   2.0000      -0.555979       -15.1290
  28   2.0000      -0.540131       -14.6977
  29   2.0000      -0.524251       -14.2656
  30   2.0000      -0.476350       -12.9621
  31   2.0000      -0.468099       -12.7376
  32   2.0000      -0.444088       -12.0843
  33   2.0000      -0.393500       -10.7077
  34   0.0000       0.133768         3.6400
  35   0.0000       0.147342         4.0094
  36   0.0000       0.156448         4.2572
  37   0.0000       0.172387         4.6909
  38   0.0000       0.180991         4.9250

MULLIKEN ATOMIC CHARGES
-----------------------
   0 C :   -0.224114
   1 O :   -0.264229
   2 C :    0.255734
   3 O :   -0.305079
   4 C :    0.110305
   5 C :   -0.144835
   6 N :   -0.265118
   7 C :    0.105526
   8 O :   -0.258292
   9 H :    0.146047
  10 H :    0.144026
  11 H :    0.147994
  12 H :    0.136046
  13 H :    0.128441
  14 H :    0.135504
  15 H :    0.152044
Sum of atomic charges:    0.0000000

LOEWDIN ATOMIC CHARGES
----------------------
   0 C :   -0.303665
   1 O :    0.230816
   2 C :   -0.477326
   3 O :    0.147459
   4 C :   -0.242225
   5 C :   -0.244353
   6 N :    0.066098
   7 C :   -0.337425
   8 O :    0.249440
   9 H :    0.116164
  10 H :    0.115429
  11 H :    0.116061
  12 H :    0.153073
  13 H :    0.134954
  14 H :    0.138716
  15 H :    0.136785

  Mayer bond orders larger than 0.1
B(  0-C ,  1-O ) :   0.8352 B(  0-C ,  9-H ) :   0.9396 B(  0-C , 10-H ) :   0.9376
B(  0-C , 11-H ) :   0.9328 B(  1-O ,  2-C ) :   1.1134 B(  2-C ,  3-O ) :   1.9679
B(  2-C ,  4-C ) :   0.9021 B(  4-C ,  5-C ) :   0.8949 B(  4-C ,  8-O ) :   0.8907
B(  4-C , 12-H ) :   0.9169 B(  5-C ,  6-N ) :   0.9370 B(  5-C , 13-H ) :   0.9225
B(  5-C , 14-H ) :   0.9192 B(  6-N ,  7-C ) :   1.8261 B(  7-C ,  8-O ) :   1.0564
B(  7-C , 15-H ) :   0.9197

MP2 TOTAL ENERGY:     -474.305297178 Eh
FINAL SINGLE POINT ENERGY      -474.305297177593

DIPOLE MOMENT
-------------
                                X             Y             Z
Electronic contribution:      2.85847      -3.24915      -2.72325
Nuclear contribution   :     -3.04580       3.64512       3.76204
                        -----------------------------------------
Total Dipole Moment    :     -0.18733       0.39597       1.03879
                        -----------------------------------------
Magnitude (a.u.)       :      1.12737
Magnitude (Debye)      :      2.86555

                             ****ORCA TERMINATED NORMALLY****
TOTAL RUN TIME: 0 days 0 hours 13 minutes 9 seconds 610 msec
