                         Program Version 3.0.3 - RELEASE   -
|  1> ! RI-MP2 RIJK def2-TZVP def2-TZVP/C def2-TZVP/JK TIGHTSCF
|  2> % maxcore 2000
|  3> % mp2 density relaxed end
|  4> *xyz 0 1
|  5>  C        0.0405418731     1.3672064912     0.3718545008
|  6>  N        0.2077430762    -0.0508734618     0.1211686676
|  7>  C        0.6246242958    -0.5689801627    -0.9530380620
|  8>  C        0.7279096771    -2.0830231052    -1.1033527514
|  9>  C        0.9420528156    -2.3280786601    -2.6004528039
| 10>  C        1.3098063128    -0.9629839059    -3.1592211291
| 11>  O        1.7291279339    -0.7087482120    -4.2642347145
| 12>  N        1.0708212232    -0.0092995767    -2.1697837323
| 13>  C        1.3690546767     1.3868378133    -2.4544523928
| 14>  H       -0.2217200572     1.9716023487    -0.5033930536
| 15>  H       -0.7579260216     1.4911659439     1.1103004387
| 16>  H        0.9487967354     1.7918185878     0.8196211136
| 17>  H        1.5817013740    -2.4323788292    -0.5141260983
| 18>  H       -0.1635406629    -2.5568097129    -0.6917756056
| 19>  H        1.7294916363    -3.0455053202    -2.8389306259
| 20>  H        0.0326095184    -2.6686951639    -3.1064486730
| 21>  H        1.9807477310     1.3990312783    -3.3581595688
| 22>  H        0.4613680103     1.9674349683    -2.6424116987
| 23>  H        1.9204739020     1.8375518190    -1.6283387209
| 24> *
| 25>
| 26>                          ****END OF INPUT****

CARTESIAN COORDINATES (ANGSTROEM)
---------------------------------
  C      0.040542    1.367206    0.371855
  N      0.207743   -0.050873    0.121169
  C      0.624624   -0.568980   -0.953038
  C      0.727910   -2.083023   -1.103353
  C      0.942053   -2.328079   -2.600453
  C      1.309806   -0.962984   -3.159221
  O      1.729128   -0.708748   -4.264235
  N      1.070821   -0.009300   -2.169784
  C      1.369055    1.386838   -2.454452
  H     -0.221720    1.971602   -0.503393
  H     -0.757926    1.491166    1.110300
  H      0.948797    1.791819    0.819621
  H      1.581701   -2.432379   -0.514126
  H     -0.163541   -2.556810   -0.691776
  H      1.729492   -3.045505   -2.838931
  H      0.032610   -2.668695   -3.106449
  H      1.980748    1.399031   -3.358160
  H      0.461368    1.967435   -2.642412
  H      1.920474    1.837552   -1.628339

 Total Charge           Charge          ....    0
 Multiplicity           Mult            ....    1
 Number of Electrons    NEL             ....   68
 Basis Dimension        Dim             ....  339

ORBITAL ENERGIES
----------------

  NO   OCC          E(Eh)            E(eV)
   0   2.0000     -20.536006      -558.8131
   1   2.0000     -15.611953      -424.8229
   2   2.0000     -15.541063      -422.8938
   3   2.0000     -11.361881      -309.1725
   4   2.0000     -11.326746      -308.2164
   5   2.0000     -11.269258      -306.6521
   6   2.0000     -11.250943      -306.1537
   7   2.0000     -11.249199      -306.1063
   8   2.0000     -11.246812      -306.0413
   9   2.0000      -1.402926       -38.1756
  10   2.0000      -1.297699       -35.3122
  11   2.0000      -1.199844       -32.6494
  12   2.0000      -1.090249       -29.6672
  13   2.0000      -0.976458       -26.5708
  14   2.0000      -0.956041       -26.0152
  15   2.0000      -0.892345       -24.2819
  16   2.0000      -0.819577       -22.3018
  17   2.0000      -0.739873       -20.1330
  18   2.0000      -0.681429       -18.5426
  19   2.0000      -0.675669       -18.3859
  20   2.0000      -0.654331       -17.8053
  21   2.0000      -0.623237       -16.9591
  22   2.0000      -0.607338       -16.5265
  23   2.0000      -0.599789       -16.3211
  24   2.0000      -0.589799       -16.0492
  25   2.0000      -0.559082       -15.2134
  26   2.0000      -0.555609       -15.1189
  27   2.0000      -0.553944       -15.0736
  28   2.0000      -0.527853       -14.3636
  29   2.0000      -0.517641       -14.0857
  30   2.0000      -0.457620       -12.4525
  31   2.0000      -0.437500       -11.9050
  32   2.0000      -0.395518       -10.7626
  33   2.0000      -0.362869        -9.8742
  34   0.0000       0.125666         3.4195
  35   0.0000       0.138803         3.7770
  36   0.0000       0.151621         4.1258
  37   0.0000       0.159514         4.3406
  38   0.0000       0.174330         4.7438

MULLIKEN ATOMIC CHARGES
-----------------------
   0 C :   -0.294479
   1 N :   -0.240248
   2 C :    0.028881
   3 C :   -0.150130
   4 C :   -0.212083
   5 C :    0.195293
   6 O :   -0.336172
   7 N :   -0.079510
   8 C :   -0.357780
   9 H :    0.113713
  10 H :    0.148770
  11 H :    0.140582
  12 H :    0.130624
  13 H :    0.136665
  14 H :    0.144819
  15 H :    0.138591
  16 H :    0.185022
  17 H :    0.152664
  18 H :    0.154780
Sum of atomic charges:    0.0000000

LOEWDIN ATOMIC CHARGES
----------------------
   0 C :   -0.341111
   1 N :    0.082475
   2 C :   -0.302808
   3 C :   -0.202880
   4 C :   -0.212739
   5 C :   -0.397907
   6 O :    0.107182
   7 N :    0.216208
   8 C :   -0.278250
   9 H :    0.106992
  10 H :    0.118400
  11 H :    0.118024
  12 H :    0.152085
  13 H :    0.147875
  14 H :    0.150356
  15 H :    0.155218
  16 H :    0.136810
  17 H :    0.119615
  18 H :    0.124456

  Mayer bond orders larger than 0.1
B(  0-C ,  1-N ) :   0.8696 B(  0-C ,  9-H ) :   0.9244 B(  0-C , 10-H ) :   0.9453
B(  0-C , 11-H ) :   0.9278 B(  1-N ,  2-C ) :   1.9962 B(  2-C ,  3-C ) :   0.8972
B(  2-C ,  7-N ) :   1.0083 B(  3-C ,  4-C ) :   0.9373 B(  3-C , 12-H ) :   0.9079
B(  3-C , 13-H ) :   0.9272 B(  4-C ,  5-C ) :   0.9234 B(  4-C , 14-H ) :   0.9248
B(  4-C , 15-H ) :   0.9039 B(  5-C ,  6-O ) :   1.9692 B(  5-C ,  7-N ) :   1.0599
B(  7-N ,  8-C ) :   0.8459 B(  8-C , 16-H ) :   0.9165 B(  8-C , 17-H ) :   0.9338
B(  8-C , 18-H ) :   0.9303

MP2 TOTAL ENERGY:     -418.547033567 Eh
FINAL SINGLE POINT ENERGY      -418.547033566871

DIPOLE MOMENT
-------------
                                X             Y             Z
Electronic contribution:      1.26228      -3.27895      -4.03332
Nuclear contribution   :     -1.37358       3.54259       4.49416
                        -----------------------------------------
Total Dipole Moment    :     -0.11130       0.26364       0.46084
                        -----------------------------------------
Magnitude (a.u.)       :      0.54246
Magnitude (Debye)      :      1.37883

                             ****ORCA TERMINATED NORMALLY****
TOTAL RUN TIME: 0 days 0 hours 16 minutes 53 seconds 610 msec
