                         Program Version 3.0.3 - RELEASE   -
|  1> ! RI-MP2 RIJK def2-TZVP def2-TZVP/C def2-TZVP/JK TIGHTSCF
|  2> % maxcore 2000
|  3> % mp2 density relaxed end
|  4> *xyz 0 1
|  5>  C       -0.0923374802     1.5519710685     0.0710916552
|  6>  C       -0.0717925766     0.0283670825    -0.0801731856
|  7>  C        0.7580054162    -0.4759430290    -1.2777193733
|  8>  C        2.2468415111    -0.1875595433    -1.1853772457
|  9>  C        2.9918280002    -1.2915754017    -1.2827346520
| 10>  C        2.1124986180    -2.4897130059    -1.4150295042
| 11>  O        1.2413556129    -2.6884285608    -0.2712337992
| 12>  C        0.7195530458    -2.0084880971    -1.4235573693
| 13>  C       -0.4284321329    -2.6775630032    -2.1277409951
| 14>  H        0.9067457588     1.9550246089     0.2652243131
| 15>  H       -0.4767060964     2.0381563017    -0.8329350416
| 16>  H       -0.7334809210     1.8514546253     0.9059572730
| 17>  H        0.3198592678    -0.4407676726     0.8280301480
| 18>  H       -1.1013861382    -0.3330486113    -0.1985671464
| 19>  H        0.3485359052    -0.0195339684    -2.1922348412
| 20>  H        2.6344705976     0.8125613604    -1.0270298244
| 21>  H        4.0731426113    -1.3404372949    -1.2445040727
| 22>  H        2.4378374607    -3.4039337508    -1.9036481174
| 23>  H       -1.3721951848    -2.4870079939    -1.6038519068
| 24>  H       -0.5313062922    -2.3007656900    -3.1509011237
| 25>  H       -0.2766523432    -3.7591376146    -2.1645326606
| 26> *
| 27>
| 28>                          ****END OF INPUT****

CARTESIAN COORDINATES (ANGSTROEM)
---------------------------------
  C     -0.092337    1.551971    0.071092
  C     -0.071793    0.028367   -0.080173
  C      0.758005   -0.475943   -1.277719
  C      2.246842   -0.187560   -1.185377
  C      2.991828   -1.291575   -1.282735
  C      2.112499   -2.489713   -1.415030
  O      1.241356   -2.688429   -0.271234
  C      0.719553   -2.008488   -1.423557
  C     -0.428432   -2.677563   -2.127741
  H      0.906746    1.955025    0.265224
  H     -0.476706    2.038156   -0.832935
  H     -0.733481    1.851455    0.905957
  H      0.319859   -0.440768    0.828030
  H     -1.101386   -0.333049   -0.198567
  H      0.348536   -0.019534   -2.192235
  H      2.634471    0.812561   -1.027030
  H      4.073143   -1.340437   -1.244504
  H      2.437837   -3.403934   -1.903648
  H     -1.372195   -2.487008   -1.603852
  H     -0.531306   -2.300766   -3.150901
  H     -0.276652   -3.759138   -2.164533

 Total Charge           Charge          ....    0
 Multiplicity           Mult            ....    1
 Number of Electrons    NEL             ....   68
 Basis Dimension        Dim             ....  351

ORBITAL ENERGIES
----------------

  NO   OCC          E(Eh)            E(eV)
   0   2.0000     -20.555397      -559.3408
   1   2.0000     -11.283677      -307.0445
   2   2.0000     -11.279355      -306.9269
   3   2.0000     -11.236960      -305.7732
   4   2.0000     -11.233635      -305.6827
   5   2.0000     -11.228262      -305.5366
   6   2.0000     -11.224330      -305.4295
   7   2.0000     -11.221811      -305.3610
   8   2.0000     -11.215493      -305.1891
   9   2.0000      -1.400381       -38.1063
  10   2.0000      -1.116659       -30.3858
  11   2.0000      -1.041618       -28.3439
  12   2.0000      -1.008023       -27.4297
  13   2.0000      -0.937139       -25.5009
  14   2.0000      -0.887596       -24.1527
  15   2.0000      -0.829720       -22.5778
  16   2.0000      -0.762247       -20.7418
  17   2.0000      -0.741797       -20.1853
  18   2.0000      -0.691286       -18.8108
  19   2.0000      -0.625488       -17.0204
  20   2.0000      -0.617594       -16.8056
  21   2.0000      -0.596829       -16.2405
  22   2.0000      -0.586925       -15.9710
  23   2.0000      -0.565182       -15.3794
  24   2.0000      -0.552708       -15.0399
  25   2.0000      -0.545155       -14.8344
  26   2.0000      -0.524393       -14.2695
  27   2.0000      -0.515305       -14.0222
  28   2.0000      -0.490083       -13.3358
  29   2.0000      -0.485090       -13.2000
  30   2.0000      -0.471532       -12.8310
  31   2.0000      -0.436903       -11.8887
  32   2.0000      -0.405875       -11.0444
  33   2.0000      -0.350196        -9.5293
  34   0.0000       0.127807         3.4778
  35   0.0000       0.144078         3.9205
  36   0.0000       0.154413         4.2018
  37   0.0000       0.171237         4.6596
  38   0.0000       0.178147         4.8476

MULLIKEN ATOMIC CHARGES
-----------------------
   0 C :   -0.404938
   1 C :   -0.239488
   2 C :    0.037359
   3 C :   -0.222864
   4 C :   -0.182494
   5 C :    0.033900
   6 O :   -0.342421
   7 C :    0.222020
   8 C :   -0.436294
   9 H :    0.126841
  10 H :    0.122934
  11 H :    0.137436
  12 H :    0.138523
  13 H :    0.107605
  14 H :    0.094657
  15 H :    0.131816
  16 H :    0.137382
  17 H :    0.120138
  18 H :    0.137992
  19 H :    0.135217
  20 H :    0.144677
Sum of atomic charges:    0.0000000

LOEWDIN ATOMIC CHARGES
----------------------
   0 C :   -0.318047
   1 C :   -0.259548
   2 C :   -0.190810
   3 C :   -0.112507
   4 C :   -0.140614
   5 C :   -0.218143
   6 O :    0.178925
   7 C :   -0.288664
   8 C :   -0.267058
   9 H :    0.119547
  10 H :    0.120264
  11 H :    0.122646
  12 H :    0.145060
  13 H :    0.138111
  14 H :    0.161704
  15 H :    0.138603
  16 H :    0.138627
  17 H :    0.136190
  18 H :    0.130344
  19 H :    0.131266
  20 H :    0.134104

  Mayer bond orders larger than 0.1
B(  0-C ,  1-C ) :   0.9124 B(  0-C ,  9-H ) :   0.9421 B(  0-C , 10-H ) :   0.9369
B(  0-C , 11-H ) :   0.9426 B(  1-C ,  2-C ) :   0.8708 B(  1-C , 12-H ) :   0.9312
B(  1-C , 13-H ) :   0.9300 B(  2-C ,  3-C ) :   0.9198 B(  2-C ,  7-C ) :   0.9176
B(  2-C , 14-H ) :   0.9112 B(  3-C ,  4-C ) :   1.7855 B(  3-C , 15-H ) :   0.9269
B(  4-C ,  5-C ) :   0.9111 B(  4-C , 16-H ) :   0.9218 B(  5-C ,  6-O ) :   0.8911
B(  5-C ,  7-C ) :   0.9505 B(  5-C , 17-H ) :   0.9311 B(  6-O ,  7-C ) :   0.8677
B(  7-C ,  8-C ) :   0.8730 B(  8-C , 18-H ) :   0.9367 B(  8-C , 19-H ) :   0.9373
B(  8-C , 20-H ) :   0.9426

MP2 TOTAL ENERGY:     -386.407576302 Eh
FINAL SINGLE POINT ENERGY      -386.407576302223

DIPOLE MOMENT
-------------
                                X             Y             Z
Electronic contribution:      5.42254      -5.47133      -0.08514
Nuclear contribution   :     -5.49072       5.80857      -0.53134
                        -----------------------------------------
Total Dipole Moment    :     -0.06818       0.33724      -0.61648
                        -----------------------------------------
Magnitude (a.u.)       :      0.70599
Magnitude (Debye)      :      1.79449

                             ****ORCA TERMINATED NORMALLY****
TOTAL RUN TIME: 0 days 0 hours 32 minutes 54 seconds 808 msec
