                         Program Version 3.0.3 - RELEASE   -
|  1> ! RI-MP2 RIJK def2-TZVP def2-TZVP/C def2-TZVP/JK TIGHTSCF
|  2> % maxcore 2000
|  3> % mp2 density relaxed end
|  4> *xyz 0 1
|  5>  C        0.0181923509     1.5029623386    -0.2992502354
|  6>  C       -0.0451847826     0.0910633665     0.2948309135
|  7>  C       -1.4321520916    -0.5157360621     0.2287430902
|  8>  C       -1.9075265158    -1.2093254184    -1.0324044124
|  9>  C       -1.6305286635    -2.0049998589     0.2080273966
| 10>  C       -0.6291782694    -3.1593495964     0.3527267912
| 11>  N       -1.6591025756    -4.0185161926     1.0475140909
| 12>  C       -2.0426650826    -3.2802752814     2.2648828379
| 13>  C       -2.6223234434    -2.8417925706     0.9784970653
| 14>  H        1.0298815262     1.9159796457    -0.2368715904
| 15>  H       -0.2820544563     1.4995165061    -1.3521671830
| 16>  H       -0.6538775827     2.1847200881     0.2334594587
| 17>  H        0.6603595581    -0.5616386017    -0.2352139458
| 18>  H        0.2934631081     0.1180600266     1.3391643322
| 19>  H       -2.1934876447     0.0479706428     0.7660648014
| 20>  H       -2.9402343441    -1.0792528929    -1.3412063597
| 21>  H       -1.2054424792    -1.2997619317    -1.8573119494
| 22>  H       -0.3395891166    -3.6192315180    -0.5953561595
| 23>  H        0.2681683370    -2.9828524626     0.9571524040
| 24>  H       -2.6686110795    -3.8662436509     2.9314098041
| 25>  H       -1.3022951854    -2.6568116837     2.7632661158
| 26>  H       -3.6699829874    -2.9768290023     0.7251867238
| 27> *
| 28>
| 29>                          ****END OF INPUT****

CARTESIAN COORDINATES (ANGSTROEM)
---------------------------------
  C      0.018192    1.502962   -0.299250
  C     -0.045185    0.091063    0.294831
  C     -1.432152   -0.515736    0.228743
  C     -1.907527   -1.209325   -1.032404
  C     -1.630529   -2.005000    0.208027
  C     -0.629178   -3.159350    0.352727
  N     -1.659103   -4.018516    1.047514
  C     -2.042665   -3.280275    2.264883
  C     -2.622323   -2.841793    0.978497
  H      1.029882    1.915980   -0.236872
  H     -0.282054    1.499517   -1.352167
  H     -0.653878    2.184720    0.233459
  H      0.660360   -0.561639   -0.235214
  H      0.293463    0.118060    1.339164
  H     -2.193488    0.047971    0.766065
  H     -2.940234   -1.079253   -1.341206
  H     -1.205442   -1.299762   -1.857312
  H     -0.339589   -3.619232   -0.595356
  H      0.268168   -2.982852    0.957152
  H     -2.668611   -3.866244    2.931410
  H     -1.302295   -2.656812    2.763266
  H     -3.669983   -2.976829    0.725187

 Total Charge           Charge          ....    0
 Multiplicity           Mult            ....    1
 Number of Electrons    NEL             ....   68
 Basis Dimension        Dim             ....  357

ORBITAL ENERGIES
----------------

  NO   OCC          E(Eh)            E(eV)
   0   2.0000     -15.556879      -423.3242
   1   2.0000     -11.258932      -306.3711
   2   2.0000     -11.253197      -306.2151
   3   2.0000     -11.252181      -306.1874
   4   2.0000     -11.239812      -305.8508
   5   2.0000     -11.230483      -305.5970
   6   2.0000     -11.226821      -305.4973
   7   2.0000     -11.225191      -305.4530
   8   2.0000     -11.215000      -305.1757
   9   2.0000      -1.287277       -35.0286
  10   2.0000      -1.145793       -31.1786
  11   2.0000      -1.026629       -27.9360
  12   2.0000      -0.969827       -26.3903
  13   2.0000      -0.887963       -24.1627
  14   2.0000      -0.866482       -23.5782
  15   2.0000      -0.825424       -22.4609
  16   2.0000      -0.782834       -21.3020
  17   2.0000      -0.721641       -19.6368
  18   2.0000      -0.683827       -18.6079
  19   2.0000      -0.647606       -17.6223
  20   2.0000      -0.624789       -17.0014
  21   2.0000      -0.609736       -16.5918
  22   2.0000      -0.581527       -15.8241
  23   2.0000      -0.561517       -15.2797
  24   2.0000      -0.551653       -15.0112
  25   2.0000      -0.523138       -14.2353
  26   2.0000      -0.505484       -13.7549
  27   2.0000      -0.488941       -13.3048
  28   2.0000      -0.482222       -13.1219
  29   2.0000      -0.467434       -12.7195
  30   2.0000      -0.435022       -11.8376
  31   2.0000      -0.423289       -11.5183
  32   2.0000      -0.397948       -10.8287
  33   2.0000      -0.349723        -9.5165
  34   0.0000       0.133896         3.6435
  35   0.0000       0.156438         4.2569
  36   0.0000       0.158683         4.3180
  37   0.0000       0.163001         4.4355
  38   0.0000       0.180378         4.9083

MULLIKEN ATOMIC CHARGES
-----------------------
   0 C :   -0.384231
   1 C :   -0.232694
   2 C :   -0.086860
   3 C :   -0.322741
   4 C :    0.049584
   5 C :   -0.132475
   6 N :   -0.227414
   7 C :   -0.144611
   8 C :   -0.114969
   9 H :    0.133081
  10 H :    0.127551
  11 H :    0.121832
  12 H :    0.110230
  13 H :    0.113917
  14 H :    0.116688
  15 H :    0.131182
  16 H :    0.128673
  17 H :    0.119412
  18 H :    0.117847
  19 H :    0.127749
  20 H :    0.119760
  21 H :    0.128490
Sum of atomic charges:   -0.0000000

LOEWDIN ATOMIC CHARGES
----------------------
   0 C :   -0.314063
   1 C :   -0.274063
   2 C :   -0.192841
   3 C :   -0.184471
   4 C :   -0.213217
   5 C :   -0.202731
   6 N :    0.099343
   7 C :   -0.250241
   8 C :   -0.180282
   9 H :    0.119968
  10 H :    0.121914
  11 H :    0.120980
  12 H :    0.140397
  13 H :    0.138057
  14 H :    0.151278
  15 H :    0.135110
  16 H :    0.136917
  17 H :    0.131341
  18 H :    0.123829
  19 H :    0.131746
  20 H :    0.126705
  21 H :    0.134322

  Mayer bond orders larger than 0.1
B(  0-C ,  1-C ) :   0.9246 B(  0-C ,  9-H ) :   0.9412 B(  0-C , 10-H ) :   0.9395
B(  0-C , 11-H ) :   0.9376 B(  1-C ,  2-C ) :   0.9051 B(  1-C , 12-H ) :   0.9299
B(  1-C , 13-H ) :   0.9373 B(  2-C ,  3-C ) :   0.9169 B(  2-C ,  4-C ) :   0.8249
B(  2-C , 14-H ) :   0.9145 B(  3-C ,  4-C ) :   0.8735 B(  3-C , 15-H ) :   0.9244
B(  3-C , 16-H ) :   0.9190 B(  4-C ,  5-C ) :   0.9495 B(  4-C ,  8-C ) :   0.9446
B(  5-C ,  6-N ) :   0.9395 B(  5-C , 17-H ) :   0.9114 B(  5-C , 18-H ) :   0.9340
B(  6-N ,  7-C ) :   0.8848 B(  6-N ,  8-C ) :   0.9228 B(  7-C ,  8-C ) :   0.9557
B(  7-C , 19-H ) :   0.9295 B(  7-C , 20-H ) :   0.9038 B(  8-C , 21-H ) :   0.8935

MP2 TOTAL ENERGY:     -366.484892581 Eh
FINAL SINGLE POINT ENERGY      -366.484892580566

DIPOLE MOMENT
-------------
                                X             Y             Z
Electronic contribution:     -3.55836      -7.28679       1.62942
Nuclear contribution   :      3.63340       8.00454      -1.57631
                        -----------------------------------------
Total Dipole Moment    :      0.07504       0.71776       0.05311
                        -----------------------------------------
Magnitude (a.u.)       :      0.72362
Magnitude (Debye)      :      1.83929

                             ****ORCA TERMINATED NORMALLY****
TOTAL RUN TIME: 0 days 0 hours 32 minutes 31 seconds 354 msec
