                         Program Version 3.0.3 - RELEASE   -
|  1> ! RI-MP2 RIJK def2-TZVP def2-TZVP/C def2-TZVP/JK TIGHTSCF
|  2> % maxcore 2000
|  3> % mp2 density relaxed end
|  4> *xyz 0 1
|  5>  C        0.3676034868     0.8012473295    -0.1852460876
|  6>  O       -0.1221426463    -0.2203764701     0.6657686140
|  7>  C       -1.3920417138    -0.6500387667     0.3208786225
|  8>  C       -1.5811154993    -1.7663365374    -0.7004213695
|  9>  C       -0.3548100411    -2.5960977900    -1.0347730038
| 10>  C        0.0974390691    -3.1764780859     0.2961926205
| 11>  N        1.1434066486    -3.8524787690     0.4844268298
| 12>  O       -0.8135590675    -2.8641060603     1.2771781652
| 13>  C       -1.8164793783    -2.0130802943     0.7762024585
| 14>  H        1.3806541818     1.0347210773     0.1481175098
| 15>  H        0.3958568849     0.4784623721    -1.2349551728
| 16>  H       -0.2511943405     1.7081379128    -0.1168023696
| 17>  H       -2.1624417565     0.1238616824     0.3324081519
| 18>  H       -2.3983128006    -1.7102589147    -1.4091157290
| 19>  H       -0.6074073493    -3.4087032276    -1.7222300341
| 20>  H        0.4655308259    -2.0321500795    -1.4842925864
| 21>  H        1.2283415974    -4.1183219289     1.4665627348
| 22>  H       -2.7807401515    -2.1906382997     1.2360131957
| 23> *
| 24>
| 25>                          ****END OF INPUT****

CARTESIAN COORDINATES (ANGSTROEM)
---------------------------------
  C      0.367603    0.801247   -0.185246
  O     -0.122143   -0.220376    0.665769
  C     -1.392042   -0.650039    0.320879
  C     -1.581115   -1.766337   -0.700421
  C     -0.354810   -2.596098   -1.034773
  C      0.097439   -3.176478    0.296193
  N      1.143407   -3.852479    0.484427
  O     -0.813559   -2.864106    1.277178
  C     -1.816479   -2.013080    0.776202
  H      1.380654    1.034721    0.148118
  H      0.395857    0.478462   -1.234955
  H     -0.251194    1.708138   -0.116802
  H     -2.162442    0.123862    0.332408
  H     -2.398313   -1.710259   -1.409116
  H     -0.607407   -3.408703   -1.722230
  H      0.465531   -2.032150   -1.484293
  H      1.228342   -4.118322    1.466563
  H     -2.780740   -2.190638    1.236013

 Total Charge           Charge          ....    0
 Multiplicity           Mult            ....    1
 Number of Electrons    NEL             ....   68
 Basis Dimension        Dim             ....  333

ORBITAL ENERGIES
----------------

  NO   OCC          E(Eh)            E(eV)
   0   2.0000     -20.594622      -560.4082
   1   2.0000     -20.575623      -559.8912
   2   2.0000     -15.524028      -422.4303
   3   2.0000     -11.333305      -308.3949
   4   2.0000     -11.301379      -307.5262
   5   2.0000     -11.299411      -307.4726
   6   2.0000     -11.282819      -307.0211
   7   2.0000     -11.249942      -306.1265
   8   2.0000     -11.247512      -306.0604
   9   2.0000      -1.438117       -39.1332
  10   2.0000      -1.395563       -37.9752
  11   2.0000      -1.193248       -32.4699
  12   2.0000      -1.147051       -31.2128
  13   2.0000      -1.011671       -27.5290
  14   2.0000      -0.943764       -25.6811
  15   2.0000      -0.849155       -23.1067
  16   2.0000      -0.807014       -21.9600
  17   2.0000      -0.772265       -21.0144
  18   2.0000      -0.730131       -19.8679
  19   2.0000      -0.679700       -18.4956
  20   2.0000      -0.674462       -18.3530
  21   2.0000      -0.647235       -17.6122
  22   2.0000      -0.642288       -17.4776
  23   2.0000      -0.604865       -16.4592
  24   2.0000      -0.595632       -16.2080
  25   2.0000      -0.575323       -15.6553
  26   2.0000      -0.543234       -14.7822
  27   2.0000      -0.528490       -14.3809
  28   2.0000      -0.513975       -13.9860
  29   2.0000      -0.477578       -12.9956
  30   2.0000      -0.441874       -12.0240
  31   2.0000      -0.430204       -11.7064
  32   2.0000      -0.401805       -10.9337
  33   2.0000      -0.380356       -10.3500
  34   0.0000       0.131796         3.5863
  35   0.0000       0.150548         4.0966
  36   0.0000       0.159196         4.3319
  37   0.0000       0.176134         4.7929
  38   0.0000       0.185444         5.0462

MULLIKEN ATOMIC CHARGES
-----------------------
   0 C :   -0.217687
   1 O :   -0.291694
   2 C :    0.005073
   3 C :   -0.177322
   4 C :   -0.122424
   5 C :    0.099984
   6 N :   -0.378450
   7 O :   -0.257512
   8 C :    0.072920
   9 H :    0.149138
  10 H :    0.116785
  11 H :    0.118667
  12 H :    0.106592
  13 H :    0.137589
  14 H :    0.144265
  15 H :    0.128535
  16 H :    0.225187
  17 H :    0.140354
Sum of atomic charges:    0.0000000

LOEWDIN ATOMIC CHARGES
----------------------
   0 C :   -0.338732
   1 O :    0.187180
   2 C :   -0.289524
   3 C :   -0.189282
   4 C :   -0.193586
   5 C :   -0.386134
   6 N :   -0.058692
   7 O :    0.272074
   8 C :   -0.235256
   9 H :    0.117016
  10 H :    0.104253
  11 H :    0.104740
  12 H :    0.139647
  13 H :    0.145371
  14 H :    0.157342
  15 H :    0.154430
  16 H :    0.169613
  17 H :    0.139539

  Mayer bond orders larger than 0.1
B(  0-C ,  1-O ) :   0.8864 B(  0-C ,  9-H ) :   0.9386 B(  0-C , 10-H ) :   0.9344
B(  0-C , 11-H ) :   0.9359 B(  1-O ,  2-C ) :   0.9958 B(  2-C ,  3-C ) :   0.8799
B(  2-C ,  8-C ) :   0.8629 B(  2-C , 12-H ) :   0.9247 B(  3-C ,  4-C ) :   0.9525
B(  3-C ,  8-C ) :   0.8609 B(  3-C , 13-H ) :   0.9209 B(  4-C ,  5-C ) :   0.9309
B(  4-C , 14-H ) :   0.9095 B(  4-C , 15-H ) :   0.9093 B(  5-C ,  6-N ) :   2.0795
B(  5-C ,  7-O ) :   1.0548 B(  6-N , 16-H ) :   0.8563 B(  7-O ,  8-C ) :   0.9279
B(  8-C , 17-H ) :   0.9327

MP2 TOTAL ENERGY:     -438.342898444 Eh
FINAL SINGLE POINT ENERGY      -438.342898443544

DIPOLE MOMENT
-------------
                                X             Y             Z
Electronic contribution:     -0.58748      -4.59913       3.93284
Nuclear contribution   :     -0.44858       5.54262      -4.49680
                        -----------------------------------------
Total Dipole Moment    :     -1.03606       0.94348      -0.56396
                        -----------------------------------------
Magnitude (a.u.)       :      1.51051
Magnitude (Debye)      :      3.83941

                             ****ORCA TERMINATED NORMALLY****
TOTAL RUN TIME: 0 days 0 hours 27 minutes 47 seconds 862 msec
