                         Program Version 3.0.3 - RELEASE   -
|  1> ! RI-MP2 RIJK def2-TZVP def2-TZVP/C def2-TZVP/JK TIGHTSCF
|  2> % maxcore 2000
|  3> % mp2 density relaxed end
|  4> *xyz 0 1
|  5>  C        0.0262258559     1.4332249950    -0.0532182763
|  6>  N        0.1672738461    -0.0092629337     0.0699009746
|  7>  C        0.6488863304    -0.7113623342    -1.0268311243
|  8>  N        1.2115483493    -0.0928778719    -2.0619505628
|  9>  N        1.6073655279    -1.1085688341    -2.8724370408
| 10>  C        1.2947315380    -2.3282216242    -2.3779522571
| 11>  C        0.6656023982    -2.1302719936    -1.1678892986
| 12>  C        0.1342377661    -3.1439513084    -0.2049795969
| 13>  H        1.0057267164     1.8759706406    -0.2500571804
| 14>  H       -0.6426569939     1.7398355442    -0.8712850227
| 15>  H       -0.3547450825     1.8330878580     0.8899320692
| 16>  H       -0.6282233839    -0.4578248230     0.5006486701
| 17>  H        2.0750975430    -0.8879698363    -3.7326735211
| 18>  H        1.5414391465    -3.2372292210    -2.9053535376
| 19>  H        0.5690037059    -3.0174068972     0.7940245528
| 20>  H       -0.9560803482    -3.0765808492    -0.0893327942
| 21>  H        0.3591709448    -4.1612233911    -0.5372738239
| 22> *
| 23>
| 24>                          ****END OF INPUT****

CARTESIAN COORDINATES (ANGSTROEM)
---------------------------------
  C      0.026226    1.433225   -0.053218
  N      0.167274   -0.009263    0.069901
  C      0.648886   -0.711362   -1.026831
  N      1.211548   -0.092878   -2.061951
  N      1.607366   -1.108569   -2.872437
  C      1.294732   -2.328222   -2.377952
  C      0.665602   -2.130272   -1.167889
  C      0.134238   -3.143951   -0.204980
  H      1.005727    1.875971   -0.250057
  H     -0.642657    1.739836   -0.871285
  H     -0.354745    1.833088    0.889932
  H     -0.628223   -0.457825    0.500649
  H      2.075098   -0.887970   -3.732674
  H      1.541439   -3.237229   -2.905354
  H      0.569004   -3.017407    0.794025
  H     -0.956080   -3.076581   -0.089333
  H      0.359171   -4.161223   -0.537274

 Total Charge           Charge          ....    0
 Multiplicity           Mult            ....    1
 Number of Electrons    NEL             ....   60
 Basis Dimension        Dim             ....  302

ORBITAL ENERGIES
----------------

  NO   OCC          E(Eh)            E(eV)
   0   2.0000     -15.615699      -424.9248
   1   2.0000     -15.558872      -423.3784
   2   2.0000     -15.556092      -423.3028
   3   2.0000     -11.277254      -306.8697
   4   2.0000     -11.267349      -306.6001
   5   2.0000     -11.240632      -305.8731
   6   2.0000     -11.225676      -305.4662
   7   2.0000     -11.214292      -305.1564
   8   2.0000      -1.356405       -36.9096
   9   2.0000      -1.222632       -33.2695
  10   2.0000      -1.069378       -29.0993
  11   2.0000      -1.062436       -28.9104
  12   2.0000      -0.943471       -25.6731
  13   2.0000      -0.916424       -24.9372
  14   2.0000      -0.788157       -21.4468
  15   2.0000      -0.770226       -20.9589
  16   2.0000      -0.722058       -19.6482
  17   2.0000      -0.647097       -17.6084
  18   2.0000      -0.619712       -16.8632
  19   2.0000      -0.615248       -16.7418
  20   2.0000      -0.583639       -15.8816
  21   2.0000      -0.567573       -15.4445
  22   2.0000      -0.555499       -15.1159
  23   2.0000      -0.549612       -14.9557
  24   2.0000      -0.535619       -14.5749
  25   2.0000      -0.513862       -13.9829
  26   2.0000      -0.440662       -11.9910
  27   2.0000      -0.438012       -11.9189
  28   2.0000      -0.332048        -9.0355
  29   2.0000      -0.302308        -8.2262
  30   0.0000       0.133164         3.6236
  31   0.0000       0.143559         3.9064
  32   0.0000       0.164503         4.4763
  33   0.0000       0.166598         4.5333
  34   0.0000       0.182919         4.9775

MULLIKEN ATOMIC CHARGES
-----------------------
   0 C :   -0.277309
   1 N :   -0.350716
   2 C :    0.155786
   3 N :   -0.260715
   4 N :   -0.129502
   5 C :   -0.100782
   6 C :   -0.034956
   7 C :   -0.444739
   8 H :    0.144879
   9 H :    0.120039
  10 H :    0.129965
  11 H :    0.226534
  12 H :    0.251007
  13 H :    0.142662
  14 H :    0.153056
  15 H :    0.137473
  16 H :    0.137318
Sum of atomic charges:    0.0000000

LOEWDIN ATOMIC CHARGES
----------------------
   0 C :   -0.331172
   1 N :    0.029848
   2 C :   -0.338387
   3 N :    0.020029
   4 N :    0.114110
   5 C :   -0.233981
   6 C :   -0.211921
   7 C :   -0.280365
   8 H :    0.121995
   9 H :    0.106014
  10 H :    0.113739
  11 H :    0.180505
  12 H :    0.183457
  13 H :    0.135879
  14 H :    0.131873
  15 H :    0.126672
  16 H :    0.131705

  Mayer bond orders larger than 0.1
B(  0-C ,  1-N ) :   0.9137 B(  0-C ,  8-H ) :   0.9366 B(  0-C ,  9-H ) :   0.9344
B(  0-C , 10-H ) :   0.9337 B(  1-N ,  2-C ) :   1.0656 B(  1-N , 11-H ) :   0.8733
B(  2-C ,  3-N ) :   1.5543 B(  2-C ,  6-C ) :   1.2220 B(  3-N ,  4-N ) :   1.0259
B(  3-N ,  5-C ) :   0.1126 B(  4-N ,  5-C ) :   1.2076 B(  4-N , 12-H ) :   0.8792
B(  5-C ,  6-C ) :   1.4528 B(  5-C , 13-H ) :   0.9082 B(  6-C ,  7-C ) :   0.8603
B(  7-C , 14-H ) :   0.9410 B(  7-C , 15-H ) :   0.9348 B(  7-C , 16-H ) :   0.9428

MP2 TOTAL ENERGY:     -359.440604540 Eh
FINAL SINGLE POINT ENERGY      -359.440604540342

DIPOLE MOMENT
-------------
                                X             Y             Z
Electronic contribution:      2.91631      -0.03473      -4.47707
Nuclear contribution   :     -3.14198      -0.51393       4.23382
                        -----------------------------------------
Total Dipole Moment    :     -0.22568      -0.54866      -0.24325
                        -----------------------------------------
Magnitude (a.u.)       :      0.64119
Magnitude (Debye)      :      1.62979

                             ****ORCA TERMINATED NORMALLY****
TOTAL RUN TIME: 0 days 0 hours 12 minutes 48 seconds 952 msec
