                         Program Version 3.0.3 - RELEASE   -
|  1> ! RI-MP2 RIJK def2-TZVP def2-TZVP/C def2-TZVP/JK TIGHTSCF
|  2> % maxcore 2000
|  3> % mp2 density relaxed end
|  4> *xyz 0 1
|  5>  N       -0.2083677902     1.4220145754     0.1735638437
|  6>  C        0.1072368562     0.0714945677     0.0905853461
|  7>  O        1.2436294350    -0.3478097349     0.0712314103
|  8>  N       -1.0194096202    -0.7415808487     0.0755044812
|  9>  C       -0.9745836893    -2.1339830799     0.0627950495
| 10>  C        0.0616586822    -3.0462788018     0.0838907718
| 11>  C       -0.5896756973    -4.2993322852     0.0352288065
| 12>  N       -1.9111889435    -4.1939431737    -0.0110439804
| 13>  N       -2.1270143986    -2.8538267838     0.0044593520
| 14>  H        0.5962112694     2.0088838320     0.0106628329
| 15>  H       -1.0444638148     1.7431819137    -0.2918134830
| 16>  H       -1.8984823777    -0.3164929863     0.3251440893
| 17>  H        1.1096461048    -2.8180680699     0.1332143712
| 18>  H       -0.1350427699    -5.2795327926     0.0372183591
| 19>  H       -3.0709242461    -2.5130879620    -0.0584888001
| 20> *
| 21>
| 22>                          ****END OF INPUT****

CARTESIAN COORDINATES (ANGSTROEM)
---------------------------------
  N     -0.208368    1.422015    0.173564
  C      0.107237    0.071495    0.090585
  O      1.243629   -0.347810    0.071231
  N     -1.019410   -0.741581    0.075504
  C     -0.974584   -2.133983    0.062795
  C      0.061659   -3.046279    0.083891
  C     -0.589676   -4.299332    0.035229
  N     -1.911189   -4.193943   -0.011044
  N     -2.127014   -2.853827    0.004459
  H      0.596211    2.008884    0.010663
  H     -1.044464    1.743182   -0.291813
  H     -1.898482   -0.316493    0.325144
  H      1.109646   -2.818068    0.133214
  H     -0.135043   -5.279533    0.037218
  H     -3.070924   -2.513088   -0.058489

 Total Charge           Charge          ....    0
 Multiplicity           Mult            ....    1
 Number of Electrons    NEL             ....   66
 Basis Dimension        Dim             ....  315

ORBITAL ENERGIES
----------------

  NO   OCC          E(Eh)            E(eV)
   0   2.0000     -20.533076      -558.7334
   1   2.0000     -15.632192      -425.3736
   2   2.0000     -15.623692      -425.1423
   3   2.0000     -15.599004      -424.4705
   4   2.0000     -15.576296      -423.8526
   5   2.0000     -11.401461      -310.2495
   6   2.0000     -11.324965      -308.1680
   7   2.0000     -11.249137      -306.1046
   8   2.0000     -11.207453      -304.9703
   9   2.0000      -1.418011       -38.5860
  10   2.0000      -1.372585       -37.3499
  11   2.0000      -1.273422       -34.6516
  12   2.0000      -1.216573       -33.1046
  13   2.0000      -1.090415       -29.6717
  14   2.0000      -1.040414       -28.3111
  15   2.0000      -0.874310       -23.7912
  16   2.0000      -0.822917       -22.3927
  17   2.0000      -0.796020       -21.6608
  18   2.0000      -0.771583       -20.9959
  19   2.0000      -0.746707       -20.3189
  20   2.0000      -0.686230       -18.6733
  21   2.0000      -0.646496       -17.5920
  22   2.0000      -0.635158       -17.2835
  23   2.0000      -0.617531       -16.8039
  24   2.0000      -0.599423       -16.3111
  25   2.0000      -0.596203       -16.2235
  26   2.0000      -0.566613       -15.4183
  27   2.0000      -0.484515       -13.1843
  28   2.0000      -0.466963       -12.7067
  29   2.0000      -0.453400       -12.3376
  30   2.0000      -0.443106       -12.0575
  31   2.0000      -0.364348        -9.9144
  32   2.0000      -0.317877        -8.6499
  33   0.0000       0.098201         2.6722
  34   0.0000       0.130580         3.5533
  35   0.0000       0.158435         4.3112
  36   0.0000       0.169621         4.6156
  37   0.0000       0.185921         5.0592

MULLIKEN ATOMIC CHARGES
-----------------------
   0 N :   -0.532101
   1 C :    0.416384
   2 O :   -0.370522
   3 N :   -0.381895
   4 C :    0.228614
   5 C :   -0.199743
   6 C :   -0.105837
   7 N :   -0.222472
   8 N :   -0.144338
   9 H :    0.271823
  10 H :    0.250969
  11 H :    0.236195
  12 H :    0.174464
  13 H :    0.130421
  14 H :    0.248039
Sum of atomic charges:   -0.0000000

LOEWDIN ATOMIC CHARGES
----------------------
   0 N :   -0.066259
   1 C :   -0.547906
   2 O :    0.089514
   3 N :    0.131988
   4 C :   -0.291331
   5 C :   -0.183981
   6 C :   -0.278646
   7 N :    0.012803
   8 N :    0.127782
   9 H :    0.179440
  10 H :    0.166425
  11 H :    0.192702
  12 H :    0.149802
  13 H :    0.134070
  14 H :    0.183596

  Mayer bond orders larger than 0.1
B(  0-N ,  1-C ) :   1.0808 B(  0-N ,  9-H ) :   0.8680 B(  0-N , 10-H ) :   0.8713
B(  1-C ,  2-O ) :   1.9427 B(  1-C ,  3-N ) :   1.0473 B(  3-N ,  4-C ) :   0.9559
B(  3-N , 11-H ) :   0.8721 B(  4-C ,  5-C ) :   1.4529 B(  4-C ,  7-N ) :   0.1054
B(  4-C ,  8-N ) :   1.1764 B(  5-C ,  6-C ) :   1.2710 B(  5-C , 12-H ) :   0.9114
B(  6-C ,  7-N ) :   1.5612 B(  6-C , 13-H ) :   0.9424 B(  7-N ,  8-N ) :   1.0435
B(  8-N , 14-H ) :   0.8690

MP2 TOTAL ENERGY:     -449.445217184 Eh
FINAL SINGLE POINT ENERGY      -449.445217184232

DIPOLE MOMENT
-------------
                                X             Y             Z
Electronic contribution:     -0.37594      -1.14707      -0.01537
Nuclear contribution   :     -0.80503       2.88644      -0.20920
                        -----------------------------------------
Total Dipole Moment    :     -1.18097       1.73936      -0.22457
                        -----------------------------------------
Magnitude (a.u.)       :      2.11436
Magnitude (Debye)      :      5.37427

                             ****ORCA TERMINATED NORMALLY****
TOTAL RUN TIME: 0 days 0 hours 16 minutes 1 seconds 194 msec
