                         Program Version 3.0.3 - RELEASE   -
|  1> ! RI-MP2 RIJK def2-TZVP def2-TZVP/C def2-TZVP/JK TIGHTSCF
|  2> % maxcore 2000
|  3> % mp2 density relaxed end
|  4> *xyz 0 1
|  5>  C        0.0431111813     1.5261996530     0.0784423583
|  6>  C       -0.0363939414     0.0005545818    -0.0221023010
|  7>  C        0.6712721100    -0.5513484182    -1.2521391246
|  8>  O        2.0673249322    -0.1786308552    -1.2246540233
|  9>  C        2.8101089366    -1.2779678882    -1.6846925317
| 10>  C        2.6498051720    -2.5963113746    -0.9429546565
| 11>  O        1.4549961759    -2.5563799705    -0.1639600615
| 12>  C        0.7294097617    -2.0746796901    -1.3429700894
| 13>  C        1.9424975781    -2.3621311708    -2.2567642426
| 14>  H        1.0846344436     1.8542551065     0.1246070584
| 15>  H       -0.4227926838     2.0077576622    -0.7889049264
| 16>  H       -0.4701042238     1.8860275207     0.9752147337
| 17>  H        0.4099895027    -0.4683245057     0.8597093324
| 18>  H       -1.0862886508    -0.3183474570    -0.0640941863
| 19>  H        0.2109815504    -0.1463105985    -2.1707024902
| 20>  H        3.7649468116    -1.0165998151    -2.1251047743
| 21>  H        3.4415683433    -3.2707496950    -0.6371915789
| 22>  H       -0.2168436507    -2.5961269682    -1.4914857923
| 23>  H        1.9741275409    -2.8287122869    -3.2314108536
| 24> *
| 25>
| 26>                          ****END OF INPUT****

CARTESIAN COORDINATES (ANGSTROEM)
---------------------------------
  C      0.043111    1.526200    0.078442
  C     -0.036394    0.000555   -0.022102
  C      0.671272   -0.551348   -1.252139
  O      2.067325   -0.178631   -1.224654
  C      2.810109   -1.277968   -1.684693
  C      2.649805   -2.596311   -0.942955
  O      1.454996   -2.556380   -0.163960
  C      0.729410   -2.074680   -1.342970
  C      1.942498   -2.362131   -2.256764
  H      1.084634    1.854255    0.124607
  H     -0.422793    2.007758   -0.788905
  H     -0.470104    1.886028    0.975215
  H      0.409990   -0.468325    0.859709
  H     -1.086289   -0.318347   -0.064094
  H      0.210982   -0.146311   -2.170702
  H      3.764947   -1.016600   -2.125105
  H      3.441568   -3.270750   -0.637192
  H     -0.216844   -2.596127   -1.491486
  H      1.974128   -2.828712   -3.231411

 Total Charge           Charge          ....    0
 Multiplicity           Mult            ....    1
 Number of Electrons    NEL             ....   68
 Basis Dimension        Dim             ....  339

ORBITAL ENERGIES
----------------

  NO   OCC          E(Eh)            E(eV)
   0   2.0000     -20.557749      -559.4048
   1   2.0000     -20.557550      -559.3994
   2   2.0000     -11.296987      -307.4067
   3   2.0000     -11.293554      -307.3132
   4   2.0000     -11.290521      -307.2307
   5   2.0000     -11.281984      -306.9984
   6   2.0000     -11.241029      -305.8839
   7   2.0000     -11.217008      -305.2303
   8   2.0000     -11.206883      -304.9548
   9   2.0000      -1.422937       -38.7201
  10   2.0000      -1.356308       -36.9070
  11   2.0000      -1.115140       -30.3445
  12   2.0000      -1.059065       -28.8186
  13   2.0000      -0.984840       -26.7989
  14   2.0000      -0.877456       -23.8768
  15   2.0000      -0.828578       -22.5467
  16   2.0000      -0.785935       -21.3864
  17   2.0000      -0.749393       -20.3920
  18   2.0000      -0.741955       -20.1896
  19   2.0000      -0.676549       -18.4098
  20   2.0000      -0.657871       -17.9016
  21   2.0000      -0.606459       -16.5026
  22   2.0000      -0.596540       -16.2327
  23   2.0000      -0.574368       -15.6293
  24   2.0000      -0.557668       -15.1749
  25   2.0000      -0.546635       -14.8747
  26   2.0000      -0.524966       -14.2850
  27   2.0000      -0.520258       -14.1569
  28   2.0000      -0.494807       -13.4644
  29   2.0000      -0.480362       -13.0713
  30   2.0000      -0.470854       -12.8126
  31   2.0000      -0.444132       -12.0854
  32   2.0000      -0.402829       -10.9615
  33   2.0000      -0.364343        -9.9143
  34   0.0000       0.143541         3.9060
  35   0.0000       0.159760         4.3473
  36   0.0000       0.166406         4.5281
  37   0.0000       0.173542         4.7223
  38   0.0000       0.192401         5.2355

MULLIKEN ATOMIC CHARGES
-----------------------
   0 C :   -0.388986
   1 C :   -0.226982
   2 C :    0.041179
   3 O :   -0.312853
   4 C :    0.053593
   5 C :    0.020710
   6 O :   -0.331560
   7 C :    0.129187
   8 C :   -0.251357
   9 H :    0.146118
  10 H :    0.114883
  11 H :    0.131414
  12 H :    0.139774
  13 H :    0.100003
  14 H :    0.077728
  15 H :    0.129368
  16 H :    0.134183
  17 H :    0.141817
  18 H :    0.151779
Sum of atomic charges:    0.0000000

LOEWDIN ATOMIC CHARGES
----------------------
   0 C :   -0.316623
   1 C :   -0.271401
   2 C :   -0.276228
   3 O :    0.201704
   4 C :   -0.263481
   5 C :   -0.227106
   6 O :    0.169679
   7 C :   -0.204677
   8 C :   -0.158055
   9 H :    0.126497
  10 H :    0.119294
  11 H :    0.120467
  12 H :    0.146221
  13 H :    0.139658
  14 H :    0.142894
  15 H :    0.143854
  16 H :    0.130513
  17 H :    0.141745
  18 H :    0.135047

  Mayer bond orders larger than 0.1
B(  0-C ,  1-C ) :   0.9144 B(  0-C ,  9-H ) :   0.9384 B(  0-C , 10-H ) :   0.9359
B(  0-C , 11-H ) :   0.9412 B(  1-C ,  2-C ) :   0.9174 B(  1-C , 12-H ) :   0.9368
B(  1-C , 13-H ) :   0.9261 B(  2-C ,  3-O ) :   0.9022 B(  2-C ,  7-C ) :   0.9545
B(  2-C , 14-H ) :   0.8988 B(  3-O ,  4-C ) :   0.9752 B(  4-C ,  5-C ) :   0.8433
B(  4-C ,  8-C ) :   0.8988 B(  4-C , 15-H ) :   0.9350 B(  5-C ,  6-O ) :   0.9459
B(  5-C ,  8-C ) :   0.8991 B(  5-C , 16-H ) :   0.9147 B(  6-O ,  7-C ) :   0.8746
B(  7-C ,  8-C ) :   0.9346 B(  7-C , 17-H ) :   0.9001 B(  8-C , 18-H ) :   0.9014

MP2 TOTAL ENERGY:     -422.269854115 Eh
FINAL SINGLE POINT ENERGY      -422.269854115457

DIPOLE MOMENT
-------------
                                X             Y             Z
Electronic contribution:      4.44287      -5.89794      -1.64320
Nuclear contribution   :     -4.54642       5.57085       0.91038
                        -----------------------------------------
Total Dipole Moment    :     -0.10355      -0.32709      -0.73282
                        -----------------------------------------
Magnitude (a.u.)       :      0.80916
Magnitude (Debye)      :      2.05671

                             ****ORCA TERMINATED NORMALLY****
TOTAL RUN TIME: 0 days 0 hours 26 minutes 40 seconds 102 msec
