                         Program Version 3.0.3 - RELEASE   -
|  1> ! RI-MP2 RIJK def2-TZVP def2-TZVP/C def2-TZVP/JK TIGHTSCF
|  2> % maxcore 2000
|  3> % mp2 density relaxed end
|  4> *xyz 0 1
|  5>  N       -0.1204612018    -1.1572635321    -0.2713147878
|  6>  C       -0.0658368200    -0.0130140794    -0.1229883280
|  7>  C       -0.0169107379     1.4464187481     0.0183924319
|  8>  N       -0.5886568934     1.9043615155     1.3195749341
|  9>  C        0.4995455270     2.7034987556     1.9326236191
| 10>  C        1.5834821734     1.6997016171     2.3497639060
| 11>  O        2.1481502197     1.2820786332     1.0830823954
| 12>  C        1.4407382551     2.0027919382     0.0817999363
| 13>  C        1.1969260095     3.3728640600     0.7282286392
| 14>  H       -0.5488792034     1.8788670264    -0.8381707803
| 15>  H       -1.4006267929     2.4861678175     1.1490224923
| 16>  H        0.1273581035     3.3378648917     2.7361040945
| 17>  H        2.3689878592     2.1530678789     2.9654670516
| 18>  H        1.1593109884     0.8349047150     2.8667857755
| 19>  H        1.9900014178     1.9463156904    -0.8567110107
| 20>  H        0.5370825861     4.0320620367     0.1588649320
| 21>  H        2.1320133597     3.8853391571     0.9640944689
| 22> *
| 23>
| 24>                          ****END OF INPUT****

CARTESIAN COORDINATES (ANGSTROEM)
---------------------------------
  N     -0.120461   -1.157264   -0.271315
  C     -0.065837   -0.013014   -0.122988
  C     -0.016911    1.446419    0.018392
  N     -0.588657    1.904362    1.319575
  C      0.499546    2.703499    1.932624
  C      1.583482    1.699702    2.349764
  O      2.148150    1.282079    1.083082
  C      1.440738    2.002792    0.081800
  C      1.196926    3.372864    0.728229
  H     -0.548879    1.878867   -0.838171
  H     -1.400627    2.486168    1.149022
  H      0.127358    3.337865    2.736104
  H      2.368988    2.153068    2.965467
  H      1.159311    0.834905    2.866786
  H      1.990001    1.946316   -0.856711
  H      0.537083    4.032062    0.158865
  H      2.132013    3.885339    0.964094

 Total Charge           Charge          ....    0
 Multiplicity           Mult            ....    1
 Number of Electrons    NEL             ....   66
 Basis Dimension        Dim             ....  327

ORBITAL ENERGIES
----------------

  NO   OCC          E(Eh)            E(eV)
   0   2.0000     -20.568887      -559.7079
   1   2.0000     -15.577004      -423.8718
   2   2.0000     -15.562161      -423.4679
   3   2.0000     -11.314202      -307.8751
   4   2.0000     -11.311465      -307.8006
   5   2.0000     -11.285703      -307.0996
   6   2.0000     -11.284616      -307.0700
   7   2.0000     -11.263633      -306.4990
   8   2.0000     -11.248939      -306.0992
   9   2.0000      -1.402164       -38.1548
  10   2.0000      -1.250252       -34.0211
  11   2.0000      -1.205797       -32.8114
  12   2.0000      -1.054832       -28.7034
  13   2.0000      -1.046203       -28.4686
  14   2.0000      -0.945597       -25.7310
  15   2.0000      -0.834223       -22.7004
  16   2.0000      -0.800087       -21.7715
  17   2.0000      -0.754354       -20.5270
  18   2.0000      -0.710113       -19.3232
  19   2.0000      -0.692247       -18.8370
  20   2.0000      -0.623603       -16.9691
  21   2.0000      -0.613128       -16.6840
  22   2.0000      -0.607568       -16.5328
  23   2.0000      -0.570598       -15.5268
  24   2.0000      -0.548767       -14.9327
  25   2.0000      -0.545434       -14.8420
  26   2.0000      -0.533664       -14.5217
  27   2.0000      -0.529547       -14.4097
  28   2.0000      -0.487017       -13.2524
  29   2.0000      -0.459978       -12.5166
  30   2.0000      -0.454542       -12.3687
  31   2.0000      -0.422887       -11.5073
  32   2.0000      -0.408486       -11.1155
  33   0.0000       0.107406         2.9227
  34   0.0000       0.146948         3.9987
  35   0.0000       0.151785         4.1303
  36   0.0000       0.169333         4.6078
  37   0.0000       0.176178         4.7940

MULLIKEN ATOMIC CHARGES
-----------------------
   0 N :   -0.048869
   1 C :   -0.169544
   2 C :   -0.000704
   3 N :   -0.343697
   4 C :   -0.013435
   5 C :   -0.075254
   6 O :   -0.318287
   7 C :    0.095673
   8 C :   -0.284122
   9 H :    0.143906
  10 H :    0.215733
  11 H :    0.144636
  12 H :    0.113388
  13 H :    0.126288
  14 H :    0.148256
  15 H :    0.126246
  16 H :    0.139788
Sum of atomic charges:   -0.0000000

LOEWDIN ATOMIC CHARGES
----------------------
   0 N :    0.067303
   1 C :   -0.165633
   2 C :   -0.250035
   3 N :    0.035274
   4 C :   -0.285451
   5 C :   -0.251319
   6 O :    0.173199
   7 C :   -0.276487
   8 C :   -0.216744
   9 H :    0.164201
  10 H :    0.170621
  11 H :    0.145235
  12 H :    0.124659
  13 H :    0.132922
  14 H :    0.147263
  15 H :    0.139711
  16 H :    0.145279

  Mayer bond orders larger than 0.1
B(  0-N ,  1-C ) :   2.8856 B(  1-C ,  2-C ) :   0.9226 B(  2-C ,  3-N ) :   1.0150
B(  2-C ,  7-C ) :   0.8824 B(  2-C ,  9-H ) :   0.9064 B(  3-N ,  4-C ) :   0.9604
B(  3-N , 10-H ) :   0.8753 B(  4-C ,  5-C ) :   0.9388 B(  4-C ,  8-C ) :   0.9511
B(  4-C , 11-H ) :   0.9163 B(  5-C ,  6-O ) :   0.9078 B(  5-C , 12-H ) :   0.9232
B(  5-C , 13-H ) :   0.9227 B(  6-O ,  7-C ) :   0.9505 B(  7-C ,  8-C ) :   0.9360
B(  7-C , 14-H ) :   0.9179 B(  8-C , 15-H ) :   0.9208 B(  8-C , 16-H ) :   0.9197

MP2 TOTAL ENERGY:     -417.314313608 Eh
FINAL SINGLE POINT ENERGY      -417.314313607870

DIPOLE MOMENT
-------------
                                X             Y             Z
Electronic contribution:     -0.91347      -5.60992      -2.29654
Nuclear contribution   :      0.74848       8.00089       2.46621
                        -----------------------------------------
Total Dipole Moment    :     -0.16498       2.39097       0.16967
                        -----------------------------------------
Magnitude (a.u.)       :      2.40266
Magnitude (Debye)      :      6.10707

                             ****ORCA TERMINATED NORMALLY****
TOTAL RUN TIME: 0 days 0 hours 19 minutes 1 seconds 210 msec
