                         Program Version 3.0.3 - RELEASE   -
|  1> ! RI-MP2 RIJK def2-TZVP def2-TZVP/C def2-TZVP/JK TIGHTSCF
|  2> % maxcore 2000
|  3> % mp2 density relaxed end
|  4> *xyz 0 1
|  5>  C       -0.1503408355     1.5706768432    -0.0364935107
|  6>  C       -0.0200571521     0.0628169198     0.0868747521
|  7>  O       -1.2823609786    -0.4681822591     0.3150287959
|  8>  C        0.8628131173    -0.5893988670    -1.0907369570
|  9>  N        1.9393027117    -0.7102145876    -0.0956239793
| 10>  C        1.1209746852    -0.4252427094     1.0003207709
| 11>  N        1.1814371953    -0.5360032735     2.2542092071
| 12>  C        0.3356271603    -1.8609506262    -1.5741112318
| 13>  N       -0.0751956056    -2.8823043754    -1.9274407832
| 14>  H        0.8075172693     2.0295957230    -0.2935838575
| 15>  H       -0.8862516992     1.8158206272    -0.8076126952
| 16>  H       -0.4936640741     1.9794060120     0.9167459046
| 17>  H       -1.1974080414    -1.3501390303     0.6951634926
| 18>  H        1.0993570029     0.0670988807    -1.9324151691
| 19>  H        2.6811305711    -1.3964166393    -0.1269074936
| 20>  H        2.0550739836    -0.9601495381     2.5705374438
| 21> *
| 22>
| 23>                          ****END OF INPUT****

CARTESIAN COORDINATES (ANGSTROEM)
---------------------------------
  C     -0.150341    1.570677   -0.036494
  C     -0.020057    0.062817    0.086875
  O     -1.282361   -0.468182    0.315029
  C      0.862813   -0.589399   -1.090737
  N      1.939303   -0.710215   -0.095624
  C      1.120975   -0.425243    1.000321
  N      1.181437   -0.536003    2.254209
  C      0.335627   -1.860951   -1.574111
  N     -0.075196   -2.882304   -1.927441
  H      0.807517    2.029596   -0.293584
  H     -0.886252    1.815821   -0.807613
  H     -0.493664    1.979406    0.916746
  H     -1.197408   -1.350139    0.695163
  H      1.099357    0.067099   -1.932415
  H      2.681131   -1.396417   -0.126907
  H      2.055074   -0.960150    2.570537

 Total Charge           Charge          ....    0
 Multiplicity           Mult            ....    1
 Number of Electrons    NEL             ....   66
 Basis Dimension        Dim             ....  321

ORBITAL ENERGIES
----------------

  NO   OCC          E(Eh)            E(eV)
   0   2.0000     -20.588474      -560.2408
   1   2.0000     -15.612909      -424.8488
   2   2.0000     -15.589388      -424.2088
   3   2.0000     -15.554735      -423.2659
   4   2.0000     -11.338467      -308.5354
   5   2.0000     -11.337847      -308.5185
   6   2.0000     -11.334343      -308.4232
   7   2.0000     -11.287773      -307.1559
   8   2.0000     -11.240975      -305.8825
   9   2.0000      -1.409781       -38.3621
  10   2.0000      -1.319443       -35.9039
  11   2.0000      -1.234148       -33.5829
  12   2.0000      -1.196381       -32.5552
  13   2.0000      -1.054572       -28.6964
  14   2.0000      -0.989647       -26.9297
  15   2.0000      -0.917802       -24.9747
  16   2.0000      -0.795535       -21.6476
  17   2.0000      -0.757113       -20.6021
  18   2.0000      -0.724894       -19.7254
  19   2.0000      -0.696779       -18.9603
  20   2.0000      -0.665573       -18.1112
  21   2.0000      -0.638928       -17.3861
  22   2.0000      -0.607494       -16.5308
  23   2.0000      -0.577373       -15.7111
  24   2.0000      -0.569781       -15.5045
  25   2.0000      -0.556962       -15.1557
  26   2.0000      -0.534813       -14.5530
  27   2.0000      -0.525073       -14.2880
  28   2.0000      -0.499282       -13.5862
  29   2.0000      -0.479671       -13.0525
  30   2.0000      -0.453003       -12.3268
  31   2.0000      -0.434481       -11.8228
  32   2.0000      -0.401475       -10.9247
  33   0.0000       0.111184         3.0255
  34   0.0000       0.124127         3.3777
  35   0.0000       0.148322         4.0360
  36   0.0000       0.149974         4.0810
  37   0.0000       0.159936         4.3521

MULLIKEN ATOMIC CHARGES
-----------------------
   0 C :   -0.428366
   1 C :    0.336562
   2 O :   -0.425420
   3 C :    0.114996
   4 N :   -0.332186
   5 C :   -0.049722
   6 N :   -0.344039
   7 C :   -0.242804
   8 N :   -0.038682
   9 H :    0.142164
  10 H :    0.149665
  11 H :    0.158896
  12 H :    0.334831
  13 H :    0.157310
  14 H :    0.246549
  15 H :    0.220245
Sum of atomic charges:    0.0000000

LOEWDIN ATOMIC CHARGES
----------------------
   0 C :   -0.252182
   1 C :   -0.325147
   2 O :    0.065224
   3 C :   -0.209284
   4 N :    0.121107
   5 C :   -0.352480
   6 N :   -0.050896
   7 C :   -0.179087
   8 N :    0.075405
   9 H :    0.134358
  10 H :    0.135427
  11 H :    0.140422
  12 H :    0.192013
  13 H :    0.160900
  14 H :    0.176231
  15 H :    0.167989

  Mayer bond orders larger than 0.1
B(  0-C ,  1-C ) :   0.8923 B(  0-C ,  9-H ) :   0.9306 B(  0-C , 10-H ) :   0.9319
B(  0-C , 11-H ) :   0.9328 B(  1-C ,  2-O ) :   1.1108 B(  1-C ,  3-C ) :   0.7995
B(  1-C ,  5-C ) :   0.8271 B(  2-O , 12-H ) :   0.8244 B(  3-C ,  4-N ) :   0.9268
B(  3-C ,  7-C ) :   0.9543 B(  3-C , 13-H ) :   0.8946 B(  4-N ,  5-C ) :   1.1027
B(  4-N , 14-H ) :   0.8595 B(  5-C ,  6-N ) :   2.1403 B(  6-N , 15-H ) :   0.8478
B(  7-C ,  8-N ) :   2.8363

MP2 TOTAL ENERGY:     -433.350484116 Eh
FINAL SINGLE POINT ENERGY      -433.350484115966

DIPOLE MOMENT
-------------
                                X             Y             Z
Electronic contribution:      0.17593      -5.56381      -1.60691
Nuclear contribution   :      1.06731       6.13548       1.49621
                        -----------------------------------------
Total Dipole Moment    :      1.24324       0.57167      -0.11070
                        -----------------------------------------
Magnitude (a.u.)       :      1.37285
Magnitude (Debye)      :      3.48950

                             ****ORCA TERMINATED NORMALLY****
TOTAL RUN TIME: 0 days 0 hours 17 minutes 14 seconds 465 msec
