                         Program Version 3.0.3 - RELEASE   -
|  1> ! RI-MP2 RIJK def2-TZVP def2-TZVP/C def2-TZVP/JK TIGHTSCF
|  2> % maxcore 2000
|  3> % mp2 density relaxed end
|  4> *xyz 0 1
|  5>  C        0.0579058959     1.3926671805     0.0070091005
|  6>  O       -0.0131777337    -0.0226404624     0.0033076726
|  7>  C       -1.2361092167    -0.5851899686     0.0112874958
|  8>  C       -2.4383627367     0.0642766846     0.0227776876
|  9>  N       -3.6599964693    -0.5717685609     0.0302524391
| 10>  C       -3.6381325051    -1.8617213168     0.0257446854
| 11>  N       -2.4892477629    -2.5951262343     0.0144560916
| 12>  C       -1.1950433268    -2.0518664015     0.0066912887
| 13>  O       -0.2088889139    -2.7589211403    -0.0043829441
| 14>  H        1.1194017452     1.6418892992    -0.0005452201
| 15>  H       -0.4246881735     1.8193828573    -0.8816389721
| 16>  H       -0.4107087602     1.8140001645     0.9056509099
| 17>  H       -2.4876167200     1.1470294159     0.0265416233
| 18>  H       -4.5651338328    -2.4279439709     0.0309022267
| 19>  H       -2.5235772295    -3.6064195661     0.0111512251
| 20> *
| 21>
| 22>                          ****END OF INPUT****

CARTESIAN COORDINATES (ANGSTROEM)
---------------------------------
  C      0.057906    1.392667    0.007009
  O     -0.013178   -0.022640    0.003308
  C     -1.236109   -0.585190    0.011287
  C     -2.438363    0.064277    0.022778
  N     -3.659996   -0.571769    0.030252
  C     -3.638133   -1.861721    0.025745
  N     -2.489248   -2.595126    0.014456
  C     -1.195043   -2.051866    0.006691
  O     -0.208889   -2.758921   -0.004383
  H      1.119402    1.641889   -0.000545
  H     -0.424688    1.819383   -0.881639
  H     -0.410709    1.814000    0.905651
  H     -2.487617    1.147029    0.026542
  H     -4.565134   -2.427944    0.030902
  H     -2.523577   -3.606420    0.011151

 Total Charge           Charge          ....    0
 Multiplicity           Mult            ....    1
 Number of Electrons    NEL             ....   66
 Basis Dimension        Dim             ....  315

ORBITAL ENERGIES
----------------

  NO   OCC          E(Eh)            E(eV)
   0   2.0000     -20.594031      -560.3921
   1   2.0000     -20.529473      -558.6354
   2   2.0000     -15.636302      -425.4854
   3   2.0000     -15.573018      -423.7634
   4   2.0000     -11.369680      -309.3847
   5   2.0000     -11.344761      -308.7066
   6   2.0000     -11.311822      -307.8103
   7   2.0000     -11.292098      -307.2736
   8   2.0000     -11.286521      -307.1218
   9   2.0000      -1.431138       -38.9432
  10   2.0000      -1.393623       -37.9224
  11   2.0000      -1.321166       -35.9508
  12   2.0000      -1.213883       -33.0314
  13   2.0000      -1.066256       -29.0143
  14   2.0000      -0.972682       -26.4680
  15   2.0000      -0.895044       -24.3554
  16   2.0000      -0.887624       -24.1535
  17   2.0000      -0.770951       -20.9786
  18   2.0000      -0.743593       -20.2342
  19   2.0000      -0.707280       -19.2461
  20   2.0000      -0.690864       -18.7994
  21   2.0000      -0.671465       -18.2715
  22   2.0000      -0.631410       -17.1815
  23   2.0000      -0.623721       -16.9723
  24   2.0000      -0.604807       -16.4576
  25   2.0000      -0.586440       -15.9578
  26   2.0000      -0.528276       -14.3751
  27   2.0000      -0.525947       -14.3117
  28   2.0000      -0.511498       -13.9186
  29   2.0000      -0.449882       -12.2419
  30   2.0000      -0.443948       -12.0804
  31   2.0000      -0.435868       -11.8606
  32   2.0000      -0.324933        -8.8419
  33   0.0000       0.096362         2.6221
  34   0.0000       0.126856         3.4519
  35   0.0000       0.138870         3.7788
  36   0.0000       0.139063         3.7841
  37   0.0000       0.177888         4.8406

MULLIKEN ATOMIC CHARGES
-----------------------
   0 C :   -0.249532
   1 O :   -0.229912
   2 C :    0.197362
   3 C :   -0.142346
   4 N :   -0.274339
   5 C :    0.085410
   6 N :   -0.223126
   7 C :    0.168166
   8 O :   -0.320890
   9 H :    0.159464
  10 H :    0.136548
  11 H :    0.136533
  12 H :    0.146314
  13 H :    0.153217
  14 H :    0.257131
Sum of atomic charges:   -0.0000000

LOEWDIN ATOMIC CHARGES
----------------------
   0 C :   -0.321034
   1 O :    0.262618
   2 C :   -0.249048
   3 C :   -0.218111
   4 N :    0.102083
   5 C :   -0.293016
   6 N :    0.188827
   7 C :   -0.405598
   8 O :    0.100071
   9 H :    0.120636
  10 H :    0.111488
  11 H :    0.111485
  12 H :    0.144457
  13 H :    0.138745
  14 H :    0.206396

  Mayer bond orders larger than 0.1
B(  0-C ,  1-O ) :   0.8668 B(  0-C ,  9-H ) :   0.9374 B(  0-C , 10-H ) :   0.9298
B(  0-C , 11-H ) :   0.9298 B(  1-O ,  2-C ) :   1.1245 B(  2-C ,  3-C ) :   1.4081
B(  2-C ,  7-C ) :   0.9981 B(  3-C ,  4-N ) :   1.1690 B(  3-C , 12-H ) :   0.9567
B(  4-N ,  5-C ) :   1.6380 B(  5-C ,  6-N ) :   1.1209 B(  5-C , 13-H ) :   0.9212
B(  6-N ,  7-C ) :   1.0681 B(  6-N , 14-H ) :   0.8490 B(  7-C ,  8-O ) :   2.0239

MP2 TOTAL ENERGY:     -453.251717628 Eh
FINAL SINGLE POINT ENERGY      -453.251717627581

DIPOLE MOMENT
-------------
                                X             Y             Z
Electronic contribution:     -0.94302      -5.53737      -0.00867
Nuclear contribution   :      0.26061       5.92514       0.01536
                        -----------------------------------------
Total Dipole Moment    :     -0.68241       0.38777       0.00668
                        -----------------------------------------
Magnitude (a.u.)       :      0.78492
Magnitude (Debye)      :      1.99510

                             ****ORCA TERMINATED NORMALLY****
TOTAL RUN TIME: 0 days 0 hours 15 minutes 17 seconds 362 msec
