                         Program Version 3.0.3 - RELEASE   -
|  1> ! RI-MP2 RIJK def2-TZVP def2-TZVP/C def2-TZVP/JK TIGHTSCF
|  2> % maxcore 2000
|  3> % mp2 density relaxed end
|  4> *xyz 0 1
|  5>  O        0.2182539434     1.3575320516    -0.2328022126
|  6>  C        0.1146705691    -0.0148063701    -0.0958537912
|  7>  C        0.9943614898    -0.9842878003    -0.8585099594
|  8>  O        0.2381405113    -2.0404254345    -1.3955632122
|  9>  C       -0.9889615552    -2.0519248869    -0.7044854132
| 10>  C       -0.9093750087    -1.9918309148     0.7948240786
| 11>  O        0.3858569700    -1.9339705852     1.3491285297
| 12>  C        1.0818274510    -0.9299120601     0.6521507993
| 13>  C       -1.2204965001    -0.7270909860     0.0079265685
| 14>  H        0.0791715420     1.7593895323     0.6323344147
| 15>  H        1.8231403608    -0.6721261377    -1.4822387435
| 16>  H       -1.7615038291    -2.6122299169    -1.2165463484
| 17>  H       -1.6196531207    -2.5078523010     1.4292303125
| 18>  H        1.9786569792    -0.5866886227     1.1543465493
| 19>  H       -2.1459335128    -0.1687221478     0.0271746180
| 20> *
| 21>
| 22>                          ****END OF INPUT****

CARTESIAN COORDINATES (ANGSTROEM)
---------------------------------
  O      0.218254    1.357532   -0.232802
  C      0.114671   -0.014806   -0.095854
  C      0.994361   -0.984288   -0.858510
  O      0.238141   -2.040425   -1.395563
  C     -0.988962   -2.051925   -0.704485
  C     -0.909375   -1.991831    0.794824
  O      0.385857   -1.933971    1.349129
  C      1.081827   -0.929912    0.652151
  C     -1.220497   -0.727091    0.007927
  H      0.079172    1.759390    0.632334
  H      1.823140   -0.672126   -1.482239
  H     -1.761504   -2.612230   -1.216546
  H     -1.619653   -2.507852    1.429230
  H      1.978657   -0.586689    1.154347
  H     -2.145934   -0.168722    0.027175

 Total Charge           Charge          ....    0
 Multiplicity           Mult            ....    1
 Number of Electrons    NEL             ....   66
 Basis Dimension        Dim             ....  315

ORBITAL ENERGIES
----------------

  NO   OCC          E(Eh)            E(eV)
   0   2.0000     -20.583899      -560.1164
   1   2.0000     -20.577193      -559.9339
   2   2.0000     -20.575096      -559.8768
   3   2.0000     -11.301161      -307.5202
   4   2.0000     -11.294878      -307.3493
   5   2.0000     -11.293754      -307.3187
   6   2.0000     -11.291155      -307.2479
   7   2.0000     -11.289243      -307.1959
   8   2.0000     -11.245315      -306.0006
   9   2.0000      -1.438210       -39.1357
  10   2.0000      -1.389383       -37.8070
  11   2.0000      -1.378267       -37.5045
  12   2.0000      -1.137690       -30.9581
  13   2.0000      -1.115283       -30.3484
  14   2.0000      -0.880647       -23.9636
  15   2.0000      -0.864463       -23.5232
  16   2.0000      -0.811207       -22.0741
  17   2.0000      -0.768963       -20.9245
  18   2.0000      -0.756510       -20.5857
  19   2.0000      -0.703184       -19.1346
  20   2.0000      -0.649601       -17.6765
  21   2.0000      -0.643037       -17.4979
  22   2.0000      -0.625025       -17.0078
  23   2.0000      -0.621108       -16.9012
  24   2.0000      -0.593303       -16.1446
  25   2.0000      -0.564992       -15.3742
  26   2.0000      -0.556037       -15.1305
  27   2.0000      -0.542941       -14.7742
  28   2.0000      -0.498161       -13.5556
  29   2.0000      -0.456527       -12.4227
  30   2.0000      -0.427242       -11.6258
  31   2.0000      -0.394480       -10.7344
  32   2.0000      -0.346151        -9.4192
  33   0.0000       0.134012         3.6467
  34   0.0000       0.153718         4.1829
  35   0.0000       0.173520         4.7217
  36   0.0000       0.191088         5.1998
  37   0.0000       0.195080         5.3084

MULLIKEN ATOMIC CHARGES
-----------------------
   0 O :   -0.443681
   1 C :    0.121072
   2 C :    0.028091
   3 O :   -0.295582
   4 C :    0.042928
   5 C :    0.048078
   6 O :   -0.295642
   7 C :   -0.016534
   8 C :   -0.220195
   9 H :    0.332814
  10 H :    0.139264
  11 H :    0.135770
  12 H :    0.134194
  13 H :    0.140510
  14 H :    0.148914
Sum of atomic charges:   -0.0000000

LOEWDIN ATOMIC CHARGES
----------------------
   0 O :    0.037844
   1 C :   -0.313431
   2 C :   -0.222670
   3 O :    0.227984
   4 C :   -0.240740
   5 C :   -0.242175
   6 O :    0.223777
   7 C :   -0.233386
   8 C :   -0.147461
   9 H :    0.188625
  10 H :    0.146582
  11 H :    0.142005
  12 H :    0.141350
  13 H :    0.142948
  14 H :    0.148748

  Mayer bond orders larger than 0.1
B(  0-O ,  1-C ) :   1.0166 B(  0-O ,  9-H ) :   0.8336 B(  1-C ,  2-C ) :   0.8992
B(  1-C ,  7-C ) :   0.8643 B(  1-C ,  8-C ) :   0.9412 B(  2-C ,  3-O ) :   0.9491
B(  2-C ,  7-C ) :   0.8341 B(  2-C , 10-H ) :   0.9189 B(  3-O ,  4-C ) :   0.9534
B(  4-C ,  5-C ) :   0.8535 B(  4-C ,  8-C ) :   0.8649 B(  4-C , 11-H ) :   0.9294
B(  5-C ,  6-O ) :   0.9470 B(  5-C ,  8-C ) :   0.8566 B(  5-C , 12-H ) :   0.9292
B(  6-O ,  7-C ) :   0.9411 B(  7-C , 13-H ) :   0.9181 B(  8-C , 14-H ) :   0.9123

MP2 TOTAL ENERGY:     -456.974323910 Eh
FINAL SINGLE POINT ENERGY      -456.974323909943

DIPOLE MOMENT
-------------
                                X             Y             Z
Electronic contribution:      1.06892      -0.69916      -0.25695
Nuclear contribution   :     -1.56204       1.18997       0.79302
                        -----------------------------------------
Total Dipole Moment    :     -0.49312       0.49081       0.53607
                        -----------------------------------------
Magnitude (a.u.)       :      0.87831
Magnitude (Debye)      :      2.23249

                             ****ORCA TERMINATED NORMALLY****
TOTAL RUN TIME: 0 days 0 hours 15 minutes 57 seconds 182 msec
