                         Program Version 3.0.3 - RELEASE   -
|  1> ! RI-MP2 RIJK def2-TZVP def2-TZVP/C def2-TZVP/JK TIGHTSCF
|  2> % maxcore 2000
|  3> % mp2 density relaxed end
|  4> *xyz 0 1
|  5>  N       -0.2505408543     1.1860668866    -0.0538632089
|  6>  C       -0.2748885450    -0.0622951494    -0.2333511173
|  7>  O       -1.0231776053    -0.8436245997     0.5777848401
|  8>  C       -1.0244530366    -2.2181802804     0.2722245308
|  9>  C       -2.1776561984    -3.0167615937     0.8258412657
| 10>  C       -2.0765077780    -2.7610793284    -0.6468589274
| 11>  C       -3.0162517131    -2.0101211386    -1.5792940562
| 12>  C       -2.6569450475    -3.1373694014    -2.5739154734
| 13>  O       -1.8030408475    -3.7863945912    -1.5968398064
| 14>  H        0.3667888116     1.6222107429    -0.7356409256
| 15>  H        0.2699634257    -0.6275888071    -1.0015361619
| 16>  H       -0.0423451634    -2.6866670500     0.2605034101
| 17>  H       -1.9575859883    -4.0131443510     1.1934471537
| 18>  H       -2.9376950931    -2.4712595732     1.3757850572
| 19>  H       -4.0600738060    -1.9812662680    -1.2629437404
| 20>  H       -2.6968318453    -1.0050847681    -1.8597943352
| 21>  H       -3.4828246548    -3.7879750670    -2.8793799423
| 22>  H       -2.0922902506    -2.8274827223    -3.4600872125
| 23> *
| 24>
| 25>                          ****END OF INPUT****

CARTESIAN COORDINATES (ANGSTROEM)
---------------------------------
  N     -0.250541    1.186067   -0.053863
  C     -0.274889   -0.062295   -0.233351
  O     -1.023178   -0.843625    0.577785
  C     -1.024453   -2.218180    0.272225
  C     -2.177656   -3.016762    0.825841
  C     -2.076508   -2.761079   -0.646859
  C     -3.016252   -2.010121   -1.579294
  C     -2.656945   -3.137369   -2.573915
  O     -1.803041   -3.786395   -1.596840
  H      0.366789    1.622211   -0.735641
  H      0.269963   -0.627589   -1.001536
  H     -0.042345   -2.686667    0.260503
  H     -1.957586   -4.013144    1.193447
  H     -2.937695   -2.471260    1.375785
  H     -4.060074   -1.981266   -1.262944
  H     -2.696832   -1.005085   -1.859794
  H     -3.482825   -3.787975   -2.879380
  H     -2.092290   -2.827483   -3.460087

 Total Charge           Charge          ....    0
 Multiplicity           Mult            ....    1
 Number of Electrons    NEL             ....   68
 Basis Dimension        Dim             ....  333

ORBITAL ENERGIES
----------------

  NO   OCC          E(Eh)            E(eV)
   0   2.0000     -20.599571      -560.5428
   1   2.0000     -20.563547      -559.5626
   2   2.0000     -15.544049      -422.9751
   3   2.0000     -11.341412      -308.6155
   4   2.0000     -11.302522      -307.5573
   5   2.0000     -11.299406      -307.4725
   6   2.0000     -11.292071      -307.2729
   7   2.0000     -11.244593      -305.9809
   8   2.0000     -11.237497      -305.7878
   9   2.0000      -1.436555       -39.0906
  10   2.0000      -1.396212       -37.9929
  11   2.0000      -1.206233       -32.8233
  12   2.0000      -1.136193       -30.9174
  13   2.0000      -1.021458       -27.7953
  14   2.0000      -0.892999       -24.2997
  15   2.0000      -0.863231       -23.4897
  16   2.0000      -0.825977       -22.4760
  17   2.0000      -0.759683       -20.6720
  18   2.0000      -0.722181       -19.6516
  19   2.0000      -0.703041       -19.1307
  20   2.0000      -0.677155       -18.4263
  21   2.0000      -0.671161       -18.2632
  22   2.0000      -0.627081       -17.0638
  23   2.0000      -0.603579       -16.4242
  24   2.0000      -0.584938       -15.9170
  25   2.0000      -0.553910       -15.0727
  26   2.0000      -0.545926       -14.8554
  27   2.0000      -0.526687       -14.3319
  28   2.0000      -0.509050       -13.8519
  29   2.0000      -0.480254       -13.0684
  30   2.0000      -0.444487       -12.0951
  31   2.0000      -0.429145       -11.6776
  32   2.0000      -0.419713       -11.4210
  33   2.0000      -0.373056       -10.1514
  34   0.0000       0.132482         3.6050
  35   0.0000       0.141747         3.8571
  36   0.0000       0.155914         4.2426
  37   0.0000       0.163698         4.4544
  38   0.0000       0.178255         4.8506

MULLIKEN ATOMIC CHARGES
-----------------------
   0 N :   -0.330958
   1 C :    0.047699
   2 O :   -0.204561
   3 C :   -0.053804
   4 C :   -0.267317
   5 C :    0.203706
   6 C :   -0.298524
   7 C :   -0.003541
   8 O :   -0.321685
   9 H :    0.226741
  10 H :    0.095743
  11 H :    0.131463
  12 H :    0.144360
  13 H :    0.147931
  14 H :    0.132553
  15 H :    0.142265
  16 H :    0.106380
  17 H :    0.101549
Sum of atomic charges:    0.0000000

LOEWDIN ATOMIC CHARGES
----------------------
   0 N :   -0.078571
   1 C :   -0.393488
   2 O :    0.271862
   3 C :   -0.266953
   4 C :   -0.177612
   5 C :   -0.299478
   6 C :   -0.197662
   7 C :   -0.249672
   8 O :    0.164390
   9 H :    0.168618
  10 H :    0.111130
  11 H :    0.142935
  12 H :    0.144990
  13 H :    0.147679
  14 H :    0.137805
  15 H :    0.137924
  16 H :    0.118674
  17 H :    0.117427

  Mayer bond orders larger than 0.1
B(  0-N ,  1-C ) :   1.9585 B(  0-N ,  9-H ) :   0.8498 B(  1-C ,  2-O ) :   1.0309
B(  1-C , 10-H ) :   0.9301 B(  2-O ,  3-C ) :   0.9414 B(  3-C ,  4-C ) :   0.9094
B(  3-C ,  5-C ) :   0.8309 B(  3-C , 11-H ) :   0.9345 B(  4-C ,  5-C ) :   0.8761
B(  4-C , 12-H ) :   0.9075 B(  4-C , 13-H ) :   0.9084 B(  5-C ,  6-C ) :   0.9205
B(  5-C ,  8-O ) :   0.9824 B(  6-C ,  7-C ) :   0.9817 B(  6-C , 14-H ) :   0.9195
B(  6-C , 15-H ) :   0.9210 B(  7-C ,  8-O ) :   0.9207 B(  7-C , 16-H ) :   0.9158
B(  7-C , 17-H ) :   0.9148

MP2 TOTAL ENERGY:     -438.303529707 Eh
FINAL SINGLE POINT ENERGY      -438.303529706582

DIPOLE MOMENT
-------------
                                X             Y             Z
Electronic contribution:      2.22296       0.66722       2.11865
Nuclear contribution   :     -2.28815      -1.13668      -3.01533
                        -----------------------------------------
Total Dipole Moment    :     -0.06519      -0.46946      -0.89667
                        -----------------------------------------
Magnitude (a.u.)       :      1.01423
Magnitude (Debye)      :      2.57797

                             ****ORCA TERMINATED NORMALLY****
TOTAL RUN TIME: 0 days 0 hours 14 minutes 51 seconds 418 msec
