                         Program Version 3.0.3 - RELEASE   -
|  1> ! RI-MP2 RIJK def2-TZVP def2-TZVP/C def2-TZVP/JK TIGHTSCF
|  2> % maxcore 2000
|  3> % mp2 density relaxed end
|  4> *xyz 0 1
|  5>  C       -0.0158950925     1.3814544589     0.0827866468
|  6>  O       -0.0563127442    -0.0421549116     0.0051693959
|  7>  C        0.6136943382    -0.5569087879    -1.0687657859
|  8>  C        0.1202291383    -0.4014061796    -2.5522945854
|  9>  C        0.8212660133    -1.7406780760    -2.7824524010
| 10>  C        0.7998669977    -2.1019620458    -1.3606633120
| 11>  N        2.1304116981    -1.7632662916    -2.0108595174
| 12>  C        2.1193120387    -0.5153176263    -1.2558084644
| 13>  N        3.0482974705     0.1907845869    -0.7946584867
| 14>  H        1.0160089023     1.7418873438     0.1442016257
| 15>  H       -0.5114439387     1.8402880661    -0.7842483414
| 16>  H       -0.5590443602     1.6566406757     0.9883221040
| 17>  H       -0.9649041043    -0.5123379101    -2.6181481751
| 18>  H        0.4572016323     0.4731827540    -3.1166330943
| 19>  H        0.7969179319    -2.3787368201    -3.6560203534
| 20>  H        0.6454465757    -3.0003529305    -0.7818755253
| 21>  H        3.9567321629    -0.1702296658    -1.0987289601
| 22> *
| 23>
| 24>                          ****END OF INPUT****

CARTESIAN COORDINATES (ANGSTROEM)
---------------------------------
  C     -0.015895    1.381454    0.082787
  O     -0.056313   -0.042155    0.005169
  C      0.613694   -0.556909   -1.068766
  C      0.120229   -0.401406   -2.552295
  C      0.821266   -1.740678   -2.782452
  C      0.799867   -2.101962   -1.360663
  N      2.130412   -1.763266   -2.010860
  C      2.119312   -0.515318   -1.255808
  N      3.048297    0.190785   -0.794658
  H      1.016009    1.741887    0.144202
  H     -0.511444    1.840288   -0.784248
  H     -0.559044    1.656641    0.988322
  H     -0.964904   -0.512338   -2.618148
  H      0.457202    0.473183   -3.116633
  H      0.796918   -2.378737   -3.656020
  H      0.645447   -3.000353   -0.781876
  H      3.956732   -0.170230   -1.098729

 Total Charge           Charge          ....    0
 Multiplicity           Mult            ....    1
 Number of Electrons    NEL             ....   66
 Basis Dimension        Dim             ....  327

ORBITAL ENERGIES
----------------

  NO   OCC          E(Eh)            E(eV)
   0   2.0000     -20.577334      -559.9377
   1   2.0000     -15.587025      -424.1445
   2   2.0000     -15.542274      -422.9268
   3   2.0000     -11.320142      -308.0367
   4   2.0000     -11.314736      -307.8896
   5   2.0000     -11.290865      -307.2401
   6   2.0000     -11.287098      -307.1376
   7   2.0000     -11.277466      -306.8755
   8   2.0000     -11.252942      -306.2081
   9   2.0000      -1.407878       -38.3103
  10   2.0000      -1.342001       -36.5177
  11   2.0000      -1.199792       -32.6480
  12   2.0000      -1.047185       -28.4953
  13   2.0000      -0.974003       -26.5040
  14   2.0000      -0.927509       -25.2388
  15   2.0000      -0.884470       -24.0677
  16   2.0000      -0.784366       -21.3437
  17   2.0000      -0.728798       -19.8316
  18   2.0000      -0.727147       -19.7867
  19   2.0000      -0.670073       -18.2336
  20   2.0000      -0.662152       -18.0181
  21   2.0000      -0.637210       -17.3394
  22   2.0000      -0.614562       -16.7231
  23   2.0000      -0.593103       -16.1392
  24   2.0000      -0.567198       -15.4342
  25   2.0000      -0.514112       -13.9897
  26   2.0000      -0.508947       -13.8491
  27   2.0000      -0.502450       -13.6724
  28   2.0000      -0.470873       -12.8131
  29   2.0000      -0.456003       -12.4085
  30   2.0000      -0.419986       -11.4284
  31   2.0000      -0.406396       -11.0586
  32   2.0000      -0.382750       -10.4152
  33   0.0000       0.139320         3.7911
  34   0.0000       0.152463         4.1487
  35   0.0000       0.169429         4.6104
  36   0.0000       0.175323         4.7708
  37   0.0000       0.181547         4.9401

MULLIKEN ATOMIC CHARGES
-----------------------
   0 C :   -0.230755
   1 O :   -0.305498
   2 C :    0.266007
   3 C :   -0.229579
   4 C :   -0.088342
   5 C :   -0.102944
   6 N :   -0.206536
   7 C :    0.018276
   8 N :   -0.352794
   9 H :    0.160868
  10 H :    0.114993
  11 H :    0.144156
  12 H :    0.134004
  13 H :    0.129486
  14 H :    0.149439
  15 H :    0.169983
  16 H :    0.229237
Sum of atomic charges:   -0.0000000

LOEWDIN ATOMIC CHARGES
----------------------
   0 C :   -0.319522
   1 O :    0.202814
   2 C :   -0.288829
   3 C :   -0.178992
   4 C :   -0.189998
   5 C :   -0.107518
   6 N :    0.159095
   7 C :   -0.313346
   8 N :   -0.031234
   9 H :    0.115969
  10 H :    0.105031
  11 H :    0.115390
  12 H :    0.147497
  13 H :    0.131316
  14 H :    0.138676
  15 H :    0.139430
  16 H :    0.174220

  Mayer bond orders larger than 0.1
B(  0-C ,  1-O ) :   0.8616 B(  0-C ,  9-H ) :   0.9286 B(  0-C , 10-H ) :   0.9328
B(  0-C , 11-H ) :   0.9390 B(  1-O ,  2-C ) :   1.0338 B(  2-C ,  3-C ) :   0.9275
B(  2-C ,  5-C ) :   0.8801 B(  2-C ,  7-C ) :   0.8641 B(  3-C ,  4-C ) :   0.9268
B(  3-C , 12-H ) :   0.9189 B(  3-C , 13-H ) :   0.9063 B(  4-C ,  5-C ) :   0.8971
B(  4-C ,  6-N ) :   0.8513 B(  4-C , 14-H ) :   0.9255 B(  5-C ,  6-N ) :   0.8201
B(  5-C , 15-H ) :   0.8924 B(  6-N ,  7-C ) :   0.9809 B(  7-C ,  8-N ) :   2.0698
B(  8-N , 16-H ) :   0.8486

MP2 TOTAL ENERGY:     -417.218360164 Eh
FINAL SINGLE POINT ENERGY      -417.218360163712

DIPOLE MOMENT
-------------
                                X             Y             Z
Electronic contribution:      2.60329      -3.93389       0.14769
Nuclear contribution   :     -3.32482       3.92830      -0.70415
                        -----------------------------------------
Total Dipole Moment    :     -0.72153      -0.00559      -0.55646
                        -----------------------------------------
Magnitude (a.u.)       :      0.91120
Magnitude (Debye)      :      2.31609

                             ****ORCA TERMINATED NORMALLY****
TOTAL RUN TIME: 0 days 0 hours 17 minutes 18 seconds 957 msec
