                         Program Version 3.0.3 - RELEASE   -
|  1> ! RI-MP2 RIJK def2-TZVP def2-TZVP/C def2-TZVP/JK TIGHTSCF
|  2> % maxcore 2000
|  3> % mp2 density relaxed end
|  4> *xyz 0 1
|  5>  C       -0.0078401176     1.5181232743     0.2080879038
|  6>  C       -0.0056842735     0.0386136159     0.0164992381
|  7>  C       -1.0073574783    -0.8068034136    -0.2404998760
|  8>  C       -2.4624191223    -1.1795730649    -0.5069310420
|  9>  C       -1.9476832926    -2.6652210430    -0.6285785835
| 10>  N       -0.5996723620    -2.1381811286    -0.3538102534
| 11>  C        0.7536411179    -2.3108090282    -0.1818700010
| 12>  O        1.4062741545    -3.3268093125    -0.2232392449
| 13>  C        1.2366508068    -0.8488328944     0.0830563618
| 14>  H        0.6288452353     2.0255378537    -0.5286616962
| 15>  H       -1.0176958485     1.9278417077     0.1122618839
| 16>  H        0.3740831545     1.8016824209     1.1977222858
| 17>  H       -3.1510987087    -1.0017147199     0.3214050093
| 18>  H       -2.8917908150    -0.7682835404    -1.4226192519
| 19>  H       -2.3169027144    -3.3557769663     0.1339882814
| 20>  H       -2.0519330344    -3.1199176941    -1.6170999636
| 21>  H        1.9936845120    -0.5859157241    -0.6658025473
| 22>  H        1.7384637261    -0.8141975426     1.0577729057
| 23> *
| 24>
| 25>                          ****END OF INPUT****

CARTESIAN COORDINATES (ANGSTROEM)
---------------------------------
  C     -0.007840    1.518123    0.208088
  C     -0.005684    0.038614    0.016499
  C     -1.007357   -0.806803   -0.240500
  C     -2.462419   -1.179573   -0.506931
  C     -1.947683   -2.665221   -0.628579
  N     -0.599672   -2.138181   -0.353810
  C      0.753641   -2.310809   -0.181870
  O      1.406274   -3.326809   -0.223239
  C      1.236651   -0.848833    0.083056
  H      0.628845    2.025538   -0.528662
  H     -1.017696    1.927842    0.112262
  H      0.374083    1.801682    1.197722
  H     -3.151099   -1.001715    0.321405
  H     -2.891791   -0.768284   -1.422619
  H     -2.316903   -3.355777    0.133988
  H     -2.051933   -3.119918   -1.617100
  H      1.993685   -0.585916   -0.665803
  H      1.738464   -0.814198    1.057773

 Total Charge           Charge          ....    0
 Multiplicity           Mult            ....    1
 Number of Electrons    NEL             ....   66
 Basis Dimension        Dim             ....  333

ORBITAL ENERGIES
----------------

  NO   OCC          E(Eh)            E(eV)
   0   2.0000     -20.516265      -558.2760
   1   2.0000     -15.582156      -424.0120
   2   2.0000     -11.349772      -308.8430
   3   2.0000     -11.292487      -307.2842
   4   2.0000     -11.273202      -306.7594
   5   2.0000     -11.264021      -306.5096
   6   2.0000     -11.242541      -305.9251
   7   2.0000     -11.231302      -305.6193
   8   2.0000     -11.230172      -305.5885
   9   2.0000      -1.380169       -37.5563
  10   2.0000      -1.301022       -35.4026
  11   2.0000      -1.098423       -29.8896
  12   2.0000      -1.045875       -28.4597
  13   2.0000      -0.957722       -26.0610
  14   2.0000      -0.932438       -25.3729
  15   2.0000      -0.863607       -23.4999
  16   2.0000      -0.796828       -21.6828
  17   2.0000      -0.698836       -19.0163
  18   2.0000      -0.682445       -18.5703
  19   2.0000      -0.657983       -17.9046
  20   2.0000      -0.614864       -16.7313
  21   2.0000      -0.612142       -16.6572
  22   2.0000      -0.577759       -15.7216
  23   2.0000      -0.570241       -15.5170
  24   2.0000      -0.564456       -15.3596
  25   2.0000      -0.550039       -14.9673
  26   2.0000      -0.543788       -14.7972
  27   2.0000      -0.514675       -14.0050
  28   2.0000      -0.514202       -13.9921
  29   2.0000      -0.487869       -13.2756
  30   2.0000      -0.451896       -12.2967
  31   2.0000      -0.406918       -11.0728
  32   2.0000      -0.303197        -8.2504
  33   0.0000       0.124921         3.3993
  34   0.0000       0.137611         3.7446
  35   0.0000       0.142129         3.8675
  36   0.0000       0.155355         4.2274
  37   0.0000       0.181723         4.9449

MULLIKEN ATOMIC CHARGES
-----------------------
   0 C :   -0.433078
   1 C :   -0.091415
   2 C :    0.023545
   3 C :   -0.185849
   4 C :   -0.150673
   5 N :   -0.052332
   6 C :    0.126878
   7 O :   -0.331918
   8 C :   -0.145728
   9 H :    0.140558
  10 H :    0.136628
  11 H :    0.140619
  12 H :    0.140586
  13 H :    0.140578
  14 H :    0.130658
  15 H :    0.130540
  16 H :    0.140155
  17 H :    0.140247
Sum of atomic charges:   -0.0000000

LOEWDIN ATOMIC CHARGES
----------------------
   0 C :   -0.282045
   1 C :   -0.190845
   2 C :   -0.167253
   3 C :   -0.187071
   4 C :   -0.191184
   5 N :    0.256039
   6 C :   -0.401229
   7 O :    0.088890
   8 C :   -0.167399
   9 H :    0.129720
  10 H :    0.131875
  11 H :    0.129733
  12 H :    0.139864
  13 H :    0.139812
  14 H :    0.129522
  15 H :    0.129592
  16 H :    0.155968
  17 H :    0.156010

  Mayer bond orders larger than 0.1
B(  0-C ,  1-C ) :   0.8701 B(  0-C ,  9-H ) :   0.9355 B(  0-C , 10-H ) :   0.9518
B(  0-C , 11-H ) :   0.9354 B(  1-C ,  2-C ) :   1.6562 B(  1-C ,  8-C ) :   0.9357
B(  2-C ,  3-C ) :   0.9125 B(  2-C ,  5-N ) :   0.9736 B(  3-C ,  4-C ) :   0.9649
B(  3-C , 12-H ) :   0.9146 B(  3-C , 13-H ) :   0.9147 B(  4-C ,  5-N ) :   0.8737
B(  4-C , 14-H ) :   0.9180 B(  4-C , 15-H ) :   0.9180 B(  5-N ,  6-C ) :   1.0704
B(  6-C ,  7-O ) :   2.0271 B(  6-C ,  8-C ) :   0.9219 B(  8-C , 16-H ) :   0.8919
B(  8-C , 17-H ) :   0.8916

MP2 TOTAL ENERGY:     -401.263773298 Eh
FINAL SINGLE POINT ENERGY      -401.263773298205

DIPOLE MOMENT
-------------
                                X             Y             Z
Electronic contribution:      2.64197      -6.41045      -0.44191
Nuclear contribution   :     -3.92805       7.43745       0.38677
                        -----------------------------------------
Total Dipole Moment    :     -1.28608       1.02700      -0.05514
                        -----------------------------------------
Magnitude (a.u.)       :      1.64675
Magnitude (Debye)      :      4.18570

                             ****ORCA TERMINATED NORMALLY****
TOTAL RUN TIME: 0 days 0 hours 19 minutes 18 seconds 309 msec
