                         Program Version 3.0.3 - RELEASE   -
|  1> ! RI-MP2 RIJK def2-TZVP def2-TZVP/C def2-TZVP/JK TIGHTSCF
|  2> % maxcore 2000
|  3> % mp2 density relaxed end
|  4> *xyz 0 1
|  5>  C       -1.2887199612     0.2960732736    -2.5291276982
|  6>  C       -1.0612128102     0.6051347955    -1.0409275884
|  7>  C       -2.2019974486     0.1451491102    -0.1585794490
|  8>  N       -2.9037612301     1.0110945976     0.4471286957
|  9>  C       -3.9519513534     0.6675210690     1.3864893659
| 10>  N       -2.4089213130    -1.2705365278    -0.1094767537
| 11>  C       -1.2807693711    -2.1743169442     0.1091683587
| 12>  C       -3.6394993243    -1.8163333297    -0.4009481116
| 13>  O       -3.8819524082    -3.0023324455    -0.4249498271
| 14>  H       -0.4443550927     0.6512946296    -3.1266328365
| 15>  H       -1.3991936621    -0.7775699568    -2.7104615956
| 16>  H       -2.1929398555     0.7925089023    -2.8943995109
| 17>  H       -0.1261217746     0.1374889894    -0.7092808036
| 18>  H       -0.9575729906     1.6800622231    -0.8827365617
| 19>  H       -3.8741727015     1.3469945377     2.2417061940
| 20>  H       -4.9351105473     0.8460661254     0.9353273478
| 21>  H       -3.9250689224    -0.3669745801     1.7532126177
| 22>  H       -0.6894012760    -1.8403929334     0.9654028964
| 23>  H       -1.6937559726    -3.1627914775     0.3095229751
| 24>  H       -0.6312793983    -2.2391418271    -0.7704022654
| 25>  H       -4.3884456262    -1.0419641114    -0.6368516094
| 26> *
| 27>
| 28>                          ****END OF INPUT****

CARTESIAN COORDINATES (ANGSTROEM)
---------------------------------
  C     -1.288720    0.296073   -2.529128
  C     -1.061213    0.605135   -1.040928
  C     -2.201997    0.145149   -0.158579
  N     -2.903761    1.011095    0.447129
  C     -3.951951    0.667521    1.386489
  N     -2.408921   -1.270537   -0.109477
  C     -1.280769   -2.174317    0.109168
  C     -3.639499   -1.816333   -0.400948
  O     -3.881952   -3.002332   -0.424950
  H     -0.444355    0.651295   -3.126633
  H     -1.399194   -0.777570   -2.710462
  H     -2.192940    0.792509   -2.894400
  H     -0.126122    0.137489   -0.709281
  H     -0.957573    1.680062   -0.882737
  H     -3.874173    1.346995    2.241706
  H     -4.935111    0.846066    0.935327
  H     -3.925069   -0.366975    1.753213
  H     -0.689401   -1.840393    0.965403
  H     -1.693756   -3.162791    0.309523
  H     -0.631279   -2.239142   -0.770402
  H     -4.388446   -1.041964   -0.636852

 Total Charge           Charge          ....    0
 Multiplicity           Mult            ....    1
 Number of Electrons    NEL             ....   70
 Basis Dimension        Dim             ....  351

ORBITAL ENERGIES
----------------

  NO   OCC          E(Eh)            E(eV)
   0   2.0000     -20.535657      -558.8036
   1   2.0000     -15.605151      -424.6378
   2   2.0000     -15.560109      -423.4121
   3   2.0000     -11.358294      -309.0749
   4   2.0000     -11.324967      -308.1680
   5   2.0000     -11.270409      -306.6834
   6   2.0000     -11.254231      -306.2432
   7   2.0000     -11.241124      -305.8865
   8   2.0000     -11.230778      -305.6050
   9   2.0000      -1.397183       -38.0193
  10   2.0000      -1.293138       -35.1881
  11   2.0000      -1.202939       -32.7336
  12   2.0000      -1.059826       -28.8393
  13   2.0000      -0.976721       -26.5779
  14   2.0000      -0.961055       -26.1516
  15   2.0000      -0.877960       -23.8905
  16   2.0000      -0.836926       -22.7739
  17   2.0000      -0.765962       -20.8429
  18   2.0000      -0.689741       -18.7688
  19   2.0000      -0.673354       -18.3229
  20   2.0000      -0.660631       -17.9767
  21   2.0000      -0.629163       -17.1204
  22   2.0000      -0.609890       -16.5960
  23   2.0000      -0.599271       -16.3070
  24   2.0000      -0.592970       -16.1355
  25   2.0000      -0.579944       -15.7811
  26   2.0000      -0.564474       -15.3601
  27   2.0000      -0.545003       -14.8303
  28   2.0000      -0.536596       -14.6015
  29   2.0000      -0.517156       -14.0725
  30   2.0000      -0.507665       -13.8143
  31   2.0000      -0.446611       -12.1529
  32   2.0000      -0.436220       -11.8701
  33   2.0000      -0.411733       -11.2038
  34   2.0000      -0.379635       -10.3304
  35   0.0000       0.121955         3.3186
  36   0.0000       0.139520         3.7965
  37   0.0000       0.149079         4.0566
  38   0.0000       0.155603         4.2342
  39   0.0000       0.174173         4.7395

MULLIKEN ATOMIC CHARGES
-----------------------
   0 C :   -0.416700
   1 C :   -0.169088
   2 C :    0.062088
   3 N :   -0.197882
   4 C :   -0.312307
   5 N :   -0.107746
   6 C :   -0.356258
   7 C :    0.142296
   8 O :   -0.340365
   9 H :    0.141257
  10 H :    0.133335
  11 H :    0.138969
  12 H :    0.125657
  13 H :    0.136970
  14 H :    0.148772
  15 H :    0.147407
  16 H :    0.130222
  17 H :    0.153011
  18 H :    0.185690
  19 H :    0.143755
  20 H :    0.110916
Sum of atomic charges:    0.0000000

LOEWDIN ATOMIC CHARGES
----------------------
   0 C :   -0.308185
   1 C :   -0.251375
   2 C :   -0.300019
   3 N :    0.107113
   4 C :   -0.339500
   5 N :    0.174530
   6 C :   -0.278811
   7 C :   -0.400425
   8 O :    0.073737
   9 H :    0.124868
  10 H :    0.121980
  11 H :    0.126042
  12 H :    0.143614
  13 H :    0.150109
  14 H :    0.120897
  15 H :    0.121288
  16 H :    0.111834
  17 H :    0.122577
  18 H :    0.136682
  19 H :    0.118375
  20 H :    0.124670

  Mayer bond orders larger than 0.1
B(  0-C ,  1-C ) :   0.9051 B(  0-C ,  9-H ) :   0.9361 B(  0-C , 10-H ) :   0.9335
B(  0-C , 11-H ) :   0.9373 B(  1-C ,  2-C ) :   0.9089 B(  1-C , 12-H ) :   0.9198
B(  1-C , 13-H ) :   0.9297 B(  2-C ,  3-N ) :   1.9923 B(  2-C ,  5-N ) :   0.9331
B(  3-N ,  4-C ) :   0.8714 B(  4-C , 14-H ) :   0.9354 B(  4-C , 15-H ) :   0.9254
B(  4-C , 16-H ) :   0.9215 B(  5-N ,  6-C ) :   0.8492 B(  5-N ,  7-C ) :   1.0662
B(  6-C , 17-H ) :   0.9322 B(  6-C , 18-H ) :   0.9159 B(  6-C , 19-H ) :   0.9296
B(  7-C ,  8-O ) :   1.9200 B(  7-C , 20-H ) :   0.9323

MP2 TOTAL ENERGY:     -419.718726233 Eh
FINAL SINGLE POINT ENERGY      -419.718726233154

DIPOLE MOMENT
-------------
                                X             Y             Z
Electronic contribution:     -3.89979      -3.05234       1.79474
Nuclear contribution   :      4.67209       3.53422      -1.73081
                        -----------------------------------------
Total Dipole Moment    :      0.77230       0.48188       0.06394
                        -----------------------------------------
Magnitude (a.u.)       :      0.91255
Magnitude (Debye)      :      2.31952

                             ****ORCA TERMINATED NORMALLY****
TOTAL RUN TIME: 0 days 0 hours 20 minutes 8 seconds 724 msec
