                         Program Version 3.0.3 - RELEASE   -
|  1> ! RI-MP2 RIJK def2-TZVP def2-TZVP/C def2-TZVP/JK TIGHTSCF
|  2> % maxcore 2000
|  3> % mp2 density relaxed end
|  4> *xyz 0 1
|  5>  O       -0.0211585268     1.4438938195    -0.2203165100
|  6>  C        0.0430643259     0.0437851961     0.0039777717
|  7>  C       -1.3746972672    -0.5079062810    -0.0610051513
|  8>  C       -1.4286752704    -2.0299339976     0.1554764793
|  9>  C       -2.8178048989    -2.5905766112     0.0758952725
| 10>  C       -3.5420887406    -3.1477001702     1.0835664807
| 11>  O       -4.7715212940    -3.5380857733     0.6487392685
| 12>  C       -4.8351455422    -3.2219727050    -0.6706831754
| 13>  C       -3.6779838928    -2.6426552211    -1.0784192051
| 14>  H        0.8719349126     1.7972055987    -0.1751454879
| 15>  H        0.6705541881    -0.4536256237    -0.7545617056
| 16>  H        0.4859663747    -0.1828558818     0.9883080307
| 17>  H       -1.9879678257    -0.0030202005     0.6935687310
| 18>  H       -1.8048892766    -0.2503893421    -1.0356636738
| 19>  H       -0.7905891390    -2.5208703919    -0.5920467556
| 20>  H       -0.9969785005    -2.2758478816     1.1333497650
| 21>  H       -3.3318781473    -3.3350793652     2.1240978458
| 22>  H       -5.7575773462    -3.4731277858    -1.1678904106
| 23>  H       -3.4517285831    -2.2942696423    -2.0746417700
| 24> *
| 25>
| 26>                          ****END OF INPUT****

CARTESIAN COORDINATES (ANGSTROEM)
---------------------------------
  O     -0.021159    1.443894   -0.220317
  C      0.043064    0.043785    0.003978
  C     -1.374697   -0.507906   -0.061005
  C     -1.428675   -2.029934    0.155476
  C     -2.817805   -2.590577    0.075895
  C     -3.542089   -3.147700    1.083566
  O     -4.771521   -3.538086    0.648739
  C     -4.835146   -3.221973   -0.670683
  C     -3.677984   -2.642655   -1.078419
  H      0.871935    1.797206   -0.175145
  H      0.670554   -0.453626   -0.754562
  H      0.485966   -0.182856    0.988308
  H     -1.987968   -0.003020    0.693569
  H     -1.804889   -0.250389   -1.035664
  H     -0.790589   -2.520870   -0.592047
  H     -0.996979   -2.275848    1.133350
  H     -3.331878   -3.335079    2.124098
  H     -5.757577   -3.473128   -1.167890
  H     -3.451729   -2.294270   -2.074642

 Total Charge           Charge          ....    0
 Multiplicity           Mult            ....    1
 Number of Electrons    NEL             ....   68
 Basis Dimension        Dim             ....  339

ORBITAL ENERGIES
----------------

  NO   OCC          E(Eh)            E(eV)
   0   2.0000     -20.615612      -560.9793
   1   2.0000     -20.556087      -559.3596
   2   2.0000     -11.284220      -307.0592
   3   2.0000     -11.276803      -306.8574
   4   2.0000     -11.276489      -306.8489
   5   2.0000     -11.235363      -305.7298
   6   2.0000     -11.231358      -305.6208
   7   2.0000     -11.224059      -305.4222
   8   2.0000     -11.221110      -305.3419
   9   2.0000      -1.452801       -39.5327
  10   2.0000      -1.360083       -37.0097
  11   2.0000      -1.106625       -30.1128
  12   2.0000      -1.044674       -28.4270
  13   2.0000      -1.001029       -27.2394
  14   2.0000      -0.922513       -25.1029
  15   2.0000      -0.818632       -22.2761
  16   2.0000      -0.789004       -21.4699
  17   2.0000      -0.767595       -20.8873
  18   2.0000      -0.717152       -19.5147
  19   2.0000      -0.689319       -18.7573
  20   2.0000      -0.658825       -17.9275
  21   2.0000      -0.630948       -17.1690
  22   2.0000      -0.607121       -16.5206
  23   2.0000      -0.590612       -16.0714
  24   2.0000      -0.587552       -15.9881
  25   2.0000      -0.564457       -15.3597
  26   2.0000      -0.539515       -14.6809
  27   2.0000      -0.527867       -14.3640
  28   2.0000      -0.515368       -14.0239
  29   2.0000      -0.482700       -13.1349
  30   2.0000      -0.478582       -13.0229
  31   2.0000      -0.444712       -12.1012
  32   2.0000      -0.382879       -10.4187
  33   2.0000      -0.313680        -8.5357
  34   0.0000       0.131500         3.5783
  35   0.0000       0.146598         3.9891
  36   0.0000       0.147966         4.0264
  37   0.0000       0.169027         4.5995
  38   0.0000       0.177371         4.8265

MULLIKEN ATOMIC CHARGES
-----------------------
   0 O :   -0.465345
   1 C :   -0.064525
   2 C :   -0.156523
   3 C :   -0.303099
   4 C :    0.149520
   5 C :   -0.082150
   6 O :   -0.211806
   7 C :    0.028485
   8 C :   -0.301300
   9 H :    0.315207
  10 H :    0.090229
  11 H :    0.090866
  12 H :    0.118934
  13 H :    0.113034
  14 H :    0.126271
  15 H :    0.122580
  16 H :    0.143130
  17 H :    0.148027
  18 H :    0.138466
Sum of atomic charges:   -0.0000000

LOEWDIN ATOMIC CHARGES
----------------------
   0 O :   -0.051689
   1 C :   -0.354534
   2 C :   -0.260795
   3 C :   -0.225524
   4 C :   -0.190172
   5 C :   -0.224220
   6 O :    0.336023
   7 C :   -0.247636
   8 C :   -0.166351
   9 H :    0.171640
  10 H :    0.113515
  11 H :    0.113692
  12 H :    0.142281
  13 H :    0.140966
  14 H :    0.146211
  15 H :    0.146229
  16 H :    0.133657
  17 H :    0.131844
  18 H :    0.144863

  Mayer bond orders larger than 0.1
B(  0-O ,  1-C ) :   1.0233 B(  0-O ,  9-H ) :   0.8495 B(  1-C ,  2-C ) :   0.9315
B(  1-C , 10-H ) :   0.9311 B(  1-C , 11-H ) :   0.9316 B(  2-C ,  3-C ) :   0.9108
B(  2-C , 12-H ) :   0.9232 B(  2-C , 13-H ) :   0.9272 B(  3-C ,  4-C ) :   0.8697
B(  3-C , 14-H ) :   0.9256 B(  3-C , 15-H ) :   0.9390 B(  4-C ,  5-C ) :   1.5175
B(  4-C ,  8-C ) :   1.1374 B(  5-C ,  6-O ) :   1.0520 B(  5-C , 16-H ) :   0.9332
B(  6-O ,  7-C ) :   1.0391 B(  7-C ,  8-C ) :   1.5640 B(  7-C , 17-H ) :   0.9366
B(  8-C , 18-H ) :   0.9191

MP2 TOTAL ENERGY:     -422.337673718 Eh
FINAL SINGLE POINT ENERGY      -422.337673718165

DIPOLE MOMENT
-------------
                                X             Y             Z
Electronic contribution:     -6.78744      -4.02083       0.77119
Nuclear contribution   :      7.56150       3.88825      -0.80758
                        -----------------------------------------
Total Dipole Moment    :      0.77407      -0.13259      -0.03639
                        -----------------------------------------
Magnitude (a.u.)       :      0.78618
Magnitude (Debye)      :      1.99831

                             ****ORCA TERMINATED NORMALLY****
TOTAL RUN TIME: 0 days 0 hours 14 minutes 56 seconds 344 msec
