                         Program Version 3.0.3 - RELEASE   -
|  1> ! RI-MP2 RIJK def2-TZVP def2-TZVP/C def2-TZVP/JK TIGHTSCF
|  2> % maxcore 2000
|  3> % mp2 density relaxed end
|  4> *xyz 0 1
|  5>  C       -0.0877202291     1.5250466546    -0.0719014902
|  6>  C        0.0194467559    -0.0001856656     0.0100564199
|  7>  C        0.7237768798    -0.5229624362     1.2859006484
|  8>  C       -0.0368436428    -0.1635194366     2.5774092146
|  9>  C        0.9586170304    -1.9941132367     1.1952807098
| 10>  C        2.0519417524    -2.7942264358     1.1368252264
| 11>  N        1.6595872073    -4.1273732606     1.0537841529
| 12>  C        0.3704917577    -4.0709381719     1.0660208900
| 13>  O       -0.1412498459    -2.8199179018     1.1496601277
| 14>  H        0.8980761952     1.9972664787     0.0091177778
| 15>  H       -0.5219005500     1.8291770002    -1.0292285445
| 16>  H       -0.7208329199     1.9377135244     0.7191646696
| 17>  H       -0.9792421390    -0.4494634687    -0.0496017848
| 18>  H        0.5738626885    -0.3699602969    -0.8603517038
| 19>  H        1.7199785633    -0.0638351136     1.3330402014
| 20>  H       -1.0394386167    -0.6024275905     2.5702243077
| 21>  H        0.4909136169    -0.5434901946     3.4568268964
| 22>  H       -0.1381884970     0.9191704291     2.6867109808
| 23>  H        3.0923191198    -2.5100405028     1.1489033080
| 24>  H       -0.3390863669    -4.8820929147     1.0190713220
| 25> *
| 26>
| 27>                          ****END OF INPUT****

CARTESIAN COORDINATES (ANGSTROEM)
---------------------------------
  C     -0.087720    1.525047   -0.071901
  C      0.019447   -0.000186    0.010056
  C      0.723777   -0.522962    1.285901
  C     -0.036844   -0.163519    2.577409
  C      0.958617   -1.994113    1.195281
  C      2.051942   -2.794226    1.136825
  N      1.659587   -4.127373    1.053784
  C      0.370492   -4.070938    1.066021
  O     -0.141250   -2.819918    1.149660
  H      0.898076    1.997266    0.009118
  H     -0.521901    1.829177   -1.029229
  H     -0.720833    1.937714    0.719165
  H     -0.979242   -0.449463   -0.049602
  H      0.573863   -0.369960   -0.860352
  H      1.719979   -0.063835    1.333040
  H     -1.039439   -0.602428    2.570224
  H      0.490914   -0.543490    3.456827
  H     -0.138188    0.919170    2.686711
  H      3.092319   -2.510041    1.148903
  H     -0.339086   -4.882093    1.019071

 Total Charge           Charge          ....    0
 Multiplicity           Mult            ....    1
 Number of Electrons    NEL             ....   68
 Basis Dimension        Dim             ....  345

ORBITAL ENERGIES
----------------

  NO   OCC          E(Eh)            E(eV)
   0   2.0000     -20.632092      -561.4278
   1   2.0000     -15.561597      -423.4526
   2   2.0000     -11.327197      -308.2287
   3   2.0000     -11.291355      -307.2534
   4   2.0000     -11.250620      -306.1449
   5   2.0000     -11.249519      -306.1150
   6   2.0000     -11.228643      -305.5469
   7   2.0000     -11.222069      -305.3680
   8   2.0000     -11.219764      -305.3053
   9   2.0000      -1.480715       -40.2923
  10   2.0000      -1.227180       -33.3933
  11   2.0000      -1.108941       -30.1758
  12   2.0000      -1.024463       -27.8771
  13   2.0000      -0.980473       -26.6800
  14   2.0000      -0.892997       -24.2997
  15   2.0000      -0.837987       -22.8028
  16   2.0000      -0.821561       -22.3558
  17   2.0000      -0.772624       -21.0242
  18   2.0000      -0.724581       -19.7168
  19   2.0000      -0.658084       -17.9074
  20   2.0000      -0.634100       -17.2547
  21   2.0000      -0.624163       -16.9843
  22   2.0000      -0.592700       -16.1282
  23   2.0000      -0.583545       -15.8791
  24   2.0000      -0.578677       -15.7466
  25   2.0000      -0.549148       -14.9431
  26   2.0000      -0.543074       -14.7778
  27   2.0000      -0.516530       -14.0555
  28   2.0000      -0.496982       -13.5236
  29   2.0000      -0.476647       -12.9702
  30   2.0000      -0.474081       -12.9004
  31   2.0000      -0.452197       -12.3049
  32   2.0000      -0.449331       -12.2269
  33   2.0000      -0.330229        -8.9860
  34   0.0000       0.131309         3.5731
  35   0.0000       0.142601         3.8804
  36   0.0000       0.162157         4.4125
  37   0.0000       0.169605         4.6152
  38   0.0000       0.177092         4.8189

MULLIKEN ATOMIC CHARGES
-----------------------
   0 C :   -0.409637
   1 C :   -0.210748
   2 C :   -0.044029
   3 C :   -0.426541
   4 C :    0.190282
   5 C :   -0.152736
   6 N :   -0.265080
   7 C :    0.095323
   8 O :   -0.228892
   9 H :    0.123840
  10 H :    0.140113
  11 H :    0.131757
  12 H :    0.120709
  13 H :    0.124243
  14 H :    0.098070
  15 H :    0.137632
  16 H :    0.141516
  17 H :    0.137831
  18 H :    0.141149
  19 H :    0.155198
Sum of atomic charges:   -0.0000000

LOEWDIN ATOMIC CHARGES
----------------------
   0 C :   -0.317857
   1 C :   -0.263351
   2 C :   -0.254480
   3 C :   -0.280284
   4 C :   -0.232106
   5 C :   -0.228404
   6 N :    0.094890
   7 C :   -0.331600
   8 O :    0.350674
   9 H :    0.121748
  10 H :    0.123813
  11 H :    0.119659
  12 H :    0.140535
  13 H :    0.141735
  14 H :    0.166143
  15 H :    0.128019
  16 H :    0.127523
  17 H :    0.123369
  18 H :    0.138422
  19 H :    0.131552

  Mayer bond orders larger than 0.1
B(  0-C ,  1-C ) :   0.9071 B(  0-C ,  9-H ) :   0.9357 B(  0-C , 10-H ) :   0.9409
B(  0-C , 11-H ) :   0.9427 B(  1-C ,  2-C ) :   0.9244 B(  1-C , 12-H ) :   0.9257
B(  1-C , 13-H ) :   0.9344 B(  2-C ,  3-C ) :   0.9044 B(  2-C ,  4-C ) :   0.8988
B(  2-C , 14-H ) :   0.9307 B(  3-C , 15-H ) :   0.9298 B(  3-C , 16-H ) :   0.9372
B(  3-C , 17-H ) :   0.9374 B(  4-C ,  5-C ) :   1.5683 B(  4-C ,  8-O ) :   0.9796
B(  5-C ,  6-N ) :   1.2032 B(  5-C , 18-H ) :   0.9326 B(  6-N ,  7-C ) :   1.6549
B(  7-C ,  8-O ) :   1.0859 B(  7-C , 19-H ) :   0.9269

MP2 TOTAL ENERGY:     -402.494965172 Eh
FINAL SINGLE POINT ENERGY      -402.494965171531

DIPOLE MOMENT
-------------
                                X             Y             Z
Electronic contribution:      2.72707     -13.22835       0.46768
Nuclear contribution   :     -3.09926      14.05607      -0.45225
                        -----------------------------------------
Total Dipole Moment    :     -0.37219       0.82772       0.01543
                        -----------------------------------------
Magnitude (a.u.)       :      0.90769
Magnitude (Debye)      :      2.30715

                             ****ORCA TERMINATED NORMALLY****
TOTAL RUN TIME: 0 days 0 hours 18 minutes 25 seconds 589 msec
