                         Program Version 3.0.3 - RELEASE   -
|  1> ! RI-MP2 RIJK def2-TZVP def2-TZVP/C def2-TZVP/JK TIGHTSCF
|  2> % maxcore 2000
|  3> % mp2 density relaxed end
|  4> *xyz 0 1
|  5>  C        0.0166359776     1.5318538366     0.2014779011
|  6>  C       -0.0096569937     0.0114962665    -0.0548231986
|  7>  C       -1.4008816771    -0.5320567366    -0.0916704740
|  8>  C       -2.1273661888    -0.9604532848    -1.1415272920
|  9>  C       -3.4825777123    -1.4109454047    -0.7315083556
| 10>  O       -4.3407763102    -1.8432733669    -1.4634214981
| 11>  C       -3.5804865477    -1.2248710914     0.7830416462
| 12>  C       -2.2143749540    -0.6667841030     1.1651910499
| 13>  O       -1.8248114391    -0.3831100873     2.2732126314
| 14>  H        1.0493502569     1.8894723787     0.2364443194
| 15>  H       -0.5052793017     2.0737571152    -0.5929694957
| 16>  H       -0.4606679546     1.7689580142     1.1550608665
| 17>  H        0.5047696190    -0.2219715877    -0.9921593960
| 18>  H        0.5319579007    -0.4879186689     0.7569224694
| 19>  H       -1.8098271839    -0.9969134164    -2.1775716714
| 20>  H       -4.3847310739    -0.5321123467     1.0500446796
| 21>  H       -3.7874160074    -2.1705985970     1.2930913979
| 22> *
| 23>
| 24>                          ****END OF INPUT****

CARTESIAN COORDINATES (ANGSTROEM)
---------------------------------
  C      0.016636    1.531854    0.201478
  C     -0.009657    0.011496   -0.054823
  C     -1.400882   -0.532057   -0.091670
  C     -2.127366   -0.960453   -1.141527
  C     -3.482578   -1.410945   -0.731508
  O     -4.340776   -1.843273   -1.463421
  C     -3.580487   -1.224871    0.783042
  C     -2.214375   -0.666784    1.165191
  O     -1.824811   -0.383110    2.273213
  H      1.049350    1.889472    0.236444
  H     -0.505279    2.073757   -0.592969
  H     -0.460668    1.768958    1.155061
  H      0.504770   -0.221972   -0.992159
  H      0.531958   -0.487919    0.756922
  H     -1.809827   -0.996913   -2.177572
  H     -4.384731   -0.532112    1.050045
  H     -3.787416   -2.170599    1.293091

 Total Charge           Charge          ....    0
 Multiplicity           Mult            ....    1
 Number of Electrons    NEL             ....   66
 Basis Dimension        Dim             ....  327

ORBITAL ENERGIES
----------------

  NO   OCC          E(Eh)            E(eV)
   0   2.0000     -20.568641      -559.7012
   1   2.0000     -20.560830      -559.4886
   2   2.0000     -11.354023      -308.9587
   3   2.0000     -11.350223      -308.8553
   4   2.0000     -11.285235      -307.0869
   5   2.0000     -11.271488      -306.7128
   6   2.0000     -11.259850      -306.3961
   7   2.0000     -11.253471      -306.2225
   8   2.0000     -11.232923      -305.6634
   9   2.0000      -1.411163       -38.3997
  10   2.0000      -1.402188       -38.1555
  11   2.0000      -1.169318       -31.8188
  12   2.0000      -1.069333       -29.0980
  13   2.0000      -1.001353       -27.2482
  14   2.0000      -0.916061       -24.9273
  15   2.0000      -0.855962       -23.2919
  16   2.0000      -0.780336       -21.2340
  17   2.0000      -0.741617       -20.1804
  18   2.0000      -0.689255       -18.7556
  19   2.0000      -0.659105       -17.9352
  20   2.0000      -0.650615       -17.7041
  21   2.0000      -0.633472       -17.2377
  22   2.0000      -0.615991       -16.7620
  23   2.0000      -0.598720       -16.2920
  24   2.0000      -0.597052       -16.2466
  25   2.0000      -0.554625       -15.0921
  26   2.0000      -0.543220       -14.7818
  27   2.0000      -0.527515       -14.3544
  28   2.0000      -0.518831       -14.1181
  29   2.0000      -0.508316       -13.8320
  30   2.0000      -0.450946       -12.2709
  31   2.0000      -0.414585       -11.2814
  32   2.0000      -0.400210       -10.8903
  33   0.0000       0.049880         1.3573
  34   0.0000       0.124061         3.3759
  35   0.0000       0.134665         3.6644
  36   0.0000       0.148633         4.0445
  37   0.0000       0.166777         4.5382

MULLIKEN ATOMIC CHARGES
-----------------------
   0 C :   -0.413324
   1 C :   -0.194208
   2 C :    0.040348
   3 C :   -0.183243
   4 C :    0.163607
   5 O :   -0.267514
   6 C :   -0.152813
   7 C :    0.122907
   8 O :   -0.275556
   9 H :    0.138593
  10 H :    0.129852
  11 H :    0.156176
  12 H :    0.131767
  13 H :    0.134883
  14 H :    0.156543
  15 H :    0.155991
  16 H :    0.155989
Sum of atomic charges:   -0.0000000

LOEWDIN ATOMIC CHARGES
----------------------
   0 C :   -0.298889
   1 C :   -0.241009
   2 C :   -0.105297
   3 C :   -0.056628
   4 C :   -0.315989
   5 O :    0.156608
   6 C :   -0.177685
   7 C :   -0.280635
   8 O :    0.162169
   9 H :    0.124716
  10 H :    0.122459
  11 H :    0.129007
  12 H :    0.145611
  13 H :    0.156502
  14 H :    0.151035
  15 H :    0.164204
  16 H :    0.163820

  Mayer bond orders larger than 0.1
B(  0-C ,  1-C ) :   0.9011 B(  0-C ,  9-H ) :   0.9349 B(  0-C , 10-H ) :   0.9350
B(  0-C , 11-H ) :   0.9361 B(  1-C ,  2-C ) :   0.8846 B(  1-C , 12-H ) :   0.9471
B(  1-C , 13-H ) :   0.9158 B(  2-C ,  3-C ) :   1.5132 B(  2-C ,  7-C ) :   0.8720
B(  3-C ,  4-C ) :   0.9842 B(  3-C , 14-H ) :   0.9097 B(  4-C ,  5-O ) :   1.9976
B(  4-C ,  6-C ) :   0.9081 B(  6-C ,  7-C ) :   0.9239 B(  6-C , 15-H ) :   0.8857
B(  6-C , 16-H ) :   0.8850 B(  7-C ,  8-O ) :   1.9846

MP2 TOTAL ENERGY:     -421.169197998 Eh
FINAL SINGLE POINT ENERGY      -421.169197998282

DIPOLE MOMENT
-------------
                                X             Y             Z
Electronic contribution:     -6.66785      -5.33004      -0.04758
Nuclear contribution   :      7.45531       5.65978      -0.23012
                        -----------------------------------------
Total Dipole Moment    :      0.78746       0.32975      -0.27770
                        -----------------------------------------
Magnitude (a.u.)       :      0.89774
Magnitude (Debye)      :      2.28188

                             ****ORCA TERMINATED NORMALLY****
TOTAL RUN TIME: 0 days 0 hours 15 minutes 21 seconds 282 msec
