                         Program Version 3.0.3 - RELEASE   -
|  1> ! RI-MP2 RIJK def2-TZVP def2-TZVP/C def2-TZVP/JK TIGHTSCF
|  2> % maxcore 2000
|  3> % mp2 density relaxed end
|  4> *xyz 0 1
|  5>  C        0.3301645121     1.3291146690     0.1351259964
|  6>  N        0.0234396460    -0.0752555324    -0.0362327367
|  7>  C       -0.4477303960    -0.6829765638    -1.1915043532
|  8>  C       -0.6277296082    -2.0172415731    -0.9332393639
|  9>  C       -0.2728217798    -2.2511562069     0.4319627802
| 10>  C       -0.2957191430    -3.4993144030     1.2537462749
| 11>  O        0.7856026085    -3.5147370339     2.2133111589
| 12>  C        0.1160971078    -1.0265405639     0.9374451445
| 13>  O        0.5633900846    -0.6916808141     2.1700346915
| 14>  H        0.7975916645     1.7182304602    -0.7729667330
| 15>  H       -0.5692226890     1.9182525269     0.3488716963
| 16>  H        1.0243669697     1.4420954465     0.9691155476
| 17>  H       -0.6012908911    -0.1013069638    -2.0855492295
| 18>  H       -0.9779506992    -2.7556185318    -1.6392358776
| 19>  H       -1.1960514860    -3.5813549018     1.8751045974
| 20>  H       -0.2615882727    -4.3951265895     0.6187682334
| 21>  H        1.6040303205    -3.5156645381     1.7027686115
| 22>  H        0.7375066712    -1.5418035965     2.6112721212
| 23> *
| 24>
| 25>                          ****END OF INPUT****

CARTESIAN COORDINATES (ANGSTROEM)
---------------------------------
  C      0.330165    1.329115    0.135126
  N      0.023440   -0.075256   -0.036233
  C     -0.447730   -0.682977   -1.191504
  C     -0.627730   -2.017242   -0.933239
  C     -0.272822   -2.251156    0.431963
  C     -0.295719   -3.499314    1.253746
  O      0.785603   -3.514737    2.213311
  C      0.116097   -1.026541    0.937445
  O      0.563390   -0.691681    2.170035
  H      0.797592    1.718230   -0.772967
  H     -0.569223    1.918253    0.348872
  H      1.024367    1.442095    0.969116
  H     -0.601291   -0.101307   -2.085549
  H     -0.977951   -2.755619   -1.639236
  H     -1.196051   -3.581355    1.875105
  H     -0.261588   -4.395127    0.618768
  H      1.604030   -3.515665    1.702769
  H      0.737507   -1.541804    2.611272

 Total Charge           Charge          ....    0
 Multiplicity           Mult            ....    1
 Number of Electrons    NEL             ....   68
 Basis Dimension        Dim             ....  333

ORBITAL ENERGIES
----------------

  NO   OCC          E(Eh)            E(eV)
   0   2.0000     -20.584436      -560.1310
   1   2.0000     -20.570150      -559.7422
   2   2.0000     -15.601909      -424.5495
   3   2.0000     -11.312976      -307.8417
   4   2.0000     -11.285211      -307.0862
   5   2.0000     -11.267350      -306.6002
   6   2.0000     -11.241883      -305.9072
   7   2.0000     -11.213283      -305.1289
   8   2.0000     -11.202625      -304.8389
   9   2.0000      -1.413131       -38.4532
  10   2.0000      -1.366292       -37.1787
  11   2.0000      -1.289059       -35.0771
  12   2.0000      -1.084677       -29.5156
  13   2.0000      -0.985218       -26.8091
  14   2.0000      -0.952360       -25.9150
  15   2.0000      -0.892975       -24.2991
  16   2.0000      -0.799623       -21.7589
  17   2.0000      -0.759502       -20.6671
  18   2.0000      -0.721074       -19.6214
  19   2.0000      -0.684372       -18.6227
  20   2.0000      -0.650759       -17.7081
  21   2.0000      -0.637792       -17.3552
  22   2.0000      -0.622699       -16.9445
  23   2.0000      -0.605776       -16.4840
  24   2.0000      -0.589405       -16.0385
  25   2.0000      -0.576213       -15.6795
  26   2.0000      -0.574345       -15.6287
  27   2.0000      -0.548102       -14.9146
  28   2.0000      -0.528835       -14.3903
  29   2.0000      -0.503279       -13.6949
  30   2.0000      -0.492157       -13.3923
  31   2.0000      -0.464052       -12.6275
  32   2.0000      -0.337606        -9.1867
  33   2.0000      -0.276500        -7.5239
  34   0.0000       0.131864         3.5882
  35   0.0000       0.149751         4.0749
  36   0.0000       0.167617         4.5611
  37   0.0000       0.171226         4.6593
  38   0.0000       0.185934         5.0595

MULLIKEN ATOMIC CHARGES
-----------------------
   0 C :   -0.334276
   1 N :   -0.022000
   2 C :   -0.129834
   3 C :   -0.242898
   4 C :   -0.113921
   5 C :   -0.028537
   6 O :   -0.507444
   7 C :    0.169077
   8 O :   -0.457442
   9 H :    0.146530
  10 H :    0.147447
  11 H :    0.170103
  12 H :    0.141907
  13 H :    0.123361
  14 H :    0.129251
  15 H :    0.126084
  16 H :    0.326729
  17 H :    0.355864
Sum of atomic charges:   -0.0000000

LOEWDIN ATOMIC CHARGES
----------------------
   0 C :   -0.270406
   1 N :    0.239930
   2 C :   -0.227181
   3 C :   -0.183261
   4 C :   -0.219246
   5 C :   -0.293504
   6 O :   -0.066234
   7 C :   -0.326201
   8 O :    0.060607
   9 H :    0.124674
  10 H :    0.121817
  11 H :    0.132622
  12 H :    0.132975
  13 H :    0.139060
  14 H :    0.134497
  15 H :    0.126855
  16 H :    0.176423
  17 H :    0.196574

  Mayer bond orders larger than 0.1
B(  0-C ,  1-N ) :   0.8623 B(  0-C ,  9-H ) :   0.9331 B(  0-C , 10-H ) :   0.9286
B(  0-C , 11-H ) :   0.9299 B(  1-N ,  2-C ) :   1.0776 B(  1-N ,  7-C ) :   1.1814
B(  2-C ,  3-C ) :   1.5114 B(  2-C , 12-H ) :   0.9201 B(  3-C ,  4-C ) :   1.1967
B(  3-C , 13-H ) :   0.9326 B(  4-C ,  5-C ) :   0.9212 B(  4-C ,  7-C ) :   1.3803
B(  5-C ,  6-O ) :   0.8167 B(  5-C , 14-H ) :   0.9279 B(  5-C , 15-H ) :   0.9477
B(  6-O , 16-H ) :   0.8367 B(  7-C ,  8-O ) :   1.1085 B(  8-O , 17-H ) :   0.7840

MP2 TOTAL ENERGY:     -438.395489212 Eh
FINAL SINGLE POINT ENERGY      -438.395489212493

DIPOLE MOMENT
-------------
                                X             Y             Z
Electronic contribution:      0.29479      -1.32268       1.47504
Nuclear contribution   :      0.00374       1.60487      -1.92565
                        -----------------------------------------
Total Dipole Moment    :      0.29853       0.28219      -0.45061
                        -----------------------------------------
Magnitude (a.u.)       :      0.60975
Magnitude (Debye)      :      1.54987

                             ****ORCA TERMINATED NORMALLY****
TOTAL RUN TIME: 0 days 0 hours 17 minutes 2 seconds 547 msec
