                         Program Version 3.0.3 - RELEASE   -
|  1> ! RI-MP2 RIJK def2-TZVP def2-TZVP/C def2-TZVP/JK TIGHTSCF
|  2> % maxcore 2000
|  3> % mp2 density relaxed end
|  4> *xyz 0 1
|  5>  O       -0.1624430819     0.1454645629    -0.3846926248
|  6>  C        0.1066259883     1.1791229625     0.1775936575
|  7>  C        1.4117636844     1.8459565284     0.0843982695
|  8>  C        2.1105445464     2.5607958652     1.2100062204
|  9>  C        3.5544773808     2.5193023209     0.6651131364
| 10>  N        3.7181101436     1.1591248178     0.0625313788
| 11>  C        2.6068617025     1.5901632723    -0.8460222157
| 12>  C        2.8827456557     3.1100513561    -0.6135510091
| 13>  N        1.5408159542     3.3637688135     0.1011748986
| 14>  H       -0.6327005514     1.7213367697     0.8080332649
| 15>  H        1.7361842012     2.6142588736     2.2245904538
| 16>  H        4.3704898170     2.9485139436     1.2421495676
| 17>  H        4.5850448514     1.1556795913    -0.4771752229
| 18>  H        2.4572278111     1.0743697716    -1.7905850047
| 19>  H        3.2815901467     3.8393807307    -1.3156849502
| 20> *
| 21>
| 22>                          ****END OF INPUT****

CARTESIAN COORDINATES (ANGSTROEM)
---------------------------------
  O     -0.162443    0.145465   -0.384693
  C      0.106626    1.179123    0.177594
  C      1.411764    1.845957    0.084398
  C      2.110545    2.560796    1.210006
  C      3.554477    2.519302    0.665113
  N      3.718110    1.159125    0.062531
  C      2.606862    1.590163   -0.846022
  C      2.882746    3.110051   -0.613551
  N      1.540816    3.363769    0.101175
  H     -0.632701    1.721337    0.808033
  H      1.736184    2.614259    2.224590
  H      4.370490    2.948514    1.242150
  H      4.585045    1.155680   -0.477175
  H      2.457228    1.074370   -1.790585
  H      3.281590    3.839381   -1.315685

 Total Charge           Charge          ....    0
 Multiplicity           Mult            ....    1
 Number of Electrons    NEL             ....   64
 Basis Dimension        Dim             ....  315

ORBITAL ENERGIES
----------------

  NO   OCC          E(Eh)            E(eV)
   0   2.0000     -20.560223      -559.4721
   1   2.0000     -15.590286      -424.2332
   2   2.0000     -15.567630      -423.6168
   3   2.0000     -11.340165      -308.5816
   4   2.0000     -11.292749      -307.2913
   5   2.0000     -11.292140      -307.2748
   6   2.0000     -11.288943      -307.1878
   7   2.0000     -11.288325      -307.1709
   8   2.0000     -11.286634      -307.1249
   9   2.0000      -1.399736       -38.0888
  10   2.0000      -1.367085       -37.2003
  11   2.0000      -1.214420       -33.0461
  12   2.0000      -1.002589       -27.2818
  13   2.0000      -0.977032       -26.5864
  14   2.0000      -0.929312       -25.2879
  15   2.0000      -0.870083       -23.6762
  16   2.0000      -0.772389       -21.0178
  17   2.0000      -0.737601       -20.0711
  18   2.0000      -0.724284       -19.7088
  19   2.0000      -0.670760       -18.2523
  20   2.0000      -0.636127       -17.3099
  21   2.0000      -0.634591       -17.2681
  22   2.0000      -0.622027       -16.9262
  23   2.0000      -0.599854       -16.3229
  24   2.0000      -0.545669       -14.8484
  25   2.0000      -0.534743       -14.5511
  26   2.0000      -0.483959       -13.1692
  27   2.0000      -0.459703       -12.5092
  28   2.0000      -0.446269       -12.1436
  29   2.0000      -0.422948       -11.5090
  30   2.0000      -0.411073       -11.1859
  31   2.0000      -0.379940       -10.3387
  32   0.0000       0.118122         3.2143
  33   0.0000       0.130525         3.5518
  34   0.0000       0.158637         4.3167
  35   0.0000       0.163337         4.4446
  36   0.0000       0.165900         4.5144

MULLIKEN ATOMIC CHARGES
-----------------------
   0 O :   -0.263265
   1 C :    0.030633
   2 C :    0.115423
   3 C :   -0.104515
   4 C :   -0.010410
   5 N :   -0.359729
   6 C :    0.027667
   7 C :   -0.107289
   8 N :   -0.226620
   9 H :    0.088609
  10 H :    0.153704
  11 H :    0.145732
  12 H :    0.207584
  13 H :    0.152619
  14 H :    0.149856
Sum of atomic charges:    0.0000000

LOEWDIN ATOMIC CHARGES
----------------------
   0 O :    0.138863
   1 C :   -0.266929
   2 C :   -0.202414
   3 C :   -0.150187
   4 C :   -0.206064
   5 N :    0.006313
   6 C :   -0.176828
   7 C :   -0.134004
   8 N :    0.152444
   9 H :    0.122721
  10 H :    0.140683
  11 H :    0.135630
  12 H :    0.167803
  13 H :    0.141655
  14 H :    0.130313

  Mayer bond orders larger than 0.1
B(  0-O ,  1-C ) :   2.0099 B(  0-O ,  2-C ) :  -0.1031 B(  1-C ,  2-C ) :   0.8191
B(  1-C ,  9-H ) :   0.9600 B(  2-C ,  3-C ) :   0.8682 B(  2-C ,  6-C ) :   0.8061
B(  2-C ,  8-N ) :   0.7929 B(  3-C ,  4-C ) :   0.8282 B(  3-C ,  8-N ) :   0.9277
B(  3-C , 10-H ) :   0.9025 B(  4-C ,  5-N ) :   0.9340 B(  4-C ,  7-C ) :   0.9235
B(  4-C , 11-H ) :   0.9187 B(  5-N ,  6-C ) :   0.9062 B(  5-N , 12-H ) :   0.8629
B(  6-C ,  7-C ) :   0.9292 B(  6-C , 13-H ) :   0.9117 B(  7-C ,  8-N ) :   0.9183
B(  7-C , 14-H ) :   0.9101

MP2 TOTAL ENERGY:     -416.000028295 Eh
FINAL SINGLE POINT ENERGY      -416.000028295352

DIPOLE MOMENT
-------------
                                X             Y             Z
Electronic contribution:     -2.60986      -0.90074      -0.32616
Nuclear contribution   :      3.77188       1.76893       0.41353
                        -----------------------------------------
Total Dipole Moment    :      1.16202       0.86819       0.08737
                        -----------------------------------------
Magnitude (a.u.)       :      1.45316
Magnitude (Debye)      :      3.69365

                             ****ORCA TERMINATED NORMALLY****
TOTAL RUN TIME: 0 days 0 hours 15 minutes 21 seconds 593 msec
