                         Program Version 3.0.3 - RELEASE   -
|  1> ! RI-MP2 RIJK def2-TZVP def2-TZVP/C def2-TZVP/JK TIGHTSCF
|  2> % maxcore 2000
|  3> % mp2 density relaxed end
|  4> *xyz 0 1
|  5>  C       -0.0821968581     1.7468863962     0.3080937733
|  6>  C       -0.0649862213     0.2593201385     0.0159036411
|  7>  C        1.2256021202    -0.3913653883    -0.4454762011
|  8>  C        0.6902393136    -0.6590533417     0.9410654048
|  9>  O        1.3054334303    -0.0806617687     2.0558743597
| 10>  C       -1.3544294780    -0.2645129786    -0.5484333892
| 11>  C       -1.5717813932    -0.4548201297    -1.9888091077
| 12>  O       -1.3428356988    -1.5722447269    -1.1238171832
| 13>  H        0.8223878755     2.0457082300     0.8395729776
| 14>  H       -0.1574622601     2.3281791352    -0.6173870477
| 15>  H       -0.9378476235     2.0113264572     0.9405239425
| 16>  H        1.1644737113    -1.1951133690    -1.1705922553
| 17>  H        2.0956814276     0.2522847527    -0.5230698168
| 18>  H        0.2537479026    -1.6420984031     1.1152981580
| 19>  H        2.1428743653    -0.5336356760     2.1984618148
| 20>  H       -2.2331072617    -0.0649662051     0.0693252407
| 21>  H       -2.5763502180    -0.3864470313    -2.4029508624
| 22>  H       -0.7616828637    -0.2329565016    -2.6816146091
| 23> *
| 24>
| 25>                          ****END OF INPUT****

CARTESIAN COORDINATES (ANGSTROEM)
---------------------------------
  C     -0.082197    1.746886    0.308094
  C     -0.064986    0.259320    0.015904
  C      1.225602   -0.391365   -0.445476
  C      0.690239   -0.659053    0.941065
  O      1.305433   -0.080662    2.055874
  C     -1.354429   -0.264513   -0.548433
  C     -1.571781   -0.454820   -1.988809
  O     -1.342836   -1.572245   -1.123817
  H      0.822388    2.045708    0.839573
  H     -0.157462    2.328179   -0.617387
  H     -0.937848    2.011326    0.940524
  H      1.164474   -1.195113   -1.170592
  H      2.095681    0.252285   -0.523070
  H      0.253748   -1.642098    1.115298
  H      2.142874   -0.533636    2.198462
  H     -2.233107   -0.064966    0.069325
  H     -2.576350   -0.386447   -2.402951
  H     -0.761683   -0.232957   -2.681615

 Total Charge           Charge          ....    0
 Multiplicity           Mult            ....    1
 Number of Electrons    NEL             ....   62
 Basis Dimension        Dim             ....  308

ORBITAL ENERGIES
----------------

  NO   OCC          E(Eh)            E(eV)
   0   2.0000     -20.568454      -559.6961
   1   2.0000     -20.562977      -559.5471
   2   2.0000     -11.287987      -307.1617
   3   2.0000     -11.281667      -306.9898
   4   2.0000     -11.280462      -306.9570
   5   2.0000     -11.241961      -305.9093
   6   2.0000     -11.222683      -305.3847
   7   2.0000     -11.218028      -305.2581
   8   2.0000      -1.411934       -38.4207
   9   2.0000      -1.372149       -37.3381
  10   2.0000      -1.144272       -31.1372
  11   2.0000      -0.977364       -26.5954
  12   2.0000      -0.926918       -25.2227
  13   2.0000      -0.876324       -23.8460
  14   2.0000      -0.824439       -22.4341
  15   2.0000      -0.751545       -20.4506
  16   2.0000      -0.712561       -19.3898
  17   2.0000      -0.688284       -18.7292
  18   2.0000      -0.668110       -18.1802
  19   2.0000      -0.615835       -16.7577
  20   2.0000      -0.601347       -16.3635
  21   2.0000      -0.572422       -15.5764
  22   2.0000      -0.561533       -15.2801
  23   2.0000      -0.540017       -14.6946
  24   2.0000      -0.530446       -14.4342
  25   2.0000      -0.505643       -13.7592
  26   2.0000      -0.493038       -13.4163
  27   2.0000      -0.466345       -12.6899
  28   2.0000      -0.450474       -12.2580
  29   2.0000      -0.398017       -10.8306
  30   2.0000      -0.387637       -10.5481
  31   0.0000       0.139097         3.7850
  32   0.0000       0.154733         4.2105
  33   0.0000       0.167923         4.5694
  34   0.0000       0.178680         4.8621
  35   0.0000       0.188059         5.1173

MULLIKEN ATOMIC CHARGES
-----------------------
   0 C :   -0.428105
   1 C :    0.121530
   2 C :   -0.336430
   3 C :   -0.020928
   4 O :   -0.469344
   5 C :    0.044395
   6 C :   -0.088026
   7 O :   -0.343507
   8 H :    0.152776
   9 H :    0.131982
  10 H :    0.130703
  11 H :    0.147810
  12 H :    0.137728
  13 H :    0.122490
  14 H :    0.325733
  15 H :    0.130240
  16 H :    0.119694
  17 H :    0.121259
Sum of atomic charges:   -0.0000000

LOEWDIN ATOMIC CHARGES
----------------------
   0 C :   -0.257498
   1 C :   -0.254183
   2 C :   -0.197200
   3 C :   -0.294792
   4 O :   -0.004301
   5 C :   -0.253906
   6 C :   -0.257935
   7 O :    0.147851
   8 H :    0.134438
   9 H :    0.126936
  10 H :    0.129677
  11 H :    0.139534
  12 H :    0.137193
  13 H :    0.137957
  14 H :    0.181068
  15 H :    0.143508
  16 H :    0.119453
  17 H :    0.122201

  Mayer bond orders larger than 0.1
B(  0-C ,  1-C ) :   0.9158 B(  0-C ,  8-H ) :   0.9223 B(  0-C ,  9-H ) :   0.9374
B(  0-C , 10-H ) :   0.9390 B(  1-C ,  2-C ) :   0.8616 B(  1-C ,  3-C ) :   0.8564
B(  1-C ,  5-C ) :   0.9277 B(  2-C ,  3-C ) :   0.9044 B(  2-C , 11-H ) :   0.9025
B(  2-C , 12-H ) :   0.9250 B(  3-C ,  4-O ) :   1.0367 B(  3-C , 13-H ) :   0.9482
B(  4-O , 14-H ) :   0.8404 B(  5-C ,  6-C ) :   0.9794 B(  5-C ,  7-O ) :   0.8768
B(  5-C , 15-H ) :   0.9132 B(  6-C ,  7-O ) :   0.9014 B(  6-C , 16-H ) :   0.9243
B(  6-C , 17-H ) :   0.9056

MP2 TOTAL ENERGY:     -384.265711677 Eh
FINAL SINGLE POINT ENERGY      -384.265711676693

DIPOLE MOMENT
-------------
                                X             Y             Z
Electronic contribution:     -0.74755      -3.82995       1.10974
Nuclear contribution   :      1.03500       4.12982      -1.42357
                        -----------------------------------------
Total Dipole Moment    :      0.28745       0.29987      -0.31382
                        -----------------------------------------
Magnitude (a.u.)       :      0.52061
Magnitude (Debye)      :      1.32329

                             ****ORCA TERMINATED NORMALLY****
TOTAL RUN TIME: 0 days 0 hours 11 minutes 49 seconds 223 msec
