                         Program Version 3.0.3 - RELEASE   -
|  1> ! RI-MP2 RIJK def2-TZVP def2-TZVP/C def2-TZVP/JK TIGHTSCF
|  2> % maxcore 2000
|  3> % mp2 density relaxed end
|  4> *xyz 0 1
|  5>  O       -0.0638598852     1.4172135988    -0.3821039594
|  6>  C        0.0170950827     0.1108169397     0.1730577667
|  7>  C       -1.3673832866    -0.4987467771     0.0479227973
|  8>  C       -1.8152867077    -0.8622744894    -1.3805504530
|  9>  O       -1.8455891847    -2.2765764311    -1.0623062079
| 10>  C       -1.5300607657    -2.0208642693     0.3260725363
| 11>  C       -0.3458784395    -2.8315809858     0.7976685712
| 12>  C       -0.1921800143    -4.2331738169     0.3431953116
| 13>  N        0.7270904211    -3.1834036513    -0.1428808846
| 14>  H        0.8182339381     1.8000760452    -0.3797057935
| 15>  H        0.7573309506    -0.5053205957    -0.3564600674
| 16>  H        0.3182255146     0.1436045237     1.2323062745
| 17>  H       -2.0794560774     0.1285462929     0.5885026442
| 18>  H       -2.8056216822    -0.4969314680    -1.6740020298
| 19>  H       -1.0980948942    -0.6351488001    -2.1772444517
| 20>  H       -2.3944586077    -2.2394375520     0.9697228134
| 21>  H        0.0010794564    -2.5692625640     1.7960389751
| 22>  H        0.2548072472    -4.9729336651     1.0007276305
| 23>  H       -0.9322686903    -4.6154418941    -0.3538176470
| 24>  H        0.4082886548    -2.9211515205    -1.0752548766
| 25> *
| 26>
| 27>                          ****END OF INPUT****

CARTESIAN COORDINATES (ANGSTROEM)
---------------------------------
  O     -0.063860    1.417214   -0.382104
  C      0.017095    0.110817    0.173058
  C     -1.367383   -0.498747    0.047923
  C     -1.815287   -0.862274   -1.380550
  O     -1.845589   -2.276576   -1.062306
  C     -1.530061   -2.020864    0.326073
  C     -0.345878   -2.831581    0.797669
  C     -0.192180   -4.233174    0.343195
  N      0.727090   -3.183404   -0.142881
  H      0.818234    1.800076   -0.379706
  H      0.757331   -0.505321   -0.356460
  H      0.318226    0.143605    1.232306
  H     -2.079456    0.128546    0.588503
  H     -2.805622   -0.496931   -1.674002
  H     -1.098095   -0.635149   -2.177244
  H     -2.394459   -2.239438    0.969723
  H      0.001079   -2.569263    1.796039
  H      0.254807   -4.972934    1.000728
  H     -0.932269   -4.615442   -0.353818
  H      0.408289   -2.921152   -1.075255

 Total Charge           Charge          ....    0
 Multiplicity           Mult            ....    1
 Number of Electrons    NEL             ....   70
 Basis Dimension        Dim             ....  345

ORBITAL ENERGIES
----------------

  NO   OCC          E(Eh)            E(eV)
   0   2.0000     -20.563510      -559.5615
   1   2.0000     -20.555137      -559.3337
   2   2.0000     -15.553527      -423.2330
   3   2.0000     -11.293122      -307.3015
   4   2.0000     -11.282848      -307.0219
   5   2.0000     -11.280391      -306.9550
   6   2.0000     -11.259962      -306.3992
   7   2.0000     -11.250472      -306.1409
   8   2.0000     -11.238106      -305.8044
   9   2.0000      -1.386689       -37.7337
  10   2.0000      -1.366678       -37.1892
  11   2.0000      -1.256629       -34.1946
  12   2.0000      -1.053302       -28.6618
  13   2.0000      -0.971754       -26.4428
  14   2.0000      -0.906859       -24.6769
  15   2.0000      -0.878889       -23.9158
  16   2.0000      -0.827830       -22.5264
  17   2.0000      -0.747060       -20.3285
  18   2.0000      -0.714800       -19.4507
  19   2.0000      -0.702314       -19.1109
  20   2.0000      -0.676570       -18.4104
  21   2.0000      -0.647825       -17.6282
  22   2.0000      -0.626454       -17.0467
  23   2.0000      -0.607274       -16.5248
  24   2.0000      -0.585716       -15.9381
  25   2.0000      -0.569894       -15.5076
  26   2.0000      -0.538913       -14.6646
  27   2.0000      -0.506067       -13.7708
  28   2.0000      -0.503708       -13.7066
  29   2.0000      -0.477848       -13.0029
  30   2.0000      -0.473246       -12.8777
  31   2.0000      -0.451899       -12.2968
  32   2.0000      -0.440182       -11.9779
  33   2.0000      -0.421703       -11.4751
  34   2.0000      -0.385412       -10.4876
  35   0.0000       0.130974         3.5640
  36   0.0000       0.144292         3.9264
  37   0.0000       0.159898         4.3510
  38   0.0000       0.169326         4.6076
  39   0.0000       0.179349         4.8803

MULLIKEN ATOMIC CHARGES
-----------------------
   0 O :   -0.468821
   1 C :   -0.129918
   2 C :   -0.006159
   3 C :   -0.057430
   4 O :   -0.349945
   5 C :    0.031758
   6 C :   -0.046453
   7 C :   -0.181258
   8 N :   -0.386875
   9 H :    0.320031
  10 H :    0.122750
  11 H :    0.098111
  12 H :    0.116834
  13 H :    0.105124
  14 H :    0.112649
  15 H :    0.097491
  16 H :    0.123030
  17 H :    0.122313
  18 H :    0.144964
  19 H :    0.231804
Sum of atomic charges:   -0.0000000

LOEWDIN ATOMIC CHARGES
----------------------
   0 O :   -0.044807
   1 C :   -0.331020
   2 C :   -0.219880
   3 C :   -0.241899
   4 O :    0.129532
   5 C :   -0.251230
   6 C :   -0.278049
   7 C :   -0.259315
   8 N :   -0.022493
   9 H :    0.173997
  10 H :    0.125047
  11 H :    0.120058
  12 H :    0.150187
  13 H :    0.120017
  14 H :    0.121946
  15 H :    0.142993
  16 H :    0.145668
  17 H :    0.123429
  18 H :    0.128191
  19 H :    0.167629

  Mayer bond orders larger than 0.1
B(  0-O ,  1-C ) :   1.0260 B(  0-O ,  2-C ) :  -0.1019 B(  0-O ,  9-H ) :   0.8470
B(  1-C ,  2-C ) :   0.9150 B(  1-C , 10-H ) :   0.9192 B(  1-C , 11-H ) :   0.9340
B(  2-C ,  3-C ) :   0.9440 B(  2-C ,  5-C ) :   0.9262 B(  2-C , 12-H ) :   0.9200
B(  3-C ,  4-O ) :   0.9137 B(  3-C , 13-H ) :   0.9172 B(  3-C , 14-H ) :   0.9143
B(  4-O ,  5-C ) :   0.9422 B(  5-C ,  6-C ) :   0.9513 B(  5-C , 15-H ) :   0.9208
B(  6-C ,  7-C ) :   0.9445 B(  6-C ,  8-N ) :   0.9413 B(  6-C , 16-H ) :   0.9028
B(  7-C ,  8-N ) :   0.9102 B(  7-C , 17-H ) :   0.9272 B(  7-C , 18-H ) :   0.9105
B(  8-N , 19-H ) :   0.8707

MP2 TOTAL ENERGY:     -439.511145661 Eh
FINAL SINGLE POINT ENERGY      -439.511145660701

DIPOLE MOMENT
-------------
                                X             Y             Z
Electronic contribution:     -0.87357       0.25839      -0.91518
Nuclear contribution   :      0.85943       0.12468       1.32708
                        -----------------------------------------
Total Dipole Moment    :     -0.01414       0.38307       0.41190
                        -----------------------------------------
Magnitude (a.u.)       :      0.56267
Magnitude (Debye)      :      1.43021

                             ****ORCA TERMINATED NORMALLY****
TOTAL RUN TIME: 0 days 0 hours 16 minutes 33 seconds 0 msec
