                         Program Version 3.0.3 - RELEASE   -
|  1> ! RI-MP2 RIJK def2-TZVP def2-TZVP/C def2-TZVP/JK TIGHTSCF
|  2> % maxcore 2000
|  3> % mp2 density relaxed end
|  4> *xyz 0 1
|  5>  O        0.0133056156    -0.0520680510    -0.1280117644
|  6>  C       -0.0399421615     1.1592207720    -0.0358243907
|  7>  C       -1.3469804954     1.9406746033     0.0459038158
|  8>  C       -1.2398703671     3.1187107749     1.0300051232
|  9>  C       -0.0968139065     4.0375133066     0.6137601698
| 10>  C        1.1991071574     4.0881547660     1.3879791475
| 11>  C        1.1303624731     3.3600008544     0.0631350941
| 12>  N        1.0931786024     1.9308350377     0.0381220189
| 13>  H       -1.5909777871     2.3156537049    -0.9562807154
| 14>  H       -2.1262732781     1.2296899000     0.3269601506
| 15>  H       -2.1818601788     3.6743373826     1.0643695566
| 16>  H       -1.0725566822     2.7294183021     2.0401268596
| 17>  H       -0.3928394855     4.9500089101     0.1068595197
| 18>  H        1.7444325520     5.0247404068     1.4286377833
| 19>  H        1.2712119083     3.4762772172     2.2810092965
| 20>  H        1.6279897688     3.8193481134    -0.7877690344
| 21>  H        1.9598055945     1.4115080290     0.0349022392
| 22> *
| 23>
| 24>                          ****END OF INPUT****

CARTESIAN COORDINATES (ANGSTROEM)
---------------------------------
  O      0.013306   -0.052068   -0.128012
  C     -0.039942    1.159221   -0.035824
  C     -1.346980    1.940675    0.045904
  C     -1.239870    3.118711    1.030005
  C     -0.096814    4.037513    0.613760
  C      1.199107    4.088155    1.387979
  C      1.130362    3.360001    0.063135
  N      1.093179    1.930835    0.038122
  H     -1.590978    2.315654   -0.956281
  H     -2.126273    1.229690    0.326960
  H     -2.181860    3.674337    1.064370
  H     -1.072557    2.729418    2.040127
  H     -0.392839    4.950009    0.106860
  H      1.744433    5.024740    1.428638
  H      1.271212    3.476277    2.281009
  H      1.627990    3.819348   -0.787769
  H      1.959806    1.411508    0.034902

 Total Charge           Charge          ....    0
 Multiplicity           Mult            ....    1
 Number of Electrons    NEL             ....   60
 Basis Dimension        Dim             ....  302

ORBITAL ENERGIES
----------------

  NO   OCC          E(Eh)            E(eV)
   0   2.0000     -20.509707      -558.0975
   1   2.0000     -15.580358      -423.9631
   2   2.0000     -11.343087      -308.6611
   3   2.0000     -11.279262      -306.9243
   4   2.0000     -11.248667      -306.0918
   5   2.0000     -11.242555      -305.9255
   6   2.0000     -11.238837      -305.8243
   7   2.0000     -11.237608      -305.7909
   8   2.0000      -1.375376       -37.4259
   9   2.0000      -1.248534       -33.9743
  10   2.0000      -1.132041       -30.8044
  11   2.0000      -1.058118       -28.7929
  12   2.0000      -0.907854       -24.7040
  13   2.0000      -0.855686       -23.2844
  14   2.0000      -0.821040       -22.3416
  15   2.0000      -0.748933       -20.3795
  16   2.0000      -0.700936       -19.0734
  17   2.0000      -0.669420       -18.2158
  18   2.0000      -0.656980       -17.8773
  19   2.0000      -0.616374       -16.7724
  20   2.0000      -0.591417       -16.0933
  21   2.0000      -0.577563       -15.7163
  22   2.0000      -0.562357       -15.3025
  23   2.0000      -0.543132       -14.7794
  24   2.0000      -0.506915       -13.7939
  25   2.0000      -0.494904       -13.4670
  26   2.0000      -0.459569       -12.5055
  27   2.0000      -0.432986       -11.7821
  28   2.0000      -0.405257       -11.0276
  29   2.0000      -0.373173       -10.1546
  30   0.0000       0.130655         3.5553
  31   0.0000       0.152686         4.1548
  32   0.0000       0.155163         4.2222
  33   0.0000       0.161885         4.4051
  34   0.0000       0.186852         5.0845

MULLIKEN ATOMIC CHARGES
-----------------------
   0 O :   -0.346818
   1 C :    0.193012
   2 C :   -0.196258
   3 C :   -0.252363
   4 C :   -0.080559
   5 C :   -0.287645
   6 C :   -0.023688
   7 N :   -0.309478
   8 H :    0.127821
   9 H :    0.141839
  10 H :    0.130200
  11 H :    0.131364
  12 H :    0.132765
  13 H :    0.134605
  14 H :    0.140590
  15 H :    0.128058
  16 H :    0.236553
Sum of atomic charges:   -0.0000000

LOEWDIN ATOMIC CHARGES
----------------------
   0 O :    0.077311
   1 C :   -0.448910
   2 C :   -0.219746
   3 C :   -0.234474
   4 C :   -0.200306
   5 C :   -0.205133
   6 C :   -0.248509
   7 N :    0.137894
   8 H :    0.152341
   9 H :    0.150078
  10 H :    0.141427
  11 H :    0.145177
  12 H :    0.149352
  13 H :    0.133524
  14 H :    0.137467
  15 H :    0.141256
  16 H :    0.191251

  Mayer bond orders larger than 0.1
B(  0-O ,  1-C ) :   2.0101 B(  1-C ,  2-C ) :   0.9379 B(  1-C ,  7-N ) :   1.1442
B(  2-C ,  3-C ) :   0.8896 B(  2-C ,  8-H ) :   0.9096 B(  2-C ,  9-H ) :   0.9269
B(  3-C ,  4-C ) :   0.9068 B(  3-C , 10-H ) :   0.9302 B(  3-C , 11-H ) :   0.9298
B(  4-C ,  5-C ) :   0.8991 B(  4-C ,  6-C ) :   0.8853 B(  4-C , 12-H ) :   0.9269
B(  5-C ,  6-C ) :   0.8637 B(  5-C , 13-H ) :   0.9279 B(  5-C , 14-H ) :   0.9236
B(  6-C ,  7-N ) :   0.9223 B(  6-C , 15-H ) :   0.9433 B(  7-N , 16-H ) :   0.8603

MP2 TOTAL ENERGY:     -363.275931743 Eh
FINAL SINGLE POINT ENERGY      -363.275931742723

DIPOLE MOMENT
-------------
                                X             Y             Z
Electronic contribution:      1.64922      -4.94033      -1.88998
Nuclear contribution   :     -1.47114       6.48338       2.04483
                        -----------------------------------------
Total Dipole Moment    :      0.17808       1.54306       0.15486
                        -----------------------------------------
Magnitude (a.u.)       :      1.56100
Magnitude (Debye)      :      3.96775

                             ****ORCA TERMINATED NORMALLY****
TOTAL RUN TIME: 0 days 0 hours 12 minutes 34 seconds 682 msec
