                         Program Version 3.0.3 - RELEASE   -
|  1> ! RI-MP2 RIJK def2-TZVP def2-TZVP/C def2-TZVP/JK TIGHTSCF
|  2> % maxcore 2000
|  3> % mp2 density relaxed end
|  4> *xyz 0 1
|  5>  O       -0.0843778306     1.4010683137    -0.3444523787
|  6>  C        0.0129966739    -0.0141047180    -0.3029771735
|  7>  C       -1.3278721868    -0.5408890189     0.1771365895
|  8>  C       -2.4751399305    -0.3165845510    -0.8521047123
|  9>  C       -2.3715903546    -1.7978581178    -1.2307991039
| 10>  O       -2.7323698727    -2.4600590396    -2.1534463642
| 11>  C       -1.4930949059    -2.1006984699     0.0278276858
| 12>  C       -0.3446971164    -2.9677265070    -0.0929056801
| 13>  C        0.6133329725    -3.6834589736    -0.2202350173
| 14>  H        0.7509098279     1.7512022118    -0.6676234405
| 15>  H        0.2424742204    -0.4311034827    -1.2972262495
| 16>  H        0.8084213642    -0.3491445799     0.3786376866
| 17>  H       -1.5303367929    -0.1654449390     1.1811990053
| 18>  H       -3.4425764861    -0.0848101585    -0.3953607521
| 19>  H       -2.2854643484     0.4041323374    -1.6501541717
| 20>  H       -2.1692315539    -2.4691794812     0.8105500772
| 21>  H        1.4541194700    -4.3225598358    -0.3311664305
| 22> *
| 23>
| 24>                          ****END OF INPUT****

CARTESIAN COORDINATES (ANGSTROEM)
---------------------------------
  O     -0.084378    1.401068   -0.344452
  C      0.012997   -0.014105   -0.302977
  C     -1.327872   -0.540889    0.177137
  C     -2.475140   -0.316585   -0.852105
  C     -2.371590   -1.797858   -1.230799
  O     -2.732370   -2.460059   -2.153446
  C     -1.493095   -2.100698    0.027828
  C     -0.344697   -2.967727   -0.092906
  C      0.613333   -3.683459   -0.220235
  H      0.750910    1.751202   -0.667623
  H      0.242474   -0.431103   -1.297226
  H      0.808421   -0.349145    0.378638
  H     -1.530337   -0.165445    1.181199
  H     -3.442576   -0.084810   -0.395361
  H     -2.285464    0.404132   -1.650154
  H     -2.169232   -2.469179    0.810550
  H      1.454119   -4.322560   -0.331166

 Total Charge           Charge          ....    0
 Multiplicity           Mult            ....    1
 Number of Electrons    NEL             ....   66
 Basis Dimension        Dim             ....  327

ORBITAL ENERGIES
----------------

  NO   OCC          E(Eh)            E(eV)
   0   2.0000     -20.568778      -559.7049
   1   2.0000     -20.561934      -559.5187
   2   2.0000     -11.343531      -308.6732
   3   2.0000     -11.289506      -307.2031
   4   2.0000     -11.276090      -306.8380
   5   2.0000     -11.257489      -306.3318
   6   2.0000     -11.245820      -306.0143
   7   2.0000     -11.245105      -305.9949
   8   2.0000     -11.234149      -305.6967
   9   2.0000      -1.406542       -38.2740
  10   2.0000      -1.373699       -37.3802
  11   2.0000      -1.161991       -31.6194
  12   2.0000      -1.046241       -28.4697
  13   2.0000      -0.971185       -26.4273
  14   2.0000      -0.947242       -25.7758
  15   2.0000      -0.819428       -22.2978
  16   2.0000      -0.772180       -21.0121
  17   2.0000      -0.715638       -19.4735
  18   2.0000      -0.714106       -19.4318
  19   2.0000      -0.688054       -18.7229
  20   2.0000      -0.674824       -18.3629
  21   2.0000      -0.637335       -17.3428
  22   2.0000      -0.627350       -17.0711
  23   2.0000      -0.587890       -15.9973
  24   2.0000      -0.573939       -15.6177
  25   2.0000      -0.529867       -14.4184
  26   2.0000      -0.521260       -14.1842
  27   2.0000      -0.504894       -13.7389
  28   2.0000      -0.485048       -13.1988
  29   2.0000      -0.458134       -12.4665
  30   2.0000      -0.435481       -11.8500
  31   2.0000      -0.394290       -10.7292
  32   2.0000      -0.377108       -10.2616
  33   0.0000       0.113926         3.1001
  34   0.0000       0.127729         3.4757
  35   0.0000       0.149716         4.0740
  36   0.0000       0.154752         4.2110
  37   0.0000       0.163136         4.4392

MULLIKEN ATOMIC CHARGES
-----------------------
   0 O :   -0.465199
   1 C :   -0.140451
   2 C :    0.010773
   3 C :   -0.211198
   4 C :    0.083770
   5 O :   -0.227209
   6 C :   -0.199313
   7 C :   -0.032182
   8 C :   -0.131531
   9 H :    0.320985
  10 H :    0.115788
  11 H :    0.116298
  12 H :    0.118002
  13 H :    0.144041
  14 H :    0.154412
  15 H :    0.149272
  16 H :    0.193742
Sum of atomic charges:    0.0000000

LOEWDIN ATOMIC CHARGES
----------------------
   0 O :   -0.040736
   1 C :   -0.327785
   2 C :   -0.192636
   3 C :   -0.182288
   4 C :   -0.279015
   5 O :    0.184060
   6 C :   -0.170242
   7 C :   -0.091587
   8 C :   -0.086484
   9 H :    0.174811
  10 H :    0.126255
  11 H :    0.124737
  12 H :    0.148196
  13 H :    0.151519
  14 H :    0.149222
  15 H :    0.183814
  16 H :    0.128158

  Mayer bond orders larger than 0.1
B(  0-O ,  1-C ) :   1.0255 B(  0-O ,  9-H ) :   0.8462 B(  1-C ,  2-C ) :   0.9428
B(  1-C , 10-H ) :   0.9131 B(  1-C , 11-H ) :   0.9301 B(  2-C ,  3-C ) :   0.9165
B(  2-C ,  6-C ) :   0.9143 B(  2-C , 12-H ) :   0.9152 B(  3-C ,  4-C ) :   0.8991
B(  3-C ,  6-C ) :  -0.1298 B(  3-C , 13-H ) :   0.9014 B(  3-C , 14-H ) :   0.8931
B(  4-C ,  5-O ) :   2.0670 B(  4-C ,  6-C ) :   0.8006 B(  6-C ,  7-C ) :   1.1648
B(  6-C ,  8-C ) :  -0.1026 B(  6-C , 15-H ) :   0.8843 B(  7-C ,  8-C ) :   2.5821
B(  8-C , 16-H ) :   0.8940

MP2 TOTAL ENERGY:     -421.076447816 Eh
FINAL SINGLE POINT ENERGY      -421.076447816094

DIPOLE MOMENT
-------------
                                X             Y             Z
Electronic contribution:     -1.94865      -3.86684      -1.88071
Nuclear contribution   :      2.66595       4.36954       2.47838
                        -----------------------------------------
Total Dipole Moment    :      0.71730       0.50270       0.59767
                        -----------------------------------------
Magnitude (a.u.)       :      1.06039
Magnitude (Debye)      :      2.69531

                             ****ORCA TERMINATED NORMALLY****
TOTAL RUN TIME: 0 days 0 hours 26 minutes 33 seconds 350 msec
