                         Program Version 3.0.3 - RELEASE   -
|  1> ! RI-MP2 RIJK def2-TZVP def2-TZVP/C def2-TZVP/JK TIGHTSCF
|  2> % maxcore 2000
|  3> % mp2 density relaxed end
|  4> *xyz 0 1
|  5>  C        0.0492879211     1.4992567212     0.1972449319
|  6>  C        0.0225601571    -0.0039236388    -0.1088328963
|  7>  C       -1.3703333398    -0.5902926469    -0.0271241872
|  8>  O       -2.3300438533     0.0092625110    -0.8652634647
|  9>  C       -1.6857455864    -2.0692321025     0.0790051728
| 10>  C       -0.7312341715    -2.7571048557     1.0434213820
| 11>  O       -0.9807752486    -1.7561119875     2.0721219919
| 12>  C       -1.9687719669    -1.1365192392     1.2444192146
| 13>  H        1.0705761435     1.8881939489     0.1550935563
| 14>  H       -0.5426350085     2.0670418732    -0.5290354282
| 15>  H       -0.3440046957     1.7059136676     1.1987323326
| 16>  H        0.4253152298    -0.1856861078    -1.1127746648
| 17>  H        0.6685124473    -0.5252739813     0.6029348165
| 18>  H       -2.5060157546     0.8941402213    -0.5272737527
| 19>  H       -2.3623331652    -2.5435520104    -0.6180923789
| 20>  H       -1.0858914209    -3.7388866388     1.3764568141
| 21>  H        0.3283511168    -2.8214021725     0.7703786197
| 22>  H       -2.8887053043    -0.7893992218     1.7026136103
| 23> *
| 24>
| 25>                          ****END OF INPUT****

CARTESIAN COORDINATES (ANGSTROEM)
---------------------------------
  C      0.049288    1.499257    0.197245
  C      0.022560   -0.003924   -0.108833
  C     -1.370333   -0.590293   -0.027124
  O     -2.330044    0.009263   -0.865263
  C     -1.685746   -2.069232    0.079005
  C     -0.731234   -2.757105    1.043421
  O     -0.980775   -1.756112    2.072122
  C     -1.968772   -1.136519    1.244419
  H      1.070576    1.888194    0.155094
  H     -0.542635    2.067042   -0.529035
  H     -0.344005    1.705914    1.198732
  H      0.425315   -0.185686   -1.112775
  H      0.668512   -0.525274    0.602935
  H     -2.506016    0.894140   -0.527274
  H     -2.362333   -2.543552   -0.618092
  H     -1.085891   -3.738887    1.376457
  H      0.328351   -2.821402    0.770379
  H     -2.888705   -0.789399    1.702614

 Total Charge           Charge          ....    0
 Multiplicity           Mult            ....    1
 Number of Electrons    NEL             ....   62
 Basis Dimension        Dim             ....  308

ORBITAL ENERGIES
----------------

  NO   OCC          E(Eh)            E(eV)
   0   2.0000     -20.568730      -559.7036
   1   2.0000     -20.557533      -559.3989
   2   2.0000     -11.293881      -307.3221
   3   2.0000     -11.287663      -307.1529
   4   2.0000     -11.286772      -307.1287
   5   2.0000     -11.236223      -305.7532
   6   2.0000     -11.225360      -305.4576
   7   2.0000     -11.220433      -305.3235
   8   2.0000      -1.400609       -38.1125
   9   2.0000      -1.372398       -37.3448
  10   2.0000      -1.109976       -30.2040
  11   2.0000      -1.033051       -28.1107
  12   2.0000      -0.949492       -25.8370
  13   2.0000      -0.879693       -23.9377
  14   2.0000      -0.782626       -21.2963
  15   2.0000      -0.758767       -20.6471
  16   2.0000      -0.723741       -19.6940
  17   2.0000      -0.666371       -18.1329
  18   2.0000      -0.656383       -17.8611
  19   2.0000      -0.632838       -17.2204
  20   2.0000      -0.607164       -16.5218
  21   2.0000      -0.572307       -15.5733
  22   2.0000      -0.567108       -15.4318
  23   2.0000      -0.544576       -14.8187
  24   2.0000      -0.515290       -14.0218
  25   2.0000      -0.503457       -13.6998
  26   2.0000      -0.489622       -13.3233
  27   2.0000      -0.485993       -13.2245
  28   2.0000      -0.477889       -13.0040
  29   2.0000      -0.395355       -10.7582
  30   2.0000      -0.369286       -10.0488
  31   0.0000       0.131193         3.5699
  32   0.0000       0.155039         4.2188
  33   0.0000       0.170428         4.6376
  34   0.0000       0.176390         4.7998
  35   0.0000       0.189790         5.1644

MULLIKEN ATOMIC CHARGES
-----------------------
   0 C :   -0.464365
   1 C :   -0.175474
   2 C :    0.211550
   3 O :   -0.473803
   4 C :   -0.219881
   5 C :   -0.021811
   6 O :   -0.341859
   7 C :    0.000244
   8 H :    0.140126
   9 H :    0.123084
  10 H :    0.142347
  11 H :    0.119738
  12 H :    0.123684
  13 H :    0.327372
  14 H :    0.144954
  15 H :    0.115771
  16 H :    0.112102
  17 H :    0.136222
Sum of atomic charges:   -0.0000000

LOEWDIN ATOMIC CHARGES
----------------------
   0 C :   -0.318106
   1 C :   -0.253075
   2 C :   -0.337113
   3 O :    0.034831
   4 C :   -0.163436
   5 C :   -0.240147
   6 O :    0.141411
   7 C :   -0.223993
   8 H :    0.124327
   9 H :    0.117131
  10 H :    0.124395
  11 H :    0.143220
  12 H :    0.150323
  13 H :    0.181239
  14 H :    0.143311
  15 H :    0.126058
  16 H :    0.118432
  17 H :    0.131192

  Mayer bond orders larger than 0.1
B(  0-C ,  1-C ) :   0.8988 B(  0-C ,  8-H ) :   0.9389 B(  0-C ,  9-H ) :   0.9419
B(  0-C , 10-H ) :   0.9390 B(  1-C ,  2-C ) :   0.9197 B(  1-C , 11-H ) :   0.9274
B(  1-C , 12-H ) :   0.9139 B(  2-C ,  3-O ) :   0.9096 B(  2-C ,  4-C ) :   0.8634
B(  2-C ,  7-C ) :   0.8626 B(  3-O , 13-H ) :   0.8391 B(  4-C ,  5-C ) :   0.9643
B(  4-C ,  7-C ) :   0.9141 B(  4-C , 14-H ) :   0.9155 B(  5-C ,  6-O ) :   0.9021
B(  5-C , 15-H ) :   0.9171 B(  5-C , 16-H ) :   0.9214 B(  6-O ,  7-C ) :   0.9334
B(  7-C , 17-H ) :   0.9164

MP2 TOTAL ENERGY:     -384.253996445 Eh
FINAL SINGLE POINT ENERGY      -384.253996445129

DIPOLE MOMENT
-------------
                                X             Y             Z
Electronic contribution:     -3.72995      -3.67527       1.24984
Nuclear contribution   :      3.75975       3.82530      -1.39734
                        -----------------------------------------
Total Dipole Moment    :      0.02980       0.15004      -0.14750
                        -----------------------------------------
Magnitude (a.u.)       :      0.21250
Magnitude (Debye)      :      0.54013

                             ****ORCA TERMINATED NORMALLY****
TOTAL RUN TIME: 0 days 0 hours 11 minutes 55 seconds 303 msec
