                         Program Version 3.0.3 - RELEASE   -
|  1> ! RI-MP2 RIJK def2-TZVP def2-TZVP/C def2-TZVP/JK TIGHTSCF
|  2> % maxcore 2000
|  3> % mp2 density relaxed end
|  4> *xyz 0 1
|  5>  C       -0.1295486203     1.5078841493     0.0567181148
|  6>  C        0.2527763572     0.0561937251    -0.0239147890
|  7>  C        0.7262247947    -0.5300923105    -1.3457781808
|  8>  C        1.1649667518    -1.9645484285    -0.9802769138
|  9>  C        1.6322462394    -1.8827509190     0.4883894655
| 10>  O        2.9911479225    -1.4647195626     0.6121701772
| 11>  C        0.7937136454    -0.7558348720     1.0850227334
| 12>  C        1.0856137024    -0.2927005062     2.4843486099
| 13>  O       -0.5872155115    -0.8743462453     0.6983626505
| 14>  H        0.7052432227     2.1436912066    -0.2570905145
| 15>  H       -0.9766751490     1.7171579676    -0.6059800085
| 16>  H       -0.4206527827     1.7879477469     1.0710945524
| 17>  H       -0.0565536899    -0.5115045076    -2.1110893696
| 18>  H        1.5688630728     0.0635470890    -1.7181642421
| 19>  H        0.3156859886    -2.6473554079    -1.0529840312
| 20>  H        1.9589684160    -2.3463498983    -1.6288785303
| 21>  H        1.4711811472    -2.8307094653     1.0231628946
| 22>  H        3.5490421605    -2.1663619406     0.2636107336
| 23>  H        2.1436662207    -0.0373700170     2.5805505737
| 24>  H        0.4791455325     0.5747503637     2.7528840536
| 25>  H        0.8635412591    -1.0919609775     3.2005868407
| 26> *
| 27>
| 28>                          ****END OF INPUT****

CARTESIAN COORDINATES (ANGSTROEM)
---------------------------------
  C     -0.129549    1.507884    0.056718
  C      0.252776    0.056194   -0.023915
  C      0.726225   -0.530092   -1.345778
  C      1.164967   -1.964548   -0.980277
  C      1.632246   -1.882751    0.488389
  O      2.991148   -1.464720    0.612170
  C      0.793714   -0.755835    1.085023
  C      1.085614   -0.292701    2.484349
  O     -0.587216   -0.874346    0.698363
  H      0.705243    2.143691   -0.257091
  H     -0.976675    1.717158   -0.605980
  H     -0.420653    1.787948    1.071095
  H     -0.056554   -0.511505   -2.111089
  H      1.568863    0.063547   -1.718164
  H      0.315686   -2.647355   -1.052984
  H      1.958968   -2.346350   -1.628879
  H      1.471181   -2.830709    1.023163
  H      3.549042   -2.166362    0.263611
  H      2.143666   -0.037370    2.580551
  H      0.479146    0.574750    2.752884
  H      0.863541   -1.091961    3.200587

 Total Charge           Charge          ....    0
 Multiplicity           Mult            ....    1
 Number of Electrons    NEL             ....   70
 Basis Dimension        Dim             ....  351

ORBITAL ENERGIES
----------------

  NO   OCC          E(Eh)            E(eV)
   0   2.0000     -20.560441      -559.4780
   1   2.0000     -20.552262      -559.2555
   2   2.0000     -11.282202      -307.0043
   3   2.0000     -11.281180      -306.9765
   4   2.0000     -11.278223      -306.8961
   5   2.0000     -11.223987      -305.4202
   6   2.0000     -11.222190      -305.3713
   7   2.0000     -11.221102      -305.3417
   8   2.0000     -11.215097      -305.1783
   9   2.0000      -1.403410       -38.1887
  10   2.0000      -1.363747       -37.1094
  11   2.0000      -1.079356       -29.3708
  12   2.0000      -1.016803       -27.6686
  13   2.0000      -1.002537       -27.2804
  14   2.0000      -0.916378       -24.9359
  15   2.0000      -0.872973       -23.7548
  16   2.0000      -0.789294       -21.4778
  17   2.0000      -0.726464       -19.7681
  18   2.0000      -0.696065       -18.9409
  19   2.0000      -0.672795       -18.3077
  20   2.0000      -0.643766       -17.5178
  21   2.0000      -0.611389       -16.6367
  22   2.0000      -0.580267       -15.7899
  23   2.0000      -0.573579       -15.6079
  24   2.0000      -0.568821       -15.4784
  25   2.0000      -0.556632       -15.1467
  26   2.0000      -0.543737       -14.7958
  27   2.0000      -0.534087       -14.5333
  28   2.0000      -0.508865       -13.8469
  29   2.0000      -0.498567       -13.5667
  30   2.0000      -0.486801       -13.2465
  31   2.0000      -0.475195       -12.9307
  32   2.0000      -0.443428       -12.0663
  33   2.0000      -0.425743       -11.5851
  34   2.0000      -0.393414       -10.7053
  35   0.0000       0.131414         3.5760
  36   0.0000       0.146718         3.9924
  37   0.0000       0.163827         4.4580
  38   0.0000       0.176738         4.8093
  39   0.0000       0.189861         5.1664

MULLIKEN ATOMIC CHARGES
-----------------------
   0 C :   -0.413360
   1 C :    0.123970
   2 C :   -0.172111
   3 C :   -0.248836
   4 C :    0.061224
   5 O :   -0.468810
   6 C :    0.185140
   7 C :   -0.423152
   8 O :   -0.346810
   9 H :    0.135958
  10 H :    0.139076
  11 H :    0.136845
  12 H :    0.118610
  13 H :    0.109952
  14 H :    0.118144
  15 H :    0.115076
  16 H :    0.092599
  17 H :    0.314894
  18 H :    0.156837
  19 H :    0.131915
  20 H :    0.132837
Sum of atomic charges:   -0.0000000

LOEWDIN ATOMIC CHARGES
----------------------
   0 C :   -0.264416
   1 C :   -0.293781
   2 C :   -0.209660
   3 C :   -0.233728
   4 C :   -0.292809
   5 O :   -0.017391
   6 C :   -0.284556
   7 C :   -0.263510
   8 O :    0.196973
   9 H :    0.133600
  10 H :    0.131935
  11 H :    0.130321
  12 H :    0.139448
  13 H :    0.145525
  14 H :    0.143196
  15 H :    0.132249
  16 H :    0.134256
  17 H :    0.173585
  18 H :    0.138151
  19 H :    0.128552
  20 H :    0.132060

  Mayer bond orders larger than 0.1
B(  0-C ,  1-C ) :   0.8718 B(  0-C ,  9-H ) :   0.9317 B(  0-C , 10-H ) :   0.9406
B(  0-C , 11-H ) :   0.9413 B(  1-C ,  2-C ) :   0.9443 B(  1-C ,  6-C ) :   0.9378
B(  1-C ,  8-O ) :   0.8854 B(  2-C ,  3-C ) :   0.9593 B(  2-C , 12-H ) :   0.9216
B(  2-C , 13-H ) :   0.9077 B(  3-C ,  4-C ) :   0.9365 B(  3-C , 14-H ) :   0.9125
B(  3-C , 15-H ) :   0.9299 B(  4-C ,  5-O ) :   1.0412 B(  4-C ,  6-C ) :   0.8936
B(  4-C , 16-H ) :   0.9356 B(  5-O , 17-H ) :   0.8447 B(  6-C ,  7-C ) :   0.8756
B(  6-C ,  8-O ) :   0.8927 B(  7-C , 18-H ) :   0.9328 B(  7-C , 19-H ) :   0.9404
B(  7-C , 20-H ) :   0.9382

MP2 TOTAL ENERGY:     -423.539433802 Eh
FINAL SINGLE POINT ENERGY      -423.539433802072

DIPOLE MOMENT
-------------
                                X             Y             Z
Electronic contribution:     -0.12625      -2.96022       0.34287
Nuclear contribution   :      0.65748       2.80645      -0.70565
                        -----------------------------------------
Total Dipole Moment    :      0.53123      -0.15376      -0.36279
                        -----------------------------------------
Magnitude (a.u.)       :      0.66141
Magnitude (Debye)      :      1.68117

                             ****ORCA TERMINATED NORMALLY****
TOTAL RUN TIME: 0 days 0 hours 19 minutes 4 seconds 929 msec
