                         Program Version 3.0.3 - RELEASE   -
|  1> ! RI-MP2 RIJK def2-TZVP def2-TZVP/C def2-TZVP/JK TIGHTSCF
|  2> % maxcore 2000
|  3> % mp2 density relaxed end
|  4> *xyz 0 1
|  5>  C       -0.6869677478     1.3170621218     0.2480575986
|  6>  C       -0.0856410972    -0.0656982396     0.0078458720
|  7>  C        0.6519738874    -0.4180509682    -1.3373360233
|  8>  C        0.9742229078     0.7278899950    -2.3199773471
|  9>  C        2.3455570718     1.1947758599    -1.8904177786
| 10>  C        2.8917959371     0.4149908460    -0.9560134562
| 11>  C        1.9777395980    -0.7105188558    -0.5433073944
| 12>  C        1.2152015179    -0.3973295874     0.7642319665
| 13>  O        1.5161729361    -0.3972540398     1.9223989712
| 14>  H        0.0275927693     2.1137701511     0.0225943016
| 15>  H       -1.5828154347     1.4760076885    -0.3606296015
| 16>  H       -0.9709508027     1.4156522404     1.3000032957
| 17>  H       -0.8357433073    -0.8300818704     0.2477333367
| 18>  H        0.2074305580    -1.2796425591    -1.8355315344
| 19>  H        0.9857389708     0.3781674592    -3.3608394076
| 20>  H        0.2300418221     1.5324668100    -2.2825333414
| 21>  H        2.8244105150     2.0666734357    -2.3234374477
| 22>  H        3.8654134137     0.5593568310    -0.5022422908
| 23>  H        2.4384192050    -1.7023444084    -0.5894748092
| 24> *
| 25>
| 26>                          ****END OF INPUT****

CARTESIAN COORDINATES (ANGSTROEM)
---------------------------------
  C     -0.686968    1.317062    0.248058
  C     -0.085641   -0.065698    0.007846
  C      0.651974   -0.418051   -1.337336
  C      0.974223    0.727890   -2.319977
  C      2.345557    1.194776   -1.890418
  C      2.891796    0.414991   -0.956013
  C      1.977740   -0.710519   -0.543307
  C      1.215202   -0.397330    0.764232
  O      1.516173   -0.397254    1.922399
  H      0.027593    2.113770    0.022594
  H     -1.582815    1.476008   -0.360630
  H     -0.970951    1.415652    1.300003
  H     -0.835743   -0.830082    0.247733
  H      0.207431   -1.279643   -1.835532
  H      0.985739    0.378167   -3.360839
  H      0.230042    1.532467   -2.282533
  H      2.824411    2.066673   -2.323437
  H      3.865413    0.559357   -0.502242
  H      2.438419   -1.702344   -0.589475

 Total Charge           Charge          ....    0
 Multiplicity           Mult            ....    1
 Number of Electrons    NEL             ....   66
 Basis Dimension        Dim             ....  339

ORBITAL ENERGIES
----------------

  NO   OCC          E(Eh)            E(eV)
   0   2.0000     -20.547841      -559.1352
   1   2.0000     -11.324354      -308.1513
   2   2.0000     -11.243248      -305.9443
   3   2.0000     -11.242977      -305.9370
   4   2.0000     -11.242188      -305.9155
   5   2.0000     -11.238566      -305.8169
   6   2.0000     -11.236898      -305.7715
   7   2.0000     -11.236006      -305.7473
   8   2.0000     -11.226293      -305.4830
   9   2.0000      -1.390736       -37.8438
  10   2.0000      -1.174056       -31.9477
  11   2.0000      -1.067406       -29.0456
  12   2.0000      -0.994386       -27.0586
  13   2.0000      -0.965475       -26.2719
  14   2.0000      -0.862811       -23.4783
  15   2.0000      -0.812524       -22.1099
  16   2.0000      -0.741481       -20.1767
  17   2.0000      -0.706278       -19.2188
  18   2.0000      -0.689565       -18.7640
  19   2.0000      -0.665095       -18.0982
  20   2.0000      -0.629235       -17.1224
  21   2.0000      -0.604165       -16.4402
  22   2.0000      -0.576738       -15.6938
  23   2.0000      -0.559252       -15.2180
  24   2.0000      -0.551545       -15.0083
  25   2.0000      -0.533380       -14.5140
  26   2.0000      -0.531702       -14.4683
  27   2.0000      -0.496608       -13.5134
  28   2.0000      -0.478930       -13.0323
  29   2.0000      -0.470319       -12.7980
  30   2.0000      -0.448987       -12.2175
  31   2.0000      -0.404322       -11.0022
  32   2.0000      -0.348228        -9.4758
  33   0.0000       0.117679         3.2022
  34   0.0000       0.140938         3.8351
  35   0.0000       0.154686         4.2092
  36   0.0000       0.162180         4.4132
  37   0.0000       0.167235         4.5507

MULLIKEN ATOMIC CHARGES
-----------------------
   0 C :   -0.446922
   1 C :   -0.059211
   2 C :   -0.048432
   3 C :   -0.201905
   4 C :   -0.221114
   5 C :   -0.184907
   6 C :    0.002012
   7 C :    0.076333
   8 O :   -0.253106
   9 H :    0.143081
  10 H :    0.140232
  11 H :    0.152457
  12 H :    0.119369
  13 H :    0.124242
  14 H :    0.124193
  15 H :    0.133237
  16 H :    0.128139
  17 H :    0.140039
  18 H :    0.132262
Sum of atomic charges:    0.0000000

LOEWDIN ATOMIC CHARGES
----------------------
   0 C :   -0.290489
   1 C :   -0.200812
   2 C :   -0.149754
   3 C :   -0.224750
   4 C :   -0.152583
   5 C :   -0.132868
   6 C :   -0.155731
   7 C :   -0.268394
   8 O :    0.164951
   9 H :    0.128114
  10 H :    0.125142
  11 H :    0.133596
  12 H :    0.162020
  13 H :    0.143644
  14 H :    0.141761
  15 H :    0.142835
  16 H :    0.138272
  17 H :    0.143081
  18 H :    0.151966

  Mayer bond orders larger than 0.1
B(  0-C ,  1-C ) :   0.8718 B(  0-C ,  9-H ) :   0.9357 B(  0-C , 10-H ) :   0.9400
B(  0-C , 11-H ) :   0.9321 B(  1-C ,  2-C ) :   0.9447 B(  1-C ,  6-C ) :  -0.1070
B(  1-C ,  7-C ) :   0.8609 B(  1-C , 12-H ) :   0.9009 B(  2-C ,  3-C ) :   0.9175
B(  2-C ,  6-C ) :   0.9321 B(  2-C , 13-H ) :   0.9182 B(  3-C ,  4-C ) :   0.9516
B(  3-C , 14-H ) :   0.9134 B(  3-C , 15-H ) :   0.9202 B(  4-C ,  5-C ) :   1.7788
B(  4-C , 16-H ) :   0.9300 B(  5-C ,  6-C ) :   0.9082 B(  5-C , 17-H ) :   0.9239
B(  6-C ,  7-C ) :   0.8114 B(  6-C , 18-H ) :   0.8869 B(  7-C ,  8-O ) :   2.0555

MP2 TOTAL ENERGY:     -385.226864510 Eh
FINAL SINGLE POINT ENERGY      -385.226864509862

DIPOLE MOMENT
-------------
                                X             Y             Z
Electronic contribution:      3.88190      -3.42696       4.03849
Nuclear contribution   :     -4.23246       3.50851      -5.10415
                        -----------------------------------------
Total Dipole Moment    :     -0.35056       0.08156      -1.06566
                        -----------------------------------------
Magnitude (a.u.)       :      1.12480
Magnitude (Debye)      :      2.85901

                             ****ORCA TERMINATED NORMALLY****
TOTAL RUN TIME: 0 days 0 hours 18 minutes 56 seconds 180 msec
