                         Program Version 3.0.3 - RELEASE   -
|  1> ! RI-MP2 RIJK def2-TZVP def2-TZVP/C def2-TZVP/JK TIGHTSCF
|  2> % maxcore 2000
|  3> % mp2 density relaxed end
|  4> *xyz 0 1
|  5>  C        0.2461976582     1.4595944726     0.0089629928
|  6>  C       -0.1015919299    -0.0352841666     0.0244534815
|  7>  O       -1.5189812821    -0.2122659267     0.0091053012
|  8>  C        0.4833990519    -0.8111698409    -1.1852214652
|  9>  C        1.7668476097    -1.5076050446    -0.6748252717
| 10>  C        1.5647273984    -1.5305540255     0.8237866122
| 11>  C        2.3970768505    -2.3104744916     1.7448667865
| 12>  O        3.3325633746    -2.9979700374     1.3991340825
| 13>  C        0.5522185428    -0.7390117529     1.1997672477
| 14>  H        1.3262743070     1.6153178870    -0.0714179772
| 15>  H       -0.2423650460     1.9428516085    -0.8428519910
| 16>  H       -0.0916383424     1.9533111964     0.9284946591
| 17>  H       -1.9077846955     0.4009147321     0.6422435831
| 18>  H       -0.2613173115    -1.5575540516    -1.4736626149
| 19>  H        0.6566522691    -0.1633084356    -2.0478092857
| 20>  H        1.9098108069    -2.5105785321    -1.0862534331
| 21>  H        2.6730137993    -0.9430856899    -0.9273727012
| 22>  H        2.1052448871    -2.2308701575     2.8162710859
| 23>  H        0.2301230520    -0.5772773537     2.2248132775
| 24> *
| 25>
| 26>                          ****END OF INPUT****

CARTESIAN COORDINATES (ANGSTROEM)
---------------------------------
  C      0.246198    1.459594    0.008963
  C     -0.101592   -0.035284    0.024453
  O     -1.518981   -0.212266    0.009105
  C      0.483399   -0.811170   -1.185221
  C      1.766848   -1.507605   -0.674825
  C      1.564727   -1.530554    0.823787
  C      2.397077   -2.310474    1.744867
  O      3.332563   -2.997970    1.399134
  C      0.552219   -0.739012    1.199767
  H      1.326274    1.615318   -0.071418
  H     -0.242365    1.942852   -0.842852
  H     -0.091638    1.953311    0.928495
  H     -1.907785    0.400915    0.642244
  H     -0.261317   -1.557554   -1.473663
  H      0.656652   -0.163308   -2.047809
  H      1.909811   -2.510579   -1.086253
  H      2.673014   -0.943086   -0.927373
  H      2.105245   -2.230870    2.816271
  H      0.230123   -0.577277    2.224813

 Total Charge           Charge          ....    0
 Multiplicity           Mult            ....    1
 Number of Electrons    NEL             ....   68
 Basis Dimension        Dim             ....  339

ORBITAL ENERGIES
----------------

  NO   OCC          E(Eh)            E(eV)
   0   2.0000     -20.566794      -559.6509
   1   2.0000     -20.553816      -559.2978
   2   2.0000     -11.331903      -308.3567
   3   2.0000     -11.305556      -307.6398
   4   2.0000     -11.256991      -306.3183
   5   2.0000     -11.247048      -306.0477
   6   2.0000     -11.234784      -305.7140
   7   2.0000     -11.233913      -305.6903
   8   2.0000     -11.228739      -305.5495
   9   2.0000      -1.389810       -37.8187
  10   2.0000      -1.374981       -37.4151
  11   2.0000      -1.153454       -31.3871
  12   2.0000      -1.027308       -27.9545
  13   2.0000      -0.994020       -27.0487
  14   2.0000      -0.922170       -25.0935
  15   2.0000      -0.862351       -23.4658
  16   2.0000      -0.777919       -21.1683
  17   2.0000      -0.745874       -20.2963
  18   2.0000      -0.698853       -19.0168
  19   2.0000      -0.681448       -18.5431
  20   2.0000      -0.655669       -17.8417
  21   2.0000      -0.630848       -17.1662
  22   2.0000      -0.615500       -16.7486
  23   2.0000      -0.584269       -15.8988
  24   2.0000      -0.559756       -15.2317
  25   2.0000      -0.547076       -14.8867
  26   2.0000      -0.537263       -14.6197
  27   2.0000      -0.526163       -14.3176
  28   2.0000      -0.513597       -13.9757
  29   2.0000      -0.502770       -13.6811
  30   2.0000      -0.473975       -12.8975
  31   2.0000      -0.457398       -12.4464
  32   2.0000      -0.423647       -11.5280
  33   2.0000      -0.372715       -10.1421
  34   0.0000       0.083648         2.2762
  35   0.0000       0.117610         3.2003
  36   0.0000       0.147430         4.0118
  37   0.0000       0.161804         4.4029
  38   0.0000       0.175348         4.7715

MULLIKEN ATOMIC CHARGES
-----------------------
   0 C :   -0.458043
   1 C :    0.305616
   2 O :   -0.461507
   3 C :   -0.230624
   4 C :   -0.232943
   5 C :    0.027579
   6 C :    0.030344
   7 O :   -0.275582
   8 C :   -0.188202
   9 H :    0.140760
  10 H :    0.153239
  11 H :    0.124554
  12 H :    0.314007
  13 H :    0.133240
  14 H :    0.126983
  15 H :    0.144599
  16 H :    0.127097
  17 H :    0.079425
  18 H :    0.139459
Sum of atomic charges:    0.0000000

LOEWDIN ATOMIC CHARGES
----------------------
   0 C :   -0.274694
   1 C :   -0.377750
   2 O :    0.006080
   3 C :   -0.188663
   4 C :   -0.199788
   5 C :   -0.164435
   6 C :   -0.273004
   7 O :    0.129238
   8 C :   -0.059633
   9 H :    0.132981
  10 H :    0.130623
  11 H :    0.123478
  12 H :    0.174264
  13 H :    0.149939
  14 H :    0.137321
  15 H :    0.146467
  16 H :    0.146881
  17 H :    0.116768
  18 H :    0.143926

  Mayer bond orders larger than 0.1
B(  0-C ,  1-C ) :   0.9227 B(  0-C ,  9-H ) :   0.9274 B(  0-C , 10-H ) :   0.9383
B(  0-C , 11-H ) :   0.9240 B(  1-C ,  2-O ) :   0.9787 B(  1-C ,  3-C ) :   0.8735
B(  1-C ,  8-C ) :   0.9017 B(  2-O , 12-H ) :   0.8418 B(  3-C ,  4-C ) :   0.9484
B(  3-C , 13-H ) :   0.9239 B(  3-C , 14-H ) :   0.9360 B(  4-C ,  5-C ) :   0.9248
B(  4-C , 15-H ) :   0.9257 B(  4-C , 16-H ) :   0.9064 B(  5-C ,  6-C ) :   0.8720
B(  5-C ,  7-O ) :  -0.1040 B(  5-C ,  8-C ) :   1.6481 B(  5-C , 17-H ) :  -0.1113
B(  6-C ,  7-O ) :   1.9912 B(  6-C , 17-H ) :   0.9881 B(  8-C , 18-H ) :   0.8948

MP2 TOTAL ENERGY:     -422.347262229 Eh
FINAL SINGLE POINT ENERGY      -422.347262229068

DIPOLE MOMENT
-------------
                                X             Y             Z
Electronic contribution:      2.16488      -5.69161       3.50220
Nuclear contribution   :     -2.80704       6.90285      -3.25970
                        -----------------------------------------
Total Dipole Moment    :     -0.64216       1.21124       0.24250
                        -----------------------------------------
Magnitude (a.u.)       :      1.39222
Magnitude (Debye)      :      3.53874

                             ****ORCA TERMINATED NORMALLY****
TOTAL RUN TIME: 0 days 0 hours 18 minutes 21 seconds 559 msec
