                         Program Version 3.0.3 - RELEASE   -
|  1> ! RI-MP2 RIJK def2-TZVP def2-TZVP/C def2-TZVP/JK TIGHTSCF
|  2> % maxcore 2000
|  3> % mp2 density relaxed end
|  4> *xyz 0 1
|  5>  C       -0.6447282135     1.5412751066     0.0299049099
|  6>  C       -0.0584131671     0.1371977481    -0.0366436748
|  7>  C       -1.0769570431    -0.9281505083     0.3470815492
|  8>  C        0.7960874290    -0.1736895369    -1.2923763639
|  9>  C        1.9800275098    -0.2546592246    -0.3083236124
| 10>  C        2.8766960689    -1.5138644325    -0.2618400843
| 11>  C        3.9901606068    -0.6915178248    -0.9675603679
| 12>  C        3.2474503701     0.6024181090    -0.5337292049
| 13>  O        1.1292928797     0.0378446669     0.8083206151
| 14>  H        0.1089489164     2.2897590870    -0.2301665102
| 15>  H       -1.4883520088     1.6434941658    -0.6617000720
| 16>  H       -1.0036603095     1.7562857713     1.0417449453
| 17>  H       -1.9350422932    -0.9088553700    -0.3339363742
| 18>  H       -0.6287467135    -1.9250049998     0.3112564497
| 19>  H       -1.4433890534    -0.7555512652     1.3643418731
| 20>  H        0.5474711317    -1.1072436459    -1.8023145865
| 21>  H        0.8523967900     0.6339326392    -2.0258261213
| 22>  H        3.1389288242    -1.7439067543     0.7750977326
| 23>  H        2.5077519263    -2.4224729059    -0.7457370380
| 24>  H        5.0133246006    -0.8250842545    -0.6119803241
| 25>  H        3.9784518432    -0.8288033658    -2.0521060347
| 26>  H        3.1833415299     1.4338388410    -1.2411719571
| 27>  H        3.6158568955     0.9784143737     0.4253482715
| 28> *
| 29>
| 30>                          ****END OF INPUT****

CARTESIAN COORDINATES (ANGSTROEM)
---------------------------------
  C     -0.644728    1.541275    0.029905
  C     -0.058413    0.137198   -0.036644
  C     -1.076957   -0.928151    0.347082
  C      0.796087   -0.173690   -1.292376
  C      1.980028   -0.254659   -0.308324
  C      2.876696   -1.513864   -0.261840
  C      3.990161   -0.691518   -0.967560
  C      3.247450    0.602418   -0.533729
  O      1.129293    0.037845    0.808321
  H      0.108949    2.289759   -0.230167
  H     -1.488352    1.643494   -0.661700
  H     -1.003660    1.756286    1.041745
  H     -1.935042   -0.908855   -0.333936
  H     -0.628747   -1.925005    0.311256
  H     -1.443389   -0.755551    1.364342
  H      0.547471   -1.107244   -1.802315
  H      0.852397    0.633933   -2.025826
  H      3.138929   -1.743907    0.775098
  H      2.507752   -2.422473   -0.745737
  H      5.013325   -0.825084   -0.611980
  H      3.978452   -0.828803   -2.052106
  H      3.183342    1.433839   -1.241172
  H      3.615857    0.978414    0.425348

 Total Charge           Charge          ....    0
 Multiplicity           Mult            ....    1
 Number of Electrons    NEL             ....   70
 Basis Dimension        Dim             ....  363

ORBITAL ENERGIES
----------------

  NO   OCC          E(Eh)            E(eV)
   0   2.0000     -20.535204      -558.7913
   1   2.0000     -11.284382      -307.0637
   2   2.0000     -11.279181      -306.9221
   3   2.0000     -11.221554      -305.3540
   4   2.0000     -11.221078      -305.3411
   5   2.0000     -11.216004      -305.2030
   6   2.0000     -11.215967      -305.2020
   7   2.0000     -11.212843      -305.1170
   8   2.0000     -11.212827      -305.1165
   9   2.0000      -1.371535       -37.3214
  10   2.0000      -1.119455       -30.4619
  11   2.0000      -1.050615       -28.5887
  12   2.0000      -0.968062       -26.3423
  13   2.0000      -0.938059       -25.5259
  14   2.0000      -0.899379       -24.4733
  15   2.0000      -0.852543       -23.1989
  16   2.0000      -0.751435       -20.4476
  17   2.0000      -0.710240       -19.3266
  18   2.0000      -0.662821       -18.0363
  19   2.0000      -0.651464       -17.7272
  20   2.0000      -0.640235       -17.4217
  21   2.0000      -0.610309       -16.6074
  22   2.0000      -0.589025       -16.0282
  23   2.0000      -0.559824       -15.2336
  24   2.0000      -0.537659       -14.6304
  25   2.0000      -0.536449       -14.5975
  26   2.0000      -0.530695       -14.4410
  27   2.0000      -0.509234       -13.8570
  28   2.0000      -0.506080       -13.7711
  29   2.0000      -0.489844       -13.3293
  30   2.0000      -0.469280       -12.7698
  31   2.0000      -0.450930       -12.2704
  32   2.0000      -0.443695       -12.0736
  33   2.0000      -0.411066       -11.1857
  34   2.0000      -0.389104       -10.5881
  35   0.0000       0.130656         3.5553
  36   0.0000       0.148277         4.0348
  37   0.0000       0.166208         4.5227
  38   0.0000       0.174103         4.7376
  39   0.0000       0.182612         4.9691

MULLIKEN ATOMIC CHARGES
-----------------------
   0 C :   -0.413225
   1 C :    0.278468
   2 C :   -0.413250
   3 C :   -0.351475
   4 C :    0.225580
   5 C :   -0.237891
   6 C :   -0.239293
   7 C :   -0.237879
   8 O :   -0.340647
   9 H :    0.132903
  10 H :    0.125109
  11 H :    0.132942
  12 H :    0.125109
  13 H :    0.132909
  14 H :    0.132941
  15 H :    0.127562
  16 H :    0.127556
  17 H :    0.119407
  18 H :    0.109819
  19 H :    0.121005
  20 H :    0.113121
  21 H :    0.109819
  22 H :    0.119409
Sum of atomic charges:   -0.0000000

LOEWDIN ATOMIC CHARGES
----------------------
   0 C :   -0.272558
   1 C :   -0.354729
   2 C :   -0.272556
   3 C :   -0.163137
   4 C :   -0.304490
   5 C :   -0.206402
   6 C :   -0.242218
   7 C :   -0.206402
   8 O :    0.197127
   9 H :    0.127166
  10 H :    0.127364
  11 H :    0.129299
  12 H :    0.127364
  13 H :    0.127167
  14 H :    0.129297
  15 H :    0.135509
  16 H :    0.135512
  17 H :    0.141851
  18 H :    0.123723
  19 H :    0.123563
  20 H :    0.131973
  21 H :    0.123724
  22 H :    0.141852

  Mayer bond orders larger than 0.1
B(  0-C ,  1-C ) :   0.9044 B(  0-C ,  9-H ) :   0.9377 B(  0-C , 10-H ) :   0.9306
B(  0-C , 11-H ) :   0.9360 B(  1-C ,  2-C ) :   0.9044 B(  1-C ,  3-C ) :   0.9089
B(  1-C ,  8-O ) :   0.8916 B(  2-C , 12-H ) :   0.9306 B(  2-C , 13-H ) :   0.9377
B(  2-C , 14-H ) :   0.9360 B(  3-C ,  4-C ) :   0.9428 B(  3-C , 15-H ) :   0.9221
B(  3-C , 16-H ) :   0.9221 B(  4-C ,  5-C ) :   0.8918 B(  4-C ,  7-C ) :   0.8918
B(  4-C ,  8-O ) :   0.9868 B(  5-C ,  6-C ) :   0.9439 B(  5-C , 17-H ) :   0.9207
B(  5-C , 18-H ) :   0.9237 B(  6-C ,  7-C ) :   0.9439 B(  6-C , 19-H ) :   0.9313
B(  6-C , 20-H ) :   0.9221 B(  7-C , 21-H ) :   0.9237 B(  7-C , 22-H ) :   0.9207

MP2 TOTAL ENERGY:     -387.603806349 Eh
FINAL SINGLE POINT ENERGY      -387.603806349047

DIPOLE MOMENT
-------------
                                X             Y             Z
Electronic contribution:      1.89980      -0.10429       1.77427
Nuclear contribution   :     -2.06718       0.05661      -2.37324
                        -----------------------------------------
Total Dipole Moment    :     -0.16739      -0.04768      -0.59897
                        -----------------------------------------
Magnitude (a.u.)       :      0.62375
Magnitude (Debye)      :      1.58543

                             ****ORCA TERMINATED NORMALLY****
TOTAL RUN TIME: 0 days 0 hours 22 minutes 29 seconds 917 msec
