                         Program Version 3.0.3 - RELEASE   -
|  1> ! RI-MP2 RIJK def2-TZVP def2-TZVP/C def2-TZVP/JK TIGHTSCF
|  2> % maxcore 2000
|  3> % mp2 density relaxed end
|  4> *xyz 0 1
|  5>  N       -0.3832295224     1.3727549068    -0.1382352642
|  6>  C       -0.1231181859    -0.0396044946    -0.0523471975
|  7>  C       -0.3690861056    -0.6840822386     1.2991312894
|  8>  C       -1.3682419102    -0.8721184216     0.1822459855
|  9>  O       -2.5968073004    -0.2344190822     0.2131140774
| 10>  C        0.9882818332    -0.6056625869    -0.9309496925
| 11>  O        0.8053663836    -0.2862484543    -2.3034750238
| 12>  C        2.3053362061    -0.1358039908    -0.4546696153
| 13>  N        3.3140438721     0.2928705819    -0.0870747491
| 14>  H        0.3307318650     1.9268202635     0.3242696600
| 15>  H       -0.4468370263     1.6645805769    -1.1088432612
| 16>  H        0.2620547437    -1.5164751687     1.5932934834
| 17>  H       -0.6528587897    -0.0183999977     2.1065040551
| 18>  H       -1.4318826935    -1.8475527284    -0.2907918612
| 19>  H       -2.3940425294     0.7138821553     0.2492183617
| 20>  H        0.9732093909    -1.6998989943    -0.8650335881
| 21>  H        1.2487214287     0.5476372636    -2.4904764197
| 22> *
| 23>
| 24>                          ****END OF INPUT****

CARTESIAN COORDINATES (ANGSTROEM)
---------------------------------
  N     -0.383230    1.372755   -0.138235
  C     -0.123118   -0.039604   -0.052347
  C     -0.369086   -0.684082    1.299131
  C     -1.368242   -0.872118    0.182246
  O     -2.596807   -0.234419    0.213114
  C      0.988282   -0.605663   -0.930950
  O      0.805366   -0.286248   -2.303475
  C      2.305336   -0.135804   -0.454670
  N      3.314044    0.292871   -0.087075
  H      0.330732    1.926820    0.324270
  H     -0.446837    1.664581   -1.108843
  H      0.262055   -1.516475    1.593293
  H     -0.652859   -0.018400    2.106504
  H     -1.431883   -1.847553   -0.290792
  H     -2.394043    0.713882    0.249218
  H      0.973209   -1.699899   -0.865034
  H      1.248721    0.547637   -2.490476

 Total Charge           Charge          ....    0
 Multiplicity           Mult            ....    1
 Number of Electrons    NEL             ....   68
 Basis Dimension        Dim             ....  327

ORBITAL ENERGIES
----------------

  NO   OCC          E(Eh)            E(eV)
   0   2.0000     -20.602334      -560.6180
   1   2.0000     -20.563102      -559.5505
   2   2.0000     -15.593952      -424.3330
   3   2.0000     -15.580639      -423.9707
   4   2.0000     -11.355139      -308.9890
   5   2.0000     -11.300912      -307.5135
   6   2.0000     -11.293770      -307.3191
   7   2.0000     -11.290705      -307.2357
   8   2.0000     -11.245545      -306.0068
   9   2.0000      -1.412315       -38.4310
  10   2.0000      -1.381901       -37.6034
  11   2.0000      -1.242369       -33.8066
  12   2.0000      -1.231139       -33.5010
  13   2.0000      -1.116207       -30.3735
  14   2.0000      -1.017943       -27.6996
  15   2.0000      -0.850056       -23.1312
  16   2.0000      -0.820398       -22.3242
  17   2.0000      -0.781589       -21.2681
  18   2.0000      -0.728449       -19.8221
  19   2.0000      -0.707897       -19.2629
  20   2.0000      -0.692986       -18.8571
  21   2.0000      -0.654714       -17.8157
  22   2.0000      -0.622275       -16.9330
  23   2.0000      -0.604382       -16.4461
  24   2.0000      -0.592792       -16.1307
  25   2.0000      -0.567928       -15.4541
  26   2.0000      -0.567011       -15.4292
  27   2.0000      -0.553342       -15.0572
  28   2.0000      -0.522150       -14.2084
  29   2.0000      -0.490171       -13.3382
  30   2.0000      -0.482166       -13.1204
  31   2.0000      -0.453509       -12.3406
  32   2.0000      -0.433581       -11.7983
  33   2.0000      -0.392912       -10.6917
  34   0.0000       0.104234         2.8363
  35   0.0000       0.133472         3.6320
  36   0.0000       0.141764         3.8576
  37   0.0000       0.164400         4.4736
  38   0.0000       0.174285         4.7425

MULLIKEN ATOMIC CHARGES
-----------------------
   0 N :   -0.606885
   1 C :    0.179418
   2 C :   -0.291727
   3 C :    0.040879
   4 O :   -0.462428
   5 C :    0.115782
   6 O :   -0.449224
   7 C :   -0.206461
   8 N :   -0.044839
   9 H :    0.257621
  10 H :    0.243032
  11 H :    0.140638
  12 H :    0.144358
  13 H :    0.127125
  14 H :    0.337559
  15 H :    0.143185
  16 H :    0.331968
Sum of atomic charges:   -0.0000000

LOEWDIN ATOMIC CHARGES
----------------------
   0 N :   -0.099534
   1 C :   -0.322125
   2 C :   -0.186261
   3 C :   -0.297576
   4 O :    0.007910
   5 C :   -0.308772
   6 O :    0.012132
   7 C :   -0.173909
   8 N :    0.073467
   9 H :    0.167737
  10 H :    0.162761
  11 H :    0.139837
  12 H :    0.144432
  13 H :    0.142931
  14 H :    0.182388
  15 H :    0.173701
  16 H :    0.180881

  Mayer bond orders larger than 0.1
B(  0-N ,  1-C ) :   0.9311 B(  0-N ,  9-H ) :   0.8832 B(  0-N , 10-H ) :   0.8834
B(  1-C ,  2-C ) :   0.8585 B(  1-C ,  3-C ) :   0.8651 B(  1-C ,  5-C ) :   0.8701
B(  2-C ,  3-C ) :   0.8769 B(  2-C , 11-H ) :   0.9135 B(  2-C , 12-H ) :   0.9113
B(  3-C ,  4-O ) :   1.0315 B(  3-C , 13-H ) :   0.9435 B(  4-O , 14-H ) :   0.8056
B(  5-C ,  6-O ) :   1.0111 B(  5-C ,  7-C ) :   0.9308 B(  5-C , 15-H ) :   0.9249
B(  6-O , 16-H ) :   0.8300 B(  7-C ,  8-N ) :   2.8384

MP2 TOTAL ENERGY:     -454.398785662 Eh
FINAL SINGLE POINT ENERGY      -454.398785661798

DIPOLE MOMENT
-------------
                                X             Y             Z
Electronic contribution:      3.55769      -0.23446      -1.85937
Nuclear contribution   :     -3.60894       0.56976       1.66913
                        -----------------------------------------
Total Dipole Moment    :     -0.05124       0.33529      -0.19024
                        -----------------------------------------
Magnitude (a.u.)       :      0.38890
Magnitude (Debye)      :      0.98849

                             ****ORCA TERMINATED NORMALLY****
TOTAL RUN TIME: 0 days 0 hours 17 minutes 2 seconds 878 msec
