                         Program Version 3.0.3 - RELEASE   -
|  1> ! RI-MP2 RIJK def2-TZVP def2-TZVP/C def2-TZVP/JK TIGHTSCF
|  2> % maxcore 2000
|  3> % mp2 density relaxed end
|  4> *xyz 0 1
|  5>  C        0.0110446887     1.3030501752     0.0096497371
|  6>  N        1.1195004151     2.0448531978     0.0027107157
|  7>  C        2.2476867307     1.3335065257    -0.0123123633
|  8>  N        2.3358600721     0.0026568459    -0.0204207150
|  9>  C        1.1556667969    -0.6187299163    -0.0121192432
| 10>  N       -0.0409553930    -0.0297172832     0.0029152474
| 11>  H       -0.9383074071     1.8340991018     0.0219242032
| 12>  H        3.1822701244     1.8902337729    -0.0185330372
| 13>  H        1.1704112521    -1.7064618198    -0.0181772047
| 14> *
| 15>
| 16>                          ****END OF INPUT****

CARTESIAN COORDINATES (ANGSTROEM)
---------------------------------
  C      0.011045    1.303050    0.009650
  N      1.119500    2.044853    0.002711
  C      2.247687    1.333507   -0.012312
  N      2.335860    0.002657   -0.020421
  C      1.155667   -0.618730   -0.012119
  N     -0.040955   -0.029717    0.002915
  H     -0.938307    1.834099    0.021924
  H      3.182270    1.890234   -0.018533
  H      1.170411   -1.706462   -0.018177

 Total Charge           Charge          ....    0
 Multiplicity           Mult            ....    1
 Number of Electrons    NEL             ....   42
 Basis Dimension        Dim             ....  204

ORBITAL ENERGIES
----------------

  NO   OCC          E(Eh)            E(eV)
   0   2.0000     -15.586695      -424.1355
   1   2.0000     -15.586693      -424.1355
   2   2.0000     -15.586656      -424.1345
   3   2.0000     -11.341323      -308.6131
   4   2.0000     -11.341322      -308.6131
   5   2.0000     -11.341311      -308.6128
   6   2.0000      -1.364892       -37.1406
   7   2.0000      -1.217080       -33.1184
   8   2.0000      -1.217067       -33.1181
   9   2.0000      -0.932260       -25.3681
  10   2.0000      -0.932257       -25.3680
  11   2.0000      -0.761859       -20.7312
  12   2.0000      -0.747572       -20.3425
  13   2.0000      -0.614853       -16.7310
  14   2.0000      -0.614842       -16.7307
  15   2.0000      -0.613372       -16.6907
  16   2.0000      -0.577523       -15.7152
  17   2.0000      -0.441837       -12.0230
  18   2.0000      -0.441829       -12.0228
  19   2.0000      -0.441046       -12.0015
  20   2.0000      -0.441036       -12.0012
  21   0.0000       0.086335         2.3493
  22   0.0000       0.086338         2.3494
  23   0.0000       0.166103         4.5199
  24   0.0000       0.182387         4.9630
  25   0.0000       0.182388         4.9630

MULLIKEN ATOMIC CHARGES
-----------------------
   0 C :    0.091679
   1 N :   -0.242351
   2 C :    0.091679
   3 N :   -0.242341
   4 C :    0.091675
   5 N :   -0.242345
   6 H :    0.150669
   7 H :    0.150668
   8 H :    0.150666
Sum of atomic charges:   -0.0000000

LOEWDIN ATOMIC CHARGES
----------------------
   0 C :   -0.259485
   1 N :    0.120714
   2 C :   -0.259474
   3 N :    0.120718
   4 C :   -0.259459
   5 N :    0.120714
   6 H :    0.138759
   7 H :    0.138758
   8 H :    0.138755

  Mayer bond orders larger than 0.1
B(  0-C ,  1-N ) :   1.3698 B(  0-C ,  5-N ) :   1.3698 B(  0-C ,  6-H ) :   0.9348
B(  1-N ,  2-C ) :   1.3698 B(  2-C ,  3-N ) :   1.3698 B(  2-C ,  7-H ) :   0.9348
B(  3-N ,  4-C ) :   1.3698 B(  4-C ,  5-N ) :   1.3698 B(  4-C ,  8-H ) :   0.9348

MP2 TOTAL ENERGY:     -279.826670766 Eh
FINAL SINGLE POINT ENERGY      -279.826670765576

DIPOLE MOMENT
-------------
                                X             Y             Z
Electronic contribution:      0.00002      -0.00003       0.00000
Nuclear contribution   :     -0.00003       0.00006       0.00000
                        -----------------------------------------
Total Dipole Moment    :     -0.00001       0.00002       0.00000
                        -----------------------------------------
Magnitude (a.u.)       :      0.00003
Magnitude (Debye)      :      0.00007

                             ****ORCA TERMINATED NORMALLY****
TOTAL RUN TIME: 0 days 0 hours 3 minutes 18 seconds 937 msec
