                         Program Version 3.0.3 - RELEASE   -
|  1> ! RI-MP2 RIJK def2-TZVP def2-TZVP/C def2-TZVP/JK TIGHTSCF
|  2> % maxcore 2000
|  3> % mp2 density relaxed end
|  4> *xyz 0 1
|  5>  O        0.0427177504     1.3824088163     0.5176346671
|  6>  C        0.0462855153     0.0485059986     0.1149645915
|  7>  C        0.4273276800    -0.9300521308     1.2560363624
|  8>  C       -0.8988659640    -1.7109798416     1.0621180719
|  9>  C       -2.0830286879    -1.1508120644     1.8669966778
| 10>  O       -2.3522774318    -0.1381042728     0.8595432295
| 11>  C       -1.3517150527    -0.6696682986    -0.0158624162
| 12>  C       -1.8403764174    -0.9793193522    -1.3462968670
| 13>  N       -2.1832239048    -1.2250417741    -2.4233160095
| 14>  H       -0.3047664467     1.9277463417    -0.1966700669
| 15>  H        0.6397492285    -0.1186839769    -0.7950487363
| 16>  H        1.3319557691    -1.5074140987     1.0612044307
| 17>  H        0.5208109586    -0.4358330513     2.2254069424
| 18>  H       -0.8525489987    -2.7820408428     0.8806870707
| 19>  H       -2.9348444123    -1.8325204760     1.9707379534
| 20>  H       -1.8443565657    -0.7069415864     2.8392920785
| 21> *
| 22>
| 23>                          ****END OF INPUT****

CARTESIAN COORDINATES (ANGSTROEM)
---------------------------------
  O      0.042718    1.382409    0.517635
  C      0.046286    0.048506    0.114965
  C      0.427328   -0.930052    1.256036
  C     -0.898866   -1.710980    1.062118
  C     -2.083029   -1.150812    1.866997
  O     -2.352277   -0.138104    0.859543
  C     -1.351715   -0.669668   -0.015862
  C     -1.840376   -0.979319   -1.346297
  N     -2.183224   -1.225042   -2.423316
  H     -0.304766    1.927746   -0.196670
  H      0.639749   -0.118684   -0.795049
  H      1.331956   -1.507414    1.061204
  H      0.520811   -0.435833    2.225407
  H     -0.852549   -2.782041    0.880687
  H     -2.934844   -1.832520    1.970738
  H     -1.844357   -0.706942    2.839292

 Total Charge           Charge          ....    0
 Multiplicity           Mult            ....    1
 Number of Electrons    NEL             ....   66
 Basis Dimension        Dim             ....  321

ORBITAL ENERGIES
----------------

  NO   OCC          E(Eh)            E(eV)
   0   2.0000     -20.581897      -560.0619
   1   2.0000     -20.580520      -560.0244
   2   2.0000     -15.583201      -424.0405
   3   2.0000     -11.339589      -308.5659
   4   2.0000     -11.315296      -307.9049
   5   2.0000     -11.304461      -307.6100
   6   2.0000     -11.279743      -306.9374
   7   2.0000     -11.270206      -306.6779
   8   2.0000     -11.250539      -306.1427
   9   2.0000      -1.421010       -38.6676
  10   2.0000      -1.386989       -37.7419
  11   2.0000      -1.226473       -33.3740
  12   2.0000      -1.134340       -30.8670
  13   2.0000      -1.006828       -27.3972
  14   2.0000      -0.950458       -25.8633
  15   2.0000      -0.868727       -23.6393
  16   2.0000      -0.804812       -21.9001
  17   2.0000      -0.741675       -20.1820
  18   2.0000      -0.733701       -19.9650
  19   2.0000      -0.683449       -18.5976
  20   2.0000      -0.656693       -17.8695
  21   2.0000      -0.634693       -17.2709
  22   2.0000      -0.598289       -16.2803
  23   2.0000      -0.580487       -15.7959
  24   2.0000      -0.571354       -15.5473
  25   2.0000      -0.551656       -15.0113
  26   2.0000      -0.520055       -14.1514
  27   2.0000      -0.507242       -13.8028
  28   2.0000      -0.496159       -13.5012
  29   2.0000      -0.478202       -13.0125
  30   2.0000      -0.465577       -12.6690
  31   2.0000      -0.448217       -12.1966
  32   2.0000      -0.412391       -11.2217
  33   0.0000       0.113460         3.0874
  34   0.0000       0.127516         3.4699
  35   0.0000       0.150300         4.0899
  36   0.0000       0.156954         4.2709
  37   0.0000       0.164465         4.4753

MULLIKEN ATOMIC CHARGES
-----------------------
   0 O :   -0.433744
   1 C :   -0.017657
   2 C :   -0.195398
   3 C :   -0.182008
   4 C :   -0.038173
   5 O :   -0.313630
   6 C :    0.347963
   7 C :   -0.185161
   8 N :   -0.042144
   9 H :    0.324095
  10 H :    0.107864
  11 H :    0.137510
  12 H :    0.125293
  13 H :    0.142943
  14 H :    0.114261
  15 H :    0.107988
Sum of atomic charges:   -0.0000000

LOEWDIN ATOMIC CHARGES
----------------------
   0 O :    0.013758
   1 C :   -0.285015
   2 C :   -0.187863
   3 C :   -0.152102
   4 C :   -0.227807
   5 O :    0.187212
   6 C :   -0.275471
   7 C :   -0.149161
   8 N :    0.079882
   9 H :    0.186508
  10 H :    0.138691
  11 H :    0.137276
  12 H :    0.143576
  13 H :    0.142634
  14 H :    0.124094
  15 H :    0.123786

  Mayer bond orders larger than 0.1
B(  0-O ,  1-C ) :   1.1319 B(  0-O ,  9-H ) :   0.8388 B(  1-C ,  2-C ) :   0.9042
B(  1-C ,  6-C ) :   0.8498 B(  1-C , 10-H ) :   0.9627 B(  2-C ,  3-C ) :   0.9438
B(  2-C , 11-H ) :   0.9174 B(  2-C , 12-H ) :   0.9067 B(  3-C ,  4-C ) :   0.9952
B(  3-C ,  6-C ) :   0.8751 B(  3-C , 13-H ) :   0.8982 B(  4-C ,  5-O ) :   0.9262
B(  4-C , 14-H ) :   0.9201 B(  4-C , 15-H ) :   0.9014 B(  5-O ,  6-C ) :   0.9395
B(  6-C ,  7-C ) :   0.9550 B(  7-C ,  8-N ) :   2.8508

MP2 TOTAL ENERGY:     -437.132867327 Eh
FINAL SINGLE POINT ENERGY      -437.132867326790

DIPOLE MOMENT
-------------
                                X             Y             Z
Electronic contribution:     -3.27384       1.18839      -4.83949
Nuclear contribution   :      4.08186      -1.54415       5.84067
                        -----------------------------------------
Total Dipole Moment    :      0.80802      -0.35576       1.00118
                        -----------------------------------------
Magnitude (a.u.)       :      1.33485
Magnitude (Debye)      :      3.39292

                             ****ORCA TERMINATED NORMALLY****
TOTAL RUN TIME: 0 days 0 hours 22 minutes 0 seconds 998 msec
