                         Program Version 3.0.3 - RELEASE   -
|  1> ! RI-MP2 RIJK def2-TZVP def2-TZVP/C def2-TZVP/JK TIGHTSCF
|  2> % maxcore 2000
|  3> % mp2 density relaxed end
|  4> *xyz 0 1
|  5>  C        0.0043768092     1.4952903099     0.0413349216
|  6>  C        0.0058117893     0.0026028325    -0.0152408010
|  7>  C       -0.0613391598    -0.7766532661    -1.0978497764
|  8>  C       -0.0335044106    -2.2479909915    -0.8022730831
|  9>  C        0.0835863067    -2.3063669528     0.7225916303
| 10>  O        0.1546105030    -3.2832789778     1.4084357086
| 11>  C        0.0746154619    -0.8328359745     1.2557778229
| 12>  C        1.2319710334    -0.5409561931     2.0966097903
| 13>  N        2.1582485551    -0.2885327628     2.7402329581
| 14>  H        0.9035248035     1.8693267377     0.5446748162
| 15>  H       -0.0369574149     1.9283006746    -0.9611507121
| 16>  H       -0.8544858048     1.8694212981     0.6127739092
| 17>  H       -0.1345291681    -0.3913800320    -2.1088559689
| 18>  H       -0.9370332575    -2.7836085035    -1.1218970583
| 19>  H        0.8115380850    -2.7793215906    -1.2588685521
| 20>  H       -0.8263592512    -0.7081841282     1.8743861846
| 21> *
| 22>
| 23>                          ****END OF INPUT****

CARTESIAN COORDINATES (ANGSTROEM)
---------------------------------
  C      0.004377    1.495290    0.041335
  C      0.005812    0.002603   -0.015241
  C     -0.061339   -0.776653   -1.097850
  C     -0.033504   -2.247991   -0.802273
  C      0.083586   -2.306367    0.722592
  O      0.154611   -3.283279    1.408436
  C      0.074615   -0.832836    1.255778
  C      1.231971   -0.540956    2.096610
  N      2.158249   -0.288533    2.740233
  H      0.903525    1.869327    0.544675
  H     -0.036957    1.928301   -0.961151
  H     -0.854486    1.869421    0.612774
  H     -0.134529   -0.391380   -2.108856
  H     -0.937033   -2.783609   -1.121897
  H      0.811538   -2.779322   -1.258869
  H     -0.826359   -0.708184    1.874386

 Total Charge           Charge          ....    0
 Multiplicity           Mult            ....    1
 Number of Electrons    NEL             ....   64
 Basis Dimension        Dim             ....  321

ORBITAL ENERGIES
----------------

  NO   OCC          E(Eh)            E(eV)
   0   2.0000     -20.576723      -559.9211
   1   2.0000     -15.578105      -423.9018
   2   2.0000     -11.364459      -309.2426
   3   2.0000     -11.305938      -307.6502
   4   2.0000     -11.282247      -307.0055
   5   2.0000     -11.275883      -306.8324
   6   2.0000     -11.266024      -306.5641
   7   2.0000     -11.260673      -306.4185
   8   2.0000     -11.248453      -306.0860
   9   2.0000      -1.423999       -38.7490
  10   2.0000      -1.228840       -33.4384
  11   2.0000      -1.177203       -32.0333
  12   2.0000      -1.045482       -28.4490
  13   2.0000      -1.025866       -27.9152
  14   2.0000      -0.926997       -25.2249
  15   2.0000      -0.809163       -22.0184
  16   2.0000      -0.765554       -20.8318
  17   2.0000      -0.713087       -19.4041
  18   2.0000      -0.691129       -18.8066
  19   2.0000      -0.639486       -17.4013
  20   2.0000      -0.629526       -17.1303
  21   2.0000      -0.620431       -16.8828
  22   2.0000      -0.598877       -16.2963
  23   2.0000      -0.590267       -16.0620
  24   2.0000      -0.566656       -15.4195
  25   2.0000      -0.548011       -14.9121
  26   2.0000      -0.542260       -14.7556
  27   2.0000      -0.529137       -14.3986
  28   2.0000      -0.485204       -13.2031
  29   2.0000      -0.464655       -12.6439
  30   2.0000      -0.420112       -11.4318
  31   2.0000      -0.381508       -10.3814
  32   0.0000       0.104613         2.8467
  33   0.0000       0.119637         3.2555
  34   0.0000       0.128245         3.4897
  35   0.0000       0.144028         3.9192
  36   0.0000       0.152565         4.1515

MULLIKEN ATOMIC CHARGES
-----------------------
   0 C :   -0.431717
   1 C :    0.004090
   2 C :   -0.222399
   3 C :   -0.132299
   4 C :    0.093057
   5 O :   -0.223042
   6 C :    0.111192
   7 C :   -0.206366
   8 N :   -0.052183
   9 H :    0.168399
  10 H :    0.142904
  11 H :    0.146084
  12 H :    0.143466
  13 H :    0.148360
  14 H :    0.153772
  15 H :    0.156682
Sum of atomic charges:    0.0000000

LOEWDIN ATOMIC CHARGES
----------------------
   0 C :   -0.261753
   1 C :   -0.158989
   2 C :   -0.123609
   3 C :   -0.207156
   4 C :   -0.253244
   5 O :    0.192402
   6 C :   -0.166103
   7 C :   -0.160600
   8 N :    0.072006
   9 H :    0.141402
  10 H :    0.134466
  11 H :    0.136052
  12 H :    0.144694
  13 H :    0.158882
  14 H :    0.159979
  15 H :    0.191570

  Mayer bond orders larger than 0.1
B(  0-C ,  1-C ) :   0.8957 B(  0-C ,  9-H ) :   0.9239 B(  0-C , 10-H ) :   0.9457
B(  0-C , 11-H ) :   0.9265 B(  1-C ,  2-C ) :   1.7077 B(  1-C ,  6-C ) :   0.8653
B(  2-C ,  3-C ) :   0.9250 B(  2-C , 12-H ) :   0.9124 B(  3-C ,  4-C ) :   0.9415
B(  3-C ,  6-C ) :  -0.1271 B(  3-C , 13-H ) :   0.8926 B(  3-C , 14-H ) :   0.8934
B(  4-C ,  5-O ) :   2.0939 B(  4-C ,  6-C ) :   0.8138 B(  6-C ,  7-C ) :   0.9121
B(  6-C , 15-H ) :   0.8756 B(  7-C ,  8-N ) :   2.8533

MP2 TOTAL ENERGY:     -400.094580468 Eh
FINAL SINGLE POINT ENERGY      -400.094580467620

DIPOLE MOMENT
-------------
                                X             Y             Z
Electronic contribution:      2.33723      -4.98638       5.27543
Nuclear contribution   :     -3.56599       5.54776      -6.85105
                        -----------------------------------------
Total Dipole Moment    :     -1.22876       0.56138      -1.57563
                        -----------------------------------------
Magnitude (a.u.)       :      2.07547
Magnitude (Debye)      :      5.27544

                             ****ORCA TERMINATED NORMALLY****
TOTAL RUN TIME: 0 days 0 hours 15 minutes 31 seconds 644 msec
