                         Program Version 3.0.3 - RELEASE   -
|  1> ! RI-MP2 RIJK def2-TZVP def2-TZVP/C def2-TZVP/JK TIGHTSCF
|  2> % maxcore 2000
|  3> % mp2 density relaxed end
|  4> *xyz 0 1
|  5>  C       -0.0526405134     1.5243659244     0.1072197183
|  6>  C        1.2891743791     0.8374061509     0.0121556653
|  7>  C        0.0054245551     0.0204448815     0.0142600251
|  8>  C       -0.0194294879    -0.5839445600    -1.4021976657
|  9>  O       -0.2014043815     0.4934554070    -2.3542824130
| 10>  C        1.1699296278     0.7968194087    -2.6716357530
| 11>  C        1.6720938104    -0.5664024740    -3.1997922253
| 12>  C        1.4661785501    -0.9467413520    -1.7137787214
| 13>  C        1.9335412596     0.5008174504    -1.3280915067
| 14>  H       -0.3031820008     1.9387101539     1.0789060657
| 15>  H       -0.4382512609     2.0754469631    -0.7389761341
| 16>  H        1.9414640234     0.8706012205     0.8784301438
| 17>  H       -0.3030816914    -0.5925978240     0.8540325250
| 18>  H       -0.7765113200    -1.3519575218    -1.5678833915
| 19>  H        1.2258471266     1.7348133320    -3.2228125995
| 20>  H        1.0569167700    -1.0434555065    -3.9655699373
| 21>  H        2.7271344860    -0.5703381091    -3.4821723269
| 22>  H        1.8743222784    -1.8418632168    -1.2445422773
| 23>  H        3.0059075793     0.6822987616    -1.3962990714
| 24> *
| 25>
| 26>                          ****END OF INPUT****

CARTESIAN COORDINATES (ANGSTROEM)
---------------------------------
  C     -0.052641    1.524366    0.107220
  C      1.289174    0.837406    0.012156
  C      0.005425    0.020445    0.014260
  C     -0.019429   -0.583945   -1.402198
  O     -0.201404    0.493455   -2.354282
  C      1.169930    0.796819   -2.671636
  C      1.672094   -0.566402   -3.199792
  C      1.466179   -0.946741   -1.713779
  C      1.933541    0.500817   -1.328092
  H     -0.303182    1.938710    1.078906
  H     -0.438251    2.075447   -0.738976
  H      1.941464    0.870601    0.878430
  H     -0.303082   -0.592598    0.854033
  H     -0.776511   -1.351958   -1.567883
  H      1.225847    1.734813   -3.222813
  H      1.056917   -1.043456   -3.965570
  H      2.727134   -0.570338   -3.482172
  H      1.874322   -1.841863   -1.244542
  H      3.005908    0.682299   -1.396299

 Total Charge           Charge          ....    0
 Multiplicity           Mult            ....    1
 Number of Electrons    NEL             ....   66
 Basis Dimension        Dim             ....  339

ORBITAL ENERGIES
----------------

  NO   OCC          E(Eh)            E(eV)
   0   2.0000     -20.544768      -559.0516
   1   2.0000     -11.283247      -307.0328
   2   2.0000     -11.279560      -306.9324
   3   2.0000     -11.234632      -305.7099
   4   2.0000     -11.233684      -305.6841
   5   2.0000     -11.226115      -305.4781
   6   2.0000     -11.222901      -305.3907
   7   2.0000     -11.222832      -305.3888
   8   2.0000     -11.221111      -305.3420
   9   2.0000      -1.383423       -37.6448
  10   2.0000      -1.159269       -31.5453
  11   2.0000      -1.105165       -30.0731
  12   2.0000      -0.975631       -26.5483
  13   2.0000      -0.920647       -25.0521
  14   2.0000      -0.826139       -22.4804
  15   2.0000      -0.800374       -21.7793
  16   2.0000      -0.761817       -20.7301
  17   2.0000      -0.733108       -19.9489
  18   2.0000      -0.710838       -19.3429
  19   2.0000      -0.683244       -18.5920
  20   2.0000      -0.625814       -17.0293
  21   2.0000      -0.595764       -16.2116
  22   2.0000      -0.557197       -15.1621
  23   2.0000      -0.546983       -14.8842
  24   2.0000      -0.537182       -14.6175
  25   2.0000      -0.517831       -14.0909
  26   2.0000      -0.503247       -13.6940
  27   2.0000      -0.478530       -13.0215
  28   2.0000      -0.455043       -12.3824
  29   2.0000      -0.443831       -12.0772
  30   2.0000      -0.402798       -10.9607
  31   2.0000      -0.391415       -10.6510
  32   2.0000      -0.378791       -10.3074
  33   0.0000       0.142817         3.8863
  34   0.0000       0.162658         4.4261
  35   0.0000       0.166419         4.5285
  36   0.0000       0.175374         4.7722
  37   0.0000       0.190107         5.1731

MULLIKEN ATOMIC CHARGES
-----------------------
   0 C :   -0.259877
   1 C :   -0.159938
   2 C :   -0.193856
   3 C :    0.126293
   4 O :   -0.341142
   5 C :    0.048283
   6 C :   -0.248122
   7 C :   -0.138425
   8 C :   -0.104984
   9 H :    0.123431
  10 H :    0.153924
  11 H :    0.120248
  12 H :    0.122251
  13 H :    0.133759
  14 H :    0.126902
  15 H :    0.121727
  16 H :    0.117788
  17 H :    0.127000
  18 H :    0.124737
Sum of atomic charges:   -0.0000000

LOEWDIN ATOMIC CHARGES
----------------------
   0 C :   -0.197895
   1 C :   -0.180106
   2 C :   -0.176722
   3 C :   -0.225208
   4 O :    0.179344
   5 C :   -0.241974
   6 C :   -0.208197
   7 C :   -0.166703
   8 C :   -0.160699
   9 H :    0.134217
  10 H :    0.139197
  11 H :    0.142801
  12 H :    0.139651
  13 H :    0.138520
  14 H :    0.129151
  15 H :    0.129442
  16 H :    0.138421
  17 H :    0.135783
  18 H :    0.150978

  Mayer bond orders larger than 0.1
B(  0-C ,  1-C ) :   0.9015 B(  0-C ,  2-C ) :   0.9100 B(  0-C ,  9-H ) :   0.9304
B(  0-C , 10-H ) :   0.9050 B(  1-C ,  2-C ) :   0.9011 B(  1-C ,  8-C ) :   0.9221
B(  1-C , 11-H ) :   0.9318 B(  2-C ,  3-C ) :   0.9278 B(  2-C , 12-H ) :   0.9240
B(  3-C ,  4-O ) :   0.9042 B(  3-C ,  7-C ) :   0.9188 B(  3-C , 13-H ) :   0.9037
B(  4-O ,  5-C ) :   0.8914 B(  5-C ,  6-C ) :   0.9236 B(  5-C ,  8-C ) :   0.9060
B(  5-C , 14-H ) :   0.9133 B(  6-C ,  7-C ) :   0.9340 B(  6-C , 15-H ) :   0.9176
B(  6-C , 16-H ) :   0.9241 B(  7-C ,  8-C ) :   0.8917 B(  7-C , 17-H ) :   0.9052
B(  8-C , 18-H ) :   0.9136

MP2 TOTAL ENERGY:     -385.181259276 Eh
FINAL SINGLE POINT ENERGY      -385.181259275987

DIPOLE MOMENT
-------------
                                X             Y             Z
Electronic contribution:     -1.40541       0.15593      -1.00399
Nuclear contribution   :      1.96467      -0.42549       1.24646
                        -----------------------------------------
Total Dipole Moment    :      0.55925      -0.26956       0.24246
                        -----------------------------------------
Magnitude (a.u.)       :      0.66650
Magnitude (Debye)      :      1.69410

                             ****ORCA TERMINATED NORMALLY****
TOTAL RUN TIME: 0 days 0 hours 19 minutes 16 seconds 63 msec
