                         Program Version 3.0.3 - RELEASE   -
|  1> ! RI-MP2 RIJK def2-TZVP def2-TZVP/C def2-TZVP/JK TIGHTSCF
|  2> % maxcore 2000
|  3> % mp2 density relaxed end
|  4> *xyz 0 1
|  5>  O       -0.2015475884     1.3358597662     0.6619301291
|  6>  C       -0.0443723897     0.0915609795    -0.0115674267
|  7>  C        0.7484685474    -0.9344021512     0.8352165845
|  8>  C       -0.3204989330    -1.6144343517     1.7251887445
|  9>  N       -1.4885062015    -1.6439256386     0.8477058264
| 10>  C       -1.4632133901    -0.5116064844    -0.1179883892
| 11>  C       -1.8148312760    -1.5086911917    -1.2529942026
| 12>  C       -1.6382078952    -2.5976362204    -0.1720205860
| 13>  O       -1.5595604126    -3.7938641084    -0.1500765245
| 14>  H        0.6716983232     1.7218682872     0.7832602557
| 15>  H        0.4123955499     0.2425036800    -0.9994046309
| 16>  H        1.2026647556    -1.6855796258     0.1787874525
| 17>  H        1.5534542817    -0.4564808793     1.4014040973
| 18>  H       -0.0568335863    -2.6294294861     2.0277583039
| 19>  H       -0.5371436260    -1.0218526945     2.6189677622
| 20>  H       -2.2010577978     0.2667946425     0.0841544305
| 21>  H       -2.8130897077    -1.4140250258    -1.6844541312
| 22>  H       -1.0819529735    -1.5916302776    -2.0595392853
| 23> *
| 24>
| 25>                          ****END OF INPUT****

CARTESIAN COORDINATES (ANGSTROEM)
---------------------------------
  O     -0.201548    1.335860    0.661930
  C     -0.044372    0.091561   -0.011567
  C      0.748469   -0.934402    0.835217
  C     -0.320499   -1.614434    1.725189
  N     -1.488506   -1.643926    0.847706
  C     -1.463213   -0.511606   -0.117988
  C     -1.814831   -1.508691   -1.252994
  C     -1.638208   -2.597636   -0.172021
  O     -1.559560   -3.793864   -0.150077
  H      0.671698    1.721868    0.783260
  H      0.412396    0.242504   -0.999405
  H      1.202665   -1.685580    0.178787
  H      1.553454   -0.456481    1.401404
  H     -0.056834   -2.629429    2.027758
  H     -0.537144   -1.021853    2.618968
  H     -2.201058    0.266795    0.084154
  H     -2.813090   -1.414025   -1.684454
  H     -1.081953   -1.591630   -2.059539

 Total Charge           Charge          ....    0
 Multiplicity           Mult            ....    1
 Number of Electrons    NEL             ....   68
 Basis Dimension        Dim             ....  333

ORBITAL ENERGIES
----------------

  NO   OCC          E(Eh)            E(eV)
   0   2.0000     -20.571839      -559.7882
   1   2.0000     -20.536819      -558.8353
   2   2.0000     -15.574694      -423.8090
   3   2.0000     -11.351663      -308.8944
   4   2.0000     -11.300155      -307.4928
   5   2.0000     -11.274206      -306.7867
   6   2.0000     -11.268547      -306.6328
   7   2.0000     -11.251064      -306.1570
   8   2.0000     -11.241554      -305.8982
   9   2.0000      -1.396488       -38.0004
  10   2.0000      -1.379212       -37.5303
  11   2.0000      -1.281847       -34.8808
  12   2.0000      -1.072004       -29.1707
  13   2.0000      -1.029381       -28.0109
  14   2.0000      -0.930490       -25.3199
  15   2.0000      -0.873770       -23.7765
  16   2.0000      -0.800345       -21.7785
  17   2.0000      -0.726619       -19.7723
  18   2.0000      -0.703029       -19.1304
  19   2.0000      -0.690955       -18.8018
  20   2.0000      -0.675229       -18.3739
  21   2.0000      -0.659419       -17.9437
  22   2.0000      -0.618827       -16.8391
  23   2.0000      -0.598790       -16.2939
  24   2.0000      -0.579154       -15.7596
  25   2.0000      -0.557768       -15.1776
  26   2.0000      -0.528564       -14.3830
  27   2.0000      -0.524720       -14.2784
  28   2.0000      -0.516537       -14.0557
  29   2.0000      -0.501483       -13.6460
  30   2.0000      -0.481353       -13.0983
  31   2.0000      -0.455000       -12.3812
  32   2.0000      -0.423964       -11.5367
  33   2.0000      -0.384471       -10.4620
  34   0.0000       0.121948         3.3184
  35   0.0000       0.143155         3.8954
  36   0.0000       0.146786         3.9943
  37   0.0000       0.166914         4.5420
  38   0.0000       0.182004         4.9526

MULLIKEN ATOMIC CHARGES
-----------------------
   0 O :   -0.462403
   1 C :    0.027552
   2 C :   -0.292954
   3 C :   -0.152725
   4 N :   -0.089512
   5 C :   -0.005190
   6 C :   -0.247324
   7 C :    0.154155
   8 O :   -0.294609
   9 H :    0.316387
  10 H :    0.106143
  11 H :    0.131525
  12 H :    0.124152
  13 H :    0.152352
  14 H :    0.127551
  15 H :    0.129339
  16 H :    0.146040
  17 H :    0.129520
Sum of atomic charges:   -0.0000000

LOEWDIN ATOMIC CHARGES
----------------------
   0 O :   -0.019262
   1 C :   -0.318830
   2 C :   -0.243406
   3 C :   -0.253714
   4 N :    0.198678
   5 C :   -0.193271
   6 C :   -0.186488
   7 C :   -0.408770
   8 O :    0.125384
   9 H :    0.174512
  10 H :    0.133129
  11 H :    0.144127
  12 H :    0.135045
  13 H :    0.141794
  14 H :    0.135902
  15 H :    0.147681
  16 H :    0.142669
  17 H :    0.144822

  Mayer bond orders larger than 0.1
B(  0-O ,  1-C ) :   0.9868 B(  0-O ,  9-H ) :   0.8434 B(  1-C ,  2-C ) :   0.9344
B(  1-C ,  5-C ) :   0.8938 B(  1-C , 10-H ) :   0.9424 B(  2-C ,  3-C ) :   0.9311
B(  2-C , 11-H ) :   0.9195 B(  2-C , 12-H ) :   0.9230 B(  3-C ,  4-N ) :   0.8962
B(  3-C , 13-H ) :   0.9279 B(  3-C , 14-H ) :   0.9284 B(  4-N ,  5-C ) :   0.9280
B(  4-N ,  7-C ) :   1.0677 B(  5-C ,  6-C ) :   0.9119 B(  5-C , 15-H ) :   0.9169
B(  6-C ,  7-C ) :   0.9153 B(  6-C , 16-H ) :   0.9071 B(  6-C , 17-H ) :   0.8944
B(  7-C ,  8-O ) :   2.0221

MP2 TOTAL ENERGY:     -438.392802812 Eh
FINAL SINGLE POINT ENERGY      -438.392802811919

DIPOLE MOMENT
-------------
                                X             Y             Z
Electronic contribution:     -3.35080      -2.89495      -0.09871
Nuclear contribution   :      4.38347       4.05932      -0.08376
                        -----------------------------------------
Total Dipole Moment    :      1.03267       1.16438      -0.18247
                        -----------------------------------------
Magnitude (a.u.)       :      1.56700
Magnitude (Debye)      :      3.98299

                             ****ORCA TERMINATED NORMALLY****
TOTAL RUN TIME: 0 days 0 hours 23 minutes 51 seconds 117 msec
