                         Program Version 3.0.3 - RELEASE   -
|  1> ! RI-MP2 RIJK def2-TZVP def2-TZVP/C def2-TZVP/JK TIGHTSCF
|  2> % maxcore 2000
|  3> % mp2 density relaxed end
|  4> *xyz 0 1
|  5>  C        0.0680567958     1.6078127440     0.1226358521
|  6>  C        0.0205567133     0.0769851788     0.0653033113
|  7>  C        0.6743341352    -0.5255421395    -1.1751094370
|  8>  C        0.8471364206    -2.0575358881    -1.2647758265
|  9>  C       -0.4764726866    -2.7708570630    -1.4214043276
| 10>  C        0.1087705294    -2.0349739622    -2.5937464354
| 11>  N       -0.1031337337    -0.6078820837    -2.4443239282
| 12>  C       -0.7939923916     0.2701972367    -3.1996970695
| 13>  O       -0.9325246257     1.4586976513    -2.9824156055
| 14>  H        1.1047085018     1.9634703750     0.1399180851
| 15>  H       -0.4225551094     2.0422949418    -0.7505750428
| 16>  H       -0.4226155994     1.9753448473     1.0290998425
| 17>  H        0.5492219521    -0.3430364699     0.9317339155
| 18>  H       -1.0147313985    -0.2741263201     0.1363897923
| 19>  H        1.6311470148    -0.0252858439    -1.3715665144
| 20>  H        1.7588130793    -2.5801430966    -1.0121224585
| 21>  H       -0.3965379634    -3.8526332726    -1.4672125732
| 22>  H       -1.3798364152    -2.4009294291    -0.9470875457
| 23>  H        0.3594669951    -2.4764202112    -3.5503468219
| 24>  H       -1.2236787639    -0.2321421550    -4.0920126925
| 25> *
| 26>
| 27>                          ****END OF INPUT****

CARTESIAN COORDINATES (ANGSTROEM)
---------------------------------
  C      0.068057    1.607813    0.122636
  C      0.020557    0.076985    0.065303
  C      0.674334   -0.525542   -1.175109
  C      0.847136   -2.057536   -1.264776
  C     -0.476473   -2.770857   -1.421404
  C      0.108771   -2.034974   -2.593746
  N     -0.103134   -0.607882   -2.444324
  C     -0.793992    0.270197   -3.199697
  O     -0.932525    1.458698   -2.982416
  H      1.104709    1.963470    0.139918
  H     -0.422555    2.042295   -0.750575
  H     -0.422616    1.975345    1.029100
  H      0.549222   -0.343036    0.931734
  H     -1.014731   -0.274126    0.136390
  H      1.631147   -0.025286   -1.371567
  H      1.758813   -2.580143   -1.012122
  H     -0.396538   -3.852633   -1.467213
  H     -1.379836   -2.400929   -0.947088
  H      0.359467   -2.476420   -3.550347
  H     -1.223679   -0.232142   -4.092013

 Total Charge           Charge          ....    0
 Multiplicity           Mult            ....    1
 Number of Electrons    NEL             ....   68
 Basis Dimension        Dim             ....  345

ORBITAL ENERGIES
----------------

  NO   OCC          E(Eh)            E(eV)
   0   2.0000     -20.513586      -558.2031
   1   2.0000     -15.587469      -424.1566
   2   2.0000     -11.343075      -308.6608
   3   2.0000     -11.287847      -307.1579
   4   2.0000     -11.284823      -307.0756
   5   2.0000     -11.253259      -306.2167
   6   2.0000     -11.247810      -306.0685
   7   2.0000     -11.225325      -305.4566
   8   2.0000     -11.201562      -304.8100
   9   2.0000      -1.374898       -37.4129
  10   2.0000      -1.294511       -35.2254
  11   2.0000      -1.117104       -30.3979
  12   2.0000      -1.055559       -28.7232
  13   2.0000      -0.955460       -25.9994
  14   2.0000      -0.877113       -23.8675
  15   2.0000      -0.828978       -22.5576
  16   2.0000      -0.810807       -22.0632
  17   2.0000      -0.741033       -20.1645
  18   2.0000      -0.723530       -19.6883
  19   2.0000      -0.669142       -18.2083
  20   2.0000      -0.634482       -17.2651
  21   2.0000      -0.617073       -16.7914
  22   2.0000      -0.611848       -16.6492
  23   2.0000      -0.579493       -15.7688
  24   2.0000      -0.561326       -15.2745
  25   2.0000      -0.549734       -14.9590
  26   2.0000      -0.530039       -14.4231
  27   2.0000      -0.504431       -13.7263
  28   2.0000      -0.485616       -13.2143
  29   2.0000      -0.475119       -12.9287
  30   2.0000      -0.466453       -12.6928
  31   2.0000      -0.424414       -11.5489
  32   2.0000      -0.412058       -11.2127
  33   2.0000      -0.358103        -9.7445
  34   0.0000       0.137170         3.7326
  35   0.0000       0.148157         4.0316
  36   0.0000       0.156331         4.2540
  37   0.0000       0.164418         4.4740
  38   0.0000       0.183804         5.0016

MULLIKEN ATOMIC CHARGES
-----------------------
   0 C :   -0.401699
   1 C :   -0.207777
   2 C :   -0.014893
   3 C :   -0.129852
   4 C :   -0.253108
   5 C :   -0.076251
   6 N :   -0.078177
   7 C :    0.129315
   8 O :   -0.378369
   9 H :    0.113706
  10 H :    0.175324
  11 H :    0.125869
  12 H :    0.116016
  13 H :    0.107349
  14 H :    0.114421
  15 H :    0.147330
  16 H :    0.136004
  17 H :    0.145938
  18 H :    0.148894
  19 H :    0.079959
Sum of atomic charges:    0.0000000

LOEWDIN ATOMIC CHARGES
----------------------
   0 C :   -0.319398
   1 C :   -0.268779
   2 C :   -0.187097
   3 C :   -0.158494
   4 C :   -0.200536
   5 C :   -0.193133
   6 N :    0.225861
   7 C :   -0.428679
   8 O :    0.049458
   9 H :    0.119269
  10 H :    0.130426
  11 H :    0.119976
  12 H :    0.144630
  13 H :    0.139802
  14 H :    0.156494
  15 H :    0.139268
  16 H :    0.143600
  17 H :    0.134356
  18 H :    0.138436
  19 H :    0.114542

  Mayer bond orders larger than 0.1
B(  0-C ,  1-C ) :   0.9274 B(  0-C ,  9-H ) :   0.9368 B(  0-C , 10-H ) :   0.9241
B(  0-C , 11-H ) :   0.9387 B(  1-C ,  2-C ) :   0.9239 B(  1-C , 12-H ) :   0.9297
B(  1-C , 13-H ) :   0.9246 B(  2-C ,  3-C ) :   0.9088 B(  2-C ,  6-N ) :   0.8676
B(  2-C , 14-H ) :   0.9195 B(  3-C ,  4-C ) :   0.8726 B(  3-C ,  5-C ) :   0.8886
B(  3-C , 15-H ) :   0.9212 B(  4-C ,  5-C ) :   0.8800 B(  4-C , 16-H ) :   0.9223
B(  4-C , 17-H ) :   0.9191 B(  5-C ,  6-N ) :   0.9328 B(  5-C , 18-H ) :   0.9142
B(  6-N ,  7-C ) :   1.1539 B(  7-C ,  8-O ) :   1.8628 B(  7-C , 19-H ) :   0.9265

MP2 TOTAL ENERGY:     -402.437926609 Eh
FINAL SINGLE POINT ENERGY      -402.437926608802

DIPOLE MOMENT
-------------
                                X             Y             Z
Electronic contribution:     -0.80515      -0.43742      -6.38897
Nuclear contribution   :      1.35712      -1.11819       6.74114
                        -----------------------------------------
Total Dipole Moment    :      0.55196      -1.55561       0.35217
                        -----------------------------------------
Magnitude (a.u.)       :      1.68778
Magnitude (Debye)      :      4.29000

                             ****ORCA TERMINATED NORMALLY****
TOTAL RUN TIME: 0 days 0 hours 30 minutes 32 seconds 207 msec
