                         Program Version 3.0.3 - RELEASE   -
|  1> ! RI-MP2 RIJK def2-TZVP def2-TZVP/C def2-TZVP/JK TIGHTSCF
|  2> % maxcore 2000
|  3> % mp2 density relaxed end
|  4> *xyz 0 1
|  5>  C        0.6365314660     1.4443268516     0.5079732278
|  6>  O        0.9197094183     0.0741127482     0.3218380917
|  7>  C        0.3583711574    -0.7863842044     1.2935408687
|  8>  C       -1.1423053549    -1.0296965969     1.1080910702
|  9>  C        1.1381322739    -2.1000767586     1.2551550168
| 10>  O        0.7524627237    -3.0790251227     1.8592479604
| 11>  C        2.4336540341    -2.1652252983     0.4662498030
| 12>  O        3.0284760134    -3.4237374157     0.5833642892
| 13>  H        0.9479546200     1.7873763841     1.5065977292
| 14>  H        1.2041375302     1.9926056778    -0.2471447980
| 15>  H       -0.4302081771     1.6724515387     0.3787797285
| 16>  H        0.5329605529    -0.3700207084     2.3027745370
| 17>  H       -1.7170128062    -0.1181552288     1.2889269704
| 18>  H       -1.3436275622    -1.3738336245     0.0894143152
| 19>  H       -1.4727445816    -1.7976651245     1.8103724596
| 20>  H        2.2073721507    -1.9126558010    -0.5811213811
| 21>  H        3.0981155062    -1.3638255421     0.8257177965
| 22>  H        2.4281846252    -3.9376737346     1.1467046749
| 23> *
| 24>
| 25>                          ****END OF INPUT****

CARTESIAN COORDINATES (ANGSTROEM)
---------------------------------
  C      0.636531    1.444327    0.507973
  O      0.919709    0.074113    0.321838
  C      0.358371   -0.786384    1.293541
  C     -1.142305   -1.029697    1.108091
  C      1.138132   -2.100077    1.255155
  O      0.752463   -3.079025    1.859248
  C      2.433654   -2.165225    0.466250
  O      3.028476   -3.423737    0.583364
  H      0.947955    1.787376    1.506598
  H      1.204138    1.992606   -0.247145
  H     -0.430208    1.672452    0.378780
  H      0.532961   -0.370021    2.302775
  H     -1.717013   -0.118155    1.288927
  H     -1.343628   -1.373834    0.089414
  H     -1.472745   -1.797665    1.810372
  H      2.207372   -1.912656   -0.581121
  H      3.098116   -1.363826    0.825718
  H      2.428185   -3.937674    1.146705

 Total Charge           Charge          ....    0
 Multiplicity           Mult            ....    1
 Number of Electrons    NEL             ....   64
 Basis Dimension        Dim             ....  308

ORBITAL ENERGIES
----------------

  NO   OCC          E(Eh)            E(eV)
   0   2.0000     -20.578959      -559.9819
   1   2.0000     -20.563992      -559.5747
   2   2.0000     -20.549592      -559.1828
   3   2.0000     -11.342777      -308.6527
   4   2.0000     -11.310703      -307.7799
   5   2.0000     -11.289958      -307.2154
   6   2.0000     -11.285293      -307.0884
   7   2.0000     -11.233115      -305.6686
   8   2.0000      -1.419107       -38.6159
   9   2.0000      -1.398738       -38.0616
  10   2.0000      -1.355087       -36.8738
  11   2.0000      -1.063378       -28.9360
  12   2.0000      -0.984885       -26.8001
  13   2.0000      -0.941929       -25.6312
  14   2.0000      -0.868600       -23.6358
  15   2.0000      -0.765626       -20.8337
  16   2.0000      -0.721976       -19.6460
  17   2.0000      -0.695062       -18.9136
  18   2.0000      -0.681162       -18.5354
  19   2.0000      -0.645991       -17.5783
  20   2.0000      -0.642140       -17.4735
  21   2.0000      -0.608370       -16.5546
  22   2.0000      -0.595253       -16.1977
  23   2.0000      -0.581110       -15.8128
  24   2.0000      -0.561214       -15.2714
  25   2.0000      -0.540824       -14.7166
  26   2.0000      -0.533687       -14.5223
  27   2.0000      -0.517956       -14.0943
  28   2.0000      -0.501431       -13.6446
  29   2.0000      -0.451846       -12.2953
  30   2.0000      -0.443719       -12.0742
  31   2.0000      -0.423081       -11.5126
  32   0.0000       0.115564         3.1447
  33   0.0000       0.142188         3.8691
  34   0.0000       0.160737         4.3739
  35   0.0000       0.162680         4.4267
  36   0.0000       0.180431         4.9098

MULLIKEN ATOMIC CHARGES
-----------------------
   0 C :   -0.222361
   1 O :   -0.313969
   2 C :    0.092756
   3 C :   -0.407362
   4 C :    0.177123
   5 O :   -0.330494
   6 C :   -0.006919
   7 O :   -0.485212
   8 H :    0.117095
   9 H :    0.146918
  10 H :    0.121985
  11 H :    0.099044
  12 H :    0.136623
  13 H :    0.135655
  14 H :    0.159195
  15 H :    0.127761
  16 H :    0.118233
  17 H :    0.333930
Sum of atomic charges:    0.0000000

LOEWDIN ATOMIC CHARGES
----------------------
   0 C :   -0.350055
   1 O :    0.161957
   2 C :   -0.324707
   3 C :   -0.285561
   4 C :   -0.300001
   5 O :    0.142694
   6 C :   -0.338230
   7 O :   -0.036222
   8 H :    0.104318
   9 H :    0.116714
  10 H :    0.104388
  11 H :    0.152611
  12 H :    0.123294
  13 H :    0.130197
  14 H :    0.137116
  15 H :    0.141349
  16 H :    0.139751
  17 H :    0.180386

  Mayer bond orders larger than 0.1
B(  0-C ,  1-O ) :   0.9051 B(  0-C ,  8-H ) :   0.9355 B(  0-C ,  9-H ) :   0.9397
B(  0-C , 10-H ) :   0.9343 B(  1-O ,  2-C ) :   0.9403 B(  2-C ,  3-C ) :   0.9257
B(  2-C ,  4-C ) :   0.8933 B(  2-C , 11-H ) :   0.9117 B(  3-C , 12-H ) :   0.9338
B(  3-C , 13-H ) :   0.9291 B(  3-C , 14-H ) :   0.9238 B(  4-C ,  5-O ) :   1.8900
B(  4-C ,  6-C ) :   0.9654 B(  6-C ,  7-O ) :   1.0033 B(  6-C , 15-H ) :   0.9003
B(  6-C , 16-H ) :   0.8971 B(  7-O , 17-H ) :   0.8073

MP2 TOTAL ENERGY:     -421.414365419 Eh
FINAL SINGLE POINT ENERGY      -421.414365419325

DIPOLE MOMENT
-------------
                                X             Y             Z
Electronic contribution:      3.81500      -6.53056       0.76996
Nuclear contribution   :     -4.53419       7.90578      -0.61773
                        -----------------------------------------
Total Dipole Moment    :     -0.71919       1.37522       0.15223
                        -----------------------------------------
Magnitude (a.u.)       :      1.55937
Magnitude (Debye)      :      3.96359

                             ****ORCA TERMINATED NORMALLY****
TOTAL RUN TIME: 0 days 0 hours 12 minutes 11 seconds 500 msec
