                         Program Version 3.0.3 - RELEASE   -
|  1> ! RI-MP2 RIJK def2-TZVP def2-TZVP/C def2-TZVP/JK TIGHTSCF
|  2> % maxcore 2000
|  3> % mp2 density relaxed end
|  4> *xyz 0 1
|  5>  C        0.0351933268     1.5381832594    -0.0474861454
|  6>  C       -0.0061601228    -0.0022831587     0.0432508074
|  7>  C        0.6920316856    -0.4973060833     1.3293383334
|  8>  O        2.0331218441    -0.0745755287     1.4307744362
|  9>  C       -1.4616592349    -0.5024329177     0.0334008186
| 10>  O       -2.1113430133    -0.0038657403    -1.1258155216
| 11>  C        0.7057524981    -0.5525016219    -1.1856964943
| 12>  O        1.8073766758    -1.0555061249    -1.1772278056
| 13>  H        1.0613134805     1.8884818411     0.0796071908
| 14>  H       -0.3607623174     1.8944455804    -1.0010237152
| 15>  H       -0.5773803236     1.9691650545     0.7520036913
| 16>  H        0.1666381387    -0.0898914299     2.2010282110
| 17>  H        0.6125428545    -1.5954303390     1.3811459590
| 18>  H        2.4849646075    -0.4789708699     0.6772530326
| 19>  H       -1.4780111047    -1.6039516291     0.0537931905
| 20>  H       -1.9566711386    -0.1483380962     0.9521133880
| 21>  H       -3.0004634343    -0.3682958196    -1.1576803585
| 22>  H        0.1404077581    -0.4506847463    -2.1338125984
| 23> *
| 24>
| 25>                          ****END OF INPUT****

CARTESIAN COORDINATES (ANGSTROEM)
---------------------------------
  C      0.035193    1.538183   -0.047486
  C     -0.006160   -0.002283    0.043251
  C      0.692032   -0.497306    1.329338
  O      2.033122   -0.074576    1.430774
  C     -1.461659   -0.502433    0.033401
  O     -2.111343   -0.003866   -1.125816
  C      0.705752   -0.552502   -1.185696
  O      1.807377   -1.055506   -1.177228
  H      1.061313    1.888482    0.079607
  H     -0.360762    1.894446   -1.001024
  H     -0.577380    1.969165    0.752004
  H      0.166638   -0.089891    2.201028
  H      0.612543   -1.595430    1.381146
  H      2.484965   -0.478971    0.677253
  H     -1.478011   -1.603952    0.053793
  H     -1.956671   -0.148338    0.952113
  H     -3.000463   -0.368296   -1.157680
  H      0.140408   -0.450685   -2.133813

 Total Charge           Charge          ....    0
 Multiplicity           Mult            ....    1
 Number of Electrons    NEL             ....   64
 Basis Dimension        Dim             ....  308

ORBITAL ENERGIES
----------------

  NO   OCC          E(Eh)            E(eV)
   0   2.0000     -20.579560      -559.9983
   1   2.0000     -20.566481      -559.6424
   2   2.0000     -20.545279      -559.0655
   3   2.0000     -11.336929      -308.4935
   4   2.0000     -11.301942      -307.5415
   5   2.0000     -11.281156      -306.9759
   6   2.0000     -11.256124      -306.2947
   7   2.0000     -11.225746      -305.4681
   8   2.0000      -1.406661       -38.2772
   9   2.0000      -1.385196       -37.6931
  10   2.0000      -1.354206       -36.8498
  11   2.0000      -1.106235       -30.1022
  12   2.0000      -0.946072       -25.7439
  13   2.0000      -0.914631       -24.8884
  14   2.0000      -0.880884       -23.9701
  15   2.0000      -0.769116       -20.9287
  16   2.0000      -0.725746       -19.7485
  17   2.0000      -0.686299       -18.6752
  18   2.0000      -0.672661       -18.3040
  19   2.0000      -0.662703       -18.0331
  20   2.0000      -0.627483       -17.0747
  21   2.0000      -0.618094       -16.8192
  22   2.0000      -0.582711       -15.8564
  23   2.0000      -0.566720       -15.4212
  24   2.0000      -0.559514       -15.2252
  25   2.0000      -0.540915       -14.7190
  26   2.0000      -0.532505       -14.4902
  27   2.0000      -0.504766       -13.7354
  28   2.0000      -0.479194       -13.0395
  29   2.0000      -0.472177       -12.8486
  30   2.0000      -0.438611       -11.9352
  31   2.0000      -0.412263       -11.2183
  32   0.0000       0.114167         3.1066
  33   0.0000       0.128480         3.4961
  34   0.0000       0.149333         4.0635
  35   0.0000       0.174439         4.7467
  36   0.0000       0.177819         4.8387

MULLIKEN ATOMIC CHARGES
-----------------------
   0 C :   -0.422673
   1 C :    0.082845
   2 C :   -0.030197
   3 O :   -0.481804
   4 C :   -0.106507
   5 O :   -0.472018
   6 C :    0.075979
   7 O :   -0.312684
   8 H :    0.158650
   9 H :    0.155022
  10 H :    0.126501
  11 H :    0.112052
  12 H :    0.107723
  13 H :    0.334917
  14 H :    0.113980
  15 H :    0.111053
  16 H :    0.321249
  17 H :    0.125911
Sum of atomic charges:   -0.0000000

LOEWDIN ATOMIC CHARGES
----------------------
   0 C :   -0.255884
   1 C :   -0.325357
   2 C :   -0.308660
   3 O :   -0.036969
   4 C :   -0.303952
   5 O :   -0.037525
   6 C :   -0.235226
   7 O :    0.120401
   8 H :    0.134035
   9 H :    0.131498
  10 H :    0.131466
  11 H :    0.132816
  12 H :    0.123901
  13 H :    0.175073
  14 H :    0.123844
  15 H :    0.125428
  16 H :    0.176987
  17 H :    0.128125

  Mayer bond orders larger than 0.1
B(  0-C ,  1-C ) :   0.8939 B(  0-C ,  8-H ) :   0.9256 B(  0-C ,  9-H ) :   0.9256
B(  0-C , 10-H ) :   0.9262 B(  1-C ,  2-C ) :   0.9082 B(  1-C ,  4-C ) :   0.8931
B(  1-C ,  6-C ) :   0.8536 B(  2-C ,  3-O ) :   0.9518 B(  2-C , 11-H ) :   0.9253
B(  2-C , 12-H ) :   0.9260 B(  3-O , 13-H ) :   0.8167 B(  4-C ,  5-O ) :   1.0096
B(  4-C , 14-H ) :   0.9202 B(  4-C , 15-H ) :   0.9217 B(  5-O , 16-H ) :   0.8444
B(  6-C ,  7-O ) :   1.8908 B(  6-C , 17-H ) :   0.9367

MP2 TOTAL ENERGY:     -421.422952872 Eh
FINAL SINGLE POINT ENERGY      -421.422952872475

DIPOLE MOMENT
-------------
                                X             Y             Z
Electronic contribution:      3.12580      -2.55878      -2.53310
Nuclear contribution   :     -4.64232       2.31842       2.48277
                        -----------------------------------------
Total Dipole Moment    :     -1.51652      -0.24036      -0.05033
                        -----------------------------------------
Magnitude (a.u.)       :      1.53627
Magnitude (Debye)      :      3.90490

                             ****ORCA TERMINATED NORMALLY****
TOTAL RUN TIME: 0 days 0 hours 12 minutes 53 seconds 785 msec
