                         Program Version 3.0.3 - RELEASE   -
|  1> ! RI-MP2 RIJK def2-TZVP def2-TZVP/C def2-TZVP/JK TIGHTSCF
|  2> % maxcore 2000
|  3> % mp2 density relaxed end
|  4> *xyz 0 1
|  5>  C       -0.2782653990     1.1657842586     0.2278142812
|  6>  O       -0.3613591522    -0.1717527559    -0.2133376014
|  7>  C        0.6432676498    -0.5595147469    -1.1458632589
|  8>  C        2.0037330543    -0.7797285940    -0.4859001604
|  9>  C        0.1052175873    -1.8367998830    -1.8063690551
| 10>  C       -1.2483022378    -1.5421467117    -2.4172909951
| 11>  O       -1.4213333693    -0.8298306551    -3.3792272060
| 12>  C       -2.4832959996    -2.1800015459    -1.7672764186
| 13>  O       -2.4312218745    -3.0205517464    -0.9096140461
| 14>  H        0.6195469446     1.3545515037     0.8327644431
| 15>  H       -0.2832366468     1.8711838089    -0.6170215148
| 16>  H       -1.1577864668     1.3517577616     0.8487740515
| 17>  H        0.7279857785     0.2159442855    -1.9242541899
| 18>  H        1.9288986995    -1.5438862772     0.2938464068
| 19>  H        2.7393447096    -1.1076802114    -1.2269337090
| 20>  H        2.3809500171     0.1406600253    -0.0314808814
| 21>  H        0.7890482665    -2.1551829907    -2.5988756904
| 22>  H        0.0118600212    -2.6325859298    -1.0634775751
| 23>  H       -3.4336115024    -1.8006917257    -2.1992316003
| 24> *
| 25>
| 26>                          ****END OF INPUT****

CARTESIAN COORDINATES (ANGSTROEM)
---------------------------------
  C     -0.278265    1.165784    0.227814
  O     -0.361359   -0.171753   -0.213338
  C      0.643268   -0.559515   -1.145863
  C      2.003733   -0.779729   -0.485900
  C      0.105218   -1.836800   -1.806369
  C     -1.248302   -1.542147   -2.417291
  O     -1.421333   -0.829831   -3.379227
  C     -2.483296   -2.180002   -1.767276
  O     -2.431222   -3.020552   -0.909614
  H      0.619547    1.354552    0.832764
  H     -0.283237    1.871184   -0.617022
  H     -1.157786    1.351758    0.848774
  H      0.727986    0.215944   -1.924254
  H      1.928899   -1.543886    0.293846
  H      2.739345   -1.107680   -1.226934
  H      2.380950    0.140660   -0.031481
  H      0.789048   -2.155183   -2.598876
  H      0.011860   -2.632586   -1.063478
  H     -3.433612   -1.800692   -2.199232

 Total Charge           Charge          ....    0
 Multiplicity           Mult            ....    1
 Number of Electrons    NEL             ....   70
 Basis Dimension        Dim             ....  339

ORBITAL ENERGIES
----------------

  NO   OCC          E(Eh)            E(eV)
   0   2.0000     -20.586267      -560.1808
   1   2.0000     -20.576980      -559.9281
   2   2.0000     -20.566521      -559.6435
   3   2.0000     -11.349406      -308.8330
   4   2.0000     -11.347281      -308.7752
   5   2.0000     -11.299879      -307.4853
   6   2.0000     -11.278543      -306.9048
   7   2.0000     -11.244085      -305.9671
   8   2.0000     -11.228625      -305.5464
   9   2.0000      -1.427370       -38.8407
  10   2.0000      -1.409522       -38.3550
  11   2.0000      -1.386365       -37.7249
  12   2.0000      -1.083266       -29.4772
  13   2.0000      -0.992563       -27.0090
  14   2.0000      -0.937922       -25.5222
  15   2.0000      -0.914462       -24.8838
  16   2.0000      -0.818554       -22.2740
  17   2.0000      -0.756549       -20.5868
  18   2.0000      -0.705823       -19.2064
  19   2.0000      -0.686976       -18.6936
  20   2.0000      -0.674325       -18.3493
  21   2.0000      -0.660856       -17.9828
  22   2.0000      -0.649557       -17.6753
  23   2.0000      -0.620740       -16.8912
  24   2.0000      -0.581485       -15.8230
  25   2.0000      -0.572355       -15.5746
  26   2.0000      -0.564236       -15.3536
  27   2.0000      -0.551194       -14.9988
  28   2.0000      -0.540871       -14.7178
  29   2.0000      -0.514603       -14.0031
  30   2.0000      -0.506340       -13.7782
  31   2.0000      -0.499591       -13.5946
  32   2.0000      -0.475810       -12.9475
  33   2.0000      -0.436670       -11.8824
  34   2.0000      -0.410063       -11.1584
  35   0.0000       0.063393         1.7250
  36   0.0000       0.133352         3.6287
  37   0.0000       0.156064         4.2467
  38   0.0000       0.171583         4.6690
  39   0.0000       0.181919         4.9503

MULLIKEN ATOMIC CHARGES
-----------------------
   0 C :   -0.226628
   1 O :   -0.313536
   2 C :    0.042794
   3 C :   -0.389215
   4 C :   -0.183652
   5 C :    0.220549
   6 O :   -0.268306
   7 C :    0.091710
   8 O :   -0.244711
   9 H :    0.115871
  10 H :    0.119794
  11 H :    0.143909
  12 H :    0.090312
  13 H :    0.136913
  14 H :    0.134593
  15 H :    0.136137
  16 H :    0.140165
  17 H :    0.148584
  18 H :    0.104714
Sum of atomic charges:   -0.0000000

LOEWDIN ATOMIC CHARGES
----------------------
   0 C :   -0.354303
   1 O :    0.157326
   2 C :   -0.343428
   3 C :   -0.293344
   4 C :   -0.210994
   5 C :   -0.320303
   6 O :    0.178916
   7 C :   -0.255358
   8 O :    0.163294
   9 H :    0.102316
  10 H :    0.104602
  11 H :    0.115736
  12 H :    0.141175
  13 H :    0.129161
  14 H :    0.129225
  15 H :    0.123848
  16 H :    0.156840
  17 H :    0.155827
  18 H :    0.119461

  Mayer bond orders larger than 0.1
B(  0-C ,  1-O ) :   0.9116 B(  0-C ,  9-H ) :   0.9342 B(  0-C , 10-H ) :   0.9348
B(  0-C , 11-H ) :   0.9397 B(  1-O ,  2-C ) :   0.9184 B(  2-C ,  3-C ) :   0.9169
B(  2-C ,  4-C ) :   0.9293 B(  2-C , 12-H ) :   0.9326 B(  3-C , 13-H ) :   0.9309
B(  3-C , 14-H ) :   0.9356 B(  3-C , 15-H ) :   0.9375 B(  4-C ,  5-C ) :   0.8758
B(  4-C , 16-H ) :   0.9084 B(  4-C , 17-H ) :   0.9015 B(  5-C ,  6-O ) :   1.9479
B(  5-C ,  7-C ) :   0.8693 B(  7-C ,  8-O ) :   1.9559 B(  7-C , 18-H ) :   0.9184

MP2 TOTAL ENERGY:     -459.429661529 Eh
FINAL SINGLE POINT ENERGY      -459.429661528762

DIPOLE MOMENT
-------------
                                X             Y             Z
Electronic contribution:     -8.89306      -5.38204      -4.78198
Nuclear contribution   :      9.65493       5.86286       4.93406
                        -----------------------------------------
Total Dipole Moment    :      0.76187       0.48082       0.15208
                        -----------------------------------------
Magnitude (a.u.)       :      0.91365
Magnitude (Debye)      :      2.32232

                             ****ORCA TERMINATED NORMALLY****
TOTAL RUN TIME: 0 days 0 hours 16 minutes 39 seconds 244 msec
