                         Program Version 3.0.3 - RELEASE   -
|  1> ! RI-MP2 RIJK def2-TZVP def2-TZVP/C def2-TZVP/JK TIGHTSCF
|  2> % maxcore 2000
|  3> % mp2 density relaxed end
|  4> *xyz 0 1
|  5>  C       -0.0914564271     1.4933854317     0.0726622331
|  6>  C       -0.0277195762    -0.0208101275     0.0168798848
|  7>  O        0.6890443606    -0.4656202200     1.1775713411
|  8>  C        0.8320896126    -1.7984514419     1.3023028880
|  9>  C        1.4292143188    -2.4356625515     2.3745488273
| 10>  N        1.9779379979    -1.9939133743     3.5854844345
| 11>  N        1.3085540227    -3.7467138548     2.0396119964
| 12>  N        0.7076505708    -3.9167267531     0.8508307738
| 13>  N        0.4048435066    -2.7180048776     0.4076725847
| 14>  H        0.9134507577     1.9253904009     0.0734335682
| 15>  H       -0.6310500500     1.8755534090    -0.7987966806
| 16>  H       -0.6111241308     1.8284918425     0.9749692180
| 17>  H       -1.0281266588    -0.4694010617     0.0142906884
| 18>  H        0.4878924240    -0.3722159327    -0.8843287921
| 19>  H        2.9939866856    -1.9919065840     3.5770215607
| 20>  H        1.6704417393    -1.0469941263     3.7768163559
| 21>  H        1.6009314963    -4.5491250887     2.5745592480
| 22> *
| 23>
| 24>                          ****END OF INPUT****

CARTESIAN COORDINATES (ANGSTROEM)
---------------------------------
  C     -0.091456    1.493385    0.072662
  C     -0.027720   -0.020810    0.016880
  O      0.689044   -0.465620    1.177571
  C      0.832090   -1.798451    1.302303
  C      1.429214   -2.435663    2.374549
  N      1.977938   -1.993913    3.585484
  N      1.308554   -3.746714    2.039612
  N      0.707651   -3.916727    0.850831
  N      0.404844   -2.718005    0.407673
  H      0.913451    1.925390    0.073434
  H     -0.631050    1.875553   -0.798797
  H     -0.611124    1.828492    0.974969
  H     -1.028127   -0.469401    0.014291
  H      0.487892   -0.372216   -0.884329
  H      2.993987   -1.991907    3.577022
  H      1.670442   -1.046994    3.776816
  H      1.600931   -4.549125    2.574559

 Total Charge           Charge          ....    0
 Multiplicity           Mult            ....    1
 Number of Electrons    NEL             ....   68
 Basis Dimension        Dim             ....  327

ORBITAL ENERGIES
----------------

  NO   OCC          E(Eh)            E(eV)
   0   2.0000     -20.583059      -560.0935
   1   2.0000     -15.652106      -425.9155
   2   2.0000     -15.631221      -425.3472
   3   2.0000     -15.588615      -424.1878
   4   2.0000     -15.585018      -424.0899
   5   2.0000     -11.307597      -307.6954
   6   2.0000     -11.303983      -307.5970
   7   2.0000     -11.282034      -306.9998
   8   2.0000     -11.220439      -305.3237
   9   2.0000      -1.441653       -39.2294
  10   2.0000      -1.401506       -38.1369
  11   2.0000      -1.238912       -33.7125
  12   2.0000      -1.177400       -32.0387
  13   2.0000      -1.059988       -28.8437
  14   2.0000      -1.013443       -27.5772
  15   2.0000      -0.885700       -24.1011
  16   2.0000      -0.850788       -23.1511
  17   2.0000      -0.808171       -21.9915
  18   2.0000      -0.749339       -20.3906
  19   2.0000      -0.702614       -19.1191
  20   2.0000      -0.677382       -18.4325
  21   2.0000      -0.670659       -18.2496
  22   2.0000      -0.658825       -17.9275
  23   2.0000      -0.624554       -16.9950
  24   2.0000      -0.577489       -15.7143
  25   2.0000      -0.552135       -15.0244
  26   2.0000      -0.542132       -14.7522
  27   2.0000      -0.513823       -13.9818
  28   2.0000      -0.511693       -13.9239
  29   2.0000      -0.487551       -13.2669
  30   2.0000      -0.478775       -13.0281
  31   2.0000      -0.428273       -11.6539
  32   2.0000      -0.402575       -10.9546
  33   2.0000      -0.311888        -8.4869
  34   0.0000       0.120076         3.2674
  35   0.0000       0.142701         3.8831
  36   0.0000       0.143951         3.9171
  37   0.0000       0.153033         4.1643
  38   0.0000       0.188664         5.1338

MULLIKEN ATOMIC CHARGES
-----------------------
   0 C :   -0.359777
   1 C :   -0.048714
   2 O :   -0.306240
   3 C :    0.222150
   4 C :    0.045366
   5 N :   -0.537472
   6 N :   -0.058230
   7 N :   -0.190945
   8 N :   -0.183437
   9 H :    0.129292
  10 H :    0.131268
  11 H :    0.128717
  12 H :    0.118028
  13 H :    0.120256
  14 H :    0.261537
  15 H :    0.266499
  16 H :    0.261703
Sum of atomic charges:   -0.0000000

LOEWDIN ATOMIC CHARGES
----------------------
   0 C :   -0.316935
   1 C :   -0.312217
   2 O :    0.231826
   3 C :   -0.398410
   4 C :   -0.342039
   5 N :   -0.103364
   6 N :    0.136063
   7 N :   -0.068428
   8 N :    0.001936
   9 H :    0.123874
  10 H :    0.128065
  11 H :    0.123640
  12 H :    0.127144
  13 H :    0.127394
  14 H :    0.171216
  15 H :    0.178140
  16 H :    0.192096

  Mayer bond orders larger than 0.1
B(  0-C ,  1-C ) :   0.9361 B(  0-C ,  9-H ) :   0.9342 B(  0-C , 10-H ) :   0.9355
B(  0-C , 11-H ) :   0.9346 B(  1-C ,  2-O ) :   0.8394 B(  1-C , 12-H ) :   0.9298
B(  1-C , 13-H ) :   0.9303 B(  2-O ,  3-C ) :   1.0952 B(  3-C ,  4-C ) :   1.3360
B(  3-C ,  8-N ) :   1.3481 B(  4-C ,  5-N ) :   1.0997 B(  4-C ,  6-N ) :   1.1959
B(  4-C ,  7-N ) :   0.1780 B(  5-N , 14-H ) :   0.8687 B(  5-N , 15-H ) :   0.8809
B(  6-N ,  7-N ) :   1.0374 B(  6-N , 16-H ) :   0.8605 B(  7-N ,  8-N ) :   1.2357

MP2 TOTAL ENERGY:     -450.580949300 Eh
FINAL SINGLE POINT ENERGY      -450.580949300239

DIPOLE MOMENT
-------------
                                X             Y             Z
Electronic contribution:      1.81231      -9.37542       2.16991
Nuclear contribution   :     -1.01319      10.05804      -1.21152
                        -----------------------------------------
Total Dipole Moment    :      0.79913       0.68262       0.95839
                        -----------------------------------------
Magnitude (a.u.)       :      1.42235
Magnitude (Debye)      :      3.61534

                             ****ORCA TERMINATED NORMALLY****
TOTAL RUN TIME: 0 days 0 hours 15 minutes 38 seconds 206 msec
