                         Program Version 3.0.3 - RELEASE   -
|  1> ! RI-MP2 RIJK def2-TZVP def2-TZVP/C def2-TZVP/JK TIGHTSCF
|  2> % maxcore 2000
|  3> % mp2 density relaxed end
|  4> *xyz 0 1
|  5>  C       -0.6854598821     1.5454066755    -0.0813012166
|  6>  C       -0.1186344630     0.1491738919     0.0078867448
|  7>  C       -1.0852888050    -1.0307190103     0.2862404213
|  8>  O       -0.2405128927    -1.5312278503     1.3516684341
|  9>  C        0.7038326414    -0.4705321163     1.1722554206
| 10>  C        1.8011538609    -0.8390571239     0.1245233604
| 11>  N        0.9949513168    -0.1384605358    -0.9242912155
| 12>  C        3.1305430090    -0.2844155959     0.3221059961
| 13>  C        4.2213080467     0.1782067188     0.5266581706
| 14>  H        0.1184652868     2.2856827464    -0.0757980082
| 15>  H       -1.2487985687     1.6712473251    -1.0140313336
| 16>  H       -1.3654688222     1.7509568359     0.7517150824
| 17>  H       -2.0733179186    -0.7453165859     0.6692849452
| 18>  H       -1.2097715778    -1.7537627335    -0.5304188151
| 19>  H        1.0062724483     0.0123281711     2.1027512684
| 20>  H        1.8567981755    -1.9290635565     0.0157915203
| 21>  H        0.7640701869    -0.6999651554    -1.7380136436
| 22>  H        5.1876410977     0.5851204390     0.6949323283
| 23> *
| 24>
| 25>                          ****END OF INPUT****

CARTESIAN COORDINATES (ANGSTROEM)
---------------------------------
  C     -0.685460    1.545407   -0.081301
  C     -0.118634    0.149174    0.007887
  C     -1.085289   -1.030719    0.286240
  O     -0.240513   -1.531228    1.351668
  C      0.703833   -0.470532    1.172255
  C      1.801154   -0.839057    0.124523
  N      0.994951   -0.138461   -0.924291
  C      3.130543   -0.284416    0.322106
  C      4.221308    0.178207    0.526658
  H      0.118465    2.285683   -0.075798
  H     -1.248799    1.671247   -1.014031
  H     -1.365469    1.750957    0.751715
  H     -2.073318   -0.745317    0.669285
  H     -1.209772   -1.753763   -0.530419
  H      1.006272    0.012328    2.102751
  H      1.856798   -1.929064    0.015792
  H      0.764070   -0.699965   -1.738014
  H      5.187641    0.585120    0.694932

 Total Charge           Charge          ....    0
 Multiplicity           Mult            ....    1
 Number of Electrons    NEL             ....   66
 Basis Dimension        Dim             ....  333

ORBITAL ENERGIES
----------------

  NO   OCC          E(Eh)            E(eV)
   0   2.0000     -20.560117      -559.4692
   1   2.0000     -15.557175      -423.3323
   2   2.0000     -11.293887      -307.3223
   3   2.0000     -11.286977      -307.1342
   4   2.0000     -11.286609      -307.1242
   5   2.0000     -11.275704      -306.8275
   6   2.0000     -11.232578      -305.6540
   7   2.0000     -11.224454      -305.4329
   8   2.0000     -11.224087      -305.4229
   9   2.0000      -1.397340       -38.0236
  10   2.0000      -1.235299       -33.6142
  11   2.0000      -1.054600       -28.6971
  12   2.0000      -1.013891       -27.5894
  13   2.0000      -0.966104       -26.2890
  14   2.0000      -0.922688       -25.1076
  15   2.0000      -0.886061       -24.1110
  16   2.0000      -0.737980       -20.0814
  17   2.0000      -0.729227       -19.8433
  18   2.0000      -0.699735       -19.0408
  19   2.0000      -0.682432       -18.5699
  20   2.0000      -0.663136       -18.0449
  21   2.0000      -0.617298       -16.7975
  22   2.0000      -0.591493       -16.0953
  23   2.0000      -0.573292       -15.6001
  24   2.0000      -0.566045       -15.4029
  25   2.0000      -0.540104       -14.6970
  26   2.0000      -0.519090       -14.1251
  27   2.0000      -0.491111       -13.3638
  28   2.0000      -0.443400       -12.0655
  29   2.0000      -0.434929       -11.8350
  30   2.0000      -0.391480       -10.6527
  31   2.0000      -0.387886       -10.5549
  32   2.0000      -0.375544       -10.2191
  33   0.0000       0.124379         3.3845
  34   0.0000       0.153636         4.1807
  35   0.0000       0.162300         4.4164
  36   0.0000       0.167506         4.5581
  37   0.0000       0.175883         4.7860

MULLIKEN ATOMIC CHARGES
-----------------------
   0 C :   -0.398801
   1 C :    0.011494
   2 C :   -0.001520
   3 O :   -0.328939
   4 C :    0.100515
   5 C :   -0.183920
   6 N :   -0.311016
   7 C :   -0.016624
   8 C :   -0.125465
   9 H :    0.144242
  10 H :    0.129585
  11 H :    0.130697
  12 H :    0.099673
  13 H :    0.087837
  14 H :    0.129524
  15 H :    0.136609
  16 H :    0.204948
  17 H :    0.191162
Sum of atomic charges:   -0.0000000

LOEWDIN ATOMIC CHARGES
----------------------
   0 C :   -0.274621
   1 C :   -0.303338
   2 C :   -0.226897
   3 O :    0.142517
   4 C :   -0.191503
   5 C :   -0.235042
   6 N :    0.059790
   7 C :   -0.089213
   8 C :   -0.089943
   9 H :    0.132721
  10 H :    0.130663
  11 H :    0.128634
  12 H :    0.121465
  13 H :    0.116661
  14 H :    0.134017
  15 H :    0.158239
  16 H :    0.158722
  17 H :    0.127129

  Mayer bond orders larger than 0.1
B(  0-C ,  1-C ) :   0.9171 B(  0-C ,  9-H ) :   0.9371 B(  0-C , 10-H ) :   0.9243
B(  0-C , 11-H ) :   0.9363 B(  1-C ,  2-C ) :   1.0054 B(  1-C ,  4-C ) :   0.9092
B(  1-C ,  6-N ) :   1.0108 B(  2-C ,  3-O ) :   0.9423 B(  2-C , 12-H ) :   0.9083
B(  2-C , 13-H ) :   0.8944 B(  3-O ,  4-C ) :   0.9820 B(  4-C ,  5-C ) :   0.7836
B(  4-C , 14-H ) :   0.9256 B(  5-C ,  6-N ) :   1.0023 B(  5-C ,  7-C ) :   1.1306
B(  5-C ,  8-C ) :  -0.1242 B(  5-C , 15-H ) :   0.9341 B(  6-N , 16-H ) :   0.8690
B(  7-C ,  8-C ) :   2.5886 B(  8-C , 17-H ) :   0.8944

MP2 TOTAL ENERGY:     -401.164818877 Eh
FINAL SINGLE POINT ENERGY      -401.164818877083

DIPOLE MOMENT
-------------
                                X             Y             Z
Electronic contribution:      4.22322      -3.25513       1.43665
Nuclear contribution   :     -4.63034       3.43711      -1.76695
                        -----------------------------------------
Total Dipole Moment    :     -0.40712       0.18198      -0.33030
                        -----------------------------------------
Magnitude (a.u.)       :      0.55494
Magnitude (Debye)      :      1.41056

                             ****ORCA TERMINATED NORMALLY****
TOTAL RUN TIME: 0 days 0 hours 17 minutes 58 seconds 518 msec
