                         Program Version 3.0.3 - RELEASE   -
|  1> ! RI-MP2 RIJK def2-TZVP def2-TZVP/C def2-TZVP/JK TIGHTSCF
|  2> % maxcore 2000
|  3> % mp2 density relaxed end
|  4> *xyz 0 1
|  5>  C       -0.0828489069     1.6035285433    -0.1972710406
|  6>  C       -0.0245342735     0.0801424113    -0.0810230611
|  7>  O        0.8720513597    -0.3174673872     0.9582797021
|  8>  C       -1.3865113729    -0.6040219400     0.1692746157
|  9>  C       -1.2107134029    -2.1315160761     0.2047643001
| 10>  C       -2.1801799139    -0.0922461314     1.3784195360
| 11>  C       -1.5594772498    -0.2604731373     2.7567658938
| 12>  C       -3.0770510008     1.1092762573     1.1717932641
| 13>  C       -3.6813983355    -0.2673949900     1.2964104521
| 14>  H        0.9116481574     2.0026672588    -0.4314176966
| 15>  H       -0.7563040566     1.9132192176    -1.0031167541
| 16>  H       -0.4237802959     2.0599380430     0.7347700305
| 17>  H        0.3429999214    -0.3198455893    -1.0422493776
| 18>  H        1.7213621657     0.1025379141     0.7914058897
| 19>  H       -1.9892624290    -0.3637571584    -0.7180881296
| 20>  H       -0.5487012211    -2.4340329414     1.0188471106
| 21>  H       -2.1756877272    -2.6295040975     0.3369066439
| 22>  H       -0.7682141998    -2.4926442518    -0.7299906512
| 23>  H       -0.6099927982     0.2720398567     2.8395439021
| 24>  H       -2.2404739659     0.1144165088     3.5280432409
| 25>  H       -1.3597451874    -1.3143071997     2.9781584794
| 26>  H       -3.2024350493     1.8030031100     1.9969909731
| 27>  H       -3.0963032090     1.5812986253     0.1953324186
| 28>  H       -4.1000683162    -0.7203560844     0.4032962418
| 29>  H       -4.2165555024    -0.5132130115     2.2076107364
| 30> *
| 31>
| 32>                          ****END OF INPUT****

CARTESIAN COORDINATES (ANGSTROEM)
---------------------------------
  C     -0.082849    1.603529   -0.197271
  C     -0.024534    0.080142   -0.081023
  O      0.872051   -0.317467    0.958280
  C     -1.386511   -0.604022    0.169275
  C     -1.210713   -2.131516    0.204764
  C     -2.180180   -0.092246    1.378420
  C     -1.559477   -0.260473    2.756766
  C     -3.077051    1.109276    1.171793
  C     -3.681398   -0.267395    1.296410
  H      0.911648    2.002667   -0.431418
  H     -0.756304    1.913219   -1.003117
  H     -0.423780    2.059938    0.734770
  H      0.343000   -0.319846   -1.042249
  H      1.721362    0.102538    0.791406
  H     -1.989262   -0.363757   -0.718088
  H     -0.548701   -2.434033    1.018847
  H     -2.175688   -2.629504    0.336907
  H     -0.768214   -2.492644   -0.729991
  H     -0.609993    0.272040    2.839544
  H     -2.240474    0.114417    3.528043
  H     -1.359745   -1.314307    2.978158
  H     -3.202435    1.803003    1.996991
  H     -3.096303    1.581299    0.195332
  H     -4.100068   -0.720356    0.403296
  H     -4.216556   -0.513213    2.207611

 Total Charge           Charge          ....    0
 Multiplicity           Mult            ....    1
 Number of Electrons    NEL             ....   72
 Basis Dimension        Dim             ....  375

ORBITAL ENERGIES
----------------

  NO   OCC          E(Eh)            E(eV)
   0   2.0000     -20.549565      -559.1821
   1   2.0000     -11.277298      -306.8709
   2   2.0000     -11.228519      -305.5435
   3   2.0000     -11.225354      -305.4574
   4   2.0000     -11.215743      -305.1959
   5   2.0000     -11.215015      -305.1761
   6   2.0000     -11.213267      -305.1285
   7   2.0000     -11.201668      -304.8129
   8   2.0000     -11.200556      -304.7826
   9   2.0000      -1.356857       -36.9220
  10   2.0000      -1.149201       -31.2714
  11   2.0000      -1.048847       -28.5406
  12   2.0000      -0.984439       -26.7880
  13   2.0000      -0.945340       -25.7240
  14   2.0000      -0.868440       -23.6315
  15   2.0000      -0.815780       -22.1985
  16   2.0000      -0.810539       -22.0559
  17   2.0000      -0.720082       -19.5944
  18   2.0000      -0.695895       -18.9363
  19   2.0000      -0.642518       -17.4838
  20   2.0000      -0.620592       -16.8872
  21   2.0000      -0.609503       -16.5854
  22   2.0000      -0.597069       -16.2471
  23   2.0000      -0.559584       -15.2270
  24   2.0000      -0.556252       -15.1364
  25   2.0000      -0.548272       -14.9192
  26   2.0000      -0.528771       -14.3886
  27   2.0000      -0.522427       -14.2160
  28   2.0000      -0.508569       -13.8389
  29   2.0000      -0.505209       -13.7474
  30   2.0000      -0.494941       -13.4680
  31   2.0000      -0.464566       -12.6415
  32   2.0000      -0.455325       -12.3900
  33   2.0000      -0.434440       -11.8217
  34   2.0000      -0.396121       -10.7790
  35   2.0000      -0.381048       -10.3688
  36   0.0000       0.126521         3.4428
  37   0.0000       0.155104         4.2206
  38   0.0000       0.160812         4.3759
  39   0.0000       0.164327         4.4716
  40   0.0000       0.184959         5.0330

MULLIKEN ATOMIC CHARGES
-----------------------
   0 C :   -0.431517
   1 C :    0.081083
   2 O :   -0.478288
   3 C :   -0.004152
   4 C :   -0.430842
   5 C :    0.074984
   6 C :   -0.411185
   7 C :   -0.283925
   8 C :   -0.288264
   9 H :    0.126374
  10 H :    0.122781
  11 H :    0.154988
  12 H :    0.079908
  13 H :    0.308374
  14 H :    0.086807
  15 H :    0.150577
  16 H :    0.133918
  17 H :    0.123659
  18 H :    0.141674
  19 H :    0.117826
  20 H :    0.129836
  21 H :    0.125912
  22 H :    0.120755
  23 H :    0.122282
  24 H :    0.126434
Sum of atomic charges:    0.0000000

LOEWDIN ATOMIC CHARGES
----------------------
   0 C :   -0.301739
   1 C :   -0.346358
   2 O :   -0.017443
   3 C :   -0.226928
   4 C :   -0.283454
   5 C :   -0.250367
   6 C :   -0.264685
   7 C :   -0.217448
   8 C :   -0.214291
   9 H :    0.118894
  10 H :    0.126070
  11 H :    0.128795
  12 H :    0.135574
  13 H :    0.171539
  14 H :    0.163623
  15 H :    0.127728
  16 H :    0.124183
  17 H :    0.122001
  18 H :    0.126476
  19 H :    0.124897
  20 H :    0.127030
  21 H :    0.131651
  22 H :    0.130367
  23 H :    0.131914
  24 H :    0.131973

  Mayer bond orders larger than 0.1
B(  0-C ,  1-C ) :   0.9185 B(  0-C ,  9-H ) :   0.9339 B(  0-C , 10-H ) :   0.9351
B(  0-C , 11-H ) :   0.9351 B(  1-C ,  2-O ) :   0.9591 B(  1-C ,  3-C ) :   0.8985
B(  1-C , 12-H ) :   0.9284 B(  2-O , 13-H ) :   0.8464 B(  3-C ,  4-C ) :   0.9134
B(  3-C ,  5-C ) :   0.9017 B(  3-C , 14-H ) :   0.9219 B(  4-C , 15-H ) :   0.9365
B(  4-C , 16-H ) :   0.9388 B(  4-C , 17-H ) :   0.9368 B(  5-C ,  6-C ) :   0.9289
B(  5-C ,  7-C ) :   0.8749 B(  5-C ,  8-C ) :   0.8615 B(  6-C , 18-H ) :   0.9297
B(  6-C , 19-H ) :   0.9265 B(  6-C , 20-H ) :   0.9384 B(  7-C ,  8-C ) :   0.9195
B(  7-C , 21-H ) :   0.9286 B(  7-C , 22-H ) :   0.9223 B(  8-C , 23-H ) :   0.9207
B(  8-C , 24-H ) :   0.9291

MP2 TOTAL ENERGY:     -388.814257012 Eh
FINAL SINGLE POINT ENERGY      -388.814257012382

DIPOLE MOMENT
-------------
                                X             Y             Z
Electronic contribution:      1.76405      -0.25033       0.03291
Nuclear contribution   :     -1.49882       0.61294      -0.46451
                        -----------------------------------------
Total Dipole Moment    :      0.26523       0.36261      -0.43160
                        -----------------------------------------
Magnitude (a.u.)       :      0.62298
Magnitude (Debye)      :      1.58350

                             ****ORCA TERMINATED NORMALLY****
TOTAL RUN TIME: 0 days 0 hours 25 minutes 44 seconds 305 msec
