                         Program Version 3.0.3 - RELEASE   -
|  1> ! RI-MP2 RIJK def2-TZVP def2-TZVP/C def2-TZVP/JK TIGHTSCF
|  2> % maxcore 2000
|  3> % mp2 density relaxed end
|  4> *xyz 0 1
|  5>  C       -0.1461464899     1.5485033946     0.0963612250
|  6>  N        0.0411409247     0.1114061683     0.0667006084
|  7>  C       -1.1665057282    -0.7252115012     0.3030652579
|  8>  C       -0.3556689021    -1.5203791356     1.3432397407
|  9>  O       -0.5331232532    -2.5018677045     2.0043398245
| 10>  C        0.7591604014    -0.5306528432     1.1808484802
| 11>  C        2.2361911312    -0.7707708816     1.3115093817
| 12>  C        1.5362507710     0.1114079690     2.3101480537
| 13>  H        0.8203824579     2.0543431681     0.0037180311
| 14>  H       -0.7569290834     1.8508256363    -0.7598409756
| 15>  H       -0.6389235381     1.9116490583     1.0169754865
| 16>  H       -2.0063654208    -0.1868051854     0.7683029934
| 17>  H       -1.5285898670    -1.2711534248    -0.5734761830
| 18>  H        2.5473050764    -1.7635389689     1.6192988672
| 19>  H        2.8709670102    -0.2948102194     0.5714724056
| 20>  H        1.7067373865     1.1809126501     2.2482817342
| 21>  H        1.3592399332    -0.2652065601     3.3120659384
| 22> *
| 23>
| 24>                          ****END OF INPUT****

CARTESIAN COORDINATES (ANGSTROEM)
---------------------------------
  C     -0.146146    1.548503    0.096361
  N      0.041141    0.111406    0.066701
  C     -1.166506   -0.725212    0.303065
  C     -0.355669   -1.520379    1.343240
  O     -0.533123   -2.501868    2.004340
  C      0.759160   -0.530653    1.180848
  C      2.236191   -0.770771    1.311509
  C      1.536251    0.111408    2.310148
  H      0.820382    2.054343    0.003718
  H     -0.756929    1.850826   -0.759841
  H     -0.638924    1.911649    1.016975
  H     -2.006365   -0.186805    0.768303
  H     -1.528590   -1.271153   -0.573476
  H      2.547305   -1.763539    1.619299
  H      2.870967   -0.294810    0.571472
  H      1.706737    1.180913    2.248282
  H      1.359240   -0.265207    3.312066

 Total Charge           Charge          ....    0
 Multiplicity           Mult            ....    1
 Number of Electrons    NEL             ....   60
 Basis Dimension        Dim             ....  302

ORBITAL ENERGIES
----------------

  NO   OCC          E(Eh)            E(eV)
   0   2.0000     -20.555379      -559.3403
   1   2.0000     -15.565698      -423.5642
   2   2.0000     -11.335844      -308.4640
   3   2.0000     -11.277053      -306.8642
   4   2.0000     -11.269794      -306.6667
   5   2.0000     -11.257107      -306.3215
   6   2.0000     -11.247255      -306.0534
   7   2.0000     -11.241566      -305.8986
   8   2.0000      -1.399333       -38.0778
   9   2.0000      -1.269822       -34.5536
  10   2.0000      -1.134729       -30.8776
  11   2.0000      -1.016132       -27.6503
  12   2.0000      -0.890637       -24.2355
  13   2.0000      -0.847598       -23.0643
  14   2.0000      -0.837767       -22.7968
  15   2.0000      -0.709949       -19.3187
  16   2.0000      -0.690502       -18.7895
  17   2.0000      -0.675927       -18.3929
  18   2.0000      -0.654563       -17.8116
  19   2.0000      -0.613615       -16.6973
  20   2.0000      -0.607845       -16.5403
  21   2.0000      -0.583508       -15.8781
  22   2.0000      -0.543286       -14.7836
  23   2.0000      -0.533709       -14.5230
  24   2.0000      -0.530316       -14.4306
  25   2.0000      -0.518450       -14.1078
  26   2.0000      -0.461677       -12.5629
  27   2.0000      -0.458598       -12.4791
  28   2.0000      -0.396637       -10.7930
  29   2.0000      -0.357945        -9.7402
  30   0.0000       0.127088         3.4582
  31   0.0000       0.134082         3.6485
  32   0.0000       0.156472         4.2578
  33   0.0000       0.169519         4.6128
  34   0.0000       0.177984         4.8432

MULLIKEN ATOMIC CHARGES
-----------------------
   0 C :   -0.339835
   1 N :   -0.119190
   2 C :   -0.165073
   3 C :    0.143588
   4 O :   -0.259010
   5 C :    0.040822
   6 C :   -0.249639
   7 C :   -0.283635
   8 H :    0.135891
   9 H :    0.146666
  10 H :    0.117632
  11 H :    0.122260
  12 H :    0.137316
  13 H :    0.146977
  14 H :    0.136411
  15 H :    0.141940
  16 H :    0.146879
Sum of atomic charges:    0.0000000

LOEWDIN ATOMIC CHARGES
----------------------
   0 C :   -0.335619
   1 N :    0.108149
   2 C :   -0.208034
   3 C :   -0.282225
   4 O :    0.163330
   5 C :   -0.237535
   6 C :   -0.189204
   7 C :   -0.193762
   8 H :    0.118705
   9 H :    0.121227
  10 H :    0.104494
  11 H :    0.135061
  12 H :    0.133244
  13 H :    0.142102
  14 H :    0.140935
  15 H :    0.138526
  16 H :    0.140606

  Mayer bond orders larger than 0.1
B(  0-C ,  1-N ) :   0.8849 B(  0-C ,  8-H ) :   0.9383 B(  0-C ,  9-H ) :   0.9366
B(  0-C , 10-H ) :   0.9227 B(  1-N ,  2-C ) :   0.9386 B(  1-N ,  5-C ) :   0.9670
B(  2-C ,  3-C ) :   0.9271 B(  2-C , 11-H ) :   0.9055 B(  2-C , 12-H ) :   0.8988
B(  3-C ,  4-O ) :   2.0455 B(  3-C ,  5-C ) :   0.8881 B(  5-C ,  6-C ) :   0.8223
B(  5-C ,  7-C ) :   0.8234 B(  6-C ,  7-C ) :   0.9353 B(  6-C , 13-H ) :   0.9213
B(  6-C , 14-H ) :   0.9194 B(  7-C , 15-H ) :   0.9185 B(  7-C , 16-H ) :   0.9128

MP2 TOTAL ENERGY:     -363.204863818 Eh
FINAL SINGLE POINT ENERGY      -363.204863817894

DIPOLE MOMENT
-------------
                                X             Y             Z
Electronic contribution:     -1.60557      -6.35051       1.19302
Nuclear contribution   :      1.74672       7.38953      -1.40034
                        -----------------------------------------
Total Dipole Moment    :      0.14115       1.03902      -0.20733
                        -----------------------------------------
Magnitude (a.u.)       :      1.06886
Magnitude (Debye)      :      2.71684

                             ****ORCA TERMINATED NORMALLY****
TOTAL RUN TIME: 0 days 0 hours 12 minutes 28 seconds 472 msec
