                         Program Version 3.0.3 - RELEASE   -
|  1> ! RI-MP2 RIJK def2-TZVP def2-TZVP/C def2-TZVP/JK TIGHTSCF
|  2> % maxcore 2000
|  3> % mp2 density relaxed end
|  4> *xyz 0 1
|  5>  C        0.0265962766     1.4905404622    -0.0233718669
|  6>  C        0.0070470003    -0.0036326701     0.0619079699
|  7>  O        1.1146467554    -0.6300979387    -0.5316495631
|  8>  C        0.9971717125    -2.0008999645    -0.1251433402
|  9>  O        0.5507424091    -1.9249703857     1.2418391108
| 10>  C       -0.3594134578    -0.8659143822     1.2174895478
| 11>  C       -1.2986798161    -0.8448791460    -0.0202831088
| 12>  C       -1.2552821860    -2.0388737581    -0.8718064248
| 13>  C       -0.0718513286    -2.6621438090    -0.9434088271
| 14>  H        0.9446635162     1.8880159689     0.4207269756
| 15>  H       -0.0238634172     1.8219907838    -1.0653274887
| 16>  H       -0.8282448075     1.9135340637     0.5112100541
| 17>  H        1.9811164391    -2.4668268106    -0.1520104430
| 18>  H       -0.6889915914    -0.5482981575     2.1968407826
| 19>  H       -2.2267566571    -0.2961575826     0.0893232500
| 20>  H       -2.1446226238    -2.3738528641    -1.3949440808
| 21>  H        0.1275109663    -3.5562101795    -1.5194597473
| 22> *
| 23>
| 24>                          ****END OF INPUT****

CARTESIAN COORDINATES (ANGSTROEM)
---------------------------------
  C      0.026596    1.490540   -0.023372
  C      0.007047   -0.003633    0.061908
  O      1.114647   -0.630098   -0.531650
  C      0.997172   -2.000900   -0.125143
  O      0.550742   -1.924970    1.241839
  C     -0.359413   -0.865914    1.217490
  C     -1.298680   -0.844879   -0.020283
  C     -1.255282   -2.038874   -0.871806
  C     -0.071851   -2.662144   -0.943409
  H      0.944664    1.888016    0.420727
  H     -0.023863    1.821991   -1.065327
  H     -0.828245    1.913534    0.511210
  H      1.981116   -2.466827   -0.152010
  H     -0.688992   -0.548298    2.196841
  H     -2.226757   -0.296158    0.089323
  H     -2.144623   -2.373853   -1.394944
  H      0.127511   -3.556210   -1.519460

 Total Charge           Charge          ....    0
 Multiplicity           Mult            ....    1
 Number of Electrons    NEL             ....   66
 Basis Dimension        Dim             ....  327

ORBITAL ENERGIES
----------------

  NO   OCC          E(Eh)            E(eV)
   0   2.0000     -20.571643      -559.7829
   1   2.0000     -20.570835      -559.7609
   2   2.0000     -11.340194      -308.5824
   3   2.0000     -11.296180      -307.3847
   4   2.0000     -11.289199      -307.1947
   5   2.0000     -11.241481      -305.8963
   6   2.0000     -11.240678      -305.8744
   7   2.0000     -11.230175      -305.5886
   8   2.0000     -11.223701      -305.4124
   9   2.0000      -1.454854       -39.5886
  10   2.0000      -1.340280       -36.4709
  11   2.0000      -1.137857       -30.9627
  12   2.0000      -1.080408       -29.3994
  13   2.0000      -0.977413       -26.5968
  14   2.0000      -0.900192       -24.4955
  15   2.0000      -0.854441       -23.2505
  16   2.0000      -0.798514       -21.7287
  17   2.0000      -0.732587       -19.9347
  18   2.0000      -0.727971       -19.8091
  19   2.0000      -0.654003       -17.7963
  20   2.0000      -0.631736       -17.1904
  21   2.0000      -0.622965       -16.9517
  22   2.0000      -0.601169       -16.3586
  23   2.0000      -0.590888       -16.0789
  24   2.0000      -0.578707       -15.7474
  25   2.0000      -0.565165       -15.3789
  26   2.0000      -0.546693       -14.8763
  27   2.0000      -0.512690       -13.9510
  28   2.0000      -0.503236       -13.6937
  29   2.0000      -0.483567       -13.1585
  30   2.0000      -0.423677       -11.5288
  31   2.0000      -0.372104       -10.1255
  32   2.0000      -0.343523        -9.3477
  33   0.0000       0.130977         3.5641
  34   0.0000       0.142988         3.8909
  35   0.0000       0.164122         4.4660
  36   0.0000       0.175967         4.7883
  37   0.0000       0.184304         5.0152

MULLIKEN ATOMIC CHARGES
-----------------------
   0 C :   -0.430641
   1 C :    0.205192
   2 O :   -0.305870
   3 C :    0.285806
   4 O :   -0.305694
   5 C :    0.005640
   6 C :   -0.145119
   7 C :   -0.183173
   8 C :   -0.231051
   9 H :    0.145807
  10 H :    0.146743
  11 H :    0.130280
  12 H :    0.139023
  13 H :    0.147290
  14 H :    0.134214
  15 H :    0.132377
  16 H :    0.129177
Sum of atomic charges:    0.0000000

LOEWDIN ATOMIC CHARGES
----------------------
   0 C :   -0.260470
   1 C :   -0.314879
   2 O :    0.241774
   3 C :   -0.327956
   4 O :    0.220379
   5 C :   -0.239950
   6 C :   -0.154769
   7 C :   -0.135881
   8 C :   -0.152963
   9 H :    0.134505
  10 H :    0.134186
  11 H :    0.133567
  12 H :    0.140794
  13 H :    0.144254
  14 H :    0.153666
  15 H :    0.144104
  16 H :    0.139638

  Mayer bond orders larger than 0.1
B(  0-C ,  1-C ) :   0.8734 B(  0-C ,  9-H ) :   0.9386 B(  0-C , 10-H ) :   0.9389
B(  0-C , 11-H ) :   0.9370 B(  1-C ,  2-O ) :   1.0010 B(  1-C ,  5-C ) :   0.9121
B(  1-C ,  6-C ) :   0.8009 B(  2-O ,  3-C ) :   0.9475 B(  3-C ,  4-O ) :   0.9268
B(  3-C ,  8-C ) :   0.9860 B(  3-C , 12-H ) :   0.9199 B(  4-O ,  5-C ) :   1.0016
B(  5-C ,  6-C ) :   0.7986 B(  5-C , 13-H ) :   0.9170 B(  6-C ,  7-C ) :   0.9918
B(  6-C , 14-H ) :   0.9071 B(  7-C ,  8-C ) :   1.7242 B(  7-C , 15-H ) :   0.9250
B(  8-C , 16-H ) :   0.9265

MP2 TOTAL ENERGY:     -421.111988982 Eh
FINAL SINGLE POINT ENERGY      -421.111988982099

DIPOLE MOMENT
-------------
                                X             Y             Z
Electronic contribution:      2.13199      -3.99785       0.90572
Nuclear contribution   :     -2.67528       4.31988      -0.96673
                        -----------------------------------------
Total Dipole Moment    :     -0.54329       0.32203      -0.06101
                        -----------------------------------------
Magnitude (a.u.)       :      0.63450
Magnitude (Debye)      :      1.61277

                             ****ORCA TERMINATED NORMALLY****
TOTAL RUN TIME: 0 days 0 hours 17 minutes 58 seconds 798 msec
