                         Program Version 3.0.3 - RELEASE   -
|  1> ! RI-MP2 RIJK def2-TZVP def2-TZVP/C def2-TZVP/JK TIGHTSCF
|  2> % maxcore 2000
|  3> % mp2 density relaxed end
|  4> *xyz 0 1
|  5>  O        0.1507760337     1.3106090169    -0.4183716501
|  6>  C       -0.0001439310     0.0230449682     0.1381962383
|  7>  C       -1.4273520788    -0.5075875103     0.0379396869
|  8>  C       -1.8907082853    -1.1270609036    -1.2699030584
|  9>  C       -1.6527896776    -2.0073557170    -0.0799748401
| 10>  C       -2.3833749275     0.2664617628     0.7875961419
| 11>  N       -3.1108218397     0.9274352196     1.3990925398
| 12>  H       -0.3476187119     1.9326392553     0.1235789728
| 13>  H        0.6569436368    -0.6385890070    -0.4355181863
| 14>  H        0.3277197981    -0.0083104285     1.1878017009
| 15>  H       -2.9132443757    -0.9465066513    -1.5781023089
| 16>  H       -1.1655691839    -1.1284064117    -2.0758417564
| 17>  H       -0.7649147627    -2.6300491626    -0.0603579079
| 18>  H       -2.5104830943    -2.4268304708     0.4316656975
| 19> *
| 20>
| 21>                          ****END OF INPUT****

CARTESIAN COORDINATES (ANGSTROEM)
---------------------------------
  O      0.150776    1.310609   -0.418372
  C     -0.000144    0.023045    0.138196
  C     -1.427352   -0.507588    0.037940
  C     -1.890708   -1.127061   -1.269903
  C     -1.652790   -2.007356   -0.079975
  C     -2.383375    0.266462    0.787596
  N     -3.110822    0.927435    1.399093
  H     -0.347619    1.932639    0.123579
  H      0.656944   -0.638589   -0.435518
  H      0.327720   -0.008310    1.187802
  H     -2.913244   -0.946507   -1.578102
  H     -1.165569   -1.128406   -2.075842
  H     -0.764915   -2.630049   -0.060358
  H     -2.510483   -2.426830    0.431666

 Total Charge           Charge          ....    0
 Multiplicity           Mult            ....    1
 Number of Electrons    NEL             ....   52
 Basis Dimension        Dim             ....  259

ORBITAL ENERGIES
----------------

  NO   OCC          E(Eh)            E(eV)
   0   2.0000     -20.572830      -559.8152
   1   2.0000     -15.574522      -423.8043
   2   2.0000     -11.306351      -307.6614
   3   2.0000     -11.293084      -307.3004
   4   2.0000     -11.278849      -306.9131
   5   2.0000     -11.267548      -306.6056
   6   2.0000     -11.263936      -306.5073
   7   2.0000      -1.380951       -37.5776
   8   2.0000      -1.229990       -33.4697
   9   2.0000      -1.182482       -32.1770
  10   2.0000      -0.981358       -26.7041
  11   2.0000      -0.885545       -24.0969
  12   2.0000      -0.860337       -23.4110
  13   2.0000      -0.727245       -19.7893
  14   2.0000      -0.711837       -19.3701
  15   2.0000      -0.674926       -18.3657
  16   2.0000      -0.623968       -16.9790
  17   2.0000      -0.609420       -16.5832
  18   2.0000      -0.566687       -15.4203
  19   2.0000      -0.553621       -15.0648
  20   2.0000      -0.539060       -14.6686
  21   2.0000      -0.508379       -13.8337
  22   2.0000      -0.496683       -13.5154
  23   2.0000      -0.483626       -13.1601
  24   2.0000      -0.438764       -11.9394
  25   2.0000      -0.420000       -11.4288
  26   0.0000       0.128606         3.4995
  27   0.0000       0.143106         3.8941
  28   0.0000       0.155854         4.2410
  29   0.0000       0.156530         4.2594
  30   0.0000       0.182921         4.9775

MULLIKEN ATOMIC CHARGES
-----------------------
   0 O :   -0.467001
   1 C :   -0.027851
   2 C :    0.174156
   3 C :   -0.262820
   4 C :   -0.280545
   5 C :   -0.259814
   6 N :   -0.052643
   7 H :    0.328824
   8 H :    0.114047
   9 H :    0.125433
  10 H :    0.155518
  11 H :    0.150021
  12 H :    0.147456
  13 H :    0.155219
Sum of atomic charges:   -0.0000000

LOEWDIN ATOMIC CHARGES
----------------------
   0 O :   -0.027662
   1 C :   -0.293320
   2 C :   -0.251890
   3 C :   -0.172472
   4 C :   -0.174868
   5 C :   -0.164180
   6 N :    0.062466
   7 H :    0.182063
   8 H :    0.139030
   9 H :    0.129529
  10 H :    0.143857
  11 H :    0.143213
  12 H :    0.140525
  13 H :    0.143709

  Mayer bond orders larger than 0.1
B(  0-O ,  1-C ) :   0.9671 B(  0-O ,  7-H ) :   0.8393 B(  1-C ,  2-C ) :   0.9354
B(  1-C ,  8-H ) :   0.9074 B(  1-C ,  9-H ) :   0.9341 B(  2-C ,  3-C ) :   0.8215
B(  2-C ,  4-C ) :   0.8303 B(  2-C ,  5-C ) :   0.9162 B(  3-C ,  4-C ) :   0.9163
B(  3-C , 10-H ) :   0.9251 B(  3-C , 11-H ) :   0.9257 B(  4-C , 12-H ) :   0.9245
B(  4-C , 13-H ) :   0.9182 B(  5-C ,  6-N ) :   2.8678

MP2 TOTAL ENERGY:     -324.027929776 Eh
FINAL SINGLE POINT ENERGY      -324.027929775863

DIPOLE MOMENT
-------------
                                X             Y             Z
Electronic contribution:     -2.33453       3.56545       2.25804
Nuclear contribution   :      2.92620      -4.63256      -2.65256
                        -----------------------------------------
Total Dipole Moment    :      0.59168      -1.06711      -0.39452
                        -----------------------------------------
Magnitude (a.u.)       :      1.28236
Magnitude (Debye)      :      3.25950

                             ****ORCA TERMINATED NORMALLY****
TOTAL RUN TIME: 0 days 0 hours 7 minutes 37 seconds 438 msec
