                         Program Version 3.0.3 - RELEASE   -
|  1> ! RI-MP2 RIJK def2-TZVP def2-TZVP/C def2-TZVP/JK TIGHTSCF
|  2> % maxcore 2000
|  3> % mp2 density relaxed end
|  4> *xyz 0 1
|  5>  O       -0.0767845723     1.3956269977    -0.1007809327
|  6>  C       -0.0030522104     0.0104173745    -0.0297106417
|  7>  C       -0.3506642227    -0.6583722694     1.2707790595
|  8>  O       -0.7264476652     0.2733557293     2.2406045457
|  9>  C       -1.7679398775    -0.1078302391     3.1347459503
| 10>  C       -2.9713600355    -0.7960220702     2.4618106309
| 11>  C       -3.3834023436    -0.1497453317     1.1607085473
| 12>  C       -2.6054616110    -0.1804128628     0.0779198031
| 13>  C       -1.2693839907    -0.8343262057     0.0644486018
| 14>  H       -0.3939865548     1.6878260579     0.7654068157
| 15>  H        0.8224517733    -0.3845069462    -0.6138986823
| 16>  H        0.2312179869    -1.5025306503     1.6399059103
| 17>  H       -1.3647794697    -0.7653536083     3.9191769239
| 18>  H       -2.0772412657     0.8283091506     3.6094678640
| 19>  H       -2.7231677236    -1.8481798432     2.2817868723
| 20>  H       -3.7956379567    -0.7946974280     3.1824619358
| 21>  H       -4.3454747628     0.3541526836     1.1209055606
| 22>  H       -2.9366740901     0.2852290304    -0.8474197560
| 23>  H       -1.2136427680    -1.7972582991    -0.4429693585
| 24> *
| 25>
| 26>                          ****END OF INPUT****

CARTESIAN COORDINATES (ANGSTROEM)
---------------------------------
  O     -0.076785    1.395627   -0.100781
  C     -0.003052    0.010417   -0.029711
  C     -0.350664   -0.658372    1.270779
  O     -0.726448    0.273356    2.240605
  C     -1.767940   -0.107830    3.134746
  C     -2.971360   -0.796022    2.461811
  C     -3.383402   -0.149745    1.160709
  C     -2.605462   -0.180413    0.077920
  C     -1.269384   -0.834326    0.064449
  H     -0.393987    1.687826    0.765407
  H      0.822452   -0.384507   -0.613899
  H      0.231218   -1.502531    1.639906
  H     -1.364779   -0.765354    3.919177
  H     -2.077241    0.828309    3.609468
  H     -2.723168   -1.848180    2.281787
  H     -3.795638   -0.794697    3.182462
  H     -4.345475    0.354153    1.120906
  H     -2.936674    0.285229   -0.847420
  H     -1.213643   -1.797258   -0.442969

 Total Charge           Charge          ....    0
 Multiplicity           Mult            ....    1
 Number of Electrons    NEL             ....   68
 Basis Dimension        Dim             ....  339

ORBITAL ENERGIES
----------------

  NO   OCC          E(Eh)            E(eV)
   0   2.0000     -20.570929      -559.7634
   1   2.0000     -20.550459      -559.2064
   2   2.0000     -11.286475      -307.1206
   3   2.0000     -11.285782      -307.1017
   4   2.0000     -11.282421      -307.0103
   5   2.0000     -11.234963      -305.7189
   6   2.0000     -11.234419      -305.7041
   7   2.0000     -11.230804      -305.6057
   8   2.0000     -11.229060      -305.5583
   9   2.0000      -1.400942       -38.1216
  10   2.0000      -1.356805       -36.9205
  11   2.0000      -1.131325       -30.7849
  12   2.0000      -1.083271       -29.4773
  13   2.0000      -0.980046       -26.6684
  14   2.0000      -0.904387       -24.6096
  15   2.0000      -0.827556       -22.5189
  16   2.0000      -0.783876       -21.3303
  17   2.0000      -0.744065       -20.2470
  18   2.0000      -0.718733       -19.5577
  19   2.0000      -0.683102       -18.5881
  20   2.0000      -0.648735       -17.6530
  21   2.0000      -0.630799       -17.1649
  22   2.0000      -0.621839       -16.9211
  23   2.0000      -0.605163       -16.4673
  24   2.0000      -0.571354       -15.5473
  25   2.0000      -0.562014       -15.2932
  26   2.0000      -0.540158       -14.6985
  27   2.0000      -0.522210       -14.2100
  28   2.0000      -0.500808       -13.6277
  29   2.0000      -0.489698       -13.3254
  30   2.0000      -0.453626       -12.3438
  31   2.0000      -0.408369       -11.1123
  32   2.0000      -0.385855       -10.4997
  33   2.0000      -0.345937        -9.4134
  34   0.0000       0.127817         3.4781
  35   0.0000       0.144088         3.9208
  36   0.0000       0.161009         4.3813
  37   0.0000       0.175142         4.7659
  38   0.0000       0.178074         4.8456

MULLIKEN ATOMIC CHARGES
-----------------------
   0 O :   -0.468773
   1 C :    0.034286
   2 C :    0.012710
   3 O :   -0.340328
   4 C :   -0.053726
   5 C :   -0.197899
   6 C :   -0.155731
   7 C :   -0.191950
   8 C :   -0.091788
   9 H :    0.340098
  10 H :    0.122774
  11 H :    0.111245
  12 H :    0.108575
  13 H :    0.121615
  14 H :    0.131885
  15 H :    0.134557
  16 H :    0.126231
  17 H :    0.128006
  18 H :    0.128215
Sum of atomic charges:    0.0000000

LOEWDIN ATOMIC CHARGES
----------------------
   0 O :    0.007787
   1 C :   -0.292603
   2 C :   -0.280952
   3 O :    0.184443
   4 C :   -0.300394
   5 C :   -0.260337
   6 C :   -0.165108
   7 C :   -0.150232
   8 C :   -0.190659
   9 H :    0.185468
  10 H :    0.138388
  11 H :    0.131622
  12 H :    0.123403
  13 H :    0.130405
  14 H :    0.148616
  15 H :    0.146177
  16 H :    0.141224
  17 H :    0.148082
  18 H :    0.154669

  Mayer bond orders larger than 0.1
B(  0-O ,  1-C ) :   1.0106 B(  0-O ,  9-H ) :   0.8113 B(  1-C ,  2-C ) :   0.9047
B(  1-C ,  8-C ) :   0.8413 B(  1-C , 10-H ) :   0.9524 B(  2-C ,  3-O ) :   0.9359
B(  2-C ,  8-C ) :   0.8582 B(  2-C , 11-H ) :   0.9295 B(  3-O ,  4-C ) :   0.9109
B(  4-C ,  5-C ) :   0.9087 B(  4-C , 12-H ) :   0.9414 B(  4-C , 13-H ) :   0.9291
B(  5-C ,  6-C ) :   0.9155 B(  5-C , 14-H ) :   0.9319 B(  5-C , 15-H ) :   0.9260
B(  6-C ,  7-C ) :   1.8061 B(  6-C , 16-H ) :   0.9256 B(  7-C ,  8-C ) :   0.9034
B(  7-C , 17-H ) :   0.9267 B(  8-C , 18-H ) :   0.9014

MP2 TOTAL ENERGY:     -422.290295771 Eh
FINAL SINGLE POINT ENERGY      -422.290295771326

DIPOLE MOMENT
-------------
                                X             Y             Z
Electronic contribution:      2.86949       2.17420      -2.16081
Nuclear contribution   :     -3.34435      -2.93098       2.79556
                        -----------------------------------------
Total Dipole Moment    :     -0.47486      -0.75678       0.63475
                        -----------------------------------------
Magnitude (a.u.)       :      1.09596
Magnitude (Debye)      :      2.78570

                             ****ORCA TERMINATED NORMALLY****
TOTAL RUN TIME: 0 days 0 hours 16 minutes 44 seconds 715 msec
