                         Program Version 3.0.3 - RELEASE   -
|  1> ! RI-MP2 RIJK def2-TZVP def2-TZVP/C def2-TZVP/JK TIGHTSCF
|  2> % maxcore 2000
|  3> % mp2 density relaxed end
|  4> *xyz 0 1
|  5>  C       -0.0075390356     1.4315369100    -0.0907298087
|  6>  N        0.0863360346    -0.0089726699     0.0286096629
|  7>  C        0.6279351719    -0.6030568262     1.1218200528
|  8>  O        1.0864388197    -0.0507065854     2.1021857836
|  9>  N        0.6183580672    -2.0094403926     1.0287454014
| 10>  C        1.0986978879    -3.0246626060     1.9752431454
| 11>  C        0.6295899180    -4.1011659552     0.9483546661
| 12>  C        0.1811061180    -2.9151983603     0.0776432421
| 13>  O       -0.3410616783    -2.7442190410    -0.9959520819
| 14>  H        0.5525322189     1.7953293533    -0.9593323014
| 15>  H       -1.0499692032     1.7547720460    -0.1874034899
| 16>  H        0.4169359911     1.8689669886     0.8134310924
| 17>  H       -0.2552329649    -0.6102854751    -0.7105975124
| 18>  H        2.1748749692    -2.9759623485     2.1527823037
| 19>  H        0.5656310198    -3.0144327783     2.9280301147
| 20>  H        1.4199542516    -4.7080143044     0.5036822053
| 21>  H       -0.1857121259    -4.7471745452     1.2778866838
| 22> *
| 23>
| 24>                          ****END OF INPUT****

CARTESIAN COORDINATES (ANGSTROEM)
---------------------------------
  C     -0.007539    1.431537   -0.090730
  N      0.086336   -0.008973    0.028610
  C      0.627935   -0.603057    1.121820
  O      1.086439   -0.050707    2.102186
  N      0.618358   -2.009440    1.028745
  C      1.098698   -3.024663    1.975243
  C      0.629590   -4.101166    0.948355
  C      0.181106   -2.915198    0.077643
  O     -0.341062   -2.744219   -0.995952
  H      0.552532    1.795329   -0.959332
  H     -1.049969    1.754772   -0.187403
  H      0.416936    1.868967    0.813431
  H     -0.255233   -0.610285   -0.710598
  H      2.174875   -2.975962    2.152782
  H      0.565631   -3.014433    2.928030
  H      1.419954   -4.708014    0.503682
  H     -0.185712   -4.747175    1.277887

 Total Charge           Charge          ....    0
 Multiplicity           Mult            ....    1
 Number of Electrons    NEL             ....   68
 Basis Dimension        Dim             ....  327

ORBITAL ENERGIES
----------------

  NO   OCC          E(Eh)            E(eV)
   0   2.0000     -20.556308      -559.3656
   1   2.0000     -20.521526      -558.4191
   2   2.0000     -15.612152      -424.8283
   3   2.0000     -15.583903      -424.0596
   4   2.0000     -11.388326      -309.8921
   5   2.0000     -11.379232      -309.6446
   6   2.0000     -11.293509      -307.3120
   7   2.0000     -11.267707      -306.6099
   8   2.0000     -11.260012      -306.4005
   9   2.0000      -1.423956       -38.7478
  10   2.0000      -1.397124       -38.0177
  11   2.0000      -1.293031       -35.1852
  12   2.0000      -1.234820       -33.6012
  13   2.0000      -1.055481       -28.7211
  14   2.0000      -0.947959       -25.7953
  15   2.0000      -0.918236       -24.9865
  16   2.0000      -0.848157       -23.0795
  17   2.0000      -0.776819       -21.1383
  18   2.0000      -0.703596       -19.1458
  19   2.0000      -0.700708       -19.0672
  20   2.0000      -0.688915       -18.7463
  21   2.0000      -0.635794       -17.3008
  22   2.0000      -0.631070       -17.1723
  23   2.0000      -0.629683       -17.1345
  24   2.0000      -0.573978       -15.6187
  25   2.0000      -0.573168       -15.5967
  26   2.0000      -0.568151       -15.4602
  27   2.0000      -0.547775       -14.9057
  28   2.0000      -0.537532       -14.6270
  29   2.0000      -0.532153       -14.4806
  30   2.0000      -0.470413       -12.8006
  31   2.0000      -0.433411       -11.7937
  32   2.0000      -0.417358       -11.3569
  33   2.0000      -0.396355       -10.7854
  34   0.0000       0.127726         3.4756
  35   0.0000       0.134242         3.6529
  36   0.0000       0.152087         4.1385
  37   0.0000       0.166185         4.5221
  38   0.0000       0.184630         5.0240

MULLIKEN ATOMIC CHARGES
-----------------------
   0 C :   -0.290504
   1 N :   -0.335174
   2 C :    0.315453
   3 O :   -0.386431
   4 N :   -0.073613
   5 C :   -0.135888
   6 C :   -0.228006
   7 C :    0.208922
   8 O :   -0.349811
   9 H :    0.137684
  10 H :    0.137678
  11 H :    0.174999
  12 H :    0.263109
  13 H :    0.135192
  14 H :    0.135192
  15 H :    0.145588
  16 H :    0.145609
Sum of atomic charges:    0.0000000

LOEWDIN ATOMIC CHARGES
----------------------
   0 C :   -0.308054
   1 N :    0.089740
   2 C :   -0.512145
   3 O :    0.071986
   4 N :    0.239437
   5 C :   -0.196993
   6 C :   -0.194862
   7 C :   -0.398753
   8 O :    0.099568
   9 H :    0.116439
  10 H :    0.116442
  11 H :    0.134532
  12 H :    0.191109
  13 H :    0.131346
  14 H :    0.131364
  15 H :    0.144432
  16 H :    0.144413

  Mayer bond orders larger than 0.1
B(  0-C ,  1-N ) :   0.8551 B(  0-C ,  9-H ) :   0.9362 B(  0-C , 10-H ) :   0.9362
B(  0-C , 11-H ) :   0.9284 B(  1-N ,  2-C ) :   1.2120 B(  1-N , 12-H ) :   0.8396
B(  2-C ,  3-O ) :   1.9250 B(  2-C ,  4-N ) :   0.9648 B(  4-N ,  5-C ) :   0.8733
B(  4-N ,  7-C ) :   1.0665 B(  5-C ,  6-C ) :   0.9336 B(  5-C , 13-H ) :   0.9252
B(  5-C , 14-H ) :   0.9252 B(  6-C ,  7-C ) :   0.9470 B(  6-C , 15-H ) :   0.9089
B(  6-C , 16-H ) :   0.9089 B(  7-C ,  8-O ) :   1.8944

MP2 TOTAL ENERGY:     -454.470511974 Eh
FINAL SINGLE POINT ENERGY      -454.470511974477

DIPOLE MOMENT
-------------
                                X             Y             Z
Electronic contribution:     -0.14605      -1.93550      -0.40771
Nuclear contribution   :      0.13981       1.41488       0.36867
                        -----------------------------------------
Total Dipole Moment    :     -0.00624      -0.52063      -0.03904
                        -----------------------------------------
Magnitude (a.u.)       :      0.52212
Magnitude (Debye)      :      1.32713

                             ****ORCA TERMINATED NORMALLY****
TOTAL RUN TIME: 0 days 0 hours 15 minutes 27 seconds 451 msec
