                         Program Version 3.0.3 - RELEASE   -
|  1> ! RI-MP2 RIJK def2-TZVP def2-TZVP/C def2-TZVP/JK TIGHTSCF
|  2> % maxcore 2000
|  3> % mp2 density relaxed end
|  4> *xyz 0 1
|  5>  C        0.2446900720     1.5542010925    -0.4377878253
|  6>  C        0.0946376764     0.0790195191    -0.1338191475
|  7>  C        1.2975902153    -0.8238316678    -0.0261252950
|  8>  C        0.4666745385    -0.5368189931     1.2019760083
|  9>  C        1.0324705266     0.2690196365     2.3408025173
| 10>  C        0.0689079134     0.7659150162     3.4465406280
| 11>  O        0.8043360604    -0.0044294839     4.4469071533
| 12>  C        1.6645778880    -0.5060482853     3.4898221872
| 13>  N        2.6094329560    -1.3225735435     3.5908089778
| 14>  H        1.1600794790     1.9727388646    -0.0092077827
| 15>  H        0.2927402218     1.7196217317    -1.5195681130
| 16>  H       -0.6013426215     2.1345319798    -0.0519392899
| 17>  H       -0.7814511647    -0.3696821512    -0.5954810085
| 18>  H        1.2588221004    -1.8185578405    -0.4551205530
| 19>  H        2.2773261665    -0.3591547873    -0.0787849974
| 20>  H       -0.1767456451    -1.3486767716     1.5327456446
| 21>  H        1.6996588350     1.0548203126     1.9789851644
| 22>  H        0.0896537259     1.8332372820     3.6791933040
| 23>  H       -0.9629757371     0.4135871885     3.3647780855
| 24>  H        2.7249802332    -1.6401512593     4.5549892918
| 25> *
| 26>
| 27>                          ****END OF INPUT****

CARTESIAN COORDINATES (ANGSTROEM)
---------------------------------
  C      0.244690    1.554201   -0.437788
  C      0.094638    0.079020   -0.133819
  C      1.297590   -0.823832   -0.026125
  C      0.466675   -0.536819    1.201976
  C      1.032471    0.269020    2.340803
  C      0.068908    0.765915    3.446541
  O      0.804336   -0.004429    4.446907
  C      1.664578   -0.506048    3.489822
  N      2.609433   -1.322574    3.590809
  H      1.160079    1.972739   -0.009208
  H      0.292740    1.719622   -1.519568
  H     -0.601343    2.134532   -0.051939
  H     -0.781451   -0.369682   -0.595481
  H      1.258822   -1.818558   -0.455121
  H      2.277326   -0.359155   -0.078785
  H     -0.176746   -1.348677    1.532746
  H      1.699659    1.054820    1.978985
  H      0.089654    1.833237    3.679193
  H     -0.962976    0.413587    3.364778
  H      2.724980   -1.640151    4.554989

 Total Charge           Charge          ....    0
 Multiplicity           Mult            ....    1
 Number of Electrons    NEL             ....   68
 Basis Dimension        Dim             ....  345

ORBITAL ENERGIES
----------------

  NO   OCC          E(Eh)            E(eV)
   0   2.0000     -20.588567      -560.2434
   1   2.0000     -15.533079      -422.6766
   2   2.0000     -11.334865      -308.4374
   3   2.0000     -11.298539      -307.4489
   4   2.0000     -11.256423      -306.3028
   5   2.0000     -11.242389      -305.9210
   6   2.0000     -11.240480      -305.8690
   7   2.0000     -11.227859      -305.5256
   8   2.0000     -11.227191      -305.5074
   9   2.0000      -1.430102       -38.9151
  10   2.0000      -1.193366       -32.4731
  11   2.0000      -1.161000       -31.5924
  12   2.0000      -1.040674       -28.3182
  13   2.0000      -0.971029       -26.4230
  14   2.0000      -0.901772       -24.5385
  15   2.0000      -0.825500       -22.4630
  16   2.0000      -0.789066       -21.4716
  17   2.0000      -0.737604       -20.0712
  18   2.0000      -0.700684       -19.0666
  19   2.0000      -0.672914       -18.3109
  20   2.0000      -0.669953       -18.2304
  21   2.0000      -0.652907       -17.7665
  22   2.0000      -0.597068       -16.2471
  23   2.0000      -0.576259       -15.6808
  24   2.0000      -0.558957       -15.2100
  25   2.0000      -0.530632       -14.4392
  26   2.0000      -0.527777       -14.3615
  27   2.0000      -0.516942       -14.0667
  28   2.0000      -0.504735       -13.7345
  29   2.0000      -0.495522       -13.4839
  30   2.0000      -0.441548       -12.0151
  31   2.0000      -0.411639       -11.2013
  32   2.0000      -0.404392       -11.0041
  33   2.0000      -0.395373       -10.7586
  34   0.0000       0.130943         3.5631
  35   0.0000       0.146023         3.9735
  36   0.0000       0.159903         4.3512
  37   0.0000       0.160764         4.3746
  38   0.0000       0.181491         4.9386

MULLIKEN ATOMIC CHARGES
-----------------------
   0 C :   -0.401619
   1 C :   -0.058205
   2 C :   -0.283297
   3 C :   -0.136953
   4 C :   -0.043798
   5 C :   -0.017478
   6 O :   -0.266328
   7 C :    0.099151
   8 N :   -0.370213
   9 H :    0.121118
  10 H :    0.141137
  11 H :    0.129063
  12 H :    0.119757
  13 H :    0.136782
  14 H :    0.129634
  15 H :    0.124237
  16 H :    0.120885
  17 H :    0.113157
  18 H :    0.114460
  19 H :    0.228510
Sum of atomic charges:   -0.0000000

LOEWDIN ATOMIC CHARGES
----------------------
   0 C :   -0.295872
   1 C :   -0.231400
   2 C :   -0.196038
   3 C :   -0.188130
   4 C :   -0.184084
   5 C :   -0.209843
   6 O :    0.205893
   7 C :   -0.380156
   8 N :   -0.053239
   9 H :    0.123179
  10 H :    0.128277
  11 H :    0.124464
  12 H :    0.148347
  13 H :    0.133293
  14 H :    0.138824
  15 H :    0.154862
  16 H :    0.163417
  17 H :    0.120910
  18 H :    0.124131
  19 H :    0.173165

  Mayer bond orders larger than 0.1
B(  0-C ,  1-C ) :   0.9120 B(  0-C ,  9-H ) :   0.9356 B(  0-C , 10-H ) :   0.9372
B(  0-C , 11-H ) :   0.9396 B(  1-C ,  2-C ) :   0.8992 B(  1-C ,  3-C ) :   0.8677
B(  1-C , 12-H ) :   0.9297 B(  2-C ,  3-C ) :   0.8805 B(  2-C , 13-H ) :   0.9285
B(  2-C , 14-H ) :   0.9265 B(  3-C ,  4-C ) :   0.9180 B(  3-C , 15-H ) :   0.9167
B(  4-C ,  5-C ) :   0.9569 B(  4-C ,  7-C ) :   0.9090 B(  4-C , 16-H ) :   0.8950
B(  5-C ,  6-O ) :   0.8978 B(  5-C , 17-H ) :   0.9169 B(  5-C , 18-H ) :   0.9150
B(  6-O ,  7-C ) :   1.0734 B(  7-C ,  8-N ) :   2.0702 B(  8-N , 19-H ) :   0.8447

MP2 TOTAL ENERGY:     -402.436241022 Eh
FINAL SINGLE POINT ENERGY      -402.436241022016

DIPOLE MOMENT
-------------
                                X             Y             Z
Electronic contribution:      2.17031      -3.18887       8.69567
Nuclear contribution   :     -2.91993       3.80474      -9.14983
                        -----------------------------------------
Total Dipole Moment    :     -0.74962       0.61587      -0.45416
                        -----------------------------------------
Magnitude (a.u.)       :      1.07120
Magnitude (Debye)      :      2.72278

                             ****ORCA TERMINATED NORMALLY****
TOTAL RUN TIME: 0 days 0 hours 17 minutes 46 seconds 301 msec
