                         Program Version 3.0.3 - RELEASE   -
|  1> ! RI-MP2 RIJK def2-TZVP def2-TZVP/C def2-TZVP/JK TIGHTSCF
|  2> % maxcore 2000
|  3> % mp2 density relaxed end
|  4> *xyz 0 1
|  5>  O        0.6023558829     0.8012325381    -0.9098532404
|  6>  C        0.1324697585    -0.2354965471    -0.0886229754
|  7>  C        0.2151745859    -0.1214960370     1.4610456816
|  8>  C       -1.2333841118    -0.7194137213     1.5769347947
|  9>  C       -2.2553941127     0.3940140099     1.7700936167
| 10>  O       -2.8341570000     0.8424752982     2.7160006759
| 11>  C       -2.3091908550     0.6978397991     0.2551729235
| 12>  C       -1.3810777383    -0.5380369489     0.0168227747
| 13>  O       -1.9144455096    -1.5741034709    -0.7506484820
| 14>  H        0.2761193541     1.6387871528    -0.5644160210
| 15>  H        0.6353765975    -1.1443569863    -0.4332431271
| 16>  H        0.9972118592    -0.7123458475     1.9389559439
| 17>  H        0.2948159050     0.9076763796     1.8251740484
| 18>  H       -1.3418026665    -1.6657499933     2.1037878606
| 19>  H       -3.3096973151     0.5404389480    -0.1580317278
| 20>  H       -1.9558836632     1.6860734222    -0.0564036179
| 21>  H       -1.8990633611    -1.3038715856    -1.6761436183
| 22> *
| 23>
| 24>                          ****END OF INPUT****

CARTESIAN COORDINATES (ANGSTROEM)
---------------------------------
  O      0.602356    0.801233   -0.909853
  C      0.132470   -0.235497   -0.088623
  C      0.215175   -0.121496    1.461046
  C     -1.233384   -0.719414    1.576935
  C     -2.255394    0.394014    1.770094
  O     -2.834157    0.842475    2.716001
  C     -2.309191    0.697840    0.255173
  C     -1.381078   -0.538037    0.016823
  O     -1.914446   -1.574103   -0.750648
  H      0.276119    1.638787   -0.564416
  H      0.635377   -1.144357   -0.433243
  H      0.997212   -0.712346    1.938956
  H      0.294816    0.907676    1.825174
  H     -1.341803   -1.665750    2.103788
  H     -3.309697    0.540439   -0.158032
  H     -1.955884    1.686073   -0.056404
  H     -1.899063   -1.303872   -1.676144

 Total Charge           Charge          ....    0
 Multiplicity           Mult            ....    1
 Number of Electrons    NEL             ....   68
 Basis Dimension        Dim             ....  327

ORBITAL ENERGIES
----------------

  NO   OCC          E(Eh)            E(eV)
   0   2.0000     -20.579777      -560.0042
   1   2.0000     -20.578054      -559.9573
   2   2.0000     -20.558188      -559.4167
   3   2.0000     -11.340270      -308.5844
   4   2.0000     -11.308392      -307.7170
   5   2.0000     -11.299140      -307.4652
   6   2.0000     -11.253828      -306.2322
   7   2.0000     -11.252508      -306.1963
   8   2.0000     -11.251921      -306.1803
   9   2.0000      -1.403084       -38.1798
  10   2.0000      -1.394808       -37.9547
  11   2.0000      -1.380964       -37.5780
  12   2.0000      -1.175962       -31.9995
  13   2.0000      -1.028536       -27.9879
  14   2.0000      -0.931779       -25.3550
  15   2.0000      -0.881691       -23.9920
  16   2.0000      -0.809698       -22.0330
  17   2.0000      -0.741669       -20.1818
  18   2.0000      -0.727627       -19.7997
  19   2.0000      -0.691388       -18.8136
  20   2.0000      -0.668380       -18.1875
  21   2.0000      -0.645165       -17.5558
  22   2.0000      -0.634548       -17.2669
  23   2.0000      -0.614220       -16.7138
  24   2.0000      -0.597511       -16.2591
  25   2.0000      -0.576714       -15.6932
  26   2.0000      -0.572145       -15.5689
  27   2.0000      -0.540352       -14.7037
  28   2.0000      -0.529004       -14.3949
  29   2.0000      -0.502197       -13.6655
  30   2.0000      -0.465706       -12.6725
  31   2.0000      -0.443401       -12.0656
  32   2.0000      -0.419028       -11.4023
  33   2.0000      -0.402831       -10.9616
  34   0.0000       0.118644         3.2285
  35   0.0000       0.119751         3.2586
  36   0.0000       0.140033         3.8105
  37   0.0000       0.162670         4.4265
  38   0.0000       0.172234         4.6867

MULLIKEN ATOMIC CHARGES
-----------------------
   0 O :   -0.446227
   1 C :   -0.064765
   2 C :   -0.268122
   3 C :   -0.047589
   4 C :    0.064141
   5 O :   -0.245460
   6 C :   -0.297433
   7 C :    0.314157
   8 O :   -0.459957
   9 H :    0.317853
  10 H :    0.110177
  11 H :    0.140242
  12 H :    0.143146
  13 H :    0.144422
  14 H :    0.141408
  15 H :    0.125635
  16 H :    0.328370
Sum of atomic charges:    0.0000000

LOEWDIN ATOMIC CHARGES
----------------------
   0 O :   -0.006839
   1 C :   -0.309325
   2 C :   -0.184935
   3 C :   -0.121084
   4 C :   -0.300764
   5 O :    0.166936
   6 C :   -0.176223
   7 C :   -0.314982
   8 O :    0.021567
   9 H :    0.173401
  10 H :    0.152160
  11 H :    0.136609
  12 H :    0.138705
  13 H :    0.147546
  14 H :    0.154368
  15 H :    0.135566
  16 H :    0.187294

  Mayer bond orders larger than 0.1
B(  0-O ,  1-C ) :   0.9885 B(  0-O ,  9-H ) :   0.8365 B(  1-C ,  2-C ) :   0.9274
B(  1-C ,  7-C ) :   0.9053 B(  1-C , 10-H ) :   0.9208 B(  2-C ,  3-C ) :   0.8741
B(  2-C , 11-H ) :   0.9187 B(  2-C , 12-H ) :   0.9211 B(  3-C ,  4-C ) :   0.8533
B(  3-C ,  6-C ) :  -0.1074 B(  3-C ,  7-C ) :   0.8713 B(  3-C , 13-H ) :   0.8690
B(  4-C ,  5-O ) :   2.0439 B(  4-C ,  6-C ) :   0.9089 B(  6-C ,  7-C ) :   0.8852
B(  6-C , 14-H ) :   0.8807 B(  6-C , 15-H ) :   0.9012 B(  7-C ,  8-O ) :   1.0083
B(  8-O , 16-H ) :   0.8331

MP2 TOTAL ENERGY:     -458.213521760 Eh
FINAL SINGLE POINT ENERGY      -458.213521759789

DIPOLE MOMENT
-------------
                                X             Y             Z
Electronic contribution:     -2.71095      -0.12535       1.25101
Nuclear contribution   :      3.14342       0.25839      -1.89359
                        -----------------------------------------
Total Dipole Moment    :      0.43247       0.13304      -0.64259
                        -----------------------------------------
Magnitude (a.u.)       :      0.78590
Magnitude (Debye)      :      1.99760

                             ****ORCA TERMINATED NORMALLY****
TOTAL RUN TIME: 0 days 0 hours 16 minutes 6 seconds 381 msec
