                         Program Version 3.0.3 - RELEASE   -
|  1> ! RI-MP2 RIJK def2-TZVP def2-TZVP/C def2-TZVP/JK TIGHTSCF
|  2> % maxcore 2000
|  3> % mp2 density relaxed end
|  4> *xyz 0 1
|  5>  C        0.1095893677     1.6163745461     0.1080741277
|  6>  C        0.0913500753     0.1006349231     0.0264950634
|  7>  C        1.1696182855    -0.6310591574    -0.8872773975
|  8>  O        1.7053832191    -0.3236245847    -1.9062290022
|  9>  C        1.2191635773    -1.8282943823     0.1253924754
| 10>  C        2.0169332242    -2.0910658266     1.4510477483
| 11>  C        2.1645431376    -0.5595293337     1.5851495112
| 12>  C        0.6824144610    -0.7975308934     1.1374982064
| 13>  C        0.6245815098    -1.9463155953     2.1997977427
| 14>  H        1.0695646314     1.9776125116     0.4898063421
| 15>  H       -0.0384581215     2.0502127225    -0.8859749115
| 16>  H       -0.6816591761     1.9908096523     0.7650284339
| 17>  H       -0.8946280797    -0.2689246240    -0.2856214219
| 18>  H        0.5156969426    -2.6114799574    -0.1803021669
| 19>  H        2.7742787682    -2.8529939431     1.6480485305
| 20>  H        2.3053972058    -0.1575749867     2.5916193584
| 21>  H        2.8309641533    -0.0734926607     0.8673740917
| 22>  H       -0.1093490899    -2.7368018234     2.0243645289
| 23>  H        0.6735839384    -1.6666468472     3.2561244195
| 24> *
| 25>
| 26>                          ****END OF INPUT****

CARTESIAN COORDINATES (ANGSTROEM)
---------------------------------
  C      0.109589    1.616375    0.108074
  C      0.091350    0.100635    0.026495
  C      1.169618   -0.631059   -0.887277
  O      1.705383   -0.323625   -1.906229
  C      1.219164   -1.828294    0.125392
  C      2.016933   -2.091066    1.451048
  C      2.164543   -0.559529    1.585150
  C      0.682414   -0.797531    1.137498
  C      0.624582   -1.946316    2.199798
  H      1.069565    1.977613    0.489806
  H     -0.038458    2.050213   -0.885975
  H     -0.681659    1.990810    0.765028
  H     -0.894628   -0.268925   -0.285621
  H      0.515697   -2.611480   -0.180302
  H      2.774279   -2.852994    1.648049
  H      2.305397   -0.157575    2.591619
  H      2.830964   -0.073493    0.867374
  H     -0.109349   -2.736802    2.024365
  H      0.673584   -1.666647    3.256124

 Total Charge           Charge          ....    0
 Multiplicity           Mult            ....    1
 Number of Electrons    NEL             ....   66
 Basis Dimension        Dim             ....  339

ORBITAL ENERGIES
----------------

  NO   OCC          E(Eh)            E(eV)
   0   2.0000     -20.556906      -559.3819
   1   2.0000     -11.340992      -308.6041
   2   2.0000     -11.270492      -306.6857
   3   2.0000     -11.258818      -306.3680
   4   2.0000     -11.257959      -306.3446
   5   2.0000     -11.255530      -306.2785
   6   2.0000     -11.240019      -305.8565
   7   2.0000     -11.237743      -305.7945
   8   2.0000     -11.224557      -305.4357
   9   2.0000      -1.400895       -38.1203
  10   2.0000      -1.240520       -33.7563
  11   2.0000      -1.073666       -29.2159
  12   2.0000      -0.973320       -26.4854
  13   2.0000      -0.921976       -25.0883
  14   2.0000      -0.882370       -24.0105
  15   2.0000      -0.803473       -21.8636
  16   2.0000      -0.771203       -20.9855
  17   2.0000      -0.710559       -19.3353
  18   2.0000      -0.670586       -18.2476
  19   2.0000      -0.644020       -17.5247
  20   2.0000      -0.632793       -17.2192
  21   2.0000      -0.622964       -16.9517
  22   2.0000      -0.587910       -15.9979
  23   2.0000      -0.552679       -15.0392
  24   2.0000      -0.544726       -14.8228
  25   2.0000      -0.535314       -14.5666
  26   2.0000      -0.515584       -14.0298
  27   2.0000      -0.482817       -13.1381
  28   2.0000      -0.469375       -12.7723
  29   2.0000      -0.460537       -12.5318
  30   2.0000      -0.449896       -12.2423
  31   2.0000      -0.388918       -10.5830
  32   2.0000      -0.374772       -10.1981
  33   0.0000       0.125401         3.4123
  34   0.0000       0.141904         3.8614
  35   0.0000       0.154684         4.2092
  36   0.0000       0.156730         4.2648
  37   0.0000       0.172614         4.6971

MULLIKEN ATOMIC CHARGES
-----------------------
   0 C :   -0.418849
   1 C :    0.006060
   2 C :    0.073061
   3 O :   -0.221609
   4 C :   -0.095040
   5 C :   -0.119634
   6 C :   -0.231230
   7 C :   -0.104961
   8 C :   -0.164506
   9 H :    0.131623
  10 H :    0.148361
  11 H :    0.136941
  12 H :    0.123246
  13 H :    0.110368
  14 H :    0.138841
  15 H :    0.118451
  16 H :    0.130818
  17 H :    0.119581
  18 H :    0.118478
Sum of atomic charges:   -0.0000000

LOEWDIN ATOMIC CHARGES
----------------------
   0 C :   -0.290205
   1 C :   -0.195368
   2 C :   -0.259125
   3 O :    0.179397
   4 C :   -0.124418
   5 C :   -0.159678
   6 C :   -0.172271
   7 C :   -0.165939
   8 C :   -0.167351
   9 H :    0.128047
  10 H :    0.132242
  11 H :    0.126797
  12 H :    0.164844
  13 H :    0.151857
  14 H :    0.124339
  15 H :    0.130738
  16 H :    0.137858
  17 H :    0.130154
  18 H :    0.128083

  Mayer bond orders larger than 0.1
B(  0-C ,  1-C ) :   0.8848 B(  0-C ,  9-H ) :   0.9372 B(  0-C , 10-H ) :   0.9333
B(  0-C , 11-H ) :   0.9367 B(  1-C ,  2-C ) :   0.8019 B(  1-C ,  4-C ) :  -0.1118
B(  1-C ,  7-C ) :   0.8822 B(  1-C , 12-H ) :   0.8929 B(  2-C ,  3-O ) :   2.0562
B(  2-C ,  4-C ) :   0.8531 B(  4-C ,  5-C ) :   0.8723 B(  4-C ,  7-C ) :   0.8655
B(  4-C , 13-H ) :   0.9240 B(  5-C ,  6-C ) :   0.9035 B(  5-C ,  8-C ) :   0.9061
B(  5-C , 14-H ) :   0.8926 B(  6-C ,  7-C ) :   0.8933 B(  6-C , 15-H ) :   0.9307
B(  6-C , 16-H ) :   0.9062 B(  7-C ,  8-C ) :   0.8628 B(  8-C , 17-H ) :   0.9260
B(  8-C , 18-H ) :   0.9177

MP2 TOTAL ENERGY:     -385.116571230 Eh
FINAL SINGLE POINT ENERGY      -385.116571230233

DIPOLE MOMENT
-------------
                                X             Y             Z
Electronic contribution:      1.76028      -2.46939      -4.92790
Nuclear contribution   :     -2.26780       2.31964       5.86549
                        -----------------------------------------
Total Dipole Moment    :     -0.50752      -0.14975       0.93759
                        -----------------------------------------
Magnitude (a.u.)       :      1.07661
Magnitude (Debye)      :      2.73652

                             ****ORCA TERMINATED NORMALLY****
TOTAL RUN TIME: 0 days 0 hours 21 minutes 0 seconds 912 msec
