                         Program Version 3.0.3 - RELEASE   -
|  1> ! RI-MP2 RIJK def2-TZVP def2-TZVP/C def2-TZVP/JK TIGHTSCF
|  2> % maxcore 2000
|  3> % mp2 density relaxed end
|  4> *xyz 0 1
|  5>  C        0.2450676287     1.2850712544    -0.9381482364
|  6>  C       -0.0089662554     0.0263158413    -0.1333794126
|  7>  C        1.1214517983    -0.9703188723     0.0185097092
|  8>  C        0.6932785771    -0.1315339181     1.1971680241
|  9>  C       -1.3801425460    -0.5428627103    -0.2471872435
| 10>  C       -2.3344559329    -0.4464271296    -1.3987882600
| 11>  C       -2.7882248271    -0.0163878356    -0.0140980514
| 12>  C       -2.9729574503    -1.2565023305     0.8440234291
| 13>  O       -1.6508872128    -1.7489383069     0.4912832396
| 14>  H        1.2589453806     1.6539789046    -0.7584338820
| 15>  H        0.1432663058     1.1044476951    -2.0136374397
| 16>  H       -0.4510989374     2.0860091427    -0.6617204012
| 17>  H        0.8652133442    -2.0229367407     0.0401225757
| 18>  H        2.0615690441    -0.7396804221    -0.4715181401
| 19>  H        1.3412810464     0.6753916462     1.5226373227
| 20>  H        0.1548361315    -0.6371638189     1.9896473624
| 21>  H       -2.1698423053     0.3739174558    -2.0893108309
| 22>  H       -2.7239603579    -1.3560212808    -1.8498027634
| 23>  H       -3.1471146879     0.9789601182     0.2101809927
| 24>  H       -3.0310010686    -1.0489345928     1.9185181045
| 25>  H       -3.7634694351    -1.9622068797     0.5604761110
| 26> *
| 27>
| 28>                          ****END OF INPUT****

CARTESIAN COORDINATES (ANGSTROEM)
---------------------------------
  C      0.245068    1.285071   -0.938148
  C     -0.008966    0.026316   -0.133379
  C      1.121452   -0.970319    0.018510
  C      0.693279   -0.131534    1.197168
  C     -1.380143   -0.542863   -0.247187
  C     -2.334456   -0.446427   -1.398788
  C     -2.788225   -0.016388   -0.014098
  C     -2.972957   -1.256502    0.844023
  O     -1.650887   -1.748938    0.491283
  H      1.258945    1.653979   -0.758434
  H      0.143266    1.104448   -2.013637
  H     -0.451099    2.086009   -0.661720
  H      0.865213   -2.022937    0.040123
  H      2.061569   -0.739680   -0.471518
  H      1.341281    0.675392    1.522637
  H      0.154836   -0.637164    1.989647
  H     -2.169842    0.373917   -2.089311
  H     -2.723960   -1.356021   -1.849803
  H     -3.147115    0.978960    0.210181
  H     -3.031001   -1.048935    1.918518
  H     -3.763469   -1.962207    0.560476

 Total Charge           Charge          ....    0
 Multiplicity           Mult            ....    1
 Number of Electrons    NEL             ....   68
 Basis Dimension        Dim             ....  351

ORBITAL ENERGIES
----------------

  NO   OCC          E(Eh)            E(eV)
   0   2.0000     -20.549915      -559.1916
   1   2.0000     -11.290969      -307.2429
   2   2.0000     -11.281378      -306.9819
   3   2.0000     -11.240122      -305.8593
   4   2.0000     -11.233878      -305.6894
   5   2.0000     -11.228983      -305.5562
   6   2.0000     -11.221330      -305.3479
   7   2.0000     -11.217823      -305.2525
   8   2.0000     -11.216807      -305.2248
   9   2.0000      -1.388961       -37.7956
  10   2.0000      -1.151354       -31.3299
  11   2.0000      -1.109375       -30.1876
  12   2.0000      -0.968419       -26.3520
  13   2.0000      -0.946096       -25.7446
  14   2.0000      -0.845704       -23.0128
  15   2.0000      -0.817739       -22.2518
  16   2.0000      -0.789490       -21.4831
  17   2.0000      -0.720717       -19.6117
  18   2.0000      -0.689666       -18.7668
  19   2.0000      -0.652782       -17.7631
  20   2.0000      -0.636989       -17.3334
  21   2.0000      -0.615840       -16.7579
  22   2.0000      -0.589083       -16.0298
  23   2.0000      -0.573071       -15.5941
  24   2.0000      -0.553948       -15.0737
  25   2.0000      -0.538964       -14.6659
  26   2.0000      -0.514398       -13.9975
  27   2.0000      -0.511393       -13.9157
  28   2.0000      -0.496197       -13.5022
  29   2.0000      -0.467145       -12.7117
  30   2.0000      -0.433390       -11.7931
  31   2.0000      -0.423829       -11.5330
  32   2.0000      -0.391566       -10.6550
  33   2.0000      -0.348814        -9.4917
  34   0.0000       0.140539         3.8243
  35   0.0000       0.160090         4.3563
  36   0.0000       0.172363         4.6902
  37   0.0000       0.173417         4.7189
  38   0.0000       0.188485         5.1289

MULLIKEN ATOMIC CHARGES
-----------------------
   0 C :   -0.448097
   1 C :    0.176444
   2 C :   -0.298012
   3 C :   -0.305576
   4 C :    0.172846
   5 C :   -0.277109
   6 C :   -0.222067
   7 C :   -0.015124
   8 O :   -0.348180
   9 H :    0.135206
  10 H :    0.138552
  11 H :    0.136248
  12 H :    0.148269
  13 H :    0.127069
  14 H :    0.126652
  15 H :    0.138248
  16 H :    0.134871
  17 H :    0.129039
  18 H :    0.139062
  19 H :    0.104898
  20 H :    0.106764
Sum of atomic charges:   -0.0000000

LOEWDIN ATOMIC CHARGES
----------------------
   0 C :   -0.258275
   1 C :   -0.245202
   2 C :   -0.197027
   3 C :   -0.201608
   4 C :   -0.240356
   5 C :   -0.182940
   6 C :   -0.181696
   7 C :   -0.243865
   8 O :    0.167831
   9 H :    0.131365
  10 H :    0.127480
  11 H :    0.127869
  12 H :    0.140488
  13 H :    0.131732
  14 H :    0.130780
  15 H :    0.138120
  16 H :    0.142306
  17 H :    0.134926
  18 H :    0.135650
  19 H :    0.123653
  20 H :    0.118769

  Mayer bond orders larger than 0.1
B(  0-C ,  1-C ) :   0.8912 B(  0-C ,  9-H ) :   0.9286 B(  0-C , 10-H ) :   0.9397
B(  0-C , 11-H ) :   0.9439 B(  1-C ,  2-C ) :   0.8520 B(  1-C ,  3-C ) :   0.8454
B(  1-C ,  4-C ) :   0.9371 B(  2-C ,  3-C ) :   0.9132 B(  2-C , 12-H ) :   0.9188
B(  2-C , 13-H ) :   0.9283 B(  3-C , 14-H ) :   0.9252 B(  3-C , 15-H ) :   0.9218
B(  4-C ,  5-C ) :   0.8692 B(  4-C ,  6-C ) :   0.8685 B(  4-C ,  8-O ) :   0.9212
B(  5-C ,  6-C ) :   0.8952 B(  5-C , 16-H ) :   0.9327 B(  5-C , 17-H ) :   0.9048
B(  6-C ,  7-C ) :   0.9770 B(  6-C , 18-H ) :   0.9002 B(  7-C ,  8-O ) :   0.9202
B(  7-C , 19-H ) :   0.9254 B(  7-C , 20-H ) :   0.9115

MP2 TOTAL ENERGY:     -386.355617507 Eh
FINAL SINGLE POINT ENERGY      -386.355617507289

DIPOLE MOMENT
-------------
                                X             Y             Z
Electronic contribution:     -2.69842      -3.38596       1.23096
Nuclear contribution   :      2.45808       3.99508      -1.33074
                        -----------------------------------------
Total Dipole Moment    :     -0.24035       0.60912      -0.09978
                        -----------------------------------------
Magnitude (a.u.)       :      0.66239
Magnitude (Debye)      :      1.68365

                             ****ORCA TERMINATED NORMALLY****
TOTAL RUN TIME: 0 days 0 hours 19 minutes 15 seconds 404 msec
