                         Program Version 3.0.3 - RELEASE   -
|  1> ! RI-MP2 RIJK def2-TZVP def2-TZVP/C def2-TZVP/JK TIGHTSCF
|  2> % maxcore 2000
|  3> % mp2 density relaxed end
|  4> *xyz 0 1
|  5>  N       -0.1682768899    -1.2569135853     0.1956554427
|  6>  C       -0.0952441332    -0.1085340161     0.0853824763
|  7>  C       -0.0059938802     1.3551717520    -0.0287457606
|  8>  C       -0.1690323023     2.0601981095     1.3779992890
|  9>  C        1.4032165054     2.1344364530     1.4733211085
| 10>  C        1.3804304541     1.9495118704    -0.0263612346
| 11>  C        1.6023225947     2.5553431339    -1.1837656356
| 12>  C        0.4075133712     2.2855071291    -2.0866323940
| 13>  O       -0.6369925727     1.8101112734    -1.2035436802
| 14>  H       -0.6172824895     3.0445767931     1.2384243956
| 15>  H       -0.6930587047     1.4989170557     2.1528040191
| 16>  H        1.8525165540     3.0510039303     1.8566389865
| 17>  H        1.8072356125     1.2764077225     2.0173767936
| 18>  H        2.3935690693     3.2470861370    -1.4422793504
| 19>  H        0.0487811459     3.2005376733    -2.5709331450
| 20>  H        0.6015745953     1.5401131282    -2.8718173510
| 21> *
| 22>
| 23>                          ****END OF INPUT****

CARTESIAN COORDINATES (ANGSTROEM)
---------------------------------
  N     -0.168277   -1.256914    0.195655
  C     -0.095244   -0.108534    0.085382
  C     -0.005994    1.355172   -0.028746
  C     -0.169032    2.060198    1.377999
  C      1.403217    2.134436    1.473321
  C      1.380430    1.949512   -0.026361
  C      1.602323    2.555343   -1.183766
  C      0.407513    2.285507   -2.086632
  O     -0.636993    1.810111   -1.203544
  H     -0.617282    3.044577    1.238424
  H     -0.693059    1.498917    2.152804
  H      1.852517    3.051004    1.856639
  H      1.807236    1.276408    2.017377
  H      2.393569    3.247086   -1.442279
  H      0.048781    3.200538   -2.570933
  H      0.601575    1.540113   -2.871817

 Total Charge           Charge          ....    0
 Multiplicity           Mult            ....    1
 Number of Electrons    NEL             ....   64
 Basis Dimension        Dim             ....  321

ORBITAL ENERGIES
----------------

  NO   OCC          E(Eh)            E(eV)
   0   2.0000     -20.583668      -560.1101
   1   2.0000     -15.572115      -423.7388
   2   2.0000     -11.338159      -308.5270
   3   2.0000     -11.303659      -307.5882
   4   2.0000     -11.271288      -306.7073
   5   2.0000     -11.266263      -306.5706
   6   2.0000     -11.265056      -306.5378
   7   2.0000     -11.264053      -306.5105
   8   2.0000     -11.255849      -306.2872
   9   2.0000      -1.410992       -38.3950
  10   2.0000      -1.218930       -33.1688
  11   2.0000      -1.170239       -31.8438
  12   2.0000      -1.065484       -28.9933
  13   2.0000      -0.965713       -26.2784
  14   2.0000      -0.909295       -24.7432
  15   2.0000      -0.852306       -23.1924
  16   2.0000      -0.790648       -21.5146
  17   2.0000      -0.702358       -19.1121
  18   2.0000      -0.697932       -18.9917
  19   2.0000      -0.654392       -17.8069
  20   2.0000      -0.638690       -17.3796
  21   2.0000      -0.611857       -16.6495
  22   2.0000      -0.563366       -15.3300
  23   2.0000      -0.557470       -15.1695
  24   2.0000      -0.542564       -14.7639
  25   2.0000      -0.538158       -14.6440
  26   2.0000      -0.513503       -13.9731
  27   2.0000      -0.506164       -13.7734
  28   2.0000      -0.463907       -12.6235
  29   2.0000      -0.459486       -12.5033
  30   2.0000      -0.439314       -11.9543
  31   2.0000      -0.370264       -10.0754
  32   0.0000       0.112101         3.0504
  33   0.0000       0.134027         3.6471
  34   0.0000       0.149617         4.0713
  35   0.0000       0.158195         4.3047
  36   0.0000       0.163921         4.4605

MULLIKEN ATOMIC CHARGES
-----------------------
   0 N :   -0.041650
   1 C :   -0.281032
   2 C :    0.410990
   3 C :   -0.231687
   4 C :   -0.216639
   5 C :   -0.064121
   6 C :   -0.238709
   7 C :    0.007769
   8 O :   -0.314924
   9 H :    0.135039
  10 H :    0.148905
  11 H :    0.136711
  12 H :    0.154809
  13 H :    0.148366
  14 H :    0.127279
  15 H :    0.118893
Sum of atomic charges:   -0.0000000

LOEWDIN ATOMIC CHARGES
----------------------
   0 N :    0.072605
   1 C :   -0.134607
   2 C :   -0.287316
   3 C :   -0.149289
   4 C :   -0.182601
   5 C :   -0.122325
   6 C :   -0.126056
   7 C :   -0.247545
   8 O :    0.206038
   9 H :    0.145599
  10 H :    0.135576
  11 H :    0.135757
  12 H :    0.149115
  13 H :    0.143529
  14 H :    0.131817
  15 H :    0.129702

  Mayer bond orders larger than 0.1
B(  0-N ,  1-C ) :   2.8694 B(  1-C ,  2-C ) :   0.9252 B(  2-C ,  3-C ) :   0.8300
B(  2-C ,  5-C ) :   0.8657 B(  2-C ,  8-O ) :   0.9548 B(  3-C ,  4-C ) :   0.9335
B(  3-C ,  9-H ) :   0.9160 B(  3-C , 10-H ) :   0.9168 B(  4-C ,  5-C ) :   0.9315
B(  4-C , 11-H ) :   0.9189 B(  4-C , 12-H ) :   0.9141 B(  5-C ,  6-C ) :   1.7815
B(  6-C ,  7-C ) :   0.9687 B(  6-C , 13-H ) :   0.9103 B(  7-C ,  8-O ) :   0.9083
B(  7-C , 14-H ) :   0.9235 B(  7-C , 15-H ) :   0.9012

MP2 TOTAL ENERGY:     -400.028497654 Eh
FINAL SINGLE POINT ENERGY      -400.028497653904

DIPOLE MOMENT
-------------
                                X             Y             Z
Electronic contribution:     -1.76572      -4.57772      -1.35537
Nuclear contribution   :      2.48192       6.30549       1.47118
                        -----------------------------------------
Total Dipole Moment    :      0.71621       1.72777       0.11581
                        -----------------------------------------
Magnitude (a.u.)       :      1.87392
Magnitude (Debye)      :      4.76311

                             ****ORCA TERMINATED NORMALLY****
TOTAL RUN TIME: 0 days 0 hours 17 minutes 18 seconds 986 msec
