                         Program Version 3.0.3 - RELEASE   -
|  1> ! RI-MP2 RIJK def2-TZVP def2-TZVP/C def2-TZVP/JK TIGHTSCF
|  2> % maxcore 2000
|  3> % mp2 density relaxed end
|  4> *xyz 0 1
|  5>  C        0.3195473694     1.8281880607     0.1585784639
|  6>  C       -0.0509709745     0.3803970449    -0.1477378547
|  7>  O        0.5370272478     0.0448186163    -1.4208511645
|  8>  C       -0.0964251176    -0.9268109096    -2.1263413975
|  9>  O       -1.0862354548    -1.5030542121    -1.7588583120
| 10>  C        0.5794995708    -1.1595071905    -3.3791272686
| 11>  C        1.1048524596    -1.3951606453    -4.4331929809
| 12>  C        0.4485191226    -0.5436374569     0.8840516333
| 13>  N        0.8430809680    -1.2444211147     1.7127507800
| 14>  H        1.4043954139     1.9470604306     0.1948208510
| 15>  H       -0.0854806876     2.4770503191    -0.6210390227
| 16>  H       -0.1008285927     2.1232296792     1.1228683069
| 17>  H       -1.1344142599     0.2495325769    -0.2188839480
| 18>  H        1.5714110849    -1.6066487885    -5.3648633162
| 19> *
| 20>
| 21>                          ****END OF INPUT****

CARTESIAN COORDINATES (ANGSTROEM)
---------------------------------
  C      0.319547    1.828188    0.158578
  C     -0.050971    0.380397   -0.147738
  O      0.537027    0.044819   -1.420851
  C     -0.096425   -0.926811   -2.126341
  O     -1.086235   -1.503054   -1.758858
  C      0.579500   -1.159507   -3.379127
  C      1.104852   -1.395161   -4.433193
  C      0.448519   -0.543637    0.884052
  N      0.843081   -1.244421    1.712751
  H      1.404395    1.947060    0.194821
  H     -0.085481    2.477050   -0.621039
  H     -0.100829    2.123230    1.122868
  H     -1.134414    0.249533   -0.218884
  H      1.571411   -1.606649   -5.364863

 Total Charge           Charge          ....    0
 Multiplicity           Mult            ....    1
 Number of Electrons    NEL             ....   64
 Basis Dimension        Dim             ....  309

ORBITAL ENERGIES
----------------

  NO   OCC          E(Eh)            E(eV)
   0   2.0000     -20.642964      -561.7236
   1   2.0000     -20.581752      -560.0579
   2   2.0000     -15.586182      -424.1216
   3   2.0000     -11.433901      -311.1323
   4   2.0000     -11.362890      -309.2000
   5   2.0000     -11.283447      -307.0382
   6   2.0000     -11.282460      -307.0114
   7   2.0000     -11.272270      -306.7341
   8   2.0000     -11.259818      -306.3952
   9   2.0000      -1.499978       -40.8165
  10   2.0000      -1.401277       -38.1307
  11   2.0000      -1.231413       -33.5085
  12   2.0000      -1.109274       -30.1849
  13   2.0000      -1.070581       -29.1320
  14   2.0000      -0.948300       -25.8045
  15   2.0000      -0.897347       -24.4181
  16   2.0000      -0.799325       -21.7507
  17   2.0000      -0.758832       -20.6489
  18   2.0000      -0.740902       -20.1610
  19   2.0000      -0.714076       -19.4310
  20   2.0000      -0.651475       -17.7275
  21   2.0000      -0.620745       -16.8913
  22   2.0000      -0.598563       -16.2877
  23   2.0000      -0.587740       -15.9932
  24   2.0000      -0.565520       -15.3886
  25   2.0000      -0.556337       -15.1387
  26   2.0000      -0.513406       -13.9705
  27   2.0000      -0.502784       -13.6814
  28   2.0000      -0.479394       -13.0450
  29   2.0000      -0.472182       -12.8487
  30   2.0000      -0.440015       -11.9734
  31   2.0000      -0.439658       -11.9637
  32   0.0000       0.076978         2.0947
  33   0.0000       0.120038         3.2664
  34   0.0000       0.142289         3.8719
  35   0.0000       0.147142         4.0039
  36   0.0000       0.161501         4.3947

MULLIKEN ATOMIC CHARGES
-----------------------
   0 C :   -0.364274
   1 C :    0.169265
   2 O :   -0.227363
   3 C :    0.167269
   4 O :   -0.285674
   5 C :    0.012491
   6 C :   -0.055069
   7 C :   -0.190739
   8 N :   -0.047286
   9 H :    0.153422
  10 H :    0.151640
  11 H :    0.149892
  12 H :    0.155687
  13 H :    0.210740
Sum of atomic charges:   -0.0000000

LOEWDIN ATOMIC CHARGES
----------------------
   0 C :   -0.260877
   1 C :   -0.297954
   2 O :    0.291515
   3 C :   -0.463796
   4 O :    0.168985
   5 C :   -0.051163
   6 C :   -0.022633
   7 C :   -0.161497
   8 N :    0.083002
   9 H :    0.136642
  10 H :    0.133620
  11 H :    0.138388
  12 H :    0.170421
  13 H :    0.135348

  Mayer bond orders larger than 0.1
B(  0-C ,  1-C ) :   0.9096 B(  0-C ,  9-H ) :   0.9245 B(  0-C , 10-H ) :   0.9340
B(  0-C , 11-H ) :   0.9273 B(  1-C ,  2-O ) :   0.8447 B(  1-C ,  7-C ) :   0.9140
B(  1-C , 12-H ) :   0.9230 B(  2-O ,  3-C ) :   1.1515 B(  3-C ,  4-O ) :   1.9455
B(  3-C ,  5-C ) :   1.1083 B(  5-C ,  6-C ) :   2.6339 B(  6-C , 13-H ) :   0.8802
B(  7-C ,  8-N ) :   2.8491

MP2 TOTAL ENERGY:     -435.951932414 Eh
FINAL SINGLE POINT ENERGY      -435.951932413871

DIPOLE MOMENT
-------------
                                X             Y             Z
Electronic contribution:     -0.22970      -5.73926      -1.85939
Nuclear contribution   :      0.30643       7.04238       0.76835
                        -----------------------------------------
Total Dipole Moment    :      0.07672       1.30312      -1.09104
                        -----------------------------------------
Magnitude (a.u.)       :      1.70128
Magnitude (Debye)      :      4.32431

                             ****ORCA TERMINATED NORMALLY****
TOTAL RUN TIME: 0 days 0 hours 14 minutes 5 seconds 880 msec
