                         Program Version 3.0.3 - RELEASE   -
|  1> ! RI-MP2 RIJK def2-TZVP def2-TZVP/C def2-TZVP/JK TIGHTSCF
|  2> % maxcore 2000
|  3> % mp2 density relaxed end
|  4> *xyz 0 1
|  5>  O       -0.0322845695     1.1243285492     1.2974841362
|  6>  C       -0.0306055625     0.1339513975     0.2853829018
|  7>  C        0.8815003872    -1.0282490086     0.7224424043
|  8>  N        0.0641116317    -2.0754871075     1.3635191576
|  9>  C       -0.8293835788    -1.5690643182     2.4226906323
| 10>  C       -1.3419599592    -1.7793996042     1.0459852933
| 11>  C       -1.4192395333    -0.5704497692     0.1083617067
| 12>  C       -2.5419627798     0.3273471094     0.3315754210
| 13>  C       -3.4351853319     1.1088184582     0.5308708277
| 14>  H       -0.8136207047     1.6772576752     1.1643753746
| 15>  H        0.2931651720     0.5706164006    -0.6694902052
| 16>  H        1.3625079072    -1.4761766544    -0.1536978237
| 17>  H        1.6626663793    -0.6716530918     1.3988593397
| 18>  H       -1.0639436978    -2.3006271292     3.1905959782
| 19>  H       -0.6936307451    -0.5502089561     2.7678534711
| 20>  H       -1.9874757943    -2.6227644168     0.8193464603
| 21>  H       -1.4706071827    -0.9494105134    -0.9208237975
| 22>  H       -4.2477947879     1.7715795390     0.7003318515
| 23> *
| 24>
| 25>                          ****END OF INPUT****

CARTESIAN COORDINATES (ANGSTROEM)
---------------------------------
  O     -0.032285    1.124329    1.297484
  C     -0.030606    0.133951    0.285383
  C      0.881500   -1.028249    0.722442
  N      0.064112   -2.075487    1.363519
  C     -0.829384   -1.569064    2.422691
  C     -1.341960   -1.779400    1.045985
  C     -1.419240   -0.570450    0.108362
  C     -2.541963    0.327347    0.331575
  C     -3.435185    1.108818    0.530871
  H     -0.813621    1.677258    1.164375
  H      0.293165    0.570616   -0.669490
  H      1.362508   -1.476177   -0.153698
  H      1.662666   -0.671653    1.398859
  H     -1.063944   -2.300627    3.190596
  H     -0.693631   -0.550209    2.767853
  H     -1.987476   -2.622764    0.819346
  H     -1.470607   -0.949411   -0.920824
  H     -4.247795    1.771580    0.700332

 Total Charge           Charge          ....    0
 Multiplicity           Mult            ....    1
 Number of Electrons    NEL             ....   66
 Basis Dimension        Dim             ....  333

ORBITAL ENERGIES
----------------

  NO   OCC          E(Eh)            E(eV)
   0   2.0000     -20.560947      -559.4918
   1   2.0000     -15.560232      -423.4154
   2   2.0000     -11.295648      -307.3702
   3   2.0000     -11.270317      -306.6809
   4   2.0000     -11.265133      -306.5398
   5   2.0000     -11.253247      -306.2164
   6   2.0000     -11.249361      -306.1107
   7   2.0000     -11.248690      -306.0924
   8   2.0000     -11.237591      -305.7904
   9   2.0000      -1.373688       -37.3800
  10   2.0000      -1.281798       -34.8795
  11   2.0000      -1.088472       -29.6188
  12   2.0000      -1.028662       -27.9913
  13   2.0000      -0.992692       -27.0125
  14   2.0000      -0.870953       -23.6998
  15   2.0000      -0.815639       -22.1947
  16   2.0000      -0.794167       -21.6104
  17   2.0000      -0.732738       -19.9388
  18   2.0000      -0.717874       -19.5343
  19   2.0000      -0.694084       -18.8870
  20   2.0000      -0.652784       -17.7631
  21   2.0000      -0.621964       -16.9245
  22   2.0000      -0.598832       -16.2951
  23   2.0000      -0.583437       -15.8761
  24   2.0000      -0.545843       -14.8531
  25   2.0000      -0.541370       -14.7314
  26   2.0000      -0.502961       -13.6863
  27   2.0000      -0.482777       -13.1370
  28   2.0000      -0.456306       -12.4167
  29   2.0000      -0.441228       -12.0064
  30   2.0000      -0.401170       -10.9164
  31   2.0000      -0.399347       -10.8668
  32   2.0000      -0.371890       -10.1196
  33   0.0000       0.130491         3.5508
  34   0.0000       0.153211         4.1691
  35   0.0000       0.160306         4.3622
  36   0.0000       0.166875         4.5409
  37   0.0000       0.178474         4.8565

MULLIKEN ATOMIC CHARGES
-----------------------
   0 O :   -0.469969
   1 C :    0.077477
   2 C :   -0.127904
   3 N :   -0.232396
   4 C :   -0.222731
   5 C :    0.016064
   6 C :   -0.196691
   7 C :   -0.098058
   8 C :   -0.161282
   9 H :    0.326156
  10 H :    0.103351
  11 H :    0.122237
  12 H :    0.130815
  13 H :    0.125771
  14 H :    0.155812
  15 H :    0.127790
  16 H :    0.128136
  17 H :    0.195422
Sum of atomic charges:    0.0000000

LOEWDIN ATOMIC CHARGES
----------------------
   0 O :   -0.008898
   1 C :   -0.302278
   2 C :   -0.251920
   3 N :    0.109196
   4 C :   -0.233080
   5 C :   -0.215765
   6 C :   -0.209636
   7 C :   -0.094997
   8 C :   -0.097402
   9 H :    0.180864
  10 H :    0.135107
  11 H :    0.137194
  12 H :    0.141464
  13 H :    0.126448
  14 H :    0.134361
  15 H :    0.141936
  16 H :    0.178282
  17 H :    0.129126

  Mayer bond orders larger than 0.1
B(  0-O ,  1-C ) :   0.9990 B(  0-O ,  9-H ) :   0.8258 B(  1-C ,  2-C ) :   0.8985
B(  1-C ,  6-C ) :   0.8990 B(  1-C , 10-H ) :   0.9351 B(  2-C ,  3-N ) :   0.9376
B(  2-C , 11-H ) :   0.9231 B(  2-C , 12-H ) :   0.9279 B(  3-N ,  4-C ) :   0.8845
B(  3-N ,  5-C ) :   0.9085 B(  4-C ,  5-C ) :   0.9332 B(  4-C , 13-H ) :   0.9249
B(  4-C , 14-H ) :   0.9063 B(  5-C ,  6-C ) :   0.8973 B(  5-C , 15-H ) :   0.9135
B(  6-C ,  7-C ) :   1.1351 B(  6-C , 16-H ) :   0.9108 B(  7-C ,  8-C ) :   2.5858
B(  8-C , 17-H ) :   0.8940

MP2 TOTAL ENERGY:     -401.199605023 Eh
FINAL SINGLE POINT ENERGY      -401.199605022770

DIPOLE MOMENT
-------------
                                X             Y             Z
Electronic contribution:     -1.65617       0.79752      -0.44684
Nuclear contribution   :      1.12262      -0.40019       0.00052
                        -----------------------------------------
Total Dipole Moment    :     -0.53356       0.39733      -0.44632
                        -----------------------------------------
Magnitude (a.u.)       :      0.80110
Magnitude (Debye)      :      2.03623

                             ****ORCA TERMINATED NORMALLY****
TOTAL RUN TIME: 0 days 0 hours 19 minutes 18 seconds 988 msec
