                         Program Version 3.0.3 - RELEASE   -
|  1> ! RI-MP2 RIJK def2-TZVP def2-TZVP/C def2-TZVP/JK TIGHTSCF
|  2> % maxcore 2000
|  3> % mp2 density relaxed end
|  4> *xyz 0 1
|  5>  O       -0.1781017301    -0.0024504767    -0.0336141882
|  6>  C       -0.0519568670     1.1923864946     0.0173434710
|  7>  C        1.2729958685     1.9271230946    -0.0047697964
|  8>  C        1.3675149767     2.8168704625    -1.2592323224
|  9>  C        2.7273825885     3.5208080536    -1.2992210261
| 10>  C        3.1305680120     4.1959607958     0.0066439020
| 11>  O        3.9687801024     5.0760335010     0.0489890524
| 12>  N        2.5358676035     3.7171399252     1.1441607724
| 13>  C        1.4073821817     2.8045083756     1.2479050444
| 14>  H       -0.9431718614     1.8630679714     0.0684426989
| 15>  H        2.0680264250     1.1746097859    -0.0235842462
| 16>  H        1.2243218918     2.2174304711    -2.1639590774
| 17>  H        0.5585406294     3.5589925123    -1.2385354050
| 18>  H        3.5172702966     2.7961380853    -1.5337418347
| 19>  H        2.7668212516     4.2840463379    -2.0798645363
| 20>  H        2.8188322456     4.2080376913     1.9807590928
| 21>  H        0.4698048346     3.3647064923     1.3974315005
| 22>  H        1.5444799406     2.1720204861     2.1320686883
| 23> *
| 24>
| 25>                          ****END OF INPUT****

CARTESIAN COORDINATES (ANGSTROEM)
---------------------------------
  O     -0.178102   -0.002450   -0.033614
  C     -0.051957    1.192386    0.017343
  C      1.272996    1.927123   -0.004770
  C      1.367515    2.816870   -1.259232
  C      2.727383    3.520808   -1.299221
  C      3.130568    4.195961    0.006644
  O      3.968780    5.076034    0.048989
  N      2.535868    3.717140    1.144161
  C      1.407382    2.804508    1.247905
  H     -0.943172    1.863068    0.068443
  H      2.068026    1.174610   -0.023584
  H      1.224322    2.217430   -2.163959
  H      0.558541    3.558993   -1.238535
  H      3.517270    2.796138   -1.533742
  H      2.766821    4.284046   -2.079865
  H      2.818832    4.208038    1.980759
  H      0.469805    3.364706    1.397432
  H      1.544480    2.172020    2.132069

 Total Charge           Charge          ....    0
 Multiplicity           Mult            ....    1
 Number of Electrons    NEL             ....   68
 Basis Dimension        Dim             ....  333

ORBITAL ENERGIES
----------------

  NO   OCC          E(Eh)            E(eV)
   0   2.0000     -20.574007      -559.8472
   1   2.0000     -20.518631      -558.3403
   2   2.0000     -15.593009      -424.3073
   3   2.0000     -11.355526      -308.9996
   4   2.0000     -11.346751      -308.7608
   5   2.0000     -11.298667      -307.4523
   6   2.0000     -11.266469      -306.5762
   7   2.0000     -11.260707      -306.4194
   8   2.0000     -11.252190      -306.1877
   9   2.0000      -1.412697       -38.4414
  10   2.0000      -1.385963       -37.7140
  11   2.0000      -1.247590       -33.9487
  12   2.0000      -1.115145       -30.3446
  13   2.0000      -1.044456       -28.4211
  14   2.0000      -0.925395       -25.1813
  15   2.0000      -0.886174       -24.1140
  16   2.0000      -0.817881       -22.2557
  17   2.0000      -0.777405       -21.1543
  18   2.0000      -0.702846       -19.1254
  19   2.0000      -0.675000       -18.3677
  20   2.0000      -0.672573       -18.3017
  21   2.0000      -0.654814       -17.8184
  22   2.0000      -0.633329       -17.2338
  23   2.0000      -0.628747       -17.1091
  24   2.0000      -0.602005       -16.3814
  25   2.0000      -0.585821       -15.9410
  26   2.0000      -0.555258       -15.1093
  27   2.0000      -0.549292       -14.9470
  28   2.0000      -0.518753       -14.1160
  29   2.0000      -0.507270       -13.8035
  30   2.0000      -0.492030       -13.3888
  31   2.0000      -0.434815       -11.8319
  32   2.0000      -0.422508       -11.4970
  33   2.0000      -0.399346       -10.8668
  34   0.0000       0.115010         3.1296
  35   0.0000       0.117251         3.1906
  36   0.0000       0.137335         3.7371
  37   0.0000       0.145826         3.9681
  38   0.0000       0.157411         4.2834

MULLIKEN ATOMIC CHARGES
-----------------------
   0 O :   -0.248683
   1 C :    0.073583
   2 C :    0.000638
   3 C :   -0.273963
   4 C :   -0.195995
   5 C :    0.189180
   6 O :   -0.346944
   7 N :   -0.292607
   8 C :   -0.155379
   9 H :    0.077882
  10 H :    0.108767
  11 H :    0.146147
  12 H :    0.124768
  13 H :    0.137002
  14 H :    0.151209
  15 H :    0.240896
  16 H :    0.120335
  17 H :    0.143165
Sum of atomic charges:   -0.0000000

LOEWDIN ATOMIC CHARGES
----------------------
   0 O :    0.145090
   1 C :   -0.272841
   2 C :   -0.250450
   3 C :   -0.229652
   4 C :   -0.221888
   5 C :   -0.457145
   6 O :    0.079958
   7 N :    0.112776
   8 C :   -0.253319
   9 H :    0.114494
  10 H :    0.163508
  11 H :    0.145797
  12 H :    0.145188
  13 H :    0.157971
  14 H :    0.155127
  15 H :    0.191399
  16 H :    0.133504
  17 H :    0.140482

  Mayer bond orders larger than 0.1
B(  0-O ,  1-C ) :   2.0034 B(  1-C ,  2-C ) :   0.8610 B(  1-C ,  9-H ) :   0.9301
B(  2-C ,  3-C ) :   0.8972 B(  2-C ,  8-C ) :   0.9342 B(  2-C , 10-H ) :   0.8975
B(  3-C ,  4-C ) :   0.8948 B(  3-C , 11-H ) :   0.9249 B(  3-C , 12-H ) :   0.9182
B(  4-C ,  5-C ) :   0.9326 B(  4-C , 13-H ) :   0.9119 B(  4-C , 14-H ) :   0.9246
B(  5-C ,  6-O ) :   1.9935 B(  5-C ,  7-N ) :   1.1608 B(  7-N ,  8-C ) :   0.8840
B(  7-N , 15-H ) :   0.8576 B(  8-C , 16-H ) :   0.9189 B(  8-C , 17-H ) :   0.9259

MP2 TOTAL ENERGY:     -438.419130801 Eh
FINAL SINGLE POINT ENERGY      -438.419130800601

DIPOLE MOMENT
-------------
                                X             Y             Z
Electronic contribution:      1.23484      -0.38527       1.55773
Nuclear contribution   :     -2.02051       0.35883      -1.31674
                        -----------------------------------------
Total Dipole Moment    :     -0.78567      -0.02644       0.24099
                        -----------------------------------------
Magnitude (a.u.)       :      0.82222
Magnitude (Debye)      :      2.08993

                             ****ORCA TERMINATED NORMALLY****
TOTAL RUN TIME: 0 days 0 hours 16 minutes 22 seconds 551 msec
