                         Program Version 3.0.3 - RELEASE   -
|  1> ! RI-MP2 RIJK def2-TZVP def2-TZVP/C def2-TZVP/JK TIGHTSCF
|  2> % maxcore 2000
|  3> % mp2 density relaxed end
|  4> *xyz 0 1
|  5>  C        0.0204438094     1.5647773298     0.0214991477
|  6>  C        0.0467957166     0.0173420279    -0.0040088073
|  7>  C        0.7130208067    -0.4792886670    -1.2122837284
|  8>  C        1.2609220220    -0.8662992306    -2.2088310513
|  9>  C        0.6628590485    -0.5493762952     1.2385007539
| 10>  C        0.2216555210    -1.3439258147     2.2435046978
| 11>  N        1.2413161820    -1.5332351592     3.1707282670
| 12>  C        2.2286160068    -0.8561182854     2.6873542917
| 13>  O        1.9655921071    -0.2255894483     1.5188816674
| 14>  H        1.0374251280     1.9604609944     0.0668412551
| 15>  H       -0.4611804243     1.9478160347    -0.8811879757
| 16>  H       -0.5322368131     1.9159176422     0.8971435209
| 17>  H       -0.9897662056    -0.3432379059    -0.0139001637
| 18>  H        1.7455207622    -1.2187001593    -3.0856009820
| 19>  H       -0.7499230654    -1.7954258238     2.3672462912
| 20>  H        3.2209979281    -0.7317507798     3.0912495357
| 21> *
| 22>
| 23>                          ****END OF INPUT****

CARTESIAN COORDINATES (ANGSTROEM)
---------------------------------
  C      0.020444    1.564777    0.021499
  C      0.046796    0.017342   -0.004009
  C      0.713021   -0.479289   -1.212284
  C      1.260922   -0.866299   -2.208831
  C      0.662859   -0.549376    1.238501
  C      0.221656   -1.343926    2.243505
  N      1.241316   -1.533235    3.170728
  C      2.228616   -0.856118    2.687354
  O      1.965592   -0.225589    1.518882
  H      1.037425    1.960461    0.066841
  H     -0.461180    1.947816   -0.881188
  H     -0.532237    1.915918    0.897144
  H     -0.989766   -0.343238   -0.013900
  H      1.745521   -1.218700   -3.085601
  H     -0.749923   -1.795426    2.367246
  H      3.220998   -0.731751    3.091250

 Total Charge           Charge          ....    0
 Multiplicity           Mult            ....    1
 Number of Electrons    NEL             ....   64
 Basis Dimension        Dim             ....  321

ORBITAL ENERGIES
----------------

  NO   OCC          E(Eh)            E(eV)
   0   2.0000     -20.639365      -561.6257
   1   2.0000     -15.567665      -423.6177
   2   2.0000     -11.334504      -308.4275
   3   2.0000     -11.303097      -307.5729
   4   2.0000     -11.285021      -307.0810
   5   2.0000     -11.260713      -306.4196
   6   2.0000     -11.240151      -305.8601
   7   2.0000     -11.236010      -305.7474
   8   2.0000     -11.228525      -305.5437
   9   2.0000      -1.489429       -40.5294
  10   2.0000      -1.234517       -33.5929
  11   2.0000      -1.123157       -30.5627
  12   2.0000      -1.028943       -27.9990
  13   2.0000      -0.996965       -27.1288
  14   2.0000      -0.896955       -24.4074
  15   2.0000      -0.846291       -23.0287
  16   2.0000      -0.803560       -21.8660
  17   2.0000      -0.747439       -20.3389
  18   2.0000      -0.719418       -19.5764
  19   2.0000      -0.673073       -18.3152
  20   2.0000      -0.652673       -17.7601
  21   2.0000      -0.626925       -17.0595
  22   2.0000      -0.596184       -16.2230
  23   2.0000      -0.587925       -15.9982
  24   2.0000      -0.564394       -15.3579
  25   2.0000      -0.541579       -14.7371
  26   2.0000      -0.529535       -14.4094
  27   2.0000      -0.464105       -12.6290
  28   2.0000      -0.456200       -12.4138
  29   2.0000      -0.398421       -10.8416
  30   2.0000      -0.393721       -10.7137
  31   2.0000      -0.340504        -9.2656
  32   0.0000       0.127538         3.4705
  33   0.0000       0.136322         3.7095
  34   0.0000       0.163146         4.4394
  35   0.0000       0.167290         4.5522
  36   0.0000       0.175909         4.7867

MULLIKEN ATOMIC CHARGES
-----------------------
   0 C :   -0.396651
   1 C :   -0.118849
   2 C :   -0.043679
   3 C :   -0.152444
   4 C :    0.177044
   5 C :   -0.144421
   6 N :   -0.263496
   7 C :    0.101461
   8 O :   -0.218704
   9 H :    0.145963
  10 H :    0.144445
  11 H :    0.142624
  12 H :    0.128589
  13 H :    0.193435
  14 H :    0.146004
  15 H :    0.158678
Sum of atomic charges:   -0.0000000

LOEWDIN ATOMIC CHARGES
----------------------
   0 C :   -0.257977
   1 C :   -0.238041
   2 C :   -0.079863
   3 C :   -0.089009
   4 C :   -0.223091
   5 C :   -0.221916
   6 N :    0.098676
   7 C :   -0.323808
   8 O :    0.360398
   9 H :    0.131610
  10 H :    0.129711
  11 H :    0.127804
  12 H :    0.184281
  13 H :    0.128126
  14 H :    0.139962
  15 H :    0.133135

  Mayer bond orders larger than 0.1
B(  0-C ,  1-C ) :   0.9039 B(  0-C ,  9-H ) :   0.9285 B(  0-C , 10-H ) :   0.9328
B(  0-C , 11-H ) :   0.9343 B(  1-C ,  2-C ) :   1.1135 B(  1-C ,  4-C ) :   0.9043
B(  1-C , 12-H ) :   0.9300 B(  2-C ,  3-C ) :   2.6090 B(  3-C , 13-H ) :   0.8957
B(  4-C ,  5-C ) :   1.5619 B(  4-C ,  8-O ) :   1.0011 B(  5-C ,  6-N ) :   1.2022
B(  5-C , 14-H ) :   0.9290 B(  6-N ,  7-C ) :   1.6491 B(  7-C ,  8-O ) :   1.0852
B(  7-C , 15-H ) :   0.9260

MP2 TOTAL ENERGY:     -400.042229982 Eh
FINAL SINGLE POINT ENERGY      -400.042229981580

DIPOLE MOMENT
-------------
                                X             Y             Z
Electronic contribution:      2.91395      -4.03885       2.81704
Nuclear contribution   :     -3.09696       4.52637      -3.34616
                        -----------------------------------------
Total Dipole Moment    :     -0.18302       0.48752      -0.52912
                        -----------------------------------------
Magnitude (a.u.)       :      0.74239
Magnitude (Debye)      :      1.88700

                             ****ORCA TERMINATED NORMALLY****
TOTAL RUN TIME: 0 days 0 hours 14 minutes 59 seconds 831 msec
