                         Program Version 3.0.3 - RELEASE   -
|  1> ! RI-MP2 RIJK def2-TZVP def2-TZVP/C def2-TZVP/JK TIGHTSCF
|  2> % maxcore 2000
|  3> % mp2 density relaxed end
|  4> *xyz 0 1
|  5>  C       -0.0937185922     1.6046845403    -0.0826358677
|  6>  C        1.4081145721     1.2689978959    -0.0082417165
|  7>  C        1.1974053518     0.1328518473     1.0283300967
|  8>  C       -0.0564323669     0.0694348440     0.0383115882
|  9>  C        1.2305836755    -0.0603308669    -0.8493305372
| 10>  C        1.8791955248    -0.2454983870    -2.2064085345
| 11>  C        3.2998091805    -0.5613705133    -1.7072075264
| 12>  C        3.3700648617    -0.8605576179    -0.3995108559
| 13>  C        1.9772544449    -0.9082179339     0.1824236806
| 14>  H       -0.5132202200     2.1513305224     0.7681751078
| 15>  H       -0.4701135154     2.0155245093    -1.0249062167
| 16>  H        2.2674274169     1.9378480906    -0.0594872425
| 17>  H        1.1265851331     0.2513741156     2.1121892914
| 18>  H       -0.8813643440    -0.6430384819     0.0958119994
| 19>  H        1.4723889877    -1.0844420316    -2.7886564403
| 20>  H        1.8444019849     0.6430680422    -2.8461376953
| 21>  H        4.1495577554    -0.5525968227    -2.3829341369
| 22>  H        4.2842424822    -1.1393014764     0.1138487224
| 23>  H        1.6271578868    -1.9417070061     0.3190673335
| 24> *
| 25>
| 26>                          ****END OF INPUT****

CARTESIAN COORDINATES (ANGSTROEM)
---------------------------------
  C     -0.093719    1.604685   -0.082636
  C      1.408115    1.268998   -0.008242
  C      1.197405    0.132852    1.028330
  C     -0.056432    0.069435    0.038312
  C      1.230584   -0.060331   -0.849331
  C      1.879196   -0.245498   -2.206409
  C      3.299809   -0.561371   -1.707208
  C      3.370065   -0.860558   -0.399511
  C      1.977254   -0.908218    0.182424
  H     -0.513220    2.151331    0.768175
  H     -0.470114    2.015525   -1.024906
  H      2.267427    1.937848   -0.059487
  H      1.126585    0.251374    2.112189
  H     -0.881364   -0.643038    0.095812
  H      1.472389   -1.084442   -2.788656
  H      1.844402    0.643068   -2.846138
  H      4.149558   -0.552597   -2.382934
  H      4.284242   -1.139301    0.113849
  H      1.627158   -1.941707    0.319067

 Total Charge           Charge          ....    0
 Multiplicity           Mult            ....    1
 Number of Electrons    NEL             ....   64
 Basis Dimension        Dim             ....  339

ORBITAL ENERGIES
----------------

  NO   OCC          E(Eh)            E(eV)
   0   2.0000     -11.244986      -305.9916
   1   2.0000     -11.241401      -305.8941
   2   2.0000     -11.237159      -305.7786
   3   2.0000     -11.230080      -305.5860
   4   2.0000     -11.229891      -305.5809
   5   2.0000     -11.228345      -305.5388
   6   2.0000     -11.223225      -305.3995
   7   2.0000     -11.219757      -305.3051
   8   2.0000     -11.219165      -305.2890
   9   2.0000      -1.243127       -33.8272
  10   2.0000      -1.101338       -29.9689
  11   2.0000      -0.983590       -26.7649
  12   2.0000      -0.944259       -25.6946
  13   2.0000      -0.858629       -23.3645
  14   2.0000      -0.841050       -22.8861
  15   2.0000      -0.806256       -21.9393
  16   2.0000      -0.724143       -19.7049
  17   2.0000      -0.676408       -18.4060
  18   2.0000      -0.672798       -18.3078
  19   2.0000      -0.635876       -17.3031
  20   2.0000      -0.606386       -16.5006
  21   2.0000      -0.593227       -16.1425
  22   2.0000      -0.566148       -15.4057
  23   2.0000      -0.545336       -14.8393
  24   2.0000      -0.503743       -13.7076
  25   2.0000      -0.461655       -12.5623
  26   2.0000      -0.440718       -11.9926
  27   2.0000      -0.437065       -11.8932
  28   2.0000      -0.425589       -11.5809
  29   2.0000      -0.403478       -10.9792
  30   2.0000      -0.381587       -10.3835
  31   2.0000      -0.343943        -9.3592
  32   0.0000       0.148484         4.0404
  33   0.0000       0.152017         4.1366
  34   0.0000       0.162622         4.4252
  35   0.0000       0.172047         4.6816
  36   0.0000       0.172807         4.7023

MULLIKEN ATOMIC CHARGES
-----------------------
   0 C :   -0.198332
   1 C :   -0.140433
   2 C :   -0.115449
   3 C :   -0.107226
   4 C :   -0.005133
   5 C :   -0.159356
   6 C :   -0.187966
   7 C :   -0.192855
   8 C :   -0.070014
   9 H :    0.110340
  10 H :    0.108965
  11 H :    0.124128
  12 H :    0.123629
  13 H :    0.123627
  14 H :    0.116086
  15 H :    0.124785
  16 H :    0.123594
  17 H :    0.126084
  18 H :    0.095526
Sum of atomic charges:    0.0000000

LOEWDIN ATOMIC CHARGES
----------------------
   0 C :   -0.206562
   1 C :   -0.120642
   2 C :   -0.114659
   3 C :   -0.116039
   4 C :   -0.141735
   5 C :   -0.205271
   6 C :   -0.136699
   7 C :   -0.140827
   8 C :   -0.154422
   9 H :    0.126964
  10 H :    0.126201
  11 H :    0.130266
  12 H :    0.125321
  13 H :    0.126174
  14 H :    0.143673
  15 H :    0.141633
  16 H :    0.133644
  17 H :    0.134747
  18 H :    0.148231

  Mayer bond orders larger than 0.1
B(  0-C ,  1-C ) :   0.9218 B(  0-C ,  3-C ) :   0.9255 B(  0-C ,  9-H ) :   0.9257
B(  0-C , 10-H ) :   0.9236 B(  1-C ,  2-C ) :   0.8708 B(  1-C ,  4-C ) :   0.8588
B(  1-C , 11-H ) :   0.8874 B(  2-C ,  3-C ) :   0.8751 B(  2-C ,  8-C ) :   0.8666
B(  2-C , 12-H ) :   0.8964 B(  3-C ,  4-C ) :   0.8358 B(  3-C , 13-H ) :   0.8980
B(  4-C ,  5-C ) :   0.9219 B(  4-C ,  8-C ) :   0.8827 B(  5-C ,  6-C ) :   0.9503
B(  5-C , 14-H ) :   0.8844 B(  5-C , 15-H ) :   0.9169 B(  6-C ,  7-C ) :   1.7710
B(  6-C , 16-H ) :   0.9283 B(  7-C ,  8-C ) :   0.9449 B(  7-C , 17-H ) :   0.9281
B(  8-C , 18-H ) :   0.9222

MP2 TOTAL ENERGY:     -348.012235072 Eh
FINAL SINGLE POINT ENERGY      -348.012235072335

DIPOLE MOMENT
-------------
                                X             Y             Z
Electronic contribution:      0.74878      -0.99261       0.94282
Nuclear contribution   :     -0.75891       0.98617      -1.06741
                        -----------------------------------------
Total Dipole Moment    :     -0.01013      -0.00644      -0.12458
                        -----------------------------------------
Magnitude (a.u.)       :      0.12516
Magnitude (Debye)      :      0.31813

                             ****ORCA TERMINATED NORMALLY****
TOTAL RUN TIME: 0 days 0 hours 18 minutes 31 seconds 172 msec
