                         Program Version 3.0.3 - RELEASE   -
|  1> ! RI-MP2 RIJK def2-TZVP def2-TZVP/C def2-TZVP/JK TIGHTSCF
|  2> % maxcore 2000
|  3> % mp2 density relaxed end
|  4> *xyz 0 1
|  5>  O       -0.0167146372    -0.0171781865    -0.0218333858
|  6>  C       -0.0480333555     1.1798836594     0.0365337156
|  7>  C       -1.2649495800     2.0545325547     0.1308334226
|  8>  C       -0.7925873843     3.4444570000     0.4012258950
|  9>  C        0.7260854287     3.3937180415     0.3331307841
| 10>  C        1.0806345254     3.0499976178    -1.0662247891
| 11>  C       -0.1986272619     3.0727107943    -1.8813713410
| 12>  N       -1.3202315080     3.1063560694    -0.9224609829
| 13>  N        1.1355404328     2.0106054670     0.0071432836
| 14>  H       -2.2165114410     1.6329867092     0.4337370333
| 15>  H       -1.3242337270     4.1620713141     1.0138839961
| 16>  H        1.3539990400     3.9472985230     1.0198586357
| 17>  H        2.0361592518     3.2903910073    -1.5228188491
| 18>  H       -0.2417207343     3.9859649897    -2.4849421740
| 19>  H       -0.3046635095     2.2154710190    -2.5532223941
| 20> *
| 21>
| 22>                          ****END OF INPUT****

CARTESIAN COORDINATES (ANGSTROEM)
---------------------------------
  O     -0.016715   -0.017178   -0.021833
  C     -0.048033    1.179884    0.036534
  C     -1.264950    2.054533    0.130833
  C     -0.792587    3.444457    0.401226
  C      0.726085    3.393718    0.333131
  C      1.080635    3.049998   -1.066225
  C     -0.198627    3.072711   -1.881371
  N     -1.320232    3.106356   -0.922461
  N      1.135540    2.010605    0.007143
  H     -2.216511    1.632987    0.433737
  H     -1.324234    4.162071    1.013884
  H      1.353999    3.947299    1.019859
  H      2.036159    3.290391   -1.522819
  H     -0.241721    3.985965   -2.484942
  H     -0.304664    2.215471   -2.553222

 Total Charge           Charge          ....    0
 Multiplicity           Mult            ....    1
 Number of Electrons    NEL             ....   64
 Basis Dimension        Dim             ....  315

ORBITAL ENERGIES
----------------

  NO   OCC          E(Eh)            E(eV)
   0   2.0000     -20.554619      -559.3196
   1   2.0000     -15.595810      -424.3836
   2   2.0000     -15.588934      -424.1965
   3   2.0000     -11.362608      -309.1923
   4   2.0000     -11.296498      -307.3933
   5   2.0000     -11.293535      -307.3127
   6   2.0000     -11.291393      -307.2544
   7   2.0000     -11.286499      -307.1213
   8   2.0000     -11.281440      -306.9836
   9   2.0000      -1.414545       -38.4917
  10   2.0000      -1.352397       -36.8006
  11   2.0000      -1.256135       -34.1812
  12   2.0000      -1.061927       -28.8965
  13   2.0000      -0.987032       -26.8585
  14   2.0000      -0.899748       -24.4834
  15   2.0000      -0.865409       -23.5490
  16   2.0000      -0.814513       -22.1640
  17   2.0000      -0.757563       -20.6143
  18   2.0000      -0.715291       -19.4641
  19   2.0000      -0.673249       -18.3200
  20   2.0000      -0.650090       -17.6898
  21   2.0000      -0.636746       -17.3267
  22   2.0000      -0.627990       -17.0885
  23   2.0000      -0.569949       -15.5091
  24   2.0000      -0.552324       -15.0295
  25   2.0000      -0.532023       -14.4771
  26   2.0000      -0.510701       -13.8969
  27   2.0000      -0.494442       -13.4545
  28   2.0000      -0.462666       -12.5898
  29   2.0000      -0.454302       -12.3622
  30   2.0000      -0.418111       -11.3774
  31   2.0000      -0.382558       -10.4099
  32   0.0000       0.126833         3.4513
  33   0.0000       0.142694         3.8829
  34   0.0000       0.160753         4.3743
  35   0.0000       0.169936         4.6242
  36   0.0000       0.174084         4.7371

MULLIKEN ATOMIC CHARGES
-----------------------
   0 O :   -0.242099
   1 C :    0.143439
   2 C :   -0.067617
   3 C :   -0.073103
   4 C :   -0.077409
   5 C :   -0.081753
   6 C :   -0.130808
   7 N :   -0.207428
   8 N :   -0.154257
   9 H :    0.148703
  10 H :    0.154831
  11 H :    0.157912
  12 H :    0.144836
  13 H :    0.142098
  14 H :    0.142656
Sum of atomic charges:    0.0000000

LOEWDIN ATOMIC CHARGES
----------------------
   0 O :    0.172552
   1 C :   -0.374462
   2 C :   -0.179870
   3 C :   -0.190887
   4 C :   -0.188076
   5 C :   -0.199317
   6 C :   -0.249101
   7 N :    0.154132
   8 N :    0.177937
   9 H :    0.148970
  10 H :    0.145453
  11 H :    0.145690
  12 H :    0.145744
  13 H :    0.146576
  14 H :    0.144659

  Mayer bond orders larger than 0.1
B(  0-O ,  1-C ) :   2.0561 B(  1-C ,  2-C ) :   0.9308 B(  1-C ,  8-N ) :   1.0120
B(  2-C ,  3-C ) :   0.8549 B(  2-C ,  7-N ) :   0.8538 B(  2-C ,  9-H ) :   0.9181
B(  3-C ,  4-C ) :   0.9496 B(  3-C ,  7-N ) :   0.9223 B(  3-C , 10-H ) :   0.9038
B(  4-C ,  5-C ) :   0.8933 B(  4-C ,  8-N ) :   0.8822 B(  4-C , 11-H ) :   0.8999
B(  5-C ,  6-C ) :   0.9512 B(  5-C ,  8-N ) :   0.8382 B(  5-C , 12-H ) :   0.9207
B(  6-C ,  7-N ) :   0.9369 B(  6-C , 13-H ) :   0.9126 B(  6-C , 14-H ) :   0.9203

MP2 TOTAL ENERGY:     -416.088267681 Eh
FINAL SINGLE POINT ENERGY      -416.088267681132

DIPOLE MOMENT
-------------
                                X             Y             Z
Electronic contribution:      0.18935      -3.37232       1.82049
Nuclear contribution   :     -0.21378       4.86232      -1.90711
                        -----------------------------------------
Total Dipole Moment    :     -0.02443       1.49000      -0.08662
                        -----------------------------------------
Magnitude (a.u.)       :      1.49272
Magnitude (Debye)      :      3.79418

                             ****ORCA TERMINATED NORMALLY****
TOTAL RUN TIME: 0 days 0 hours 18 minutes 42 seconds 8 msec
