                         Program Version 3.0.3 - RELEASE   -
|  1> ! RI-MP2 RIJK def2-TZVP def2-TZVP/C def2-TZVP/JK TIGHTSCF
|  2> % maxcore 2000
|  3> % mp2 density relaxed end
|  4> *xyz 0 1
|  5>  O        0.1370693782     1.1987287896     0.5736628841
|  6>  C        0.0423786469     0.0184417612    -0.2223658972
|  7>  C       -1.3058821139    -0.6159102925    -0.1515216627
|  8>  N       -2.1363465087    -0.8193431629    -1.1660290617
|  9>  C       -3.2907323626    -1.3913343312    -0.6688351369
| 10>  C       -3.1452512196    -1.5310050133     0.6894677075
| 11>  C       -3.4695762156    -1.8456799309     2.1458772698
| 12>  C       -2.0366774483    -1.2657542039     2.4528264154
| 13>  N       -1.9072752639    -1.0494530063     0.9936542323
| 14>  H       -0.5127615352     1.8222383778     0.2315444346
| 15>  H        0.2668898054     0.2058883712    -1.2796735162
| 16>  H        0.8151425430    -0.6505544128     0.1725251511
| 17>  H       -4.1134867558    -1.6477825356    -1.3166951692
| 18>  H       -4.2919318158    -1.2771178381     2.5859776301
| 19>  H       -3.5941942911    -2.9026941002     2.3919458925
| 20>  H       -2.0113543079    -0.3394570836     3.0301315633
| 21>  H       -1.3113153451    -1.9763933087     2.8551422229
| 22> *
| 23>
| 24>                          ****END OF INPUT****

CARTESIAN COORDINATES (ANGSTROEM)
---------------------------------
  O      0.137069    1.198729    0.573663
  C      0.042379    0.018442   -0.222366
  C     -1.305882   -0.615910   -0.151522
  N     -2.136347   -0.819343   -1.166029
  C     -3.290732   -1.391334   -0.668835
  C     -3.145251   -1.531005    0.689468
  C     -3.469576   -1.845680    2.145877
  C     -2.036677   -1.265754    2.452826
  N     -1.907275   -1.049453    0.993654
  H     -0.512762    1.822238    0.231544
  H      0.266890    0.205888   -1.279674
  H      0.815143   -0.650554    0.172525
  H     -4.113487   -1.647783   -1.316695
  H     -4.291932   -1.277118    2.585978
  H     -3.594194   -2.902694    2.391946
  H     -2.011354   -0.339457    3.030132
  H     -1.311315   -1.976393    2.855142

 Total Charge           Charge          ....    0
 Multiplicity           Mult            ....    1
 Number of Electrons    NEL             ....   66
 Basis Dimension        Dim             ....  327

ORBITAL ENERGIES
----------------

  NO   OCC          E(Eh)            E(eV)
   0   2.0000     -20.563377      -559.5579
   1   2.0000     -15.603105      -424.5821
   2   2.0000     -15.541612      -422.9088
   3   2.0000     -11.300607      -307.5051
   4   2.0000     -11.290082      -307.2188
   5   2.0000     -11.288204      -307.1677
   6   2.0000     -11.265277      -306.5438
   7   2.0000     -11.258235      -306.3522
   8   2.0000     -11.237481      -305.7874
   9   2.0000      -1.369616       -37.2691
  10   2.0000      -1.349472       -36.7210
  11   2.0000      -1.198232       -32.6056
  12   2.0000      -1.046938       -28.4886
  13   2.0000      -0.993150       -27.0250
  14   2.0000      -0.935883       -25.4667
  15   2.0000      -0.879765       -23.9396
  16   2.0000      -0.798785       -21.7360
  17   2.0000      -0.739739       -20.1293
  18   2.0000      -0.715217       -19.4620
  19   2.0000      -0.684749       -18.6330
  20   2.0000      -0.658636       -17.9224
  21   2.0000      -0.615805       -16.7569
  22   2.0000      -0.601924       -16.3792
  23   2.0000      -0.573801       -15.6139
  24   2.0000      -0.556048       -15.1308
  25   2.0000      -0.546228       -14.8636
  26   2.0000      -0.542595       -14.7648
  27   2.0000      -0.513733       -13.9794
  28   2.0000      -0.509675       -13.8690
  29   2.0000      -0.463226       -12.6050
  30   2.0000      -0.423211       -11.5162
  31   2.0000      -0.380351       -10.3499
  32   2.0000      -0.306634        -8.3439
  33   0.0000       0.127567         3.4713
  34   0.0000       0.140261         3.8167
  35   0.0000       0.156841         4.2679
  36   0.0000       0.171833         4.6758
  37   0.0000       0.177753         4.8369

MULLIKEN ATOMIC CHARGES
-----------------------
   0 O :   -0.476059
   1 C :   -0.017646
   2 C :    0.041251
   3 N :   -0.276443
   4 C :   -0.138245
   5 C :   -0.002355
   6 C :   -0.181368
   7 C :   -0.164013
   8 N :   -0.041770
   9 H :    0.317715
  10 H :    0.135429
  11 H :    0.117312
  12 H :    0.132619
  13 H :    0.137415
  14 H :    0.137539
  15 H :    0.141712
  16 H :    0.136905
Sum of atomic charges:    0.0000000

LOEWDIN ATOMIC CHARGES
----------------------
   0 O :   -0.055667
   1 C :   -0.314683
   2 C :   -0.333938
   3 N :    0.110580
   4 C :   -0.248014
   5 C :   -0.199152
   6 C :   -0.197403
   7 C :   -0.179088
   8 N :    0.304140
   9 H :    0.175316
  10 H :    0.134361
  11 H :    0.134949
  12 H :    0.130690
  13 H :    0.137521
  14 H :    0.137277
  15 H :    0.132562
  16 H :    0.130549

  Mayer bond orders larger than 0.1
B(  0-O ,  1-C ) :   0.8908 B(  0-O ,  9-H ) :   0.8447 B(  1-C ,  2-C ) :   0.8959
B(  1-C , 10-H ) :   0.9527 B(  1-C , 11-H ) :   0.9271 B(  2-C ,  3-N ) :   1.5602
B(  2-C ,  8-N ) :   1.1412 B(  3-N ,  4-C ) :   1.2963 B(  4-C ,  5-C ) :   1.4370
B(  4-C , 12-H ) :   0.9489 B(  5-C ,  6-C ) :   0.9206 B(  5-C ,  8-N ) :   1.1169
B(  6-C ,  7-C ) :   0.9537 B(  6-C , 13-H ) :   0.9137 B(  6-C , 14-H ) :   0.9148
B(  7-C ,  8-N ) :   0.8476 B(  7-C , 15-H ) :   0.9166 B(  7-C , 16-H ) :   0.9171

MP2 TOTAL ENERGY:     -417.297817066 Eh
FINAL SINGLE POINT ENERGY      -417.297817065896

DIPOLE MOMENT
-------------
                                X             Y             Z
Electronic contribution:     -0.39209       0.37533      -2.88644
Nuclear contribution   :     -0.03357      -0.66999       4.10835
                        -----------------------------------------
Total Dipole Moment    :     -0.42567      -0.29466       1.22191
                        -----------------------------------------
Magnitude (a.u.)       :      1.32706
Magnitude (Debye)      :      3.37311

                             ****ORCA TERMINATED NORMALLY****
TOTAL RUN TIME: 0 days 0 hours 16 minutes 46 seconds 773 msec
