                         Program Version 3.0.3 - RELEASE   -
|  1> ! RI-MP2 RIJK def2-TZVP def2-TZVP/C def2-TZVP/JK TIGHTSCF
|  2> % maxcore 2000
|  3> % mp2 density relaxed end
|  4> *xyz 0 1
|  5>  O        0.3520835079     0.3635808583     0.9694612157
|  6>  C        0.1549959392     1.3014083387     0.2447738279
|  7>  C        1.2007404941     1.8034653802    -0.6686471501
|  8>  N        2.0001039501     2.2101328542    -1.3985100920
|  9>  C       -1.1260132641     2.0830344922     0.1889276027
| 10>  N       -2.3218164207     1.3867493737     0.6569953633
| 11>  C       -1.8220057509     2.4872470931     1.4716600411
| 12>  C       -1.2845774578     2.1668599041     2.7731756330
| 13>  N       -0.8678892717     1.9766472699     3.8335844949
| 14>  H       -1.2025993644     2.7942936835    -0.6295778983
| 15>  H       -3.1379530199     1.6758478548     0.1239746934
| 16>  H       -2.3330004618     3.4465373672     1.4373321984
| 17> *
| 18>
| 19>                          ****END OF INPUT****

CARTESIAN COORDINATES (ANGSTROEM)
---------------------------------
  O      0.352084    0.363581    0.969461
  C      0.154996    1.301408    0.244774
  C      1.200740    1.803465   -0.668647
  N      2.000104    2.210133   -1.398510
  C     -1.126013    2.083034    0.188928
  N     -2.321816    1.386749    0.656995
  C     -1.822006    2.487247    1.471660
  C     -1.284577    2.166860    2.773176
  N     -0.867889    1.976647    3.833584
  H     -1.202599    2.794294   -0.629578
  H     -3.137953    1.675848    0.123975
  H     -2.333000    3.446537    1.437332

 Total Charge           Charge          ....    0
 Multiplicity           Mult            ....    1
 Number of Electrons    NEL             ....   62
 Basis Dimension        Dim             ....  297

ORBITAL ENERGIES
----------------

  NO   OCC          E(Eh)            E(eV)
   0   2.0000     -20.618499      -561.0579
   1   2.0000     -15.637977      -425.5310
   2   2.0000     -15.626486      -425.2183
   3   2.0000     -15.594940      -424.3599
   4   2.0000     -11.417259      -310.6794
   5   2.0000     -11.362527      -309.1901
   6   2.0000     -11.345811      -308.7352
   7   2.0000     -11.313306      -307.8507
   8   2.0000     -11.294802      -307.3472
   9   2.0000      -1.462676       -39.8014
  10   2.0000      -1.347955       -36.6797
  11   2.0000      -1.261753       -34.3341
  12   2.0000      -1.236089       -33.6357
  13   2.0000      -1.042782       -28.3755
  14   2.0000      -0.997992       -27.1567
  15   2.0000      -0.898992       -24.4628
  16   2.0000      -0.806127       -21.9358
  17   2.0000      -0.766357       -20.8536
  18   2.0000      -0.724594       -19.7172
  19   2.0000      -0.672180       -18.2909
  20   2.0000      -0.635085       -17.2815
  21   2.0000      -0.611925       -16.6513
  22   2.0000      -0.594509       -16.1774
  23   2.0000      -0.578376       -15.7384
  24   2.0000      -0.553576       -15.0636
  25   2.0000      -0.517652       -14.0860
  26   2.0000      -0.507354       -13.8058
  27   2.0000      -0.501769       -13.6538
  28   2.0000      -0.495924       -13.4948
  29   2.0000      -0.481932       -13.1140
  30   2.0000      -0.452364       -12.3094
  31   0.0000       0.030391         0.8270
  32   0.0000       0.086777         2.3613
  33   0.0000       0.123179         3.3519
  34   0.0000       0.145857         3.9690
  35   0.0000       0.149950         4.0803

MULLIKEN ATOMIC CHARGES
-----------------------
   0 O :   -0.199174
   1 C :    0.303085
   2 C :   -0.167645
   3 N :   -0.031852
   4 C :   -0.019715
   5 N :   -0.328371
   6 C :    0.036641
   7 C :   -0.148784
   8 N :   -0.036648
   9 H :    0.172576
  10 H :    0.245636
  11 H :    0.174251
Sum of atomic charges:   -0.0000000

LOEWDIN ATOMIC CHARGES
----------------------
   0 O :    0.248779
   1 C :   -0.310264
   2 C :   -0.131325
   3 N :    0.110164
   4 C :   -0.201170
   5 N :    0.070450
   6 C :   -0.224847
   7 C :   -0.165141
   8 N :    0.096530
   9 H :    0.157212
  10 H :    0.183654
  11 H :    0.165959

  Mayer bond orders larger than 0.1
B(  0-O ,  1-C ) :   1.9801 B(  1-C ,  2-C ) :   0.8783 B(  1-C ,  4-C ) :   0.9197
B(  2-C ,  3-N ) :   2.7768 B(  4-C ,  5-N ) :   0.9011 B(  4-C ,  6-C ) :   0.8622
B(  4-C ,  9-H ) :   0.9061 B(  5-N ,  6-C ) :   0.9652 B(  5-N , 10-H ) :   0.8562
B(  6-C ,  7-C ) :   0.9611 B(  6-C , 11-H ) :   0.9098 B(  7-C ,  8-N ) :   2.8173

MP2 TOTAL ENERGY:     -430.927032692 Eh
FINAL SINGLE POINT ENERGY      -430.927032692171

DIPOLE MOMENT
-------------
                                X             Y             Z
Electronic contribution:      3.27651      -1.43536       0.46366
Nuclear contribution   :     -5.03301       2.52646      -1.63071
                        -----------------------------------------
Total Dipole Moment    :     -1.75649       1.09110      -1.16705
                        -----------------------------------------
Magnitude (a.u.)       :      2.37440
Magnitude (Debye)      :      6.03524

                             ****ORCA TERMINATED NORMALLY****
TOTAL RUN TIME: 0 days 0 hours 12 minutes 30 seconds 799 msec
