                         Program Version 3.0.3 - RELEASE   -
|  1> ! RI-MP2 RIJK def2-TZVP def2-TZVP/C def2-TZVP/JK TIGHTSCF
|  2> % maxcore 2000
|  3> % mp2 density relaxed end
|  4> *xyz 0 1
|  5>  C        0.0491767555     1.4347068406    -0.1754879918
|  6>  C       -0.2435248288    -0.0418122983    -0.1168891666
|  7>  N       -0.6923619547    -0.6840443543     0.8835617682
|  8>  N        0.0734649689    -0.8207353501    -1.2747470725
|  9>  C       -0.0772239524    -0.3851070693    -2.5964624884
| 10>  N       -0.5966158439     0.7300343866    -2.9079492437
| 11>  C        0.5253719718    -2.1413139036    -1.0807001066
| 12>  O        0.7764991727    -2.9034052495    -1.9797132362
| 13>  H        1.0379162335     1.6218517893    -0.6043446360
| 14>  H       -0.6712754976     1.9429784080    -0.8176294385
| 15>  H        0.0083366653     1.8490517594     0.8343648698
| 16>  H       -0.8079798806    -0.0610470186     1.6820948606
| 17>  H        0.2903113908    -1.1462116023    -3.2858516946
| 18>  H       -0.6071767579     0.8323974591    -3.9212152860
| 19>  H        0.6297233575    -2.3746233969    -0.0139996276
| 20> *
| 21>
| 22>                          ****END OF INPUT****

CARTESIAN COORDINATES (ANGSTROEM)
---------------------------------
  C      0.049177    1.434707   -0.175488
  C     -0.243525   -0.041812   -0.116889
  N     -0.692362   -0.684044    0.883562
  N      0.073465   -0.820735   -1.274747
  C     -0.077224   -0.385107   -2.596462
  N     -0.596616    0.730034   -2.907949
  C      0.525372   -2.141314   -1.080700
  O      0.776499   -2.903405   -1.979713
  H      1.037916    1.621852   -0.604345
  H     -0.671275    1.942978   -0.817629
  H      0.008337    1.849052    0.834365
  H     -0.807980   -0.061047    1.682095
  H      0.290311   -1.146212   -3.285852
  H     -0.607177    0.832397   -3.921215
  H      0.629723   -2.374623   -0.014000

 Total Charge           Charge          ....    0
 Multiplicity           Mult            ....    1
 Number of Electrons    NEL             ....   60
 Basis Dimension        Dim             ....  290

ORBITAL ENERGIES
----------------

  NO   OCC          E(Eh)            E(eV)
   0   2.0000     -20.555825      -559.3524
   1   2.0000     -15.627631      -425.2495
   2   2.0000     -15.560453      -423.4215
   3   2.0000     -15.558002      -423.3548
   4   2.0000     -11.371000      -309.4206
   5   2.0000     -11.346824      -308.7628
   6   2.0000     -11.335097      -308.4437
   7   2.0000     -11.244346      -305.9742
   8   2.0000      -1.418506       -38.5995
   9   2.0000      -1.321025       -35.9469
  10   2.0000      -1.233207       -33.5573
  11   2.0000      -1.176770       -32.0215
  12   2.0000      -1.011309       -27.5191
  13   2.0000      -0.914797       -24.8929
  14   2.0000      -0.872499       -23.7419
  15   2.0000      -0.746626       -20.3167
  16   2.0000      -0.733074       -19.9480
  17   2.0000      -0.675769       -18.3886
  18   2.0000      -0.675673       -18.3860
  19   2.0000      -0.648842       -17.6559
  20   2.0000      -0.625896       -17.0315
  21   2.0000      -0.615337       -16.7442
  22   2.0000      -0.592477       -16.1221
  23   2.0000      -0.571925       -15.5629
  24   2.0000      -0.512585       -13.9482
  25   2.0000      -0.484371       -13.1804
  26   2.0000      -0.462906       -12.5963
  27   2.0000      -0.445370       -12.1191
  28   2.0000      -0.432094       -11.7579
  29   2.0000      -0.385641       -10.4938
  30   0.0000       0.120302         3.2736
  31   0.0000       0.126411         3.4398
  32   0.0000       0.138272         3.7626
  33   0.0000       0.148131         4.0309
  34   0.0000       0.175174         4.7667

MULLIKEN ATOMIC CHARGES
-----------------------
   0 C :   -0.351166
   1 C :    0.100979
   2 N :   -0.371397
   3 N :   -0.052442
   4 C :    0.010245
   5 N :   -0.398034
   6 C :    0.180366
   7 O :   -0.316118
   8 H :    0.143090
   9 H :    0.186409
  10 H :    0.124201
  11 H :    0.220099
  12 H :    0.155759
  13 H :    0.230092
  14 H :    0.137916
Sum of atomic charges:    0.0000000

LOEWDIN ATOMIC CHARGES
----------------------
   0 C :   -0.276109
   1 C :   -0.322832
   2 N :   -0.032118
   3 N :    0.208496
   4 C :   -0.290882
   5 N :   -0.070682
   6 C :   -0.337109
   7 O :    0.101701
   8 H :    0.138299
   9 H :    0.145480
  10 H :    0.128455
  11 H :    0.168012
  12 H :    0.138258
  13 H :    0.169613
  14 H :    0.131416

  Mayer bond orders larger than 0.1
B(  0-C ,  1-C ) :   0.9519 B(  0-C ,  8-H ) :   0.9173 B(  0-C ,  9-H ) :   0.9043
B(  0-C , 10-H ) :   0.9218 B(  1-C ,  2-N ) :   1.9142 B(  1-C ,  3-N ) :   0.9406
B(  2-N , 11-H ) :   0.8578 B(  3-N ,  4-C ) :   0.9849 B(  3-N ,  6-C ) :   1.0002
B(  4-C ,  5-N ) :   1.8714 B(  4-C , 12-H ) :   0.9166 B(  5-N , 13-H ) :   0.8603
B(  6-C ,  7-O ) :   1.9118 B(  6-C , 14-H ) :   0.9183

MP2 TOTAL ENERGY:     -395.353694907 Eh
FINAL SINGLE POINT ENERGY      -395.353694906940

DIPOLE MOMENT
-------------
                                X             Y             Z
Electronic contribution:      0.26870      -5.33896      -1.68991
Nuclear contribution   :     -0.01021       6.43263       1.88932
                        -----------------------------------------
Total Dipole Moment    :      0.25849       1.09366       0.19942
                        -----------------------------------------
Magnitude (a.u.)       :      1.14135
Magnitude (Debye)      :      2.90108

                             ****ORCA TERMINATED NORMALLY****
TOTAL RUN TIME: 0 days 0 hours 10 minutes 39 seconds 47 msec
