                         Program Version 3.0.3 - RELEASE   -
|  1> ! RI-MP2 RIJK def2-TZVP def2-TZVP/C def2-TZVP/JK TIGHTSCF
|  2> % maxcore 2000
|  3> % mp2 density relaxed end
|  4> *xyz 0 1
|  5>  C       -0.1692231122     1.5971159989     0.0816781322
|  6>  C       -0.1626440175     0.0667935115     0.1090650908
|  7>  C        0.8521170872    -0.5056295390     1.1179436635
|  8>  C        0.8770998011    -2.0044357374     1.1694013845
|  9>  C        1.8916103194    -2.8051470977     0.8347029577
| 10>  C        1.5662565761    -4.2760885788     0.9738767428
| 11>  C        2.6753678412    -5.1181970903     1.6141189923
| 12>  C        0.2500687642    -4.2397154906     1.7968931565
| 13>  C       -0.3318151497    -2.8218287011     1.5909060281
| 14>  H        0.8147795937     1.9927348535    -0.1939969951
| 15>  H       -0.8964552378     1.9806513183    -0.6408361439
| 16>  H       -0.4260922236     2.0090058150     1.0641119110
| 17>  H       -1.1672685162    -0.2989530947     0.3541226902
| 18>  H        0.0700954393    -0.3231983140    -0.8895313841
| 19>  H        1.8535358160    -0.1300702326     0.8741345608
| 20>  H        0.6057356138    -0.1103036537     2.1151791103
| 21>  H        2.8541333444    -2.4584934401     0.4690795451
| 22>  H        1.3657489760    -4.6945574502    -0.0257284410
| 23>  H        2.9281305531    -4.7368898128     2.6099001623
| 24>  H        2.3646106029    -6.1631977497     1.7221113544
| 25>  H        3.5878979461    -5.1042364250     1.0081891540
| 26>  H       -0.4469057625    -5.0356202334     1.5197884362
| 27>  H        0.4953715148    -4.3800922406     2.8561925898
| 28>  H       -0.8164002718    -2.4262769568     2.4922921882
| 29>  H       -1.0995845582    -2.8097602588     0.8041081334
| 30> *
| 31>
| 32>                          ****END OF INPUT****

CARTESIAN COORDINATES (ANGSTROEM)
---------------------------------
  C     -0.169223    1.597116    0.081678
  C     -0.162644    0.066794    0.109065
  C      0.852117   -0.505630    1.117944
  C      0.877100   -2.004436    1.169401
  C      1.891610   -2.805147    0.834703
  C      1.566257   -4.276089    0.973877
  C      2.675368   -5.118197    1.614119
  C      0.250069   -4.239715    1.796893
  C     -0.331815   -2.821829    1.590906
  H      0.814780    1.992735   -0.193997
  H     -0.896455    1.980651   -0.640836
  H     -0.426092    2.009006    1.064112
  H     -1.167269   -0.298953    0.354123
  H      0.070095   -0.323198   -0.889531
  H      1.853536   -0.130070    0.874135
  H      0.605736   -0.110304    2.115179
  H      2.854133   -2.458493    0.469080
  H      1.365749   -4.694557   -0.025728
  H      2.928131   -4.736890    2.609900
  H      2.364611   -6.163198    1.722111
  H      3.587898   -5.104236    1.008189
  H     -0.446906   -5.035620    1.519788
  H      0.495372   -4.380092    2.856193
  H     -0.816400   -2.426277    2.492292
  H     -1.099585   -2.809760    0.804108

 Total Charge           Charge          ....    0
 Multiplicity           Mult            ....    1
 Number of Electrons    NEL             ....   70
 Basis Dimension        Dim             ....  375

ORBITAL ENERGIES
----------------

  NO   OCC          E(Eh)            E(eV)
   0   2.0000     -11.222375      -305.3764
   1   2.0000     -11.220945      -305.3374
   2   2.0000     -11.220253      -305.3186
   3   2.0000     -11.219144      -305.2884
   4   2.0000     -11.217566      -305.2455
   5   2.0000     -11.213519      -305.1354
   6   2.0000     -11.211944      -305.0925
   7   2.0000     -11.208395      -304.9959
   8   2.0000     -11.206709      -304.9500
   9   2.0000      -1.135589       -30.9010
  10   2.0000      -1.062293       -28.9065
  11   2.0000      -1.003696       -27.3120
  12   2.0000      -0.966930       -26.3115
  13   2.0000      -0.918697       -24.9990
  14   2.0000      -0.867451       -23.6045
  15   2.0000      -0.808494       -22.0002
  16   2.0000      -0.761405       -20.7189
  17   2.0000      -0.703210       -19.1353
  18   2.0000      -0.649614       -17.6769
  19   2.0000      -0.633142       -17.2287
  20   2.0000      -0.616014       -16.7626
  21   2.0000      -0.574285       -15.6271
  22   2.0000      -0.567965       -15.4551
  23   2.0000      -0.564638       -15.3646
  24   2.0000      -0.541070       -14.7233
  25   2.0000      -0.525823       -14.3084
  26   2.0000      -0.508007       -13.8236
  27   2.0000      -0.498467       -13.5640
  28   2.0000      -0.486347       -13.2342
  29   2.0000      -0.476112       -12.9557
  30   2.0000      -0.468292       -12.7429
  31   2.0000      -0.457737       -12.4556
  32   2.0000      -0.453594       -12.3429
  33   2.0000      -0.447028       -12.1643
  34   2.0000      -0.327465        -8.9108
  35   0.0000       0.133263         3.6263
  36   0.0000       0.147001         4.0001
  37   0.0000       0.157556         4.2873
  38   0.0000       0.166843         4.5400
  39   0.0000       0.177056         4.8180

MULLIKEN ATOMIC CHARGES
-----------------------
   0 C :   -0.386848
   1 C :   -0.203108
   2 C :   -0.286815
   3 C :    0.091549
   4 C :   -0.262718
   5 C :    0.055749
   6 C :   -0.414953
   7 C :   -0.261311
   8 C :   -0.210878
   9 H :    0.122463
  10 H :    0.132965
  11 H :    0.121685
  12 H :    0.110442
  13 H :    0.114288
  14 H :    0.118032
  15 H :    0.116071
  16 H :    0.117126
  17 H :    0.088347
  18 H :    0.123676
  19 H :    0.129561
  20 H :    0.126307
  21 H :    0.120565
  22 H :    0.105744
  23 H :    0.117462
  24 H :    0.114599
Sum of atomic charges:   -0.0000000

LOEWDIN ATOMIC CHARGES
----------------------
   0 C :   -0.321915
   1 C :   -0.287280
   2 C :   -0.233293
   3 C :   -0.165926
   4 C :   -0.123433
   5 C :   -0.259534
   6 C :   -0.297613
   7 C :   -0.216563
   8 C :   -0.215667
   9 H :    0.120283
  10 H :    0.120420
  11 H :    0.120051
  12 H :    0.134637
  13 H :    0.135890
  14 H :    0.144357
  15 H :    0.144487
  16 H :    0.138265
  17 H :    0.152034
  18 H :    0.122134
  19 H :    0.122384
  20 H :    0.121471
  21 H :    0.130151
  22 H :    0.139356
  23 H :    0.135913
  24 H :    0.139390

  Mayer bond orders larger than 0.1
B(  0-C ,  1-C ) :   0.9150 B(  0-C ,  9-H ) :   0.9397 B(  0-C , 10-H ) :   0.9428
B(  0-C , 11-H ) :   0.9393 B(  1-C ,  2-C ) :   0.9183 B(  1-C , 12-H ) :   0.9340
B(  1-C , 13-H ) :   0.9330 B(  2-C ,  3-C ) :   0.8985 B(  2-C , 14-H ) :   0.9353
B(  2-C , 15-H ) :   0.9283 B(  3-C ,  4-C ) :   1.7473 B(  3-C ,  8-C ) :   0.9166
B(  4-C ,  5-C ) :   0.9165 B(  4-C , 16-H ) :   0.9204 B(  5-C ,  6-C ) :   0.8982
B(  5-C ,  7-C ) :   0.9377 B(  5-C , 17-H ) :   0.9157 B(  6-C , 18-H ) :   0.9350
B(  6-C , 19-H ) :   0.9397 B(  6-C , 20-H ) :   0.9401 B(  7-C ,  8-C ) :   0.9519
B(  7-C , 21-H ) :   0.9344 B(  7-C , 22-H ) :   0.9268 B(  8-C , 23-H ) :   0.9256
B(  8-C , 24-H ) :   0.9070

MP2 TOTAL ENERGY:     -351.730999611 Eh
FINAL SINGLE POINT ENERGY      -351.730999611263

DIPOLE MOMENT
-------------
                                X             Y             Z
Electronic contribution:      0.83930      -2.44831       0.25156
Nuclear contribution   :     -0.94295       2.49546      -0.30526
                        -----------------------------------------
Total Dipole Moment    :     -0.10365       0.04715      -0.05371
                        -----------------------------------------
Magnitude (a.u.)       :      0.12590
Magnitude (Debye)      :      0.32001

                             ****ORCA TERMINATED NORMALLY****
TOTAL RUN TIME: 0 days 0 hours 21 minutes 20 seconds 998 msec
