                         Program Version 3.0.3 - RELEASE   -
|  1> ! RI-MP2 RIJK def2-TZVP def2-TZVP/C def2-TZVP/JK TIGHTSCF
|  2> % maxcore 2000
|  3> % mp2 density relaxed end
|  4> *xyz 0 1
|  5>  C       -0.0409272227     1.5116227873     0.0753945795
|  6>  C        0.2761598428     0.0288999500    -0.0240297338
|  7>  O        0.3766608871    -0.4978340542     1.2854034983
|  8>  C        0.6383791171    -1.8742588926     1.3214267415
|  9>  C        2.0777329511    -2.3838038991     1.0187961794
| 10>  C        1.9274530522    -3.3551982267     2.2260349110
| 11>  C        3.1242830751    -3.5914331115     3.1338023300
| 12>  C        0.7592690102    -2.4634161204     2.7386917688
| 13>  H        0.7498823589     2.0367452060     0.6187279013
| 14>  H       -0.1290303882     1.9523703929    -0.9221790176
| 15>  H       -0.9827445192     1.6666173315     0.6094745141
| 16>  H       -0.5143233581    -0.4997597120    -0.5839785385
| 17>  H        1.2182420030    -0.1274338352    -0.5743215714
| 18>  H       -0.1037525496    -2.4199298951     0.7163802492
| 19>  H        2.2912791406    -2.8086591493     0.0348487529
| 20>  H        2.8046546266    -1.5940294374     1.2371956522
| 21>  H        1.5329054955    -4.3164262502     1.8778980836
| 22>  H        3.5351836790    -2.6418279020     3.4948639357
| 23>  H        2.8478147953    -4.1894025553     4.0096590907
| 24>  H        3.9255315210    -4.1231538589     2.6080391005
| 25>  H        1.1235270832    -1.6918579901     3.4245310340
| 26>  H       -0.1185385709    -2.9450963977     3.1754892687
| 27> *
| 28>
| 29>                          ****END OF INPUT****

CARTESIAN COORDINATES (ANGSTROEM)
---------------------------------
  C     -0.040927    1.511623    0.075395
  C      0.276160    0.028900   -0.024030
  O      0.376661   -0.497834    1.285403
  C      0.638379   -1.874259    1.321427
  C      2.077733   -2.383804    1.018796
  C      1.927453   -3.355198    2.226035
  C      3.124283   -3.591433    3.133802
  C      0.759269   -2.463416    2.738692
  H      0.749882    2.036745    0.618728
  H     -0.129030    1.952370   -0.922179
  H     -0.982745    1.666617    0.609475
  H     -0.514323   -0.499760   -0.583979
  H      1.218242   -0.127434   -0.574322
  H     -0.103753   -2.419930    0.716380
  H      2.291279   -2.808659    0.034849
  H      2.804655   -1.594029    1.237196
  H      1.532905   -4.316426    1.877898
  H      3.535184   -2.641828    3.494864
  H      2.847815   -4.189403    4.009659
  H      3.925532   -4.123154    2.608039
  H      1.123527   -1.691858    3.424531
  H     -0.118539   -2.945096    3.175489

 Total Charge           Charge          ....    0
 Multiplicity           Mult            ....    1
 Number of Electrons    NEL             ....   64
 Basis Dimension        Dim             ....  332

ORBITAL ENERGIES
----------------

  NO   OCC          E(Eh)            E(eV)
   0   2.0000     -20.547784      -559.1336
   1   2.0000     -11.272294      -306.7347
   2   2.0000     -11.270952      -306.6982
   3   2.0000     -11.226289      -305.4829
   4   2.0000     -11.214516      -305.1625
   5   2.0000     -11.212430      -305.1057
   6   2.0000     -11.211554      -305.0819
   7   2.0000     -11.211254      -305.0737
   8   2.0000      -1.372336       -37.3432
   9   2.0000      -1.127114       -30.6703
  10   2.0000      -1.015747       -27.6399
  11   2.0000      -0.968201       -26.3461
  12   2.0000      -0.899493       -24.4765
  13   2.0000      -0.845858       -23.0170
  14   2.0000      -0.810792       -22.0628
  15   2.0000      -0.750577       -20.4242
  16   2.0000      -0.673884       -18.3373
  17   2.0000      -0.657182       -17.8828
  18   2.0000      -0.641062       -17.4442
  19   2.0000      -0.601197       -16.3594
  20   2.0000      -0.574360       -15.6291
  21   2.0000      -0.558164       -15.1884
  22   2.0000      -0.546794       -14.8790
  23   2.0000      -0.535944       -14.5838
  24   2.0000      -0.525664       -14.3040
  25   2.0000      -0.520360       -14.1597
  26   2.0000      -0.485433       -13.2093
  27   2.0000      -0.463642       -12.6164
  28   2.0000      -0.458150       -12.4669
  29   2.0000      -0.440525       -11.9873
  30   2.0000      -0.430099       -11.7036
  31   2.0000      -0.398063       -10.8318
  32   0.0000       0.136399         3.7116
  33   0.0000       0.148343         4.0366
  34   0.0000       0.156259         4.2520
  35   0.0000       0.175160         4.7664
  36   0.0000       0.185647         5.0517

MULLIKEN ATOMIC CHARGES
-----------------------
   0 C :   -0.358899
   1 C :   -0.047199
   2 O :   -0.283456
   3 C :    0.003277
   4 C :   -0.231608
   5 C :   -0.033684
   6 C :   -0.414088
   7 C :   -0.185028
   8 H :    0.128499
   9 H :    0.120450
  10 H :    0.128350
  11 H :    0.088576
  12 H :    0.094584
  13 H :    0.065413
  14 H :    0.120857
  15 H :    0.103071
  16 H :    0.094182
  17 H :    0.121575
  18 H :    0.129959
  19 H :    0.128713
  20 H :    0.106557
  21 H :    0.119902
Sum of atomic charges:    0.0000000

LOEWDIN ATOMIC CHARGES
----------------------
   0 C :   -0.317849
   1 C :   -0.349185
   2 O :    0.178532
   3 C :   -0.317810
   4 C :   -0.212020
   5 C :   -0.257667
   6 C :   -0.304629
   7 C :   -0.199781
   8 H :    0.123482
   9 H :    0.123375
  10 H :    0.123693
  11 H :    0.115515
  12 H :    0.117319
  13 H :    0.131180
  14 H :    0.121660
  15 H :    0.140186
  16 H :    0.147345
  17 H :    0.122390
  18 H :    0.123748
  19 H :    0.123402
  20 H :    0.143062
  21 H :    0.124050

  Mayer bond orders larger than 0.1
B(  0-C ,  1-C ) :   0.9540 B(  0-C ,  8-H ) :   0.9373 B(  0-C ,  9-H ) :   0.9332
B(  0-C , 10-H ) :   0.9358 B(  1-C ,  2-O ) :   0.9072 B(  1-C , 11-H ) :   0.9205
B(  1-C , 12-H ) :   0.9223 B(  2-O ,  3-C ) :   1.0554 B(  3-C ,  4-C ) :   0.9427
B(  3-C ,  7-C ) :   0.9179 B(  3-C , 13-H ) :   0.9505 B(  4-C ,  5-C ) :   0.9451
B(  4-C , 14-H ) :   0.9245 B(  4-C , 15-H ) :   0.9028 B(  5-C ,  6-C ) :   0.8833
B(  5-C ,  7-C ) :   0.9200 B(  5-C , 16-H ) :   0.9283 B(  6-C , 17-H ) :   0.9385
B(  6-C , 18-H ) :   0.9406 B(  6-C , 19-H ) :   0.9408 B(  7-C , 20-H ) :   0.9089
B(  7-C , 21-H ) :   0.9266

MP2 TOTAL ENERGY:     -349.586819743 Eh
FINAL SINGLE POINT ENERGY      -349.586819743309

DIPOLE MOMENT
-------------
                                X             Y             Z
Electronic contribution:     -2.06838      -0.08524       0.27599
Nuclear contribution   :      2.13855      -0.15736      -0.64098
                        -----------------------------------------
Total Dipole Moment    :      0.07017      -0.24260      -0.36499
                        -----------------------------------------
Magnitude (a.u.)       :      0.44384
Magnitude (Debye)      :      1.12816

                             ****ORCA TERMINATED NORMALLY****
TOTAL RUN TIME: 0 days 0 hours 12 minutes 48 seconds 213 msec
