                         Program Version 3.0.3 - RELEASE   -
|  1> ! RI-MP2 RIJK def2-TZVP def2-TZVP/C def2-TZVP/JK TIGHTSCF
|  2> % maxcore 2000
|  3> % mp2 density relaxed end
|  4> *xyz 0 1
|  5>  C        0.0896516972     1.3164792952     0.3414036100
|  6>  N        0.1034618859    -0.1074732752     0.0429130069
|  7>  C        0.6306895688    -0.4873511020    -1.2643535650
|  8>  C        2.1444486053    -0.2738101247    -1.4377558060
|  9>  C        0.1639073791    -1.9244234311    -1.5397929068
| 10>  C        0.9504826290    -2.8947174658    -2.3598302807
| 11>  N        0.8320951667    -3.0880017092    -0.9118669212
| 12>  C       -1.2836308337    -2.0454526551    -1.5843213169
| 13>  N       -2.4316829827    -2.1350646887    -1.6807772561
| 14>  H        1.0768890522     1.8096532831     0.3417718250
| 15>  H       -0.5404066076     1.8325098563    -0.3913767432
| 16>  H       -0.3595983706     1.4689635187     1.3266255037
| 17>  H        0.5687429374    -0.6270135116     0.7794511411
| 18>  H        0.1175615302     0.1491682019    -1.9972191971
| 19>  H        2.4666928417    -0.4186390395    -2.4726444492
| 20>  H        2.4023243180     0.7506449032    -1.1581687356
| 21>  H        2.7332881504    -0.9401634425    -0.7955190831
| 22>  H        0.4185457834    -3.6242997785    -2.9619928915
| 23>  H        1.8964742675    -2.5595187983    -2.7717821868
| 24>  H        1.6840653719    -2.7786067962    -0.4491113975
| 25> *
| 26>
| 27>                          ****END OF INPUT****

CARTESIAN COORDINATES (ANGSTROEM)
---------------------------------
  C      0.089652    1.316479    0.341404
  N      0.103462   -0.107473    0.042913
  C      0.630690   -0.487351   -1.264354
  C      2.144449   -0.273810   -1.437756
  C      0.163907   -1.924423   -1.539793
  C      0.950483   -2.894717   -2.359830
  N      0.832095   -3.088002   -0.911867
  C     -1.283631   -2.045453   -1.584321
  N     -2.431683   -2.135065   -1.680777
  H      1.076889    1.809653    0.341772
  H     -0.540407    1.832510   -0.391377
  H     -0.359598    1.468964    1.326626
  H      0.568743   -0.627014    0.779451
  H      0.117562    0.149168   -1.997219
  H      2.466693   -0.418639   -2.472644
  H      2.402324    0.750645   -1.158169
  H      2.733288   -0.940163   -0.795519
  H      0.418546   -3.624300   -2.961993
  H      1.896474   -2.559519   -2.771782
  H      1.684065   -2.778607   -0.449111

 Total Charge           Charge          ....    0
 Multiplicity           Mult            ....    1
 Number of Electrons    NEL             ....   68
 Basis Dimension        Dim             ....  345

ORBITAL ENERGIES
----------------

  NO   OCC          E(Eh)            E(eV)
   0   2.0000     -15.590221      -424.2315
   1   2.0000     -15.559382      -423.3923
   2   2.0000     -15.557336      -423.3366
   3   2.0000     -11.316195      -307.9293
   4   2.0000     -11.291410      -307.2549
   5   2.0000     -11.286529      -307.1221
   6   2.0000     -11.262838      -306.4774
   7   2.0000     -11.255751      -306.2846
   8   2.0000     -11.243795      -305.9592
   9   2.0000      -1.303528       -35.4708
  10   2.0000      -1.223107       -33.2824
  11   2.0000      -1.202808       -32.7301
  12   2.0000      -1.043526       -28.3958
  13   2.0000      -0.967367       -26.3234
  14   2.0000      -0.925659       -25.1885
  15   2.0000      -0.888960       -24.1898
  16   2.0000      -0.829067       -22.5601
  17   2.0000      -0.730869       -19.8880
  18   2.0000      -0.713354       -19.4114
  19   2.0000      -0.653102       -17.7718
  20   2.0000      -0.638672       -17.3791
  21   2.0000      -0.611446       -16.6383
  22   2.0000      -0.585655       -15.9365
  23   2.0000      -0.564272       -15.3546
  24   2.0000      -0.562381       -15.3032
  25   2.0000      -0.552627       -15.0377
  26   2.0000      -0.543032       -14.7766
  27   2.0000      -0.532244       -14.4831
  28   2.0000      -0.510233       -13.8841
  29   2.0000      -0.503315       -13.6959
  30   2.0000      -0.454226       -12.3601
  31   2.0000      -0.448960       -12.2168
  32   2.0000      -0.411377       -11.1941
  33   2.0000      -0.384484       -10.4623
  34   0.0000       0.115139         3.1331
  35   0.0000       0.138085         3.7575
  36   0.0000       0.149114         4.0576
  37   0.0000       0.166801         4.5389
  38   0.0000       0.173912         4.7324

MULLIKEN ATOMIC CHARGES
-----------------------
   0 C :   -0.308327
   1 N :   -0.313753
   2 C :   -0.054696
   3 C :   -0.408514
   4 C :    0.259715
   5 C :   -0.186492
   6 N :   -0.354018
   7 C :   -0.196404
   8 N :   -0.047221
   9 H :    0.105625
  10 H :    0.137979
  11 H :    0.146236
  12 H :    0.199921
  13 H :    0.111142
  14 H :    0.140505
  15 H :    0.154011
  16 H :    0.115285
  17 H :    0.145932
  18 H :    0.136582
  19 H :    0.216493
Sum of atomic charges:    0.0000000

LOEWDIN ATOMIC CHARGES
----------------------
   0 C :   -0.349166
   1 N :   -0.004522
   2 C :   -0.292419
   3 C :   -0.296145
   4 C :   -0.275260
   5 C :   -0.215789
   6 N :    0.033461
   7 C :   -0.144011
   8 N :    0.069718
   9 H :    0.096765
  10 H :    0.119476
  11 H :    0.120152
  12 H :    0.169963
  13 H :    0.164103
  14 H :    0.125974
  15 H :    0.130157
  16 H :    0.118585
  17 H :    0.136286
  18 H :    0.126609
  19 H :    0.166064

  Mayer bond orders larger than 0.1
B(  0-C ,  1-N ) :   0.9292 B(  0-C ,  9-H ) :   0.9265 B(  0-C , 10-H ) :   0.9376
B(  0-C , 11-H ) :   0.9386 B(  1-N ,  2-C ) :   0.9999 B(  1-N , 12-H ) :   0.8672
B(  2-C ,  3-C ) :   0.9036 B(  2-C ,  4-C ) :   0.9201 B(  2-C , 13-H ) :   0.9068
B(  3-C , 14-H ) :   0.9354 B(  3-C , 15-H ) :   0.9360 B(  3-C , 16-H ) :   0.9241
B(  4-C ,  5-C ) :   0.9184 B(  4-C ,  6-N ) :   0.8536 B(  4-C ,  7-C ) :   0.8992
B(  5-C ,  6-N ) :   0.9502 B(  5-C , 17-H ) :   0.9128 B(  5-C , 18-H ) :   0.9117
B(  6-N , 19-H ) :   0.8722 B(  7-C ,  8-N ) :   2.8824

MP2 TOTAL ENERGY:     -398.610008867 Eh
FINAL SINGLE POINT ENERGY      -398.610008867141

DIPOLE MOMENT
-------------
                                X             Y             Z
Electronic contribution:     -7.50558      -7.29439      -1.76661
Nuclear contribution   :      9.70521       8.17276       1.69599
                        -----------------------------------------
Total Dipole Moment    :      2.19963       0.87836      -0.07061
                        -----------------------------------------
Magnitude (a.u.)       :      2.36957
Magnitude (Debye)      :      6.02298

                             ****ORCA TERMINATED NORMALLY****
TOTAL RUN TIME: 0 days 0 hours 19 minutes 5 seconds 917 msec
