                         Program Version 3.0.3 - RELEASE   -
|  1> ! RI-MP2 RIJK def2-TZVP def2-TZVP/C def2-TZVP/JK TIGHTSCF
|  2> % maxcore 2000
|  3> % mp2 density relaxed end
|  4> *xyz 0 1
|  5>  C        0.0502353687     1.5524307606    -0.0948234190
|  6>  C        1.6135330454     1.3889434148     0.0087507406
|  7>  C        1.3149233946     0.0547071765     0.6516578158
|  8>  C        1.6005638814    -0.6198052790     1.7605074358
|  9>  C        0.4449602940    -1.4831641283     2.2529329496
| 10>  C       -0.7701950940    -0.5414119322     2.4874779108
| 11>  C       -0.9924825636    -0.8045119822     0.9797861638
| 12>  O       -0.2781772380    -2.0766014427     1.1325569395
| 13>  C       -0.0766828991    -0.0013544623     0.0515585484
| 14>  H       -0.3473361344     2.0817949395     0.7746546622
| 15>  H       -0.3453440906     2.0025037893    -1.0079618023
| 16>  H        2.0609937273     1.3002144772    -0.9873609227
| 17>  H        2.1760815631     2.1259344394     0.5869187355
| 18>  H        2.4637248914    -0.4405588156     2.3938859498
| 19>  H        0.7128491434    -2.2244040636     3.0083143518
| 20>  H       -1.5546492727    -1.0190758446     3.0774612822
| 21>  H       -0.5801107936     0.4736927202     2.8410012484
| 22>  H       -2.0165129372    -0.9378137975     0.6208154880
| 23>  H       -0.0898356362    -0.4694160196    -0.9397142283
| 24> *
| 25>
| 26>                          ****END OF INPUT****

CARTESIAN COORDINATES (ANGSTROEM)
---------------------------------
  C      0.050235    1.552431   -0.094823
  C      1.613533    1.388943    0.008751
  C      1.314923    0.054707    0.651658
  C      1.600564   -0.619805    1.760507
  C      0.444960   -1.483164    2.252933
  C     -0.770195   -0.541412    2.487478
  C     -0.992483   -0.804512    0.979786
  O     -0.278177   -2.076601    1.132557
  C     -0.076683   -0.001354    0.051559
  H     -0.347336    2.081795    0.774655
  H     -0.345344    2.002504   -1.007962
  H      2.060994    1.300214   -0.987361
  H      2.176082    2.125934    0.586919
  H      2.463725   -0.440559    2.393886
  H      0.712849   -2.224404    3.008314
  H     -1.554649   -1.019076    3.077461
  H     -0.580111    0.473693    2.841001
  H     -2.016513   -0.937814    0.620815
  H     -0.089836   -0.469416   -0.939714

 Total Charge           Charge          ....    0
 Multiplicity           Mult            ....    1
 Number of Electrons    NEL             ....   66
 Basis Dimension        Dim             ....  339

ORBITAL ENERGIES
----------------

  NO   OCC          E(Eh)            E(eV)
   0   2.0000     -20.541360      -558.9588
   1   2.0000     -11.285602      -307.0968
   2   2.0000     -11.284248      -307.0600
   3   2.0000     -11.237056      -305.7758
   4   2.0000     -11.236547      -305.7620
   5   2.0000     -11.232497      -305.6518
   6   2.0000     -11.230797      -305.6055
   7   2.0000     -11.228105      -305.5323
   8   2.0000     -11.217188      -305.2352
   9   2.0000      -1.374587       -37.4044
  10   2.0000      -1.152840       -31.3704
  11   2.0000      -1.035051       -28.1652
  12   2.0000      -0.996282       -27.1102
  13   2.0000      -0.943431       -25.6721
  14   2.0000      -0.878874       -23.9154
  15   2.0000      -0.807223       -21.9657
  16   2.0000      -0.778935       -21.1959
  17   2.0000      -0.706457       -19.2237
  18   2.0000      -0.683127       -18.5888
  19   2.0000      -0.647446       -17.6179
  20   2.0000      -0.628665       -17.1069
  21   2.0000      -0.604463       -16.4483
  22   2.0000      -0.578455       -15.7406
  23   2.0000      -0.550003       -14.9663
  24   2.0000      -0.540411       -14.7053
  25   2.0000      -0.518818       -14.1178
  26   2.0000      -0.505815       -13.7639
  27   2.0000      -0.477733       -12.9998
  28   2.0000      -0.475218       -12.9313
  29   2.0000      -0.452729       -12.3194
  30   2.0000      -0.435179       -11.8418
  31   2.0000      -0.396965       -10.8020
  32   2.0000      -0.334410        -9.0998
  33   0.0000       0.130960         3.5636
  34   0.0000       0.143667         3.9094
  35   0.0000       0.159689         4.3454
  36   0.0000       0.163152         4.4396
  37   0.0000       0.178490         4.8570

MULLIKEN ATOMIC CHARGES
-----------------------
   0 C :   -0.234075
   1 C :   -0.180609
   2 C :   -0.040760
   3 C :   -0.290678
   4 C :    0.135399
   5 C :   -0.265599
   6 C :    0.102694
   7 O :   -0.329188
   8 C :   -0.091375
   9 H :    0.117275
  10 H :    0.121039
  11 H :    0.125841
  12 H :    0.120622
  13 H :    0.119108
  14 H :    0.126048
  15 H :    0.122873
  16 H :    0.118622
  17 H :    0.114512
  18 H :    0.108248
Sum of atomic charges:   -0.0000000

LOEWDIN ATOMIC CHARGES
----------------------
   0 C :   -0.197196
   1 C :   -0.193986
   2 C :   -0.135812
   3 C :   -0.133438
   4 C :   -0.246394
   5 C :   -0.200354
   6 C :   -0.235826
   7 O :    0.157011
   8 C :   -0.174012
   9 H :    0.134984
  10 H :    0.124126
  11 H :    0.142292
  12 H :    0.129138
  13 H :    0.139546
  14 H :    0.132251
  15 H :    0.137227
  16 H :    0.127550
  17 H :    0.131397
  18 H :    0.161496

  Mayer bond orders larger than 0.1
B(  0-C ,  1-C ) :   0.9308 B(  0-C ,  8-C ) :   0.8916 B(  0-C ,  9-H ) :   0.9155
B(  0-C , 10-H ) :   0.9247 B(  1-C ,  2-C ) :   0.9168 B(  1-C , 11-H ) :   0.9156
B(  1-C , 12-H ) :   0.9134 B(  2-C ,  3-C ) :   1.8199 B(  2-C ,  8-C ) :   0.9215
B(  3-C ,  4-C ) :   0.9139 B(  3-C , 13-H ) :   0.9245 B(  4-C ,  5-C ) :   0.9307
B(  4-C ,  7-O ) :   0.9305 B(  4-C , 14-H ) :   0.9190 B(  5-C ,  6-C ) :   0.9360
B(  5-C , 15-H ) :   0.9218 B(  5-C , 16-H ) :   0.9220 B(  6-C ,  7-O ) :   0.8810
B(  6-C ,  8-C ) :   0.9526 B(  6-C , 17-H ) :   0.9162 B(  8-C , 18-H ) :   0.9008

MP2 TOTAL ENERGY:     -385.167671450 Eh
FINAL SINGLE POINT ENERGY      -385.167671450351

DIPOLE MOMENT
-------------
                                X             Y             Z
Electronic contribution:      0.34463      -4.59768       0.18619
Nuclear contribution   :     -0.46979       5.43401       0.06517
                        -----------------------------------------
Total Dipole Moment    :     -0.12517       0.83633       0.25136
                        -----------------------------------------
Magnitude (a.u.)       :      0.88221
Magnitude (Debye)      :      2.24240

                             ****ORCA TERMINATED NORMALLY****
TOTAL RUN TIME: 0 days 0 hours 20 minutes 34 seconds 396 msec
