                         Program Version 3.0.3 - RELEASE   -
|  1> ! RI-MP2 RIJK def2-TZVP def2-TZVP/C def2-TZVP/JK TIGHTSCF
|  2> % maxcore 2000
|  3> % mp2 density relaxed end
|  4> *xyz 0 1
|  5>  N       -0.0153062911     1.2501166886    -0.2842412036
|  6>  C        0.0686005897    -0.0574338947     0.0987899980
|  7>  O        1.0943265274    -0.5397881774     0.5380950028
|  8>  C       -1.2315769390    -0.8552980135     0.0136337592
|  9>  C       -2.1210763401    -0.6791802985    -1.2650885763
| 10>  C       -2.0810333416    -2.1536268646    -1.7264026047
| 11>  C       -2.3552280948    -2.9603977787    -0.4386896626
| 12>  C       -0.9598451836    -2.3689587635    -0.1456937886
| 13>  O       -0.6648890394    -2.4708974876    -1.5759490109
| 14>  H        0.8231913625     1.8067401917    -0.2543263382
| 15>  H       -0.8368901506     1.6355782922    -0.7137667465
| 16>  H       -1.7959691416    -0.6439885510     0.9293267463
| 17>  H       -3.1306771468    -0.3180100936    -1.0515596015
| 18>  H       -1.6634847325    -0.0322636541    -2.0173237330
| 19>  H       -2.4971524173    -2.4070693293    -2.7013862746
| 20>  H       -3.2021024024    -2.6894772734     0.1980529082
| 21>  H       -2.3114067705    -4.0350841336    -0.6155535478
| 22>  H       -0.2124102483    -2.8181118090     0.5024659838
| 23> *
| 24>
| 25>                          ****END OF INPUT****

CARTESIAN COORDINATES (ANGSTROEM)
---------------------------------
  N     -0.015306    1.250117   -0.284241
  C      0.068601   -0.057434    0.098790
  O      1.094327   -0.539788    0.538095
  C     -1.231577   -0.855298    0.013634
  C     -2.121076   -0.679180   -1.265089
  C     -2.081033   -2.153627   -1.726403
  C     -2.355228   -2.960398   -0.438690
  C     -0.959845   -2.368959   -0.145694
  O     -0.664889   -2.470897   -1.575949
  H      0.823191    1.806740   -0.254326
  H     -0.836890    1.635578   -0.713767
  H     -1.795969   -0.643989    0.929327
  H     -3.130677   -0.318010   -1.051560
  H     -1.663485   -0.032264   -2.017324
  H     -2.497152   -2.407069   -2.701386
  H     -3.202102   -2.689477    0.198053
  H     -2.311407   -4.035084   -0.615554
  H     -0.212410   -2.818112    0.502466

 Total Charge           Charge          ....    0
 Multiplicity           Mult            ....    1
 Number of Electrons    NEL             ....   68
 Basis Dimension        Dim             ....  333

ORBITAL ENERGIES
----------------

  NO   OCC          E(Eh)            E(eV)
   0   2.0000     -20.550674      -559.2123
   1   2.0000     -20.514123      -558.2177
   2   2.0000     -15.581934      -424.0060
   3   2.0000     -11.349516      -308.8360
   4   2.0000     -11.294672      -307.3436
   5   2.0000     -11.289974      -307.2158
   6   2.0000     -11.251120      -306.1585
   7   2.0000     -11.244112      -305.9678
   8   2.0000     -11.235787      -305.7413
   9   2.0000      -1.395234       -37.9662
  10   2.0000      -1.377660       -37.4880
  11   2.0000      -1.209877       -32.9224
  12   2.0000      -1.092287       -29.7226
  13   2.0000      -0.990369       -26.9493
  14   2.0000      -0.971507       -26.4360
  15   2.0000      -0.847190       -23.0532
  16   2.0000      -0.779818       -21.2199
  17   2.0000      -0.761108       -20.7108
  18   2.0000      -0.730047       -19.8656
  19   2.0000      -0.706871       -19.2349
  20   2.0000      -0.667187       -18.1551
  21   2.0000      -0.646880       -17.6025
  22   2.0000      -0.622805       -16.9474
  23   2.0000      -0.592753       -16.1296
  24   2.0000      -0.571309       -15.5461
  25   2.0000      -0.546148       -14.8614
  26   2.0000      -0.525043       -14.2871
  27   2.0000      -0.506091       -13.7714
  28   2.0000      -0.497046       -13.5253
  29   2.0000      -0.478540       -13.0217
  30   2.0000      -0.460120       -12.5205
  31   2.0000      -0.421082       -11.4582
  32   2.0000      -0.418446       -11.3865
  33   2.0000      -0.413708       -11.2576
  34   0.0000       0.122500         3.3334
  35   0.0000       0.143264         3.8984
  36   0.0000       0.158026         4.3001
  37   0.0000       0.171070         4.6550
  38   0.0000       0.185937         5.0596

MULLIKEN ATOMIC CHARGES
-----------------------
   0 N :   -0.477206
   1 C :    0.214941
   2 O :   -0.347727
   3 C :   -0.024186
   4 C :   -0.255125
   5 C :    0.001129
   6 C :   -0.186638
   7 C :   -0.020851
   8 O :   -0.314808
   9 H :    0.261211
  10 H :    0.259647
  11 H :    0.127423
  12 H :    0.123636
  13 H :    0.115777
  14 H :    0.128584
  15 H :    0.116585
  16 H :    0.127987
  17 H :    0.149622
Sum of atomic charges:    0.0000000

LOEWDIN ATOMIC CHARGES
----------------------
   0 N :   -0.015843
   1 C :   -0.457015
   2 O :    0.091509
   3 C :   -0.190507
   4 C :   -0.214926
   5 C :   -0.261390
   6 C :   -0.203824
   7 C :   -0.228156
   8 O :    0.164784
   9 H :    0.173859
  10 H :    0.168304
  11 H :    0.163408
  12 H :    0.133954
  13 H :    0.136361
  14 H :    0.130206
  15 H :    0.128077
  16 H :    0.140647
  17 H :    0.140554

  Mayer bond orders larger than 0.1
B(  0-N ,  1-C ) :   1.1594 B(  0-N ,  9-H ) :   0.8580 B(  0-N , 10-H ) :   0.8705
B(  1-C ,  2-O ) :   1.9901 B(  1-C ,  3-C ) :   0.8773 B(  3-C ,  4-C ) :   0.9229
B(  3-C ,  7-C ) :   0.9261 B(  3-C , 11-H ) :   0.8888 B(  4-C ,  5-C ) :   0.9359
B(  4-C , 12-H ) :   0.9114 B(  4-C , 13-H ) :   0.9223 B(  5-C ,  6-C ) :   0.9502
B(  5-C ,  8-O ) :   0.9392 B(  5-C , 14-H ) :   0.9146 B(  6-C ,  7-C ) :   0.9182
B(  6-C , 15-H ) :   0.9274 B(  6-C , 16-H ) :   0.9245 B(  7-C ,  8-O ) :   0.9274
B(  7-C , 17-H ) :   0.9122

MP2 TOTAL ENERGY:     -438.382382954 Eh
FINAL SINGLE POINT ENERGY      -438.382382953938

DIPOLE MOMENT
-------------
                                X             Y             Z
Electronic contribution:      4.84409      -0.11594       0.65880
Nuclear contribution   :     -6.39868       0.99993      -0.85542
                        -----------------------------------------
Total Dipole Moment    :     -1.55459       0.88399      -0.19663
                        -----------------------------------------
Magnitude (a.u.)       :      1.79912
Magnitude (Debye)      :      4.57300

                             ****ORCA TERMINATED NORMALLY****
TOTAL RUN TIME: 0 days 0 hours 18 minutes 54 seconds 585 msec
