                         Program Version 3.0.3 - RELEASE   -
|  1> ! RI-MP2 RIJK def2-TZVP def2-TZVP/C def2-TZVP/JK TIGHTSCF
|  2> % maxcore 2000
|  3> % mp2 density relaxed end
|  4> *xyz 0 1
|  5>  O        0.2569170625     1.3302857778     0.3740340719
|  6>  C        0.0624502598    -0.0296949040     0.0918508011
|  7>  C       -0.7103943193    -0.8685697168     1.0823749949
|  8>  C       -1.3661013764    -0.4158294866    -0.1982556858
|  9>  C        1.1560970426    -0.6416155335    -0.7045553744
| 10>  N        1.2978195093    -1.9440975923    -0.8084462997
| 11>  O        2.3961193661    -2.1412025660    -1.6414790321
| 12>  C        2.8849140354    -0.9463981536    -2.0005918667
| 13>  C        2.1551385775     0.0538133591    -1.4488516232
| 14>  H        0.9176783158     1.3954138278     1.0729817419
| 15>  H       -0.4288813833    -1.9102252972     1.1805980320
| 16>  H       -1.0071002211    -0.3682820863     1.9973472554
| 17>  H       -2.0904756525     0.3881320135    -0.1381740387
| 18>  H       -1.5356029189    -1.1490588515    -0.9776362229
| 19>  H        3.7489471268    -0.9682407288    -2.6468176626
| 20>  H        2.2786621157     1.1179547884    -1.5481807410
| 21> *
| 22>
| 23>                          ****END OF INPUT****

CARTESIAN COORDINATES (ANGSTROEM)
---------------------------------
  O      0.256917    1.330286    0.374034
  C      0.062450   -0.029695    0.091851
  C     -0.710394   -0.868570    1.082375
  C     -1.366101   -0.415829   -0.198256
  C      1.156097   -0.641616   -0.704555
  N      1.297820   -1.944098   -0.808446
  O      2.396119   -2.141203   -1.641479
  C      2.884914   -0.946398   -2.000592
  C      2.155139    0.053813   -1.448852
  H      0.917678    1.395414    1.072982
  H     -0.428881   -1.910225    1.180598
  H     -1.007100   -0.368282    1.997347
  H     -2.090476    0.388132   -0.138174
  H     -1.535603   -1.149059   -0.977636
  H      3.748947   -0.968241   -2.646818
  H      2.278662    1.117955   -1.548181

 Total Charge           Charge          ....    0
 Multiplicity           Mult            ....    1
 Number of Electrons    NEL             ....   66
 Basis Dimension        Dim             ....  321

ORBITAL ENERGIES
----------------

  NO   OCC          E(Eh)            E(eV)
   0   2.0000     -20.644181      -561.7567
   1   2.0000     -20.577980      -559.9553
   2   2.0000     -15.614725      -424.8983
   3   2.0000     -11.316625      -307.9410
   4   2.0000     -11.306780      -307.6731
   5   2.0000     -11.286579      -307.1234
   6   2.0000     -11.237915      -305.7992
   7   2.0000     -11.236580      -305.7629
   8   2.0000     -11.235711      -305.7392
   9   2.0000      -1.493076       -40.6287
  10   2.0000      -1.389953       -37.8225
  11   2.0000      -1.182235       -32.1702
  12   2.0000      -1.124482       -30.5987
  13   2.0000      -1.071657       -29.1613
  14   2.0000      -0.885218       -24.0880
  15   2.0000      -0.842493       -22.9254
  16   2.0000      -0.830254       -22.5924
  17   2.0000      -0.770053       -20.9542
  18   2.0000      -0.744620       -20.2621
  19   2.0000      -0.685855       -18.6631
  20   2.0000      -0.659278       -17.9399
  21   2.0000      -0.650717       -17.7069
  22   2.0000      -0.635730       -17.2991
  23   2.0000      -0.604473       -16.4486
  24   2.0000      -0.572902       -15.5895
  25   2.0000      -0.565222       -15.3805
  26   2.0000      -0.529088       -14.3972
  27   2.0000      -0.519721       -14.1423
  28   2.0000      -0.479696       -13.0532
  29   2.0000      -0.464324       -12.6349
  30   2.0000      -0.429648       -11.6913
  31   2.0000      -0.384859       -10.4725
  32   2.0000      -0.367478        -9.9996
  33   0.0000       0.114247         3.1088
  34   0.0000       0.142436         3.8759
  35   0.0000       0.168337         4.5807
  36   0.0000       0.173780         4.7288
  37   0.0000       0.183067         4.9815

MULLIKEN ATOMIC CHARGES
-----------------------
   0 O :   -0.467258
   1 C :    0.209900
   2 C :   -0.303618
   3 C :   -0.242036
   4 C :    0.061745
   5 N :   -0.129955
   6 O :   -0.106665
   7 C :    0.016972
   8 C :   -0.271919
   9 H :    0.327573
  10 H :    0.152261
  11 H :    0.141857
  12 H :    0.136456
  13 H :    0.150186
  14 H :    0.162154
  15 H :    0.162348
Sum of atomic charges:   -0.0000000

LOEWDIN ATOMIC CHARGES
----------------------
   0 O :    0.033219
   1 C :   -0.335611
   2 C :   -0.201569
   3 C :   -0.186672
   4 C :   -0.251215
   5 N :    0.060555
   6 O :    0.278332
   7 C :   -0.262936
   8 C :   -0.167497
   9 H :    0.185254
  10 H :    0.140885
  11 H :    0.136936
  12 H :    0.140155
  13 H :    0.139940
  14 H :    0.138491
  15 H :    0.151734

  Mayer bond orders larger than 0.1
B(  0-O ,  1-C ) :   0.9764 B(  0-O ,  9-H ) :   0.8388 B(  1-C ,  2-C ) :   0.8888
B(  1-C ,  3-C ) :   0.8450 B(  1-C ,  4-C ) :   0.9110 B(  2-C ,  3-C ) :   0.9222
B(  2-C , 10-H ) :   0.9093 B(  2-C , 11-H ) :   0.9262 B(  3-C , 12-H ) :   0.9235
B(  3-C , 13-H ) :   0.9275 B(  4-C ,  5-N ) :   1.5578 B(  4-C ,  8-C ) :   1.1877
B(  5-N ,  6-O ) :   0.8847 B(  5-N ,  7-C ) :   0.1022 B(  6-O ,  7-C ) :   1.1213
B(  7-C ,  8-C ) :   1.5582 B(  7-C , 14-H ) :   0.9191 B(  8-C , 15-H ) :   0.9056

MP2 TOTAL ENERGY:     -437.134084413 Eh
FINAL SINGLE POINT ENERGY      -437.134084412786

DIPOLE MOMENT
-------------
                                X             Y             Z
Electronic contribution:      4.58218      -1.93937      -2.57656
Nuclear contribution   :     -4.13628       2.58140       2.72039
                        -----------------------------------------
Total Dipole Moment    :      0.44590       0.64203       0.14383
                        -----------------------------------------
Magnitude (a.u.)       :      0.79480
Magnitude (Debye)      :      2.02023

                             ****ORCA TERMINATED NORMALLY****
TOTAL RUN TIME: 0 days 0 hours 17 minutes 48 seconds 696 msec
