                         Program Version 3.0.3 - RELEASE   -
|  1> ! RI-MP2 RIJK def2-TZVP def2-TZVP/C def2-TZVP/JK TIGHTSCF
|  2> % maxcore 2000
|  3> % mp2 density relaxed end
|  4> *xyz 0 1
|  5>  O       -0.0829134159     1.3702067335    -0.1821795867
|  6>  C       -0.0514573072    -0.0347146241    -0.0171071630
|  7>  C       -1.4432407926    -0.5423920852     0.1188377021
|  8>  C       -2.6215360762     0.1184436925     0.1142286304
|  9>  C       -3.6498538750    -0.9997343068     0.0875742612
| 10>  N       -3.0798431795    -2.0604882182     0.9752478242
| 11>  C       -1.8701054295    -2.0040852339     0.1017432385
| 12>  C       -2.9528528526    -1.8514439012    -1.0607314254
| 13>  O       -3.1237264290    -2.1818095629    -2.1813160124
| 14>  H        0.8234024482     1.6894392744    -0.2175436180
| 15>  H        0.4290385169    -0.5368726971    -0.8757081356
| 16>  H        0.5357979923    -0.3220626723     0.8728478507
| 17>  H       -2.7977260804     1.1761855407    -0.0086531739
| 18>  H       -4.7150203376    -0.7875968376     0.1399628618
| 19>  H       -2.8727436204    -1.6766530647     1.9016741761
| 20>  H       -1.1378137913    -2.8070729369     0.1631009501
| 21> *
| 22>
| 23>                          ****END OF INPUT****

CARTESIAN COORDINATES (ANGSTROEM)
---------------------------------
  O     -0.082913    1.370207   -0.182180
  C     -0.051457   -0.034715   -0.017107
  C     -1.443241   -0.542392    0.118838
  C     -2.621536    0.118444    0.114229
  C     -3.649854   -0.999734    0.087574
  N     -3.079843   -2.060488    0.975248
  C     -1.870105   -2.004085    0.101743
  C     -2.952853   -1.851444   -1.060731
  O     -3.123726   -2.181810   -2.181316
  H      0.823402    1.689439   -0.217544
  H      0.429039   -0.536873   -0.875708
  H      0.535798   -0.322063    0.872848
  H     -2.797726    1.176186   -0.008653
  H     -4.715020   -0.787597    0.139963
  H     -2.872744   -1.676653    1.901674
  H     -1.137814   -2.807073    0.163101

 Total Charge           Charge          ....    0
 Multiplicity           Mult            ....    1
 Number of Electrons    NEL             ....   66
 Basis Dimension        Dim             ....  321

ORBITAL ENERGIES
----------------

  NO   OCC          E(Eh)            E(eV)
   0   2.0000     -20.575156      -559.8785
   1   2.0000     -20.562153      -559.5246
   2   2.0000     -15.570078      -423.6834
   3   2.0000     -11.350686      -308.8679
   4   2.0000     -11.305030      -307.6255
   5   2.0000     -11.289284      -307.1970
   6   2.0000     -11.286490      -307.1210
   7   2.0000     -11.256018      -306.2918
   8   2.0000     -11.243042      -305.9387
   9   2.0000      -1.414631       -38.4941
  10   2.0000      -1.381265       -37.5861
  11   2.0000      -1.288883       -35.0723
  12   2.0000      -1.080043       -29.3895
  13   2.0000      -0.986843       -26.8534
  14   2.0000      -0.937608       -25.5136
  15   2.0000      -0.896807       -24.4034
  16   2.0000      -0.750634       -20.4258
  17   2.0000      -0.734293       -19.9811
  18   2.0000      -0.715754       -19.4766
  19   2.0000      -0.697003       -18.9664
  20   2.0000      -0.661658       -18.0046
  21   2.0000      -0.653323       -17.7778
  22   2.0000      -0.620626       -16.8881
  23   2.0000      -0.596245       -16.2246
  24   2.0000      -0.576265       -15.6810
  25   2.0000      -0.537401       -14.6234
  26   2.0000      -0.527805       -14.3623
  27   2.0000      -0.527122       -14.3437
  28   2.0000      -0.514143       -13.9905
  29   2.0000      -0.475791       -12.9469
  30   2.0000      -0.430568       -11.7164
  31   2.0000      -0.393223       -10.7001
  32   2.0000      -0.350972        -9.5504
  33   0.0000       0.121697         3.3116
  34   0.0000       0.132029         3.5927
  35   0.0000       0.145124         3.9490
  36   0.0000       0.159077         4.3287
  37   0.0000       0.168869         4.5952

MULLIKEN ATOMIC CHARGES
-----------------------
   0 O :   -0.455139
   1 C :   -0.141940
   2 C :   -0.044767
   3 C :   -0.222083
   4 C :    0.013821
   5 N :   -0.292329
   6 C :    0.005244
   7 C :    0.132377
   8 O :   -0.211844
   9 H :    0.319062
  10 H :    0.120130
  11 H :    0.117070
  12 H :    0.150981
  13 H :    0.155691
  14 H :    0.198093
  15 H :    0.155635
Sum of atomic charges:   -0.0000000

LOEWDIN ATOMIC CHARGES
----------------------
   0 O :   -0.032173
   1 C :   -0.317356
   2 C :   -0.150268
   3 C :   -0.104610
   4 C :   -0.214564
   5 N :    0.041430
   6 C :   -0.193146
   7 C :   -0.238446
   8 O :    0.190496
   9 H :    0.176275
  10 H :    0.131192
  11 H :    0.128678
  12 H :    0.144391
  13 H :    0.136620
  14 H :    0.163727
  15 H :    0.137753

  Mayer bond orders larger than 0.1
B(  0-O ,  1-C ) :   1.0808 B(  0-O ,  2-C ) :  -0.1302 B(  0-O ,  9-H ) :   0.8451
B(  1-C ,  2-C ) :   0.9075 B(  1-C , 10-H ) :   0.9378 B(  1-C , 11-H ) :   0.9256
B(  2-C ,  3-C ) :   1.6045 B(  2-C ,  6-C ) :   0.9173 B(  3-C ,  4-C ) :   0.9412
B(  3-C , 12-H ) :   0.9361 B(  4-C ,  5-N ) :   0.9564 B(  4-C ,  7-C ) :   0.7925
B(  4-C , 13-H ) :   0.8994 B(  5-N ,  6-C ) :   0.9732 B(  5-N , 14-H ) :   0.8655
B(  6-C ,  7-C ) :   0.7599 B(  6-C , 15-H ) :   0.8937 B(  7-C ,  8-O ) :   2.0952

MP2 TOTAL ENERGY:     -437.125030595 Eh
FINAL SINGLE POINT ENERGY      -437.125030595233

DIPOLE MOMENT
-------------
                                X             Y             Z
Electronic contribution:     -3.15754      -2.07945      -2.63930
Nuclear contribution   :      4.28187       2.66325       3.40872
                        -----------------------------------------
Total Dipole Moment    :      1.12433       0.58380       0.76942
                        -----------------------------------------
Magnitude (a.u.)       :      1.48221
Magnitude (Debye)      :      3.76747

                             ****ORCA TERMINATED NORMALLY****
TOTAL RUN TIME: 0 days 0 hours 16 minutes 16 seconds 594 msec
