                         Program Version 3.0.3 - RELEASE   -
|  1> ! RI-MP2 RIJK def2-TZVP def2-TZVP/C def2-TZVP/JK TIGHTSCF
|  2> % maxcore 2000
|  3> % mp2 density relaxed end
|  4> *xyz 0 1
|  5>  H        2.1457361203    -2.7777074540     2.1554664769
|  6>  N        1.8679003568    -2.9931172763     1.2001857663
|  7>  C        1.7583839735    -1.9283497577     0.5341289152
|  8>  H        1.9207174101    -0.9058324751     0.8998607476
|  9>  O        1.4133504937    -1.9888429258    -0.7713413577
| 10>  C        1.2824258729    -0.7306443639    -1.4411939196
| 11>  H        2.1877451232    -0.1262410043    -1.2902940619
| 12>  H        1.2324685016    -0.9836031366    -2.5037626558
| 13>  C        0.1007172285     0.0229961025    -1.0351562088
| 14>  C       -0.8705019617     0.6389959828    -0.6830899818
| 15>  C       -2.0595000921     1.3819623388    -0.2628149956
| 16>  H       -2.5774643505     1.7712107122    -1.1500959236
| 17>  H       -2.7678721770     0.6881790481     0.2105001078
| 18>  C       -1.7700288404     2.4848724058     0.6553676780
| 19>  C       -1.5438549042     3.3920538356     1.4080424037
| 20>  H       -1.3421507546     4.1940679679     2.0741970093
| 21> *
| 22>
| 23>                          ****END OF INPUT****

CARTESIAN COORDINATES (ANGSTROEM)
---------------------------------
  H      2.145736   -2.777707    2.155466
  N      1.867900   -2.993117    1.200186
  C      1.758384   -1.928350    0.534129
  H      1.920717   -0.905832    0.899861
  O      1.413350   -1.988843   -0.771341
  C      1.282426   -0.730644   -1.441194
  H      2.187745   -0.126241   -1.290294
  H      1.232469   -0.983603   -2.503763
  C      0.100717    0.022996   -1.035156
  C     -0.870502    0.638996   -0.683090
  C     -2.059500    1.381962   -0.262815
  H     -2.577464    1.771211   -1.150096
  H     -2.767872    0.688179    0.210500
  C     -1.770029    2.484872    0.655368
  C     -1.543855    3.392054    1.408042
  H     -1.342151    4.194068    2.074197

 Total Charge           Charge          ....    0
 Multiplicity           Mult            ....    1
 Number of Electrons    NEL             ....   64
 Basis Dimension        Dim             ....  321

ORBITAL ENERGIES
----------------

  NO   OCC          E(Eh)            E(eV)
   0   2.0000     -20.599039      -560.5283
   1   2.0000     -15.540964      -422.8911
   2   2.0000     -11.338761      -308.5434
   3   2.0000     -11.328289      -308.2584
   4   2.0000     -11.296897      -307.4042
   5   2.0000     -11.253135      -306.2134
   6   2.0000     -11.250181      -306.1330
   7   2.0000     -11.242287      -305.9182
   8   2.0000     -11.236270      -305.7544
   9   2.0000      -1.432766       -38.9876
  10   2.0000      -1.200733       -32.6736
  11   2.0000      -1.114000       -30.3135
  12   2.0000      -1.056144       -28.7391
  13   2.0000      -1.002560       -27.2811
  14   2.0000      -0.949167       -25.8281
  15   2.0000      -0.833707       -22.6863
  16   2.0000      -0.748355       -20.3638
  17   2.0000      -0.736022       -20.0282
  18   2.0000      -0.708886       -19.2898
  19   2.0000      -0.673652       -18.3310
  20   2.0000      -0.668326       -18.1861
  21   2.0000      -0.652367       -17.7518
  22   2.0000      -0.633685       -17.2434
  23   2.0000      -0.611737       -16.6462
  24   2.0000      -0.561217       -15.2715
  25   2.0000      -0.543465       -14.7884
  26   2.0000      -0.439663       -11.9638
  27   2.0000      -0.416019       -11.3204
  28   2.0000      -0.412839       -11.2339
  29   2.0000      -0.407124       -11.0784
  30   2.0000      -0.393683       -10.7126
  31   2.0000      -0.391242       -10.6462
  32   0.0000       0.123097         3.3496
  33   0.0000       0.139023         3.7830
  34   0.0000       0.149459         4.0670
  35   0.0000       0.154654         4.2083
  36   0.0000       0.159470         4.3394

MULLIKEN ATOMIC CHARGES
-----------------------
   0 H :    0.226176
   1 N :   -0.339497
   2 C :    0.075697
   3 H :    0.092112
   4 O :   -0.208279
   5 C :   -0.184540
   6 H :    0.167364
   7 H :    0.159697
   8 C :    0.015842
   9 C :    0.023982
  10 C :   -0.439072
  11 H :    0.180061
  12 H :    0.183228
  13 C :   -0.010408
  14 C :   -0.137763
  15 H :    0.195400
Sum of atomic charges:    0.0000000

LOEWDIN ATOMIC CHARGES
----------------------
   0 H :    0.168782
   1 N :   -0.077498
   2 C :   -0.394324
   3 H :    0.112370
   4 O :    0.240807
   5 C :   -0.289455
   6 H :    0.143467
   7 H :    0.152564
   8 C :   -0.078013
   9 C :   -0.045988
  10 C :   -0.228569
  11 H :    0.177146
  12 H :    0.178451
  13 C :   -0.096516
  14 C :   -0.091737
  15 H :    0.128512

  Mayer bond orders larger than 0.1
B(  0-H ,  1-N ) :   0.8501 B(  1-N ,  2-C ) :   1.9481 B(  2-C ,  3-H ) :   0.9252
B(  2-C ,  4-O ) :   1.0398 B(  4-O ,  5-C ) :   0.9188 B(  5-C ,  6-H ) :   1.0051
B(  5-C ,  7-H ) :   0.9174 B(  5-C ,  8-C ) :   0.8808 B(  8-C ,  9-C ) :   2.6807
B(  9-C , 10-C ) :   0.9999 B( 10-C , 11-H ) :   0.9314 B( 10-C , 12-H ) :   0.9233
B( 10-C , 13-C ) :   1.0733 B( 13-C , 14-C ) :   2.6195 B( 14-C , 15-H ) :   0.9040

MP2 TOTAL ENERGY:     -399.956339990 Eh
FINAL SINGLE POINT ENERGY      -399.956339990392

DIPOLE MOMENT
-------------
                                X             Y             Z
Electronic contribution:     -0.21465      -0.77122      -0.62841
Nuclear contribution   :      0.11105       2.17058       0.64047
                        -----------------------------------------
Total Dipole Moment    :     -0.10360       1.39936       0.01206
                        -----------------------------------------
Magnitude (a.u.)       :      1.40324
Magnitude (Debye)      :      3.56676

                             ****ORCA TERMINATED NORMALLY****
TOTAL RUN TIME: 0 days 0 hours 11 minutes 34 seconds 983 msec
