                         Program Version 3.0.3 - RELEASE   -
|  1> ! RI-MP2 RIJK def2-TZVP def2-TZVP/C def2-TZVP/JK TIGHTSCF
|  2> % maxcore 2000
|  3> % mp2 density relaxed end
|  4> *xyz 0 1
|  5>  O        0.3067030540     1.5394231184    -0.2680686716
|  6>  C       -0.0004497540     0.2171428792     0.0629371395
|  7>  C        0.5177781731    -0.1499957116     1.4899691663
|  8>  N       -0.4694695949    -1.0938934337     1.9691829454
|  9>  C       -1.6815141107    -1.0477478325     1.3252127784
| 10>  O       -2.6732640821    -1.6651806817     1.6346271502
| 11>  C       -1.5199756759    -0.0691087890     0.1596256712
| 12>  C        0.6342748679    -0.7187836703    -0.9530465581
| 13>  O        1.2653670037    -0.3005930054    -1.8924807810
| 14>  H        0.8217517839     1.4951968468    -1.0903365030
| 15>  H        1.5233795048    -0.5858125790     1.4739234196
| 16>  H        0.5571789397     0.7757356902     2.0777538140
| 17>  H       -0.3880025691    -1.5797174406     2.8490133320
| 18>  H       -2.0328413832     0.8674385381     0.3990899177
| 19>  H       -1.9698850961    -0.4704080502    -0.7512775532
| 20>  H        0.4846554687    -1.8034178386    -0.7819118272
| 21> *
| 22>
| 23>                          ****END OF INPUT****

CARTESIAN COORDINATES (ANGSTROEM)
---------------------------------
  O      0.306703    1.539423   -0.268069
  C     -0.000450    0.217143    0.062937
  C      0.517778   -0.149996    1.489969
  N     -0.469470   -1.093893    1.969183
  C     -1.681514   -1.047748    1.325213
  O     -2.673264   -1.665181    1.634627
  C     -1.519976   -0.069109    0.159626
  C      0.634275   -0.718784   -0.953047
  O      1.265367   -0.300593   -1.892481
  H      0.821752    1.495197   -1.090337
  H      1.523380   -0.585813    1.473923
  H      0.557179    0.775736    2.077754
  H     -0.388003   -1.579717    2.849013
  H     -2.032841    0.867439    0.399090
  H     -1.969885   -0.470408   -0.751278
  H      0.484655   -1.803418   -0.781912

 Total Charge           Charge          ....    0
 Multiplicity           Mult            ....    1
 Number of Electrons    NEL             ....   68
 Basis Dimension        Dim             ....  321

ORBITAL ENERGIES
----------------

  NO   OCC          E(Eh)            E(eV)
   0   2.0000     -20.593216      -560.3699
   1   2.0000     -20.579186      -559.9881
   2   2.0000     -20.532543      -558.7189
   3   2.0000     -15.601116      -424.5280
   4   2.0000     -11.364300      -309.2383
   5   2.0000     -11.361739      -309.1686
   6   2.0000     -11.330201      -308.3104
   7   2.0000     -11.298017      -307.4347
   8   2.0000     -11.261470      -306.4402
   9   2.0000      -1.441615       -39.2283
  10   2.0000      -1.398820       -38.0638
  11   2.0000      -1.387395       -37.7529
  12   2.0000      -1.267760       -34.4975
  13   2.0000      -1.079597       -29.3773
  14   2.0000      -0.999082       -27.1864
  15   2.0000      -0.912667       -24.8349
  16   2.0000      -0.814954       -22.1760
  17   2.0000      -0.807153       -21.9637
  18   2.0000      -0.755706       -20.5638
  19   2.0000      -0.714506       -19.4427
  20   2.0000      -0.690571       -18.7914
  21   2.0000      -0.654939       -17.8218
  22   2.0000      -0.640423       -17.4268
  23   2.0000      -0.629682       -17.1345
  24   2.0000      -0.612067       -16.6552
  25   2.0000      -0.601940       -16.3796
  26   2.0000      -0.582203       -15.8425
  27   2.0000      -0.565899       -15.3989
  28   2.0000      -0.547702       -14.9037
  29   2.0000      -0.532434       -14.4883
  30   2.0000      -0.472116       -12.8469
  31   2.0000      -0.454937       -12.3795
  32   2.0000      -0.429365       -11.6836
  33   2.0000      -0.409140       -11.1333
  34   0.0000       0.104490         2.8433
  35   0.0000       0.122896         3.3442
  36   0.0000       0.148397         4.0381
  37   0.0000       0.161012         4.3814
  38   0.0000       0.171411         4.6643

MULLIKEN ATOMIC CHARGES
-----------------------
   0 O :   -0.460066
   1 C :    0.263817
   2 C :   -0.131965
   3 N :   -0.326928
   4 C :    0.179976
   5 O :   -0.322794
   6 C :   -0.226991
   7 C :    0.023577
   8 O :   -0.281628
   9 H :    0.337509
  10 H :    0.135035
  11 H :    0.138488
  12 H :    0.243056
  13 H :    0.152629
  14 H :    0.150159
  15 H :    0.126126
Sum of atomic charges:   -0.0000000

LOEWDIN ATOMIC CHARGES
----------------------
   0 O :    0.031580
   1 C :   -0.383692
   2 C :   -0.225499
   3 N :    0.114730
   4 C :   -0.450019
   5 O :    0.096115
   6 C :   -0.170379
   7 C :   -0.247585
   8 O :    0.136984
   9 H :    0.187117
  10 H :    0.135161
  11 H :    0.139290
  12 H :    0.185712
  13 H :    0.165435
  14 H :    0.153427
  15 H :    0.131624

  Mayer bond orders larger than 0.1
B(  0-O ,  1-C ) :   1.1602 B(  0-O ,  9-H ) :   0.7983 B(  1-C ,  2-C ) :   0.8620
B(  1-C ,  6-C ) :   0.8521 B(  1-C ,  7-C ) :   0.8403 B(  2-C ,  3-N ) :   0.8741
B(  2-C , 10-H ) :   0.9208 B(  2-C , 11-H ) :   0.9179 B(  3-N ,  4-C ) :   1.1429
B(  3-N , 12-H ) :   0.8621 B(  4-C ,  5-O ) :   2.0218 B(  4-C ,  6-C ) :   0.8965
B(  6-C , 13-H ) :   0.8925 B(  6-C , 14-H ) :   0.9148 B(  7-C ,  8-O ) :   1.9103
B(  7-C , 15-H ) :   0.9281

MP2 TOTAL ENERGY:     -474.328040236 Eh
FINAL SINGLE POINT ENERGY      -474.328040235656

DIPOLE MOMENT
-------------
                                X             Y             Z
Electronic contribution:     -0.65413      -1.06092      -1.05588
Nuclear contribution   :      1.59303       1.05778       1.43977
                        -----------------------------------------
Total Dipole Moment    :      0.93890      -0.00314       0.38389
                        -----------------------------------------
Magnitude (a.u.)       :      1.01435
Magnitude (Debye)      :      2.57828

                             ****ORCA TERMINATED NORMALLY****
TOTAL RUN TIME: 0 days 0 hours 14 minutes 11 seconds 168 msec
