                         Program Version 3.0.3 - RELEASE   -
|  1> ! RI-MP2 RIJK def2-TZVP def2-TZVP/C def2-TZVP/JK TIGHTSCF
|  2> % maxcore 2000
|  3> % mp2 density relaxed end
|  4> *xyz 0 1
|  5>  N       -0.2016738920     1.3359056313     0.0142928935
|  6>  C       -0.0185994695    -0.0051578852    -0.0287764980
|  7>  O        1.0586994859    -0.5536458642    -0.1473082449
|  8>  C       -1.3290081291    -0.8368070584     0.0102076105
|  9>  C       -0.9867769368    -2.3371947873     0.0639847025
| 10>  C       -2.1651519259    -3.1803103014    -0.1195434884
| 11>  N       -3.1118018977    -3.8275988066    -0.2628290344
| 12>  C       -2.2922772246    -0.4160475958     1.1159513842
| 13>  O       -2.5923030958     0.7287920053     1.3522218706
| 14>  H        0.6248916320     1.9091627865     0.0808166046
| 15>  H       -1.0860281998     1.7005598862     0.3418251856
| 16>  H       -1.8573278702    -0.6193942120    -0.9286545643
| 17>  H       -0.2448927368    -2.5592235163    -0.7059217043
| 18>  H       -0.5113447268    -2.5834512459     1.0194304009
| 19>  H       -2.7303285430    -1.2483806563     1.7037813320
| 20> *
| 21>
| 22>                          ****END OF INPUT****

CARTESIAN COORDINATES (ANGSTROEM)
---------------------------------
  N     -0.201674    1.335906    0.014293
  C     -0.018599   -0.005158   -0.028776
  O      1.058699   -0.553646   -0.147308
  C     -1.329008   -0.836807    0.010208
  C     -0.986777   -2.337195    0.063985
  C     -2.165152   -3.180310   -0.119543
  N     -3.111802   -3.827599   -0.262829
  C     -2.292277   -0.416048    1.115951
  O     -2.592303    0.728792    1.352222
  H      0.624892    1.909163    0.080817
  H     -1.086028    1.700560    0.341825
  H     -1.857328   -0.619394   -0.928655
  H     -0.244893   -2.559224   -0.705922
  H     -0.511345   -2.583451    1.019430
  H     -2.730329   -1.248381    1.703781

 Total Charge           Charge          ....    0
 Multiplicity           Mult            ....    1
 Number of Electrons    NEL             ....   66
 Basis Dimension        Dim             ....  315

ORBITAL ENERGIES
----------------

  NO   OCC          E(Eh)            E(eV)
   0   2.0000     -20.599594      -560.5435
   1   2.0000     -20.548225      -559.1456
   2   2.0000     -15.598535      -424.4577
   3   2.0000     -15.587903      -424.1684
   4   2.0000     -11.384932      -309.7997
   5   2.0000     -11.377578      -309.5996
   6   2.0000     -11.304021      -307.5980
   7   2.0000     -11.302705      -307.5622
   8   2.0000     -11.290971      -307.2430
   9   2.0000      -1.440938       -39.2099
  10   2.0000      -1.412880       -38.4464
  11   2.0000      -1.238255       -33.6946
  12   2.0000      -1.235309       -33.6145
  13   2.0000      -1.131819       -30.7984
  14   2.0000      -0.988500       -26.8985
  15   2.0000      -0.876995       -23.8642
  16   2.0000      -0.807836       -21.9823
  17   2.0000      -0.748612       -20.3708
  18   2.0000      -0.740840       -20.1593
  19   2.0000      -0.701650       -19.0929
  20   2.0000      -0.701105       -19.0780
  21   2.0000      -0.674011       -18.3408
  22   2.0000      -0.622686       -16.9441
  23   2.0000      -0.615481       -16.7481
  24   2.0000      -0.607255       -16.5243
  25   2.0000      -0.575957       -15.6726
  26   2.0000      -0.568788       -15.4775
  27   2.0000      -0.552216       -15.0266
  28   2.0000      -0.491660       -13.3787
  29   2.0000      -0.477724       -12.9995
  30   2.0000      -0.457750       -12.4560
  31   2.0000      -0.451077       -12.2744
  32   2.0000      -0.436908       -11.8889
  33   0.0000       0.079274         2.1572
  34   0.0000       0.119648         3.2558
  35   0.0000       0.137342         3.7373
  36   0.0000       0.148648         4.0449
  37   0.0000       0.162100         4.4110

MULLIKEN ATOMIC CHARGES
-----------------------
   0 N :   -0.463502
   1 C :    0.256012
   2 O :   -0.342288
   3 C :   -0.058831
   4 C :   -0.191035
   5 C :   -0.174500
   6 N :   -0.048870
   7 C :    0.092933
   8 O :   -0.288331
   9 H :    0.263341
  10 H :    0.285077
  11 H :    0.162058
  12 H :    0.196338
  13 H :    0.178358
  14 H :    0.133238
Sum of atomic charges:   -0.0000000

LOEWDIN ATOMIC CHARGES
----------------------
   0 N :    0.002363
   1 C :   -0.456097
   2 O :    0.096965
   3 C :   -0.208451
   4 C :   -0.217187
   5 C :   -0.197482
   6 N :    0.063173
   7 C :   -0.248286
   8 O :    0.135703
   9 H :    0.178886
  10 H :    0.177102
  11 H :    0.189833
  12 H :    0.178736
  13 H :    0.173098
  14 H :    0.131645

  Mayer bond orders larger than 0.1
B(  0-N ,  1-C ) :   1.2350 B(  0-N ,  9-H ) :   0.8568 B(  0-N , 10-H ) :   0.8348
B(  1-C ,  2-O ) :   1.9311 B(  1-C ,  3-C ) :   0.8610 B(  3-C ,  4-C ) :   0.9002
B(  3-C ,  7-C ) :   0.8426 B(  3-C , 11-H ) :   0.8775 B(  4-C ,  5-C ) :   0.9066
B(  4-C , 12-H ) :   0.9023 B(  4-C , 13-H ) :   0.9107 B(  5-C ,  6-N ) :   2.8684
B(  7-C ,  8-O ) :   1.8973 B(  7-C , 14-H ) :   0.9370

MP2 TOTAL ENERGY:     -453.265909836 Eh
FINAL SINGLE POINT ENERGY      -453.265909836062

DIPOLE MOMENT
-------------
                                X             Y             Z
Electronic contribution:     -1.17295      -1.02306       0.12599
Nuclear contribution   :      1.63291       2.05411       0.09312
                        -----------------------------------------
Total Dipole Moment    :      0.45996       1.03105       0.21911
                        -----------------------------------------
Magnitude (a.u.)       :      1.15006
Magnitude (Debye)      :      2.92322

                             ****ORCA TERMINATED NORMALLY****
TOTAL RUN TIME: 0 days 0 hours 14 minutes 24 seconds 593 msec
