                         Program Version 3.0.3 - RELEASE   -
|  1> ! RI-MP2 RIJK def2-TZVP def2-TZVP/C def2-TZVP/JK TIGHTSCF
|  2> % maxcore 2000
|  3> % mp2 density relaxed end
|  4> *xyz 0 1
|  5>  C        1.0634208728     0.9022228497    -0.5175825668
|  6>  C        0.1989038787    -0.2721486858    -0.2081965204
|  7>  C       -0.5493937160    -1.1729018659    -0.9465722320
|  8>  N       -0.7810038128    -1.3331810807    -2.3148710433
|  9>  C        0.0874187511    -1.1477991408    -3.3568624675
| 10>  N        1.2530245855    -0.6417457136    -3.2405766796
| 11>  N       -1.2187197403    -2.0084468941    -0.1027019062
| 12>  N       -0.9306383086    -1.6952682436     1.1281107985
| 13>  N       -0.0788876777    -0.6637371516     1.0669956813
| 14>  H        1.5757757266     0.7293989495    -1.4654816108
| 15>  H        0.4704912556     1.8204939785    -0.6077023504
| 16>  H        1.8037453167     1.0610805985     0.2735756679
| 17>  H       -1.5840786655    -1.9146458034    -2.4999331683
| 18>  H       -0.3612402516    -1.4778710636    -4.3010181964
| 19>  H        1.7011314757    -0.5845509292    -4.1512559062
| 20>  H        0.2843049295    -0.2721062040     1.9219093802
| 21> *
| 22>
| 23>                          ****END OF INPUT****

CARTESIAN COORDINATES (ANGSTROEM)
---------------------------------
  C      1.063421    0.902223   -0.517583
  C      0.198904   -0.272149   -0.208197
  C     -0.549394   -1.172902   -0.946572
  N     -0.781004   -1.333181   -2.314871
  C      0.087419   -1.147799   -3.356862
  N      1.253025   -0.641746   -3.240577
  N     -1.218720   -2.008447   -0.102702
  N     -0.930638   -1.695268    1.128111
  N     -0.078888   -0.663737    1.066996
  H      1.575776    0.729399   -1.465482
  H      0.470491    1.820494   -0.607702
  H      1.803745    1.061081    0.273576
  H     -1.584079   -1.914646   -2.499933
  H     -0.361240   -1.477871   -4.301018
  H      1.701131   -0.584551   -4.151256
  H      0.284305   -0.272106    1.921909

 Total Charge           Charge          ....    0
 Multiplicity           Mult            ....    1
 Number of Electrons    NEL             ....   66
 Basis Dimension        Dim             ....  321

ORBITAL ENERGIES
----------------

  NO   OCC          E(Eh)            E(eV)
   0   2.0000     -15.650327      -425.8670
   1   2.0000     -15.634943      -425.4484
   2   2.0000     -15.597338      -424.4251
   3   2.0000     -15.590702      -424.2446
   4   2.0000     -15.533703      -422.6935
   5   2.0000     -11.326520      -308.2103
   6   2.0000     -11.290989      -307.2434
   7   2.0000     -11.283308      -307.0344
   8   2.0000     -11.232249      -305.6450
   9   2.0000      -1.435219       -39.0543
  10   2.0000      -1.289725       -35.0952
  11   2.0000      -1.202269       -32.7154
  12   2.0000      -1.169351       -31.8197
  13   2.0000      -1.081179       -29.4204
  14   2.0000      -0.970842       -26.4179
  15   2.0000      -0.881275       -23.9807
  16   2.0000      -0.861194       -23.4343
  17   2.0000      -0.777742       -21.1634
  18   2.0000      -0.756347       -20.5812
  19   2.0000      -0.698846       -19.0166
  20   2.0000      -0.657057       -17.8794
  21   2.0000      -0.647325       -17.6146
  22   2.0000      -0.627342       -17.0708
  23   2.0000      -0.590247       -16.0614
  24   2.0000      -0.569689       -15.5020
  25   2.0000      -0.559917       -15.2361
  26   2.0000      -0.553034       -15.0488
  27   2.0000      -0.513427       -13.9711
  28   2.0000      -0.440986       -11.9998
  29   2.0000      -0.431591       -11.7442
  30   2.0000      -0.425972       -11.5913
  31   2.0000      -0.389090       -10.5877
  32   2.0000      -0.311831        -8.4854
  33   0.0000       0.128279         3.4906
  34   0.0000       0.134205         3.6519
  35   0.0000       0.144735         3.9384
  36   0.0000       0.158600         4.3157
  37   0.0000       0.165896         4.5143

MULLIKEN ATOMIC CHARGES
-----------------------
   0 C :   -0.389340
   1 C :   -0.025161
   2 C :    0.174216
   3 N :   -0.312144
   4 C :    0.094110
   5 N :   -0.462850
   6 N :   -0.165011
   7 N :   -0.155205
   8 N :   -0.066907
   9 H :    0.198139
  10 H :    0.145674
  11 H :    0.125716
  12 H :    0.254324
  13 H :    0.103613
  14 H :    0.220716
  15 H :    0.260112
Sum of atomic charges:   -0.0000000

LOEWDIN ATOMIC CHARGES
----------------------
   0 C :   -0.278982
   1 C :   -0.239340
   2 C :   -0.313236
   3 N :    0.132410
   4 C :   -0.357618
   5 N :   -0.116646
   6 N :    0.006731
   7 N :   -0.059000
   8 N :    0.138786
   9 H :    0.143840
  10 H :    0.133973
  11 H :    0.129657
  12 H :    0.203332
  13 H :    0.120490
  14 H :    0.162746
  15 H :    0.192857

  Mayer bond orders larger than 0.1
B(  0-C ,  1-C ) :   0.8602 B(  0-C ,  9-H ) :   0.9223 B(  0-C , 10-H ) :   0.9271
B(  0-C , 11-H ) :   0.9299 B(  1-C ,  2-C ) :   1.4280 B(  1-C ,  7-N ) :   0.1333
B(  1-C ,  8-N ) :   1.1953 B(  2-C ,  3-N ) :   0.9813 B(  2-C ,  6-N ) :   1.3932
B(  3-N ,  4-C ) :   1.0967 B(  3-N , 12-H ) :   0.8594 B(  4-C ,  5-N ) :   1.8359
B(  4-C , 13-H ) :   0.9230 B(  5-N , 14-H ) :   0.8613 B(  6-N ,  7-N ) :   1.2910
B(  7-N ,  8-N ) :   1.0672 B(  8-N , 15-H ) :   0.8608

MP2 TOTAL ENERGY:     -429.533829741 Eh
FINAL SINGLE POINT ENERGY      -429.533829740855

DIPOLE MOMENT
-------------
                                X             Y             Z
Electronic contribution:     -3.80494      -4.21309       3.24870
Nuclear contribution   :      4.22311       5.15225      -3.86428
                        -----------------------------------------
Total Dipole Moment    :      0.41816       0.93915      -0.61558
                        -----------------------------------------
Magnitude (a.u.)       :      1.19825
Magnitude (Debye)      :      3.04572

                             ****ORCA TERMINATED NORMALLY****
TOTAL RUN TIME: 0 days 0 hours 14 minutes 58 seconds 992 msec
