                         Program Version 3.0.3 - RELEASE   -
|  1> ! RI-MP2 RIJK def2-TZVP def2-TZVP/C def2-TZVP/JK TIGHTSCF
|  2> % maxcore 2000
|  3> % mp2 density relaxed end
|  4> *xyz 0 1
|  5>  O       -0.0385869700     0.0147555490    -0.0120020542
|  6>  C        0.0695551688     1.2160160845    -0.1031281031
|  7>  C        1.3317511685     1.9567474532     0.0276980112
|  8>  C        1.2817601537     3.4572104306     0.2888468693
|  9>  C        1.7505578719     2.9947275175    -1.0471138442
| 10>  C        3.2100774471     2.5480897318    -1.2604078399
| 11>  C        3.7511195916     2.2834083426     0.1708977843
| 12>  C        2.6561312635     1.1828969771     0.1723544803
| 13>  C        3.0297527774     0.9911643089    -1.3393795363
| 14>  H       -0.8209079928     1.8591904792    -0.3021885143
| 15>  H        0.2818440140     3.8816301488     0.3167587880
| 16>  H        1.9571400572     3.8975852653     1.0108766777
| 17>  H        1.1279810806     3.1676734012    -1.9183826049
| 18>  H        3.7855972985     3.1047158886    -2.0004632448
| 19>  H        4.7502866402     1.8450602395     0.1401996602
| 20>  H        3.7352620154     3.0768687355     0.9193246237
| 21>  H        2.6571808032     0.3551059013     0.8784110080
| 22>  H        2.2567028481     0.5980739947    -2.0036186756
| 23>  H        3.9714763930     0.4563404307    -1.4870728655
| 24> *
| 25>
| 26>                          ****END OF INPUT****

CARTESIAN COORDINATES (ANGSTROEM)
---------------------------------
  O     -0.038587    0.014756   -0.012002
  C      0.069555    1.216016   -0.103128
  C      1.331751    1.956747    0.027698
  C      1.281760    3.457210    0.288847
  C      1.750558    2.994728   -1.047114
  C      3.210077    2.548090   -1.260408
  C      3.751120    2.283408    0.170898
  C      2.656131    1.182897    0.172354
  C      3.029753    0.991164   -1.339380
  H     -0.820908    1.859190   -0.302189
  H      0.281844    3.881630    0.316759
  H      1.957140    3.897585    1.010877
  H      1.127981    3.167673   -1.918383
  H      3.785597    3.104716   -2.000463
  H      4.750287    1.845060    0.140200
  H      3.735262    3.076869    0.919325
  H      2.657181    0.355106    0.878411
  H      2.256703    0.598074   -2.003619
  H      3.971476    0.456340   -1.487073

 Total Charge           Charge          ....    0
 Multiplicity           Mult            ....    1
 Number of Electrons    NEL             ....   66
 Basis Dimension        Dim             ....  339

ORBITAL ENERGIES
----------------

  NO   OCC          E(Eh)            E(eV)
   0   2.0000     -20.542915      -559.0011
   1   2.0000     -11.325787      -308.1903
   2   2.0000     -11.254211      -306.2426
   3   2.0000     -11.251676      -306.1737
   4   2.0000     -11.248578      -306.0894
   5   2.0000     -11.247445      -306.0585
   6   2.0000     -11.243980      -305.9643
   7   2.0000     -11.231618      -305.6279
   8   2.0000     -11.230105      -305.5867
   9   2.0000      -1.382699       -37.6252
  10   2.0000      -1.225488       -33.3472
  11   2.0000      -1.096719       -29.8432
  12   2.0000      -0.955177       -25.9917
  13   2.0000      -0.913898       -24.8684
  14   2.0000      -0.870142       -23.6778
  15   2.0000      -0.840871       -22.8813
  16   2.0000      -0.755715       -20.5640
  17   2.0000      -0.724639       -19.7184
  18   2.0000      -0.703429       -19.1413
  19   2.0000      -0.670425       -18.2432
  20   2.0000      -0.645590       -17.5674
  21   2.0000      -0.629131       -17.1195
  22   2.0000      -0.574504       -15.6330
  23   2.0000      -0.546876       -14.8812
  24   2.0000      -0.543967       -14.8021
  25   2.0000      -0.527188       -14.3455
  26   2.0000      -0.496030       -13.4977
  27   2.0000      -0.486197       -13.2301
  28   2.0000      -0.466151       -12.6846
  29   2.0000      -0.452171       -12.3042
  30   2.0000      -0.434176       -11.8145
  31   2.0000      -0.407638       -11.0924
  32   2.0000      -0.381008       -10.3677
  33   0.0000       0.131998         3.5918
  34   0.0000       0.142193         3.8693
  35   0.0000       0.156014         4.2453
  36   0.0000       0.160807         4.3758
  37   0.0000       0.170263         4.6331

MULLIKEN ATOMIC CHARGES
-----------------------
   0 O :   -0.285404
   1 C :    0.016439
   2 C :    0.043463
   3 C :   -0.245211
   4 C :   -0.198197
   5 C :    0.005731
   6 C :   -0.293140
   7 C :    0.013363
   8 C :   -0.301166
   9 H :    0.065174
  10 H :    0.139852
  11 H :    0.136356
  12 H :    0.135441
  13 H :    0.133226
  14 H :    0.127674
  15 H :    0.113813
  16 H :    0.142716
  17 H :    0.129869
  18 H :    0.120001
Sum of atomic charges:   -0.0000000

LOEWDIN ATOMIC CHARGES
----------------------
   0 O :    0.121154
   1 C :   -0.281338
   2 C :   -0.186437
   3 C :   -0.170107
   4 C :   -0.135508
   5 C :   -0.181414
   6 C :   -0.193600
   7 C :   -0.152928
   8 C :   -0.175762
   9 H :    0.116096
  10 H :    0.143752
  11 H :    0.137215
  12 H :    0.148575
  13 H :    0.135628
  14 H :    0.142343
  15 H :    0.123858
  16 H :    0.142666
  17 H :    0.131971
  18 H :    0.133838

  Mayer bond orders larger than 0.1
B(  0-O ,  1-C ) :   2.0036 B(  0-O ,  2-C ) :  -0.1141 B(  1-C ,  2-C ) :   0.9050
B(  1-C ,  9-H ) :   0.9666 B(  2-C ,  3-C ) :   0.8619 B(  2-C ,  4-C ) :   0.8134
B(  2-C ,  7-C ) :   0.8583 B(  3-C ,  4-C ) :   0.9241 B(  3-C , 10-H ) :   0.9223
B(  3-C , 11-H ) :   0.9050 B(  4-C ,  5-C ) :   0.8624 B(  4-C , 12-H ) :   0.9259
B(  5-C ,  6-C ) :   0.9254 B(  5-C ,  8-C ) :   0.9013 B(  5-C , 13-H ) :   0.9088
B(  6-C ,  7-C ) :   0.9124 B(  6-C , 14-H ) :   0.9305 B(  6-C , 15-H ) :   0.9241
B(  7-C ,  8-C ) :   0.8833 B(  7-C , 16-H ) :   0.9119 B(  8-C , 17-H ) :   0.9244
B(  8-C , 18-H ) :   0.9242

MP2 TOTAL ENERGY:     -385.192535657 Eh
FINAL SINGLE POINT ENERGY      -385.192535656970

DIPOLE MOMENT
-------------
                                X             Y             Z
Electronic contribution:     -4.09929      -2.69191       0.78635
Nuclear contribution   :      4.66668       3.76115      -0.95711
                        -----------------------------------------
Total Dipole Moment    :      0.56740       1.06924      -0.17076
                        -----------------------------------------
Magnitude (a.u.)       :      1.22245
Magnitude (Debye)      :      3.10721

                             ****ORCA TERMINATED NORMALLY****
TOTAL RUN TIME: 0 days 0 hours 20 minutes 41 seconds 405 msec
