                         Program Version 3.0.3 - RELEASE   -
|  1> ! RI-MP2 RIJK def2-TZVP def2-TZVP/C def2-TZVP/JK TIGHTSCF
|  2> % maxcore 2000
|  3> % mp2 density relaxed end
|  4> *xyz 0 1
|  5>  C       -0.2920346204     1.4767774194    -0.1164074332
|  6>  C        0.0281608477    -0.0165225130     0.0406486039
|  7>  C        0.8782672062    -0.2919475373     1.2799276530
|  8>  O       -1.1674796266    -0.7647663528     0.1919065886
|  9>  C        0.7496095387    -0.5265437365    -1.2287898740
| 10>  C        0.5506671136    -1.9072676114    -1.7070584690
| 11>  O       -0.1221577933    -0.8058244948    -2.3314624214
| 12>  C        1.9847165875     0.1498432429    -1.5841712267
| 13>  N        2.9733421093     0.6984451651    -1.8245989520
| 14>  H        0.6171616804     2.0792072615    -0.1968338808
| 15>  H       -0.8925500296     1.6482874322    -1.0161805111
| 16>  H       -0.8630528000     1.8165979847     0.7510398995
| 17>  H        0.3524225967     0.0644404365     2.1693558931
| 18>  H        1.0534536567    -1.3652742083     1.3920695307
| 19>  H        1.8423870306     0.2192366493     1.2169463384
| 20>  H       -1.6753341838    -0.6495677445    -0.6218302570
| 21>  H        1.3215509644    -2.3782767912    -2.3117123734
| 22>  H       -0.0843501580    -2.5583381217    -1.1138948787
| 23> *
| 24>
| 25>                          ****END OF INPUT****

CARTESIAN COORDINATES (ANGSTROEM)
---------------------------------
  C     -0.292035    1.476777   -0.116407
  C      0.028161   -0.016523    0.040649
  C      0.878267   -0.291948    1.279928
  O     -1.167480   -0.764766    0.191907
  C      0.749610   -0.526544   -1.228790
  C      0.550667   -1.907268   -1.707058
  O     -0.122158   -0.805824   -2.331462
  C      1.984717    0.149843   -1.584171
  N      2.973342    0.698445   -1.824599
  H      0.617162    2.079207   -0.196834
  H     -0.892550    1.648287   -1.016181
  H     -0.863053    1.816598    0.751040
  H      0.352423    0.064440    2.169356
  H      1.053454   -1.365274    1.392070
  H      1.842387    0.219237    1.216946
  H     -1.675334   -0.649568   -0.621830
  H      1.321551   -2.378277   -2.311712
  H     -0.084350   -2.558338   -1.113895

 Total Charge           Charge          ....    0
 Multiplicity           Mult            ....    1
 Number of Electrons    NEL             ....   68
 Basis Dimension        Dim             ....  333

ORBITAL ENERGIES
----------------

  NO   OCC          E(Eh)            E(eV)
   0   2.0000     -20.612169      -560.8856
   1   2.0000     -20.575318      -559.8829
   2   2.0000     -15.590214      -424.2313
   3   2.0000     -11.350331      -308.8582
   4   2.0000     -11.322656      -308.1051
   5   2.0000     -11.320267      -308.0401
   6   2.0000     -11.288836      -307.1848
   7   2.0000     -11.233756      -305.6860
   8   2.0000     -11.233031      -305.6663
   9   2.0000      -1.459287       -39.7092
  10   2.0000      -1.385243       -37.6944
  11   2.0000      -1.234136       -33.5826
  12   2.0000      -1.089818       -29.6555
  13   2.0000      -0.988086       -26.8872
  14   2.0000      -0.962236       -26.1838
  15   2.0000      -0.922170       -25.0935
  16   2.0000      -0.831565       -22.6280
  17   2.0000      -0.758185       -20.6313
  18   2.0000      -0.729720       -19.8567
  19   2.0000      -0.668205       -18.1828
  20   2.0000      -0.638589       -17.3769
  21   2.0000      -0.629419       -17.1274
  22   2.0000      -0.604327       -16.4446
  23   2.0000      -0.579618       -15.7722
  24   2.0000      -0.571035       -15.5387
  25   2.0000      -0.557406       -15.1678
  26   2.0000      -0.552305       -15.0290
  27   2.0000      -0.538187       -14.6448
  28   2.0000      -0.523034       -14.2325
  29   2.0000      -0.520968       -14.1762
  30   2.0000      -0.488223       -13.2852
  31   2.0000      -0.486474       -13.2376
  32   2.0000      -0.465646       -12.6709
  33   2.0000      -0.439229       -11.9520
  34   0.0000       0.128995         3.5101
  35   0.0000       0.139848         3.8055
  36   0.0000       0.151107         4.1118
  37   0.0000       0.162796         4.4299
  38   0.0000       0.175628         4.7791

MULLIKEN ATOMIC CHARGES
-----------------------
   0 C :   -0.425334
   1 C :    0.222356
   2 C :   -0.408364
   3 O :   -0.459302
   4 C :    0.242760
   5 C :   -0.070511
   6 O :   -0.325839
   7 C :   -0.247399
   8 N :   -0.034273
   9 H :    0.151604
  10 H :    0.141455
  11 H :    0.149798
  12 H :    0.145754
  13 H :    0.138615
  14 H :    0.151967
  15 H :    0.330621
  16 H :    0.143786
  17 H :    0.152306
Sum of atomic charges:   -0.0000000

LOEWDIN ATOMIC CHARGES
----------------------
   0 C :   -0.263284
   1 C :   -0.395276
   2 C :   -0.252423
   3 O :    0.030361
   4 C :   -0.293607
   5 C :   -0.205711
   6 O :    0.185372
   7 C :   -0.141387
   8 N :    0.085928
   9 H :    0.135665
  10 H :    0.131403
  11 H :    0.132744
  12 H :    0.134647
  13 H :    0.132075
  14 H :    0.135982
  15 H :    0.183076
  16 H :    0.131356
  17 H :    0.133079

  Mayer bond orders larger than 0.1
B(  0-C ,  1-C ) :   0.9540 B(  0-C ,  9-H ) :   0.9220 B(  0-C , 10-H ) :   0.9200
B(  0-C , 11-H ) :   0.9371 B(  1-C ,  2-C ) :   0.8998 B(  1-C ,  3-O ) :   0.9020
B(  1-C ,  4-C ) :   0.8840 B(  2-C , 12-H ) :   0.9312 B(  2-C , 13-H ) :   0.9337
B(  2-C , 14-H ) :   0.9289 B(  3-O , 15-H ) :   0.8222 B(  4-C ,  5-C ) :   0.9390
B(  4-C ,  6-O ) :   0.8942 B(  4-C ,  7-C ) :   0.8808 B(  5-C ,  6-O ) :   0.8596
B(  5-C , 16-H ) :   0.9135 B(  5-C , 17-H ) :   0.9047 B(  7-C ,  8-N ) :   2.8555

MP2 TOTAL ENERGY:     -438.366915976 Eh
FINAL SINGLE POINT ENERGY      -438.366915976264

DIPOLE MOMENT
-------------
                                X             Y             Z
Electronic contribution:      2.41720      -1.47595      -6.38504
Nuclear contribution   :     -3.07140       0.91883       6.83547
                        -----------------------------------------
Total Dipole Moment    :     -0.65420      -0.55713       0.45044
                        -----------------------------------------
Magnitude (a.u.)       :      0.97018
Magnitude (Debye)      :      2.46601

                             ****ORCA TERMINATED NORMALLY****
TOTAL RUN TIME: 0 days 0 hours 20 minutes 7 seconds 845 msec
