                         Program Version 3.0.3 - RELEASE   -
|  1> ! RI-MP2 RIJK def2-TZVP def2-TZVP/C def2-TZVP/JK TIGHTSCF
|  2> % maxcore 2000
|  3> % mp2 density relaxed end
|  4> *xyz 0 1
|  5>  N       -0.0606765662    -1.1720796835    -0.0045758128
|  6>  C       -0.0159372962    -0.0191676323     0.0016756035
|  7>  C        0.0091024600     1.4463093666     0.0101527300
|  8>  N        1.3631206577     1.9805431222    -0.0000843696
|  9>  N        2.0673313990     2.2375844466     1.0945595304
| 10>  N        3.2035527801     2.6802801310     0.6626930186
| 11>  N        3.1892962457     2.6903544009    -0.6909943059
| 12>  N        2.0441968225     2.2538920555    -1.1053826209
| 13>  H       -0.5039684195     1.8341774706    -0.8727379010
| 14>  H       -0.4865437831     1.8235835425     0.9074772077
| 15> *
| 16>
| 17>                          ****END OF INPUT****

CARTESIAN COORDINATES (ANGSTROEM)
---------------------------------
  N     -0.060677   -1.172080   -0.004576
  C     -0.015937   -0.019168    0.001676
  C      0.009102    1.446309    0.010153
  N      1.363121    1.980543   -0.000084
  N      2.067331    2.237584    1.094560
  N      3.203553    2.680280    0.662693
  N      3.189296    2.690354   -0.690994
  N      2.044197    2.253892   -1.105383
  H     -0.503968    1.834177   -0.872738
  H     -0.486544    1.823584    0.907477

 Total Charge           Charge          ....    0
 Multiplicity           Mult            ....    1
 Number of Electrons    NEL             ....   56
 Basis Dimension        Dim             ....  260

ORBITAL ENERGIES
----------------

  NO   OCC          E(Eh)            E(eV)
   0   2.0000     -15.752343      -428.6430
   1   2.0000     -15.709846      -427.4866
   2   2.0000     -15.709780      -427.4849
   3   2.0000     -15.681000      -426.7017
   4   2.0000     -15.680215      -426.6803
   5   2.0000     -15.615785      -424.9271
   6   2.0000     -11.386668      -309.8470
   7   2.0000     -11.314281      -307.8772
   8   2.0000      -1.586310       -43.1657
   9   2.0000      -1.329282       -36.1716
  10   2.0000      -1.322794       -35.9950
  11   2.0000      -1.258221       -34.2379
  12   2.0000      -1.110200       -30.2101
  13   2.0000      -0.965720       -26.2786
  14   2.0000      -0.934626       -25.4325
  15   2.0000      -0.812950       -22.1215
  16   2.0000      -0.778564       -21.1858
  17   2.0000      -0.706134       -19.2149
  18   2.0000      -0.694073       -18.8867
  19   2.0000      -0.657087       -17.8802
  20   2.0000      -0.597394       -16.2559
  21   2.0000      -0.556500       -15.1431
  22   2.0000      -0.528265       -14.3748
  23   2.0000      -0.523870       -14.2552
  24   2.0000      -0.508225       -13.8295
  25   2.0000      -0.503127       -13.6908
  26   2.0000      -0.486609       -13.2413
  27   2.0000      -0.482466       -13.1286
  28   0.0000       0.075546         2.0557
  29   0.0000       0.109669         2.9842
  30   0.0000       0.119038         3.2392
  31   0.0000       0.131786         3.5861
  32   0.0000       0.154807         4.2125

MULLIKEN ATOMIC CHARGES
-----------------------
   0 N :   -0.031058
   1 C :   -0.178510
   2 C :   -0.017674
   3 N :    0.201995
   4 N :   -0.116170
   5 N :   -0.075790
   6 N :   -0.075810
   7 N :   -0.116198
   8 H :    0.204627
   9 H :    0.204590
Sum of atomic charges:   -0.0000000

LOEWDIN ATOMIC CHARGES
----------------------
   0 N :    0.103315
   1 C :   -0.178243
   2 C :   -0.215543
   3 N :    0.100040
   4 N :   -0.026596
   5 N :   -0.055086
   6 N :   -0.055100
   7 N :   -0.026627
   8 H :    0.176928
   9 H :    0.176914

  Mayer bond orders larger than 0.1
B(  0-N ,  1-C ) :   2.8146 B(  1-C ,  2-C ) :   0.9159 B(  2-C ,  3-N ) :   0.8459
B(  2-C ,  8-H ) :   0.9011 B(  2-C ,  9-H ) :   0.9012 B(  3-N ,  4-N ) :   1.0844
B(  3-N ,  7-N ) :   1.0844 B(  4-N ,  5-N ) :   1.2884 B(  5-N ,  6-N ) :   1.1480
B(  6-N ,  7-N ) :   1.2884

MP2 TOTAL ENERGY:     -405.106586221 Eh
FINAL SINGLE POINT ENERGY      -405.106586221356

DIPOLE MOMENT
-------------
                                X             Y             Z
Electronic contribution:      2.13734       0.10658      -0.02049
Nuclear contribution   :     -3.71408       0.53660       0.03992
                        -----------------------------------------
Total Dipole Moment    :     -1.57674       0.64318       0.01942
                        -----------------------------------------
Magnitude (a.u.)       :      1.70299
Magnitude (Debye)      :      4.32866

                             ****ORCA TERMINATED NORMALLY****
TOTAL RUN TIME: 0 days 0 hours 7 minutes 19 seconds 25 msec
