                         Program Version 3.0.3 - RELEASE   -
|  1> ! RI-MP2 RIJK def2-TZVP def2-TZVP/C def2-TZVP/JK TIGHTSCF
|  2> % maxcore 2000
|  3> % mp2 density relaxed end
|  4> *xyz 0 1
|  5>  O        0.1772537657     1.3173623733     0.4752841503
|  6>  C        0.1731270600    -0.0517696403     0.3138178354
|  7>  C       -0.7432774571    -0.8985089371     1.1152451058
|  8>  C        0.7501908065    -1.1889592252     1.1555942266
|  9>  C        1.3219326751    -1.8467080153    -0.1347791013
| 10>  C        0.3258602698    -2.1775356917    -1.2096384948
| 11>  C       -1.0125870397    -2.8600161091    -1.0868201702
| 12>  O       -1.8674935770    -2.7944414260    -1.9333960227
| 13>  C        0.7199085018    -0.7284520090    -0.9753390086
| 14>  H        1.0748532278     1.6397290554     0.3334826500
| 15>  H       -1.0849083304    -0.3983201541     2.0173525190
| 16>  H       -1.4886538405    -1.5572622359     0.6827926907
| 17>  H        1.2975606543    -1.1642172814     2.0885046788
| 18>  H        2.3382749976    -2.2194678164    -0.1685604124
| 19>  H        0.8119889871    -2.5331032007    -2.1197648431
| 20>  H       -1.1414791706    -3.5007007880    -0.1866163572
| 21>  H        1.1874738497    -0.1508306285    -1.7640499463
| 22> *
| 23>
| 24>                          ****END OF INPUT****

CARTESIAN COORDINATES (ANGSTROEM)
---------------------------------
  O      0.177254    1.317362    0.475284
  C      0.173127   -0.051770    0.313818
  C     -0.743277   -0.898509    1.115245
  C      0.750191   -1.188959    1.155594
  C      1.321933   -1.846708   -0.134779
  C      0.325860   -2.177536   -1.209638
  C     -1.012587   -2.860016   -1.086820
  O     -1.867494   -2.794441   -1.933396
  C      0.719909   -0.728452   -0.975339
  H      1.074853    1.639729    0.333483
  H     -1.084908   -0.398320    2.017353
  H     -1.488654   -1.557262    0.682793
  H      1.297561   -1.164217    2.088505
  H      2.338275   -2.219468   -0.168560
  H      0.811989   -2.533103   -2.119765
  H     -1.141479   -3.500701   -0.186616
  H      1.187474   -0.150831   -1.764050

 Total Charge           Charge          ....    0
 Multiplicity           Mult            ....    1
 Number of Electrons    NEL             ....   66
 Basis Dimension        Dim             ....  327

ORBITAL ENERGIES
----------------

  NO   OCC          E(Eh)            E(eV)
   0   2.0000     -20.580768      -560.0312
   1   2.0000     -20.556412      -559.3684
   2   2.0000     -11.336139      -308.4720
   3   2.0000     -11.306147      -307.6559
   4   2.0000     -11.262103      -306.4574
   5   2.0000     -11.257591      -306.3346
   6   2.0000     -11.256638      -306.3087
   7   2.0000     -11.248316      -306.0822
   8   2.0000     -11.241950      -305.9090
   9   2.0000      -1.395954       -37.9858
  10   2.0000      -1.392669       -37.8965
  11   2.0000      -1.227105       -33.3912
  12   2.0000      -1.094025       -29.7699
  13   2.0000      -0.939175       -25.5563
  14   2.0000      -0.883090       -24.0301
  15   2.0000      -0.828233       -22.5374
  16   2.0000      -0.775371       -21.0989
  17   2.0000      -0.765932       -20.8421
  18   2.0000      -0.725612       -19.7449
  19   2.0000      -0.676388       -18.4055
  20   2.0000      -0.663848       -18.0642
  21   2.0000      -0.648470       -17.6458
  22   2.0000      -0.616555       -16.7773
  23   2.0000      -0.594080       -16.1657
  24   2.0000      -0.563304       -15.3283
  25   2.0000      -0.553792       -15.0695
  26   2.0000      -0.526732       -14.3331
  27   2.0000      -0.503914       -13.7122
  28   2.0000      -0.475705       -12.9446
  29   2.0000      -0.446802       -12.1581
  30   2.0000      -0.426091       -11.5945
  31   2.0000      -0.414841       -11.2884
  32   2.0000      -0.338163        -9.2019
  33   0.0000       0.118666         3.2291
  34   0.0000       0.139999         3.8096
  35   0.0000       0.148496         4.0408
  36   0.0000       0.157056         4.2737
  37   0.0000       0.172624         4.6973

MULLIKEN ATOMIC CHARGES
-----------------------
   0 O :   -0.442198
   1 C :    0.151995
   2 C :   -0.229950
   3 C :   -0.205944
   4 C :   -0.098016
   5 C :   -0.111255
   6 C :    0.060979
   7 O :   -0.254844
   8 C :   -0.163453
   9 H :    0.325957
  10 H :    0.131829
  11 H :    0.147317
  12 H :    0.150674
  13 H :    0.140400
  14 H :    0.138553
  15 H :    0.107846
  16 H :    0.150109
Sum of atomic charges:    0.0000000

LOEWDIN ATOMIC CHARGES
----------------------
   0 O :    0.044516
   1 C :   -0.318672
   2 C :   -0.172085
   3 C :   -0.148363
   4 C :   -0.141830
   5 C :   -0.183664
   6 C :   -0.294463
   7 O :    0.138398
   8 C :   -0.116518
   9 H :    0.186925
  10 H :    0.152463
  11 H :    0.136054
  12 H :    0.140383
  13 H :    0.140321
  14 H :    0.177729
  15 H :    0.115632
  16 H :    0.143174

  Mayer bond orders larger than 0.1
B(  0-O ,  1-C ) :   1.0425 B(  0-O ,  9-H ) :   0.8358 B(  1-C ,  2-C ) :   0.9183
B(  1-C ,  3-C ) :   0.8752 B(  1-C ,  8-C ) :   0.8823 B(  2-C ,  3-C ) :   0.8949
B(  2-C , 10-H ) :   0.9232 B(  2-C , 11-H ) :   0.9024 B(  3-C ,  4-C ) :   0.8662
B(  3-C , 12-H ) :   0.9145 B(  4-C ,  5-C ) :   0.8603 B(  4-C ,  8-C ) :   0.8618
B(  4-C , 13-H ) :   0.9213 B(  5-C ,  6-C ) :   0.8598 B(  5-C ,  8-C ) :   0.8545
B(  5-C , 14-H ) :   0.9102 B(  6-C ,  7-O ) :   2.0017 B(  6-C , 15-H ) :   0.9484
B(  8-C , 16-H ) :   0.9215

MP2 TOTAL ENERGY:     -421.031322600 Eh
FINAL SINGLE POINT ENERGY      -421.031322600279

DIPOLE MOMENT
-------------
                                X             Y             Z
Electronic contribution:     -1.67493       0.17584      -2.21655
Nuclear contribution   :      3.12390      -0.14619       2.76814
                        -----------------------------------------
Total Dipole Moment    :      1.44898       0.02965       0.55159
                        -----------------------------------------
Magnitude (a.u.)       :      1.55070
Magnitude (Debye)      :      3.94156

                             ****ORCA TERMINATED NORMALLY****
TOTAL RUN TIME: 0 days 0 hours 16 minutes 21 seconds 550 msec
