                         Program Version 3.0.3 - RELEASE   -
|  1> ! RI-MP2 RIJK def2-TZVP def2-TZVP/C def2-TZVP/JK TIGHTSCF
|  2> % maxcore 2000
|  3> % mp2 density relaxed end
|  4> *xyz 0 1
|  5>  O       -0.2540169989     0.6364792625     0.9911659441
|  6>  C        0.0104698862     1.2215589505    -0.0222149717
|  7>  C        1.4239371033     1.6902742934    -0.3684850665
|  8>  N        1.4242292370     2.8452301119    -1.2371050216
|  9>  C        1.1730045112     4.1447834326    -0.9401392722
| 10>  C        1.2414166156     4.7852782126    -2.1528503109
| 11>  N        1.5196904288     3.8646169749    -3.1169181677
| 12>  N        1.6267907232     2.6917343408    -2.5658418493
| 13>  H       -0.7496780996     1.4527018570    -0.8000173188
| 14>  H        1.9806901044     1.8870146420     0.5507822757
| 15>  H        1.9263404797     0.8852002215    -0.9153937379
| 16>  H        0.9858334020     4.4847996153     0.0646733929
| 17>  H        1.1148982668     5.8302017449    -2.3843412662
| 18> *
| 19>
| 20>                          ****END OF INPUT****

CARTESIAN COORDINATES (ANGSTROEM)
---------------------------------
  O     -0.254017    0.636479    0.991166
  C      0.010470    1.221559   -0.022215
  C      1.423937    1.690274   -0.368485
  N      1.424229    2.845230   -1.237105
  C      1.173005    4.144783   -0.940139
  C      1.241417    4.785278   -2.152850
  N      1.519690    3.864617   -3.116918
  N      1.626791    2.691734   -2.565842
  H     -0.749678    1.452702   -0.800017
  H      1.980690    1.887015    0.550782
  H      1.926340    0.885200   -0.915394
  H      0.985833    4.484800    0.064673
  H      1.114898    5.830202   -2.384341

 Total Charge           Charge          ....    0
 Multiplicity           Mult            ....    1
 Number of Electrons    NEL             ....   58
 Basis Dimension        Dim             ....  278

ORBITAL ENERGIES
----------------

  NO   OCC          E(Eh)            E(eV)
   0   2.0000     -20.585440      -560.1583
   1   2.0000     -15.676383      -426.5761
   2   2.0000     -15.651523      -425.8996
   3   2.0000     -15.608298      -424.7234
   4   2.0000     -11.359640      -309.1115
   5   2.0000     -11.314607      -307.8861
   6   2.0000     -11.298218      -307.4401
   7   2.0000     -11.267863      -306.6141
   8   2.0000      -1.452691       -39.5297
   9   2.0000      -1.425595       -38.7924
  10   2.0000      -1.239977       -33.7415
  11   2.0000      -1.097790       -29.8724
  12   2.0000      -1.039468       -28.2854
  13   2.0000      -0.863979       -23.5101
  14   2.0000      -0.854786       -23.2599
  15   2.0000      -0.817867       -22.2553
  16   2.0000      -0.755108       -20.5475
  17   2.0000      -0.689778       -18.7698
  18   2.0000      -0.682818       -18.5804
  19   2.0000      -0.654482       -17.8094
  20   2.0000      -0.631690       -17.1892
  21   2.0000      -0.615311       -16.7435
  22   2.0000      -0.610419       -16.6104
  23   2.0000      -0.537245       -14.6192
  24   2.0000      -0.524809       -14.2808
  25   2.0000      -0.465361       -12.6631
  26   2.0000      -0.451625       -12.2893
  27   2.0000      -0.415019       -11.2932
  28   2.0000      -0.372732       -10.1426
  29   0.0000       0.101182         2.7533
  30   0.0000       0.114860         3.1255
  31   0.0000       0.136474         3.7136
  32   0.0000       0.168266         4.5788
  33   0.0000       0.169508         4.6126

MULLIKEN ATOMIC CHARGES
-----------------------
   0 O :   -0.240009
   1 C :    0.071358
   2 C :   -0.128282
   3 N :    0.114669
   4 C :   -0.139160
   5 C :   -0.114424
   6 N :   -0.167672
   7 N :   -0.169717
   8 H :    0.111205
   9 H :    0.161185
  10 H :    0.180606
  11 H :    0.171121
  12 H :    0.149121
Sum of atomic charges:    0.0000000

LOEWDIN ATOMIC CHARGES
----------------------
   0 O :    0.153782
   1 C :   -0.287459
   2 C :   -0.242683
   3 N :    0.179453
   4 C :   -0.233792
   5 C :   -0.270104
   6 N :    0.007640
   7 N :   -0.028762
   8 H :    0.119234
   9 H :    0.152643
  10 H :    0.166207
  11 H :    0.145172
  12 H :    0.138669

  Mayer bond orders larger than 0.1
B(  0-O ,  1-C ) :   2.0066 B(  1-C ,  2-C ) :   0.8520 B(  1-C ,  8-H ) :   0.9346
B(  2-C ,  3-N ) :   0.8361 B(  2-C ,  9-H ) :   0.9066 B(  2-C , 10-H ) :   0.8949
B(  3-N ,  4-C ) :   1.1687 B(  3-N ,  7-N ) :   1.0054 B(  4-C ,  5-C ) :   1.4486
B(  4-C ,  7-N ) :   0.1062 B(  4-C , 11-H ) :   0.9121 B(  5-C ,  6-N ) :   1.3642
B(  5-C , 12-H ) :   0.9347 B(  6-N ,  7-N ) :   1.2682

MP2 TOTAL ENERGY:     -394.126261624 Eh
FINAL SINGLE POINT ENERGY      -394.126261624390

DIPOLE MOMENT
-------------
                                X             Y             Z
Electronic contribution:     -0.17411      -0.51189      -1.07194
Nuclear contribution   :      0.21598       1.00415       2.08098
                        -----------------------------------------
Total Dipole Moment    :      0.04187       0.49226       1.00904
                        -----------------------------------------
Magnitude (a.u.)       :      1.12349
Magnitude (Debye)      :      2.85570

                             ****ORCA TERMINATED NORMALLY****
TOTAL RUN TIME: 0 days 0 hours 9 minutes 11 seconds 175 msec
