                         Program Version 3.0.3 - RELEASE   -
|  1> ! RI-MP2 RIJK def2-TZVP def2-TZVP/C def2-TZVP/JK TIGHTSCF
|  2> % maxcore 2000
|  3> % mp2 density relaxed end
|  4> *xyz 0 1
|  5>  C       -0.0928317285     1.4540030508    -0.1459662894
|  6>  C        1.2920760453     0.9469181408     0.1236261072
|  7>  C        0.1303108421    -0.0325420151     0.0783475208
|  8>  C       -0.3585862701    -0.7186620263     1.2869218898
|  9>  C       -0.7637095355    -1.9972939209     1.3513574618
| 10>  C       -1.0965695597    -2.3811777319     2.7502682650
| 11>  O        0.0289734787    -2.2713137787     3.6625323304
| 12>  C       -0.8891237718    -1.1822848283     3.5777793420
| 13>  C       -0.4442843885    -0.0522052914     2.6571517660
| 14>  H       -0.5898256912     2.0153978137     0.6371115671
| 15>  H       -0.3450600843     1.7746823398    -1.1504293520
| 16>  H        2.0028744226     0.9107461945    -0.6942246880
| 17>  H        1.7366901742     1.1621403271     1.0884197331
| 18>  H        0.0862555119    -0.6471976417    -0.8157381616
| 19>  H       -0.8014223637    -2.6843945535     0.5147075636
| 20>  H       -1.8004779246    -3.1718982998     2.9905769070
| 21>  H       -1.4497171161    -0.9680853069     4.4839613421
| 22>  H        0.5143141909     0.3705078710     2.9798545991
| 23>  H       -1.1748325715     0.7669926069     2.6633097261
| 24> *
| 25>
| 26>                          ****END OF INPUT****

CARTESIAN COORDINATES (ANGSTROEM)
---------------------------------
  C     -0.092832    1.454003   -0.145966
  C      1.292076    0.946918    0.123626
  C      0.130311   -0.032542    0.078348
  C     -0.358586   -0.718662    1.286922
  C     -0.763710   -1.997294    1.351357
  C     -1.096570   -2.381178    2.750268
  O      0.028973   -2.271314    3.662532
  C     -0.889124   -1.182285    3.577779
  C     -0.444284   -0.052205    2.657152
  H     -0.589826    2.015398    0.637112
  H     -0.345060    1.774682   -1.150429
  H      2.002874    0.910746   -0.694225
  H      1.736690    1.162140    1.088420
  H      0.086256   -0.647198   -0.815738
  H     -0.801422   -2.684395    0.514708
  H     -1.800478   -3.171898    2.990577
  H     -1.449717   -0.968085    4.483961
  H      0.514314    0.370508    2.979855
  H     -1.174833    0.766993    2.663310

 Total Charge           Charge          ....    0
 Multiplicity           Mult            ....    1
 Number of Electrons    NEL             ....   66
 Basis Dimension        Dim             ....  339

ORBITAL ENERGIES
----------------

  NO   OCC          E(Eh)            E(eV)
   0   2.0000     -20.556637      -559.3745
   1   2.0000     -11.280525      -306.9587
   2   2.0000     -11.279696      -306.9361
   3   2.0000     -11.245559      -306.0072
   4   2.0000     -11.242065      -305.9121
   5   2.0000     -11.236850      -305.7702
   6   2.0000     -11.234462      -305.7053
   7   2.0000     -11.233759      -305.6861
   8   2.0000     -11.218637      -305.2746
   9   2.0000      -1.400431       -38.1077
  10   2.0000      -1.159749       -31.5584
  11   2.0000      -1.096386       -29.8342
  12   2.0000      -0.975211       -26.5368
  13   2.0000      -0.925300       -25.1787
  14   2.0000      -0.833171       -22.6717
  15   2.0000      -0.829571       -22.5738
  16   2.0000      -0.789564       -21.4851
  17   2.0000      -0.730949       -19.8901
  18   2.0000      -0.710898       -19.3445
  19   2.0000      -0.662364       -18.0238
  20   2.0000      -0.633585       -17.2407
  21   2.0000      -0.598837       -16.2952
  22   2.0000      -0.594541       -16.1783
  23   2.0000      -0.554628       -15.0922
  24   2.0000      -0.539561       -14.6822
  25   2.0000      -0.527696       -14.3593
  26   2.0000      -0.520783       -14.1712
  27   2.0000      -0.498342       -13.5606
  28   2.0000      -0.455943       -12.4068
  29   2.0000      -0.445341       -12.1184
  30   2.0000      -0.432047       -11.7566
  31   2.0000      -0.417752       -11.3676
  32   2.0000      -0.326084        -8.8732
  33   0.0000       0.138537         3.7698
  34   0.0000       0.145175         3.9504
  35   0.0000       0.155749         4.2381
  36   0.0000       0.168760         4.5922
  37   0.0000       0.173239         4.7141

MULLIKEN ATOMIC CHARGES
-----------------------
   0 C :   -0.266856
   1 C :   -0.265368
   2 C :   -0.042435
   3 C :    0.013994
   4 C :   -0.306791
   5 C :    0.108101
   6 O :   -0.326378
   7 C :   -0.049756
   8 C :   -0.142385
   9 H :    0.133270
  10 H :    0.134114
  11 H :    0.134116
  12 H :    0.136096
  13 H :    0.122149
  14 H :    0.130644
  15 H :    0.123093
  16 H :    0.122986
  17 H :    0.125652
  18 H :    0.115755
Sum of atomic charges:   -0.0000000

LOEWDIN ATOMIC CHARGES
----------------------
   0 C :   -0.218270
   1 C :   -0.215738
   2 C :   -0.186687
   3 C :   -0.126164
   4 C :   -0.123627
   5 C :   -0.238115
   6 O :    0.158576
   7 C :   -0.253666
   8 C :   -0.188873
   9 H :    0.132699
  10 H :    0.132368
  11 H :    0.132809
  12 H :    0.132992
  13 H :    0.156312
  14 H :    0.140497
  15 H :    0.134980
  16 H :    0.133032
  17 H :    0.150217
  18 H :    0.146657

  Mayer bond orders larger than 0.1
B(  0-C ,  1-C ) :   0.8938 B(  0-C ,  2-C ) :   0.8332 B(  0-C ,  9-H ) :   0.9358
B(  0-C , 10-H ) :   0.9291 B(  1-C ,  2-C ) :   0.8427 B(  1-C , 11-H ) :   0.9304
B(  1-C , 12-H ) :   0.9340 B(  2-C ,  3-C ) :   0.9220 B(  2-C , 13-H ) :   0.9354
B(  3-C ,  4-C ) :   1.7472 B(  3-C ,  8-C ) :   0.9206 B(  4-C ,  5-C ) :   0.9468
B(  4-C , 14-H ) :   0.9240 B(  5-C ,  6-O ) :   0.8783 B(  5-C ,  7-C ) :   0.9499
B(  5-C , 15-H ) :   0.9310 B(  6-O ,  7-C ) :   0.9567 B(  7-C ,  8-C ) :   0.9305
B(  7-C , 16-H ) :   0.9345 B(  8-C , 17-H ) :   0.8976 B(  8-C , 18-H ) :   0.8960

MP2 TOTAL ENERGY:     -385.180339527 Eh
FINAL SINGLE POINT ENERGY      -385.180339527367

DIPOLE MOMENT
-------------
                                X             Y             Z
Electronic contribution:     -0.90041      -5.44714       3.84237
Nuclear contribution   :      0.45079       6.01735      -4.31466
                        -----------------------------------------
Total Dipole Moment    :     -0.44963       0.57021      -0.47230
                        -----------------------------------------
Magnitude (a.u.)       :      0.86624
Magnitude (Debye)      :      2.20181

                             ****ORCA TERMINATED NORMALLY****
TOTAL RUN TIME: 0 days 0 hours 17 minutes 17 seconds 569 msec
