                         Program Version 3.0.3 - RELEASE   -
|  1> ! RI-MP2 RIJK def2-TZVP def2-TZVP/C def2-TZVP/JK TIGHTSCF
|  2> % maxcore 2000
|  3> % mp2 density relaxed end
|  4> *xyz 0 1
|  5>  C       -0.1510433369     1.5871334205    -0.0643605808
|  6>  C        0.0401399289     0.0768909917    -0.0500599826
|  7>  C        0.7340378505    -0.5979822293    -1.2407248785
|  8>  C        2.1718362892    -0.2057082662    -1.3415107906
|  9>  C        1.7874770213    -1.2319295923    -0.2968797027
| 10>  C        2.3093172363    -2.5577078880    -0.2868883271
| 11>  N        2.7173400171    -3.6412166730    -0.2650299080
| 12>  C        1.1424186841    -0.5353628807     0.9043141477
| 13>  O        2.0289600210     0.3453093036     1.5502448694
| 14>  H        0.7918269387     2.1165461635    -0.2210477144
| 15>  H       -0.8442929802     1.8822957975    -0.8587270571
| 16>  H       -0.5714692717     1.9350251711     0.8858470160
| 17>  H       -0.9150319949    -0.4169734408     0.1527496736
| 18>  H        0.2282344963    -1.1024346821    -2.0543967651
| 19>  H        2.7079919394    -0.6118122107    -2.1919134200
| 20>  H        2.5221097237     0.7631619672    -1.0034517837
| 21>  H        0.7123844963    -1.2591595600     1.6055571170
| 22>  H        1.6023682708     0.6844323882     2.3435654769
| 23> *
| 24>
| 25>                          ****END OF INPUT****

CARTESIAN COORDINATES (ANGSTROEM)
---------------------------------
  C     -0.151043    1.587133   -0.064361
  C      0.040140    0.076891   -0.050060
  C      0.734038   -0.597982   -1.240725
  C      2.171836   -0.205708   -1.341511
  C      1.787477   -1.231930   -0.296880
  C      2.309317   -2.557708   -0.286888
  N      2.717340   -3.641217   -0.265030
  C      1.142419   -0.535363    0.904314
  O      2.028960    0.345309    1.550245
  H      0.791827    2.116546   -0.221048
  H     -0.844293    1.882296   -0.858727
  H     -0.571469    1.935025    0.885847
  H     -0.915032   -0.416973    0.152750
  H      0.228234   -1.102435   -2.054397
  H      2.707992   -0.611812   -2.191913
  H      2.522110    0.763162   -1.003452
  H      0.712384   -1.259160    1.605557
  H      1.602368    0.684432    2.343565

 Total Charge           Charge          ....    0
 Multiplicity           Mult            ....    1
 Number of Electrons    NEL             ....   66
 Basis Dimension        Dim             ....  333

ORBITAL ENERGIES
----------------

  NO   OCC          E(Eh)            E(eV)
   0   2.0000     -20.576757      -559.9220
   1   2.0000     -15.562735      -423.4835
   2   2.0000     -11.311340      -307.7972
   3   2.0000     -11.281744      -306.9919
   4   2.0000     -11.269244      -306.6517
   5   2.0000     -11.268435      -306.6297
   6   2.0000     -11.258861      -306.3692
   7   2.0000     -11.255604      -306.2805
   8   2.0000     -11.230620      -305.6007
   9   2.0000      -1.387469       -37.7549
  10   2.0000      -1.229755       -33.4633
  11   2.0000      -1.198400       -32.6101
  12   2.0000      -1.043948       -28.4073
  13   2.0000      -0.967501       -26.3270
  14   2.0000      -0.911530       -24.8040
  15   2.0000      -0.850573       -23.1453
  16   2.0000      -0.771479       -20.9930
  17   2.0000      -0.740787       -20.1578
  18   2.0000      -0.711054       -19.3488
  19   2.0000      -0.655361       -17.8333
  20   2.0000      -0.636137       -17.3102
  21   2.0000      -0.606639       -16.5075
  22   2.0000      -0.571589       -15.5537
  23   2.0000      -0.557231       -15.1630
  24   2.0000      -0.555862       -15.1258
  25   2.0000      -0.537127       -14.6160
  26   2.0000      -0.524390       -14.2694
  27   2.0000      -0.516738       -14.0611
  28   2.0000      -0.491399       -13.3717
  29   2.0000      -0.483007       -13.1433
  30   2.0000      -0.436628       -11.8812
  31   2.0000      -0.424377       -11.5479
  32   2.0000      -0.389778       -10.6064
  33   0.0000       0.113243         3.0815
  34   0.0000       0.138061         3.7568
  35   0.0000       0.147164         4.0045
  36   0.0000       0.157584         4.2881
  37   0.0000       0.173874         4.7314

MULLIKEN ATOMIC CHARGES
-----------------------
   0 C :   -0.424207
   1 C :   -0.051890
   2 C :   -0.078228
   3 C :   -0.299731
   4 C :    0.210250
   5 C :   -0.275146
   6 N :   -0.052068
   7 C :   -0.012112
   8 O :   -0.440663
   9 H :    0.140263
  10 H :    0.139176
  11 H :    0.125713
  12 H :    0.111764
  13 H :    0.151259
  14 H :    0.156475
  15 H :    0.160902
  16 H :    0.117491
  17 H :    0.320753
Sum of atomic charges:    0.0000000

LOEWDIN ATOMIC CHARGES
----------------------
   0 C :   -0.295583
   1 C :   -0.217170
   2 C :   -0.114649
   3 C :   -0.146599
   4 C :   -0.174784
   5 C :   -0.160984
   6 N :    0.062719
   7 C :   -0.249971
   8 O :    0.003625
   9 H :    0.126753
  10 H :    0.128764
  11 H :    0.124134
  12 H :    0.154432
  13 H :    0.144295
  14 H :    0.151084
  15 H :    0.142901
  16 H :    0.140830
  17 H :    0.180203

  Mayer bond orders larger than 0.1
B(  0-C ,  1-C ) :   0.8910 B(  0-C ,  9-H ) :   0.9312 B(  0-C , 10-H ) :   0.9370
B(  0-C , 11-H ) :   0.9400 B(  1-C ,  2-C ) :   0.9396 B(  1-C ,  7-C ) :   0.9451
B(  1-C ,  8-O ) :  -0.1146 B(  1-C , 12-H ) :   0.9197 B(  2-C ,  3-C ) :   0.8909
B(  2-C ,  4-C ) :   0.7440 B(  2-C , 13-H ) :   0.9070 B(  3-C ,  4-C ) :   0.8427
B(  3-C , 14-H ) :   0.9294 B(  3-C , 15-H ) :   0.9128 B(  4-C ,  5-C ) :   0.9416
B(  4-C ,  7-C ) :   0.8610 B(  4-C ,  8-O ) :  -0.1166 B(  5-C ,  6-N ) :   2.8790
B(  7-C ,  8-O ) :   1.1739 B(  7-C , 16-H ) :   0.9659 B(  8-O , 17-H ) :   0.8404

MP2 TOTAL ENERGY:     -401.248003391 Eh
FINAL SINGLE POINT ENERGY      -401.248003390611

DIPOLE MOMENT
-------------
                                X             Y             Z
Electronic contribution:      4.76788      -7.92042       0.77019
Nuclear contribution   :     -6.01684       9.43835      -0.63248
                        -----------------------------------------
Total Dipole Moment    :     -1.24896       1.51793       0.13772
                        -----------------------------------------
Magnitude (a.u.)       :      1.97053
Magnitude (Debye)      :      5.00868

                             ****ORCA TERMINATED NORMALLY****
TOTAL RUN TIME: 0 days 0 hours 17 minutes 55 seconds 678 msec
