                         Program Version 3.0.3 - RELEASE   -
|  1> ! RI-MP2 RIJK def2-TZVP def2-TZVP/C def2-TZVP/JK TIGHTSCF
|  2> % maxcore 2000
|  3> % mp2 density relaxed end
|  4> *xyz 0 1
|  5>  C        0.0698299674     1.3846746300    -0.0775044555
|  6>  O        0.0022516414    -0.0424219288    -0.0790047230
|  7>  C        0.5784964112    -0.6759692109    -1.0934174297
|  8>  N        0.6421865153    -1.9604535134    -1.2267088564
|  9>  C        1.3210958727    -2.1332034844    -2.4314279857
| 10>  N        1.5343757501    -3.4107596807    -2.9427020210
| 11>  C        1.6259615592    -0.9262444820    -2.9610035259
| 12>  O        2.3440569965    -0.5128498234    -4.0226751899
| 13>  O        1.1410728860     0.0514388918    -2.0738941335
| 14>  H        1.1082290742     1.7294032014    -0.0668502947
| 15>  H       -0.4380733392     1.8035968354    -0.9515396369
| 16>  H       -0.4375323137     1.6994968222     0.8341499047
| 17>  H        1.5773849254    -4.0962969733    -2.1996161984
| 18>  H        2.3569027326    -3.4668177102    -3.5289109636
| 19>  H        1.7541298809    -0.2714669238    -4.7491663505
| 20> *
| 21>
| 22>                          ****END OF INPUT****

CARTESIAN COORDINATES (ANGSTROEM)
---------------------------------
  C      0.069830    1.384675   -0.077504
  O      0.002252   -0.042422   -0.079005
  C      0.578496   -0.675969   -1.093417
  N      0.642187   -1.960454   -1.226709
  C      1.321096   -2.133203   -2.431428
  N      1.534376   -3.410760   -2.942702
  C      1.625962   -0.926244   -2.961004
  O      2.344057   -0.512850   -4.022675
  O      1.141073    0.051439   -2.073894
  H      1.108229    1.729403   -0.066850
  H     -0.438073    1.803597   -0.951540
  H     -0.437532    1.699497    0.834150
  H      1.577385   -4.096297   -2.199616
  H      2.356903   -3.466818   -3.528911
  H      1.754130   -0.271467   -4.749166

 Total Charge           Charge          ....    0
 Multiplicity           Mult            ....    1
 Number of Electrons    NEL             ....   68
 Basis Dimension        Dim             ....  315

ORBITAL ENERGIES
----------------

  NO   OCC          E(Eh)            E(eV)
   0   2.0000     -20.634180      -561.4846
   1   2.0000     -20.614506      -560.9492
   2   2.0000     -20.600914      -560.5794
   3   2.0000     -15.564202      -423.5235
   4   2.0000     -15.547553      -423.0704
   5   2.0000     -11.396637      -310.1183
   6   2.0000     -11.319318      -308.0143
   7   2.0000     -11.299109      -307.4644
   8   2.0000     -11.296122      -307.3831
   9   2.0000      -1.510797       -41.1109
  10   2.0000      -1.433653       -39.0117
  11   2.0000      -1.395998       -37.9870
  12   2.0000      -1.257927       -34.2299
  13   2.0000      -1.180026       -32.1101
  14   2.0000      -1.008404       -27.4401
  15   2.0000      -0.955598       -26.0032
  16   2.0000      -0.840188       -22.8627
  17   2.0000      -0.813004       -22.1230
  18   2.0000      -0.764326       -20.7984
  19   2.0000      -0.729764       -19.8579
  20   2.0000      -0.704487       -19.1701
  21   2.0000      -0.680714       -18.5232
  22   2.0000      -0.651761       -17.7353
  23   2.0000      -0.649702       -17.6793
  24   2.0000      -0.615046       -16.7362
  25   2.0000      -0.609441       -16.5837
  26   2.0000      -0.589817       -16.0497
  27   2.0000      -0.539551       -14.6819
  28   2.0000      -0.528837       -14.3904
  29   2.0000      -0.519203       -14.1282
  30   2.0000      -0.512426       -13.9438
  31   2.0000      -0.456831       -12.4310
  32   2.0000      -0.408013       -11.1026
  33   2.0000      -0.295278        -8.0349
  34   0.0000       0.124166         3.3787
  35   0.0000       0.146808         3.9949
  36   0.0000       0.155878         4.2417
  37   0.0000       0.180704         4.9172
  38   0.0000       0.189440         5.1549

MULLIKEN ATOMIC CHARGES
-----------------------
   0 C :   -0.219105
   1 O :   -0.255394
   2 C :    0.368610
   3 N :   -0.294902
   4 C :    0.169836
   5 N :   -0.526060
   6 C :    0.125384
   7 O :   -0.446618
   8 O :   -0.214015
   9 H :    0.139985
  10 H :    0.136145
  11 H :    0.152728
  12 H :    0.260062
  13 H :    0.251938
  14 H :    0.351403
Sum of atomic charges:    0.0000000

LOEWDIN ATOMIC CHARGES
----------------------
   0 C :   -0.307138
   1 O :    0.251874
   2 C :   -0.490912
   3 N :    0.118483
   4 C :   -0.358428
   5 N :   -0.084664
   6 C :   -0.404852
   7 O :    0.062744
   8 O :    0.324635
   9 H :    0.112668
  10 H :    0.111517
  11 H :    0.118727
  12 H :    0.174582
  13 H :    0.170978
  14 H :    0.199787

  Mayer bond orders larger than 0.1
B(  0-C ,  1-O ) :   0.8478 B(  0-C ,  9-H ) :   0.9352 B(  0-C , 10-H ) :   0.9360
B(  0-C , 11-H ) :   0.9353 B(  1-O ,  2-C ) :   1.1388 B(  2-C ,  3-N ) :   1.6910
B(  2-C ,  8-O ) :   1.0825 B(  3-N ,  4-C ) :   1.1312 B(  4-C ,  5-N ) :   1.0408
B(  4-C ,  6-C ) :   1.5794 B(  5-N , 12-H ) :   0.8728 B(  5-N , 13-H ) :   0.8787
B(  6-C ,  7-O ) :   1.1509 B(  6-C ,  8-O ) :   0.9588 B(  7-O , 14-H ) :   0.8220

MP2 TOTAL ENERGY:     -490.327387890 Eh
FINAL SINGLE POINT ENERGY      -490.327387889993

DIPOLE MOMENT
-------------
                                X             Y             Z
Electronic contribution:      0.51086      -1.70811      -1.17672
Nuclear contribution   :     -0.29883       2.50931       0.66536
                        -----------------------------------------
Total Dipole Moment    :      0.21203       0.80120      -0.51135
                        -----------------------------------------
Magnitude (a.u.)       :      0.97384
Magnitude (Debye)      :      2.47530

                             ****ORCA TERMINATED NORMALLY****
TOTAL RUN TIME: 0 days 0 hours 12 minutes 56 seconds 927 msec
