                         Program Version 3.0.3 - RELEASE   -
|  1> ! RI-MP2 RIJK def2-TZVP def2-TZVP/C def2-TZVP/JK TIGHTSCF
|  2> % maxcore 2000
|  3> % mp2 density relaxed end
|  4> *xyz 0 1
|  5>  C        0.3249537985     1.4520247945     0.3380897781
|  6>  C       -0.2309540143     0.1463838668    -0.2405346242
|  7>  C        0.6232684837    -0.4204813131    -1.3564925003
|  8>  C        1.8921554001    -1.2054659824    -1.0281364937
|  9>  C        0.6934938179    -1.8991294837    -1.5838689224
| 10>  O       -0.0691180384    -2.8135450680    -0.7900544652
| 11>  C       -0.3917806201    -3.5996427304    -1.9594790980
| 12>  C        0.4987564651    -2.7155552086    -2.8645410510
| 13>  C       -0.1556014591    -2.0405898118    -4.0607897108
| 14>  H        1.3285915787     1.3030582720     0.7498911869
| 15>  H        0.3963727890     2.2290222984    -0.4313095020
| 16>  H       -0.3150777738     1.8347273761     1.1395189516
| 17>  H       -0.3267339160    -0.6065316418     0.5493392927
| 18>  H       -1.2479899819     0.3151551892    -0.6180474127
| 19>  H        0.6760052128     0.1979800340    -2.2513504897
| 20>  H        2.7693334929    -1.0829996759    -1.6563935907
| 21>  H        2.1078421100    -1.3816416049     0.0218128117
| 22>  H       -0.0878356481    -4.6454888215    -1.8414081463
| 23>  H       -1.4637677015    -3.5587902274    -2.1933956847
| 24>  H        1.4158831392    -3.2286101400    -3.1701614353
| 25>  H       -1.0743409784    -1.5227567570    -3.7667217570
| 26>  H        0.5137799617    -1.3038232663    -4.5178763377
| 27>  H       -0.4116892878    -2.7749199284    -4.8321440991
| 28> *
| 29>
| 30>                          ****END OF INPUT****

CARTESIAN COORDINATES (ANGSTROEM)
---------------------------------
  C      0.324954    1.452025    0.338090
  C     -0.230954    0.146384   -0.240535
  C      0.623268   -0.420481   -1.356493
  C      1.892155   -1.205466   -1.028136
  C      0.693494   -1.899129   -1.583869
  O     -0.069118   -2.813545   -0.790054
  C     -0.391781   -3.599643   -1.959479
  C      0.498756   -2.715555   -2.864541
  C     -0.155601   -2.040590   -4.060790
  H      1.328592    1.303058    0.749891
  H      0.396373    2.229022   -0.431310
  H     -0.315078    1.834727    1.139519
  H     -0.326734   -0.606532    0.549339
  H     -1.247990    0.315155   -0.618047
  H      0.676005    0.197980   -2.251350
  H      2.769333   -1.083000   -1.656394
  H      2.107842   -1.381642    0.021813
  H     -0.087836   -4.645489   -1.841408
  H     -1.463768   -3.558790   -2.193396
  H      1.415883   -3.228610   -3.170161
  H     -1.074341   -1.522757   -3.766722
  H      0.513780   -1.303823   -4.517876
  H     -0.411689   -2.774920   -4.832144

 Total Charge           Charge          ....    0
 Multiplicity           Mult            ....    1
 Number of Electrons    NEL             ....   70
 Basis Dimension        Dim             ....  363

ORBITAL ENERGIES
----------------

  NO   OCC          E(Eh)            E(eV)
   0   2.0000     -20.545769      -559.0788
   1   2.0000     -11.280661      -306.9624
   2   2.0000     -11.275277      -306.8159
   3   2.0000     -11.236239      -305.7536
   4   2.0000     -11.224152      -305.4247
   5   2.0000     -11.222463      -305.3787
   6   2.0000     -11.217250      -305.2369
   7   2.0000     -11.215955      -305.2017
   8   2.0000     -11.207632      -304.9752
   9   2.0000      -1.379308       -37.5329
  10   2.0000      -1.134863       -30.8812
  11   2.0000      -1.051224       -28.6053
  12   2.0000      -1.013300       -27.5733
  13   2.0000      -0.915404       -24.9094
  14   2.0000      -0.870622       -23.6908
  15   2.0000      -0.851443       -23.1689
  16   2.0000      -0.780127       -21.2283
  17   2.0000      -0.715691       -19.4749
  18   2.0000      -0.677603       -18.4385
  19   2.0000      -0.649502       -17.6739
  20   2.0000      -0.640050       -17.4166
  21   2.0000      -0.602686       -16.3999
  22   2.0000      -0.575181       -15.6515
  23   2.0000      -0.568122       -15.4594
  24   2.0000      -0.562513       -15.3067
  25   2.0000      -0.551432       -15.0052
  26   2.0000      -0.524333       -14.2678
  27   2.0000      -0.508001       -13.8234
  28   2.0000      -0.504501       -13.7282
  29   2.0000      -0.478465       -13.0197
  30   2.0000      -0.475195       -12.9307
  31   2.0000      -0.472729       -12.8636
  32   2.0000      -0.446946       -12.1620
  33   2.0000      -0.392013       -10.6672
  34   2.0000      -0.364149        -9.9090
  35   0.0000       0.132112         3.5950
  36   0.0000       0.151097         4.1116
  37   0.0000       0.160998         4.3810
  38   0.0000       0.169769         4.6197
  39   0.0000       0.182124         4.9558

MULLIKEN ATOMIC CHARGES
-----------------------
   0 C :   -0.380214
   1 C :   -0.232854
   2 C :   -0.093537
   3 C :   -0.305454
   4 C :    0.157531
   5 O :   -0.326341
   6 C :   -0.034072
   7 C :   -0.034148
   8 C :   -0.442915
   9 H :    0.125016
  10 H :    0.117086
  11 H :    0.131853
  12 H :    0.132319
  13 H :    0.108911
  14 H :    0.114526
  15 H :    0.129246
  16 H :    0.129915
  17 H :    0.100960
  18 H :    0.089315
  19 H :    0.105221
  20 H :    0.137744
  21 H :    0.131553
  22 H :    0.138341
Sum of atomic charges:   -0.0000000

LOEWDIN ATOMIC CHARGES
----------------------
   0 C :   -0.316035
   1 C :   -0.271464
   2 C :   -0.194036
   3 C :   -0.190441
   4 C :   -0.270404
   5 O :    0.166454
   6 C :   -0.236717
   7 C :   -0.222655
   8 C :   -0.295743
   9 H :    0.120955
  10 H :    0.119183
  11 H :    0.119510
  12 H :    0.145357
  13 H :    0.138769
  14 H :    0.149475
  15 H :    0.133313
  16 H :    0.142471
  17 H :    0.116438
  18 H :    0.118029
  19 H :    0.149526
  20 H :    0.127346
  21 H :    0.125111
  22 H :    0.125558

  Mayer bond orders larger than 0.1
B(  0-C ,  1-C ) :   0.9179 B(  0-C ,  9-H ) :   0.9400 B(  0-C , 10-H ) :   0.9369
B(  0-C , 11-H ) :   0.9428 B(  1-C ,  2-C ) :   0.9026 B(  1-C , 12-H ) :   0.9312
B(  1-C , 13-H ) :   0.9364 B(  2-C ,  3-C ) :   0.9051 B(  2-C ,  4-C ) :   0.8310
B(  2-C , 14-H ) :   0.9081 B(  3-C ,  4-C ) :   0.8784 B(  3-C , 15-H ) :   0.9192
B(  3-C , 16-H ) :   0.9087 B(  4-C ,  5-O ) :   0.9780 B(  4-C ,  7-C ) :   0.9066
B(  5-O ,  6-C ) :   0.9450 B(  6-C ,  7-C ) :   0.9770 B(  6-C , 17-H ) :   0.9138
B(  6-C , 18-H ) :   0.9023 B(  7-C ,  8-C ) :   0.9009 B(  7-C , 19-H ) :   0.9183
B(  8-C , 20-H ) :   0.9368 B(  8-C , 21-H ) :   0.9374 B(  8-C , 22-H ) :   0.9355

MP2 TOTAL ENERGY:     -387.580878688 Eh
FINAL SINGLE POINT ENERGY      -387.580878688347

DIPOLE MOMENT
-------------
                                X             Y             Z
Electronic contribution:      0.48191      -5.65283       1.04126
Nuclear contribution   :     -0.39230       5.66485      -1.74204
                        -----------------------------------------
Total Dipole Moment    :      0.08961       0.01202      -0.70078
                        -----------------------------------------
Magnitude (a.u.)       :      0.70659
Magnitude (Debye)      :      1.79601

                             ****ORCA TERMINATED NORMALLY****
TOTAL RUN TIME: 0 days 0 hours 31 minutes 3 seconds 733 msec
