                         Program Version 3.0.3 - RELEASE   -
|  1> ! RI-MP2 RIJK def2-TZVP def2-TZVP/C def2-TZVP/JK TIGHTSCF
|  2> % maxcore 2000
|  3> % mp2 density relaxed end
|  4> *xyz 0 1
|  5>  C       -0.1300938443     1.5583114571    -0.0865763577
|  6>  C        0.0023310764     0.0377920608    -0.0528585588
|  7>  C        1.2039020597    -0.5175621729    -0.8769798472
|  8>  C        2.0118022781    -0.6858525958     0.4383699139
|  9>  C        0.6782789545    -0.5653958087     1.2247188480
| 10>  C        0.6543739290     0.2398310630     2.5240364917
| 11>  O       -0.6565194693     0.4479352064     3.0222840251
| 12>  C        1.5156103847    -0.4048189048     3.5403123740
| 13>  N        2.1690456663    -0.9434774586     4.3269161648
| 14>  H        0.8300572534     2.0582894881     0.0862941598
| 15>  H       -0.4884763714     1.8827479946    -1.0689199835
| 16>  H       -0.8383601725     1.9114188662     0.6688776522
| 17>  H       -0.9662279982    -0.4107032148    -0.2902059796
| 18>  H        0.9784889912    -1.4783339409    -1.3469498252
| 19>  H        1.6228595014     0.1484252708    -1.6356062037
| 20>  H        2.5867901833    -1.6034616871     0.5726388035
| 21>  H        2.6755610922     0.1632593503     0.6282085865
| 22>  H        0.2698841026    -1.5614685108     1.4329959020
| 23>  H        1.0528036859     1.2435954627     2.3438129005
| 24>  H       -1.0503207630    -0.4140766654     3.2006548839
| 25> *
| 26>
| 27>                          ****END OF INPUT****

CARTESIAN COORDINATES (ANGSTROEM)
---------------------------------
  C     -0.130094    1.558311   -0.086576
  C      0.002331    0.037792   -0.052859
  C      1.203902   -0.517562   -0.876980
  C      2.011802   -0.685853    0.438370
  C      0.678279   -0.565396    1.224719
  C      0.654374    0.239831    2.524036
  O     -0.656519    0.447935    3.022284
  C      1.515610   -0.404819    3.540312
  N      2.169046   -0.943477    4.326916
  H      0.830057    2.058289    0.086294
  H     -0.488476    1.882748   -1.068920
  H     -0.838360    1.911419    0.668878
  H     -0.966228   -0.410703   -0.290206
  H      0.978489   -1.478334   -1.346950
  H      1.622860    0.148425   -1.635606
  H      2.586790   -1.603462    0.572639
  H      2.675561    0.163259    0.628209
  H      0.269884   -1.561469    1.432996
  H      1.052804    1.243595    2.343813
  H     -1.050321   -0.414077    3.200655

 Total Charge           Charge          ....    0
 Multiplicity           Mult            ....    1
 Number of Electrons    NEL             ....   68
 Basis Dimension        Dim             ....  345

ORBITAL ENERGIES
----------------

  NO   OCC          E(Eh)            E(eV)
   0   2.0000     -20.590110      -560.2854
   1   2.0000     -15.577175      -423.8765
   2   2.0000     -11.338573      -308.5383
   3   2.0000     -11.274569      -306.7966
   4   2.0000     -11.253593      -306.2258
   5   2.0000     -11.244114      -305.9679
   6   2.0000     -11.237943      -305.8000
   7   2.0000     -11.233031      -305.6663
   8   2.0000     -11.225099      -305.4505
   9   2.0000      -1.399043       -38.0699
  10   2.0000      -1.222021       -33.2529
  11   2.0000      -1.156659       -31.4743
  12   2.0000      -1.025892       -27.9159
  13   2.0000      -0.989956       -26.9381
  14   2.0000      -0.888955       -24.1897
  15   2.0000      -0.868524       -23.6337
  16   2.0000      -0.769625       -20.9426
  17   2.0000      -0.748049       -20.3554
  18   2.0000      -0.690870       -18.7995
  19   2.0000      -0.672161       -18.2904
  20   2.0000      -0.644949       -17.5500
  21   2.0000      -0.600984       -16.3536
  22   2.0000      -0.582801       -15.8588
  23   2.0000      -0.566075       -15.4037
  24   2.0000      -0.561925       -15.2908
  25   2.0000      -0.548077       -14.9139
  26   2.0000      -0.535139       -14.5619
  27   2.0000      -0.521882       -14.2011
  28   2.0000      -0.484604       -13.1867
  29   2.0000      -0.478321       -13.0158
  30   2.0000      -0.469624       -12.7791
  31   2.0000      -0.460460       -12.5297
  32   2.0000      -0.444285       -12.0896
  33   2.0000      -0.434114       -11.8129
  34   0.0000       0.112998         3.0748
  35   0.0000       0.130459         3.5500
  36   0.0000       0.144829         3.9410
  37   0.0000       0.152519         4.1503
  38   0.0000       0.175302         4.7702

MULLIKEN ATOMIC CHARGES
-----------------------
   0 C :   -0.496046
   1 C :    0.034904
   2 C :   -0.216857
   3 C :   -0.284070
   4 C :   -0.163607
   5 C :    0.193591
   6 O :   -0.455403
   7 C :   -0.175419
   8 N :   -0.050279
   9 H :    0.132528
  10 H :    0.142881
  11 H :    0.158641
  12 H :    0.105449
  13 H :    0.122579
  14 H :    0.118299
  15 H :    0.135745
  16 H :    0.122876
  17 H :    0.116607
  18 H :    0.131976
  19 H :    0.325604
Sum of atomic charges:   -0.0000000

LOEWDIN ATOMIC CHARGES
----------------------
   0 C :   -0.295812
   1 C :   -0.225989
   2 C :   -0.217513
   3 C :   -0.210354
   4 C :   -0.197699
   5 C :   -0.327694
   6 O :    0.011400
   7 C :   -0.167236
   8 N :    0.067698
   9 H :    0.123635
  10 H :    0.127432
  11 H :    0.129850
  12 H :    0.141276
  13 H :    0.134639
  14 H :    0.127696
  15 H :    0.129777
  16 H :    0.138511
  17 H :    0.156335
  18 H :    0.170339
  19 H :    0.183710

  Mayer bond orders larger than 0.1
B(  0-C ,  1-C ) :   0.8890 B(  0-C ,  9-H ) :   0.9385 B(  0-C , 10-H ) :   0.9337
B(  0-C , 11-H ) :   0.9368 B(  1-C ,  2-C ) :   0.8976 B(  1-C ,  4-C ) :   0.8978
B(  1-C , 12-H ) :   0.9215 B(  2-C ,  3-C ) :   0.9338 B(  2-C , 13-H ) :   0.9265
B(  2-C , 14-H ) :   0.9261 B(  3-C ,  4-C ) :   0.9401 B(  3-C , 15-H ) :   0.9266
B(  3-C , 16-H ) :   0.9246 B(  4-C ,  5-C ) :   0.9403 B(  4-C , 17-H ) :   0.8961
B(  5-C ,  6-O ) :   0.8719 B(  5-C ,  7-C ) :   0.9201 B(  5-C , 18-H ) :   0.9018
B(  6-O , 19-H ) :   0.8356 B(  7-C ,  8-N ) :   2.8677

MP2 TOTAL ENERGY:     -402.461230625 Eh
FINAL SINGLE POINT ENERGY      -402.461230624848

DIPOLE MOMENT
-------------
                                X             Y             Z
Electronic contribution:      1.20466      -2.46938      10.35395
Nuclear contribution   :     -1.82503       2.49443     -11.66581
                        -----------------------------------------
Total Dipole Moment    :     -0.62037       0.02505      -1.31186
                        -----------------------------------------
Magnitude (a.u.)       :      1.45137
Magnitude (Debye)      :      3.68909

                             ****ORCA TERMINATED NORMALLY****
TOTAL RUN TIME: 0 days 0 hours 21 minutes 26 seconds 301 msec
