                         Program Version 3.0.3 - RELEASE   -
|  1> ! RI-MP2 RIJK def2-TZVP def2-TZVP/C def2-TZVP/JK TIGHTSCF
|  2> % maxcore 2000
|  3> % mp2 density relaxed end
|  4> *xyz 0 1
|  5>  C       -0.0619894890     1.5774216961     0.2720513868
|  6>  C       -0.0070606925     0.0471424444     0.1148259366
|  7>  C        0.6371411422    -0.5839430589     1.3662690286
|  8>  C       -1.4446014780    -0.4869366258    -0.0455049557
|  9>  O       -2.2168887383    -0.1034477646     1.0833649015
| 10>  C        0.7653967641    -0.4279240105    -1.1234447573
| 11>  C        1.0516254291     0.4212635144    -2.3493073741
| 12>  C        2.1786161468    -0.0457549767    -1.4608683227
| 13>  O        2.8409536996     0.8641611315    -0.6265305414
| 14>  H        0.9411467076     1.9970620528     0.3552393694
| 15>  H       -0.5662819710     2.0471264131    -0.5796186296
| 16>  H       -0.6328879668     1.8307463721     1.1680099959
| 17>  H        0.0331313467    -0.3797445064     2.2538225685
| 18>  H        0.7189320094    -1.6718286895     1.2569835703
| 19>  H        1.6424723847    -0.1835658970     1.5180729435
| 20>  H       -1.8773212994    -0.0843862217    -0.9756695852
| 21>  H       -1.4154791529    -1.5849087021    -0.1412845118
| 22>  H       -3.1105160142    -0.4355484429     0.9628619521
| 23>  H        0.5569095652    -1.4735981137    -1.3454135043
| 24>  H        0.9376493320    -0.0131072774    -3.3370418936
| 25>  H        0.8056624307     1.4753577259    -2.2878068232
| 26>  H        2.8207785998    -0.8408408353    -1.8408691429
| 27>  H        3.3907515641     1.4286135821    -1.1799056913
| 28> *
| 29>
| 30>                          ****END OF INPUT****

CARTESIAN COORDINATES (ANGSTROEM)
---------------------------------
  C     -0.061989    1.577422    0.272051
  C     -0.007061    0.047142    0.114826
  C      0.637141   -0.583943    1.366269
  C     -1.444601   -0.486937   -0.045505
  O     -2.216889   -0.103448    1.083365
  C      0.765397   -0.427924   -1.123445
  C      1.051625    0.421264   -2.349307
  C      2.178616   -0.045755   -1.460868
  O      2.840954    0.864161   -0.626531
  H      0.941147    1.997062    0.355239
  H     -0.566282    2.047126   -0.579619
  H     -0.632888    1.830746    1.168010
  H      0.033131   -0.379745    2.253823
  H      0.718932   -1.671829    1.256984
  H      1.642472   -0.183566    1.518073
  H     -1.877321   -0.084386   -0.975670
  H     -1.415479   -1.584909   -0.141285
  H     -3.110516   -0.435548    0.962862
  H      0.556910   -1.473598   -1.345414
  H      0.937649   -0.013107   -3.337042
  H      0.805662    1.475358   -2.287807
  H      2.820779   -0.840841   -1.840869
  H      3.390752    1.428614   -1.179906

 Total Charge           Charge          ....    0
 Multiplicity           Mult            ....    1
 Number of Electrons    NEL             ....   72
 Basis Dimension        Dim             ....  363

ORBITAL ENERGIES
----------------

  NO   OCC          E(Eh)            E(eV)
   0   2.0000     -20.561632      -559.5104
   1   2.0000     -20.550138      -559.1977
   2   2.0000     -11.280565      -306.9598
   3   2.0000     -11.267601      -306.6070
   4   2.0000     -11.231232      -305.6174
   5   2.0000     -11.228624      -305.5464
   6   2.0000     -11.222906      -305.3908
   7   2.0000     -11.193867      -304.6006
   8   2.0000     -11.192589      -304.5658
   9   2.0000      -1.370437       -37.2915
  10   2.0000      -1.355378       -36.8817
  11   2.0000      -1.139437       -31.0057
  12   2.0000      -1.057616       -28.7792
  13   2.0000      -0.916976       -24.9522
  14   2.0000      -0.911257       -24.7966
  15   2.0000      -0.834433       -22.7061
  16   2.0000      -0.817806       -22.2536
  17   2.0000      -0.725293       -19.7362
  18   2.0000      -0.706985       -19.2380
  19   2.0000      -0.689381       -18.7590
  20   2.0000      -0.654507       -17.8101
  21   2.0000      -0.630958       -17.1692
  22   2.0000      -0.607696       -16.5362
  23   2.0000      -0.593474       -16.1492
  24   2.0000      -0.562691       -15.3116
  25   2.0000      -0.545459       -14.8427
  26   2.0000      -0.535665       -14.5762
  27   2.0000      -0.529599       -14.4111
  28   2.0000      -0.517140       -14.0721
  29   2.0000      -0.501013       -13.6333
  30   2.0000      -0.467777       -12.7289
  31   2.0000      -0.458896       -12.4872
  32   2.0000      -0.450727       -12.2649
  33   2.0000      -0.434980       -11.8364
  34   2.0000      -0.397296       -10.8110
  35   2.0000      -0.396000       -10.7757
  36   0.0000       0.132782         3.6132
  37   0.0000       0.145070         3.9476
  38   0.0000       0.159359         4.3364
  39   0.0000       0.169790         4.6202
  40   0.0000       0.178111         4.8466

MULLIKEN ATOMIC CHARGES
-----------------------
   0 C :   -0.463934
   1 C :    0.174927
   2 C :   -0.437668
   3 C :   -0.086789
   4 O :   -0.470431
   5 C :   -0.123317
   6 C :   -0.298361
   7 C :    0.020770
   8 O :   -0.470777
   9 H :    0.154307
  10 H :    0.114063
  11 H :    0.152138
  12 H :    0.148616
  13 H :    0.111224
  14 H :    0.151788
  15 H :    0.104543
  16 H :    0.094480
  17 H :    0.314303
  18 H :    0.114722
  19 H :    0.127238
  20 H :    0.140942
  21 H :    0.105177
  22 H :    0.322039
Sum of atomic charges:    0.0000000

LOEWDIN ATOMIC CHARGES
----------------------
   0 C :   -0.270919
   1 C :   -0.308710
   2 C :   -0.262870
   3 C :   -0.309603
   4 O :   -0.041391
   5 C :   -0.171645
   6 C :   -0.219186
   7 C :   -0.316383
   8 O :   -0.003856
   9 H :    0.126938
  10 H :    0.121513
  11 H :    0.131005
  12 H :    0.128186
  13 H :    0.123176
  14 H :    0.130246
  15 H :    0.120588
  16 H :    0.117818
  17 H :    0.172260
  18 H :    0.155687
  19 H :    0.128824
  20 H :    0.138471
  21 H :    0.129642
  22 H :    0.180208

  Mayer bond orders larger than 0.1
B(  0-C ,  1-C ) :   0.8779 B(  0-C ,  9-H ) :   0.9375 B(  0-C , 10-H ) :   0.9356
B(  0-C , 11-H ) :   0.9286 B(  1-C ,  2-C ) :   0.9049 B(  1-C ,  3-C ) :   0.9016
B(  1-C ,  5-C ) :   0.8878 B(  2-C , 12-H ) :   0.9318 B(  2-C , 13-H ) :   0.9303
B(  2-C , 14-H ) :   0.9357 B(  3-C ,  4-O ) :   1.0312 B(  3-C , 15-H ) :   0.9278
B(  3-C , 16-H ) :   0.9286 B(  4-O , 17-H ) :   0.8477 B(  5-C ,  6-C ) :   0.8736
B(  5-C ,  7-C ) :   0.8671 B(  5-C ,  8-O ) :  -0.1075 B(  5-C , 18-H ) :   0.9152
B(  6-C ,  7-C ) :   0.8928 B(  6-C , 19-H ) :   0.9209 B(  6-C , 20-H ) :   0.9281
B(  7-C ,  8-O ) :   1.0442 B(  7-C , 21-H ) :   0.9597 B(  8-O , 22-H ) :   0.8401

MP2 TOTAL ENERGY:     -424.707024858 Eh
FINAL SINGLE POINT ENERGY      -424.707024857894

DIPOLE MOMENT
-------------
                                X             Y             Z
Electronic contribution:      1.11417      -0.17522      -0.66489
Nuclear contribution   :     -1.23873      -0.06256      -0.30367
                        -----------------------------------------
Total Dipole Moment    :     -0.12456      -0.23778      -0.96856
                        -----------------------------------------
Magnitude (a.u.)       :      1.00507
Magnitude (Debye)      :      2.55468

                             ****ORCA TERMINATED NORMALLY****
TOTAL RUN TIME: 0 days 0 hours 20 minutes 18 seconds 896 msec
