                         Program Version 3.0.3 - RELEASE   -
|  1> ! RI-MP2 RIJK def2-TZVP def2-TZVP/C def2-TZVP/JK TIGHTSCF
|  2> % maxcore 2000
|  3> % mp2 density relaxed end
|  4> *xyz 0 1
|  5>  O        0.6124026453     0.8387290010    -0.6634973894
|  6>  C       -0.0359888073    -0.1745015473     0.0569327182
|  7>  C        0.0967602149    -0.2211994669     1.6108812880
|  8>  C       -1.3826500312    -0.6076704009     1.6507113856
|  9>  C       -2.0250310292    -1.7151470000     2.3584260649
| 10>  O       -2.2637718362    -0.3471014420     2.7252793829
| 11>  C       -1.5884583851    -0.1394176432     0.2091908164
| 12>  H        0.3467170570     1.6877312556    -0.2941858630
| 13>  H        0.2939438448    -1.1135765498    -0.3945294245
| 14>  H        0.8318071642    -0.8979904926     2.0516550100
| 15>  H        0.2470727429     0.7845011377     2.0208105283
| 16>  H       -2.8719623895    -2.2305026073     1.9064738761
| 17>  H       -1.4578883254    -2.2991259114     3.0826240252
| 18>  H       -1.9604835075     0.8916304654     0.1846462982
| 19>  H       -2.1927088177    -0.7512238285    -0.4640075269
| 20> *
| 21>
| 22>                          ****END OF INPUT****

CARTESIAN COORDINATES (ANGSTROEM)
---------------------------------
  O      0.612403    0.838729   -0.663497
  C     -0.035989   -0.174502    0.056933
  C      0.096760   -0.221199    1.610881
  C     -1.382650   -0.607670    1.650711
  C     -2.025031   -1.715147    2.358426
  O     -2.263772   -0.347101    2.725279
  C     -1.588458   -0.139418    0.209191
  H      0.346717    1.687731   -0.294186
  H      0.293944   -1.113577   -0.394529
  H      0.831807   -0.897990    2.051655
  H      0.247073    0.784501    2.020811
  H     -2.871962   -2.230503    1.906474
  H     -1.457888   -2.299126    3.082624
  H     -1.960484    0.891630    0.184646
  H     -2.192709   -0.751224   -0.464008

 Total Charge           Charge          ....    0
 Multiplicity           Mult            ....    1
 Number of Electrons    NEL             ....   54
 Basis Dimension        Dim             ....  265

ORBITAL ENERGIES
----------------

  NO   OCC          E(Eh)            E(eV)
   0   2.0000     -20.569666      -559.7291
   1   2.0000     -20.564121      -559.5782
   2   2.0000     -11.296374      -307.3900
   3   2.0000     -11.291869      -307.2674
   4   2.0000     -11.285046      -307.0817
   5   2.0000     -11.233498      -305.6790
   6   2.0000     -11.233478      -305.6785
   7   2.0000      -1.415553       -38.5192
   8   2.0000      -1.372720       -37.3536
   9   2.0000      -1.123281       -30.5660
  10   2.0000      -0.925447       -25.1827
  11   2.0000      -0.918343       -24.9894
  12   2.0000      -0.859869       -23.3982
  13   2.0000      -0.763997       -20.7894
  14   2.0000      -0.694713       -18.9041
  15   2.0000      -0.676515       -18.4089
  16   2.0000      -0.660207       -17.9651
  17   2.0000      -0.642486       -17.4829
  18   2.0000      -0.577063       -15.7027
  19   2.0000      -0.567447       -15.4410
  20   2.0000      -0.558338       -15.1931
  21   2.0000      -0.551468       -15.0062
  22   2.0000      -0.500061       -13.6073
  23   2.0000      -0.462292       -12.5796
  24   2.0000      -0.437268       -11.8987
  25   2.0000      -0.431771       -11.7491
  26   2.0000      -0.424062       -11.5393
  27   0.0000       0.133346         3.6285
  28   0.0000       0.152071         4.1381
  29   0.0000       0.166975         4.5436
  30   0.0000       0.174833         4.7575
  31   0.0000       0.194543         5.2938

MULLIKEN ATOMIC CHARGES
-----------------------
   0 O :   -0.453477
   1 C :    0.011657
   2 C :   -0.175791
   3 C :    0.083116
   4 C :   -0.103127
   5 O :   -0.333075
   6 C :   -0.175760
   7 H :    0.313585
   8 H :    0.105014
   9 H :    0.128958
  10 H :    0.117054
  11 H :    0.117920
  12 H :    0.117920
  13 H :    0.117051
  14 H :    0.128954
Sum of atomic charges:    0.0000000

LOEWDIN ATOMIC CHARGES
----------------------
   0 O :   -0.013577
   1 C :   -0.322287
   2 C :   -0.188981
   3 C :   -0.325075
   4 C :   -0.236898
   5 O :    0.164593
   6 C :   -0.188978
   7 H :    0.174940
   8 H :    0.143133
   9 H :    0.131569
  10 H :    0.143819
  11 H :    0.121177
  12 H :    0.121177
  13 H :    0.143820
  14 H :    0.131569

  Mayer bond orders larger than 0.1
B(  0-O ,  1-C ) :   0.9615 B(  0-O ,  7-H ) :   0.8407 B(  1-C ,  2-C ) :   0.9320
B(  1-C ,  6-C ) :   0.9320 B(  1-C ,  8-H ) :   0.9221 B(  2-C ,  3-C ) :   0.8977
B(  2-C ,  9-H ) :   0.9209 B(  2-C , 10-H ) :   0.9073 B(  3-C ,  4-C ) :   1.0023
B(  3-C ,  5-O ) :   0.9036 B(  3-C ,  6-C ) :   0.8978 B(  4-C ,  5-O ) :   0.9011
B(  4-C , 11-H ) :   0.9159 B(  4-C , 12-H ) :   0.9159 B(  6-C , 13-H ) :   0.9073
B(  6-C , 14-H ) :   0.9209

MP2 TOTAL ENERGY:     -345.051629944 Eh
FINAL SINGLE POINT ENERGY      -345.051629944325

DIPOLE MOMENT
-------------
                                X             Y             Z
Electronic contribution:     -0.60386       1.06237       0.78790
Nuclear contribution   :      0.59319      -1.38886      -0.79391
                        -----------------------------------------
Total Dipole Moment    :     -0.01067      -0.32649      -0.00601
                        -----------------------------------------
Magnitude (a.u.)       :      0.32672
Magnitude (Debye)      :      0.83047

                             ****ORCA TERMINATED NORMALLY****
TOTAL RUN TIME: 0 days 0 hours 7 minutes 23 seconds 842 msec
