                         Program Version 3.0.3 - RELEASE   -
|  1> ! RI-MP2 RIJK def2-TZVP def2-TZVP/C def2-TZVP/JK TIGHTSCF
|  2> % maxcore 2000
|  3> % mp2 density relaxed end
|  4> *xyz 0 1
|  5>  C        1.1613012491     0.7808381423    -0.9815623082
|  6>  C        1.8254846779    -0.5155292514    -0.4922950072
|  7>  C        3.3563683748    -0.4468400070    -0.5917422006
|  8>  C        1.4113371593    -0.7838206565     0.9386883155
|  9>  O        0.0737335853    -1.2216955199     1.1911518705
| 10>  C        1.1384016561    -2.1271307008     1.5107629461
| 11>  C        1.2030993942    -3.4253223941     0.7355944401
| 12>  C        1.3688806111    -2.2841934847     2.9420121836
| 13>  N        1.5727017102    -2.4315575185     4.0701357126
| 14>  H        1.4931393373     1.6405575548    -0.3881817095
| 15>  H        1.4208742978     0.9760846295    -2.0264134151
| 16>  H        0.0724959498     0.7152047418    -0.9038593941
| 17>  H        1.4654665974    -1.3375256735    -1.1197339415
| 18>  H        3.7564952841     0.3518042864     0.0433172373
| 19>  H        3.8249595426    -1.3863102870    -0.2820508574
| 20>  H        3.6657351313    -0.2376754750    -1.6200243571
| 21>  H        1.7562521160    -0.0280171514     1.6489625811
| 22>  H        0.4477937584    -4.1207258497     1.1124724119
| 23>  H        1.0134613107    -3.2526704142    -0.3238639203
| 24>  H        2.1848995665    -3.8931717710     0.8538936623
| 25> *
| 26>
| 27>                          ****END OF INPUT****

CARTESIAN COORDINATES (ANGSTROEM)
---------------------------------
  C      1.161301    0.780838   -0.981562
  C      1.825485   -0.515529   -0.492295
  C      3.356368   -0.446840   -0.591742
  C      1.411337   -0.783821    0.938688
  O      0.073734   -1.221696    1.191152
  C      1.138402   -2.127131    1.510763
  C      1.203099   -3.425322    0.735594
  C      1.368881   -2.284193    2.942012
  N      1.572702   -2.431558    4.070136
  H      1.493139    1.640558   -0.388182
  H      1.420874    0.976085   -2.026413
  H      0.072496    0.715205   -0.903859
  H      1.465467   -1.337526   -1.119734
  H      3.756495    0.351804    0.043317
  H      3.824960   -1.386310   -0.282051
  H      3.665735   -0.237675   -1.620024
  H      1.756252   -0.028017    1.648963
  H      0.447794   -4.120726    1.112472
  H      1.013461   -3.252670   -0.323864
  H      2.184900   -3.893172    0.853894

 Total Charge           Charge          ....    0
 Multiplicity           Mult            ....    1
 Number of Electrons    NEL             ....   68
 Basis Dimension        Dim             ....  345

ORBITAL ENERGIES
----------------

  NO   OCC          E(Eh)            E(eV)
   0   2.0000     -20.597226      -560.4790
   1   2.0000     -15.579816      -423.9483
   2   2.0000     -11.346504      -308.7541
   3   2.0000     -11.315214      -307.9026
   4   2.0000     -11.278355      -306.8997
   5   2.0000     -11.255214      -306.2699
   6   2.0000     -11.252838      -306.2053
   7   2.0000     -11.235471      -305.7327
   8   2.0000     -11.229807      -305.5786
   9   2.0000      -1.445129       -39.3240
  10   2.0000      -1.224014       -33.3071
  11   2.0000      -1.101546       -29.9746
  12   2.0000      -1.055886       -28.7321
  13   2.0000      -0.949754       -25.8441
  14   2.0000      -0.937260       -25.5041
  15   2.0000      -0.898491       -24.4492
  16   2.0000      -0.796052       -21.6617
  17   2.0000      -0.751268       -20.4430
  18   2.0000      -0.673550       -18.3282
  19   2.0000      -0.646714       -17.5980
  20   2.0000      -0.610844       -16.6219
  21   2.0000      -0.605810       -16.4849
  22   2.0000      -0.592509       -16.1230
  23   2.0000      -0.583398       -15.8751
  24   2.0000      -0.570639       -15.5279
  25   2.0000      -0.555414       -15.1136
  26   2.0000      -0.548249       -14.9186
  27   2.0000      -0.523918       -14.2565
  28   2.0000      -0.511101       -13.9078
  29   2.0000      -0.499473       -13.5914
  30   2.0000      -0.494003       -13.4425
  31   2.0000      -0.473352       -12.8806
  32   2.0000      -0.464207       -12.6317
  33   2.0000      -0.429162       -11.6781
  34   0.0000       0.119068         3.2400
  35   0.0000       0.142003         3.8641
  36   0.0000       0.150951         4.1076
  37   0.0000       0.158079         4.3015
  38   0.0000       0.166394         4.5278

MULLIKEN ATOMIC CHARGES
-----------------------
   0 C :   -0.407368
   1 C :   -0.008713
   2 C :   -0.427104
   3 C :    0.038252
   4 O :   -0.312980
   5 C :    0.238245
   6 C :   -0.396247
   7 C :   -0.181140
   8 N :   -0.053176
   9 H :    0.127269
  10 H :    0.137706
  11 H :    0.152110
  12 H :    0.085538
  13 H :    0.133464
  14 H :    0.138059
  15 H :    0.141238
  16 H :    0.140649
  17 H :    0.159332
  18 H :    0.144746
  19 H :    0.150119
Sum of atomic charges:    0.0000000

LOEWDIN ATOMIC CHARGES
----------------------
   0 C :   -0.283179
   1 C :   -0.292671
   2 C :   -0.283781
   3 C :   -0.208929
   4 O :    0.212236
   5 C :   -0.316871
   6 C :   -0.243257
   7 C :   -0.141707
   8 N :    0.077261
   9 H :    0.126009
  10 H :    0.125913
  11 H :    0.130216
  12 H :    0.154202
  13 H :    0.127199
  14 H :    0.125249
  15 H :    0.127599
  16 H :    0.152057
  17 H :    0.140356
  18 H :    0.132770
  19 H :    0.139328

  Mayer bond orders larger than 0.1
B(  0-C ,  1-C ) :   0.9242 B(  0-C ,  9-H ) :   0.9300 B(  0-C , 10-H ) :   0.9380
B(  0-C , 11-H ) :   0.9358 B(  1-C ,  2-C ) :   0.9152 B(  1-C ,  3-C ) :   0.8973
B(  1-C , 12-H ) :   0.9234 B(  2-C , 13-H ) :   0.9302 B(  2-C , 14-H ) :   0.9359
B(  2-C , 15-H ) :   0.9355 B(  3-C ,  4-O ) :   0.8311 B(  3-C ,  5-C ) :   0.9544
B(  3-C , 16-H ) :   0.9013 B(  4-O ,  5-C ) :   0.9537 B(  5-C ,  6-C ) :   0.8964
B(  5-C ,  7-C ) :   0.8821 B(  6-C , 17-H ) :   0.9287 B(  6-C , 18-H ) :   0.9364
B(  6-C , 19-H ) :   0.9248 B(  7-C ,  8-N ) :   2.8472

MP2 TOTAL ENERGY:     -402.461018171 Eh
FINAL SINGLE POINT ENERGY      -402.461018171400

DIPOLE MOMENT
-------------
                                X             Y             Z
Electronic contribution:     -4.24952      -3.98030      11.18315
Nuclear contribution   :      4.75678       4.09179     -12.84308
                        -----------------------------------------
Total Dipole Moment    :      0.50726       0.11149      -1.65993
                        -----------------------------------------
Magnitude (a.u.)       :      1.73928
Magnitude (Debye)      :      4.42090

                             ****ORCA TERMINATED NORMALLY****
TOTAL RUN TIME: 0 days 0 hours 20 minutes 46 seconds 683 msec
