                         Program Version 3.0.3 - RELEASE   -
|  1> ! RI-MP2 RIJK def2-TZVP def2-TZVP/C def2-TZVP/JK TIGHTSCF
|  2> % maxcore 2000
|  3> % mp2 density relaxed end
|  4> *xyz 0 1
|  5>  C        0.1890623582     1.5435255969    -0.0581292446
|  6>  C        0.0448427907     0.0425250961     0.0437743252
|  7>  C        0.4543252228    -0.7690474441    -1.1869121617
|  8>  O        0.7849140576    -2.0687659311    -0.7018655182
|  9>  C        1.4525952749    -1.8779982512     0.5346882668
| 10>  C        0.7121346512    -0.7253383866     1.2263715204
| 11>  O        1.4993604166     0.0572218424     2.0844762681
| 12>  C       -0.7381408894    -1.0330876492     1.6577811168
| 13>  O       -1.2744134337    -0.3567809578     0.5046706007
| 14>  H        1.2039298127     1.8215251488    -0.3570429769
| 15>  H       -0.5132429444     1.9371816965    -0.8004025035
| 16>  H       -0.0259157498     2.0123689781     0.9044503835
| 17>  H       -0.3587916113    -0.8725743257    -1.9090200992
| 18>  H        1.3240840476    -0.3046674990    -1.6795648635
| 19>  H        1.4236815398    -2.8266406640     1.0800549208
| 20>  H        2.5040736415    -1.5776949710     0.3902008164
| 21>  H        1.8023254099    -0.4924381723     2.8151371401
| 22>  H       -1.0241305147    -2.0915655769     1.6834476000
| 23>  H       -1.0278278401    -0.5436709196     2.5961862986
| 24> *
| 25>
| 26>                          ****END OF INPUT****

CARTESIAN COORDINATES (ANGSTROEM)
---------------------------------
  C      0.189062    1.543526   -0.058129
  C      0.044843    0.042525    0.043774
  C      0.454325   -0.769047   -1.186912
  O      0.784914   -2.068766   -0.701866
  C      1.452595   -1.877998    0.534688
  C      0.712135   -0.725338    1.226372
  O      1.499360    0.057222    2.084476
  C     -0.738141   -1.033088    1.657781
  O     -1.274413   -0.356781    0.504671
  H      1.203930    1.821525   -0.357043
  H     -0.513243    1.937182   -0.800403
  H     -0.025916    2.012369    0.904450
  H     -0.358792   -0.872574   -1.909020
  H      1.324084   -0.304667   -1.679565
  H      1.423682   -2.826641    1.080055
  H      2.504074   -1.577695    0.390201
  H      1.802325   -0.492438    2.815137
  H     -1.024131   -2.091566    1.683448
  H     -1.027828   -0.543671    2.596186

 Total Charge           Charge          ....    0
 Multiplicity           Mult            ....    1
 Number of Electrons    NEL             ....   70
 Basis Dimension        Dim             ....  339

ORBITAL ENERGIES
----------------

  NO   OCC          E(Eh)            E(eV)
   0   2.0000     -20.578452      -559.9681
   1   2.0000     -20.561850      -559.5164
   2   2.0000     -20.548739      -559.1596
   3   2.0000     -11.295151      -307.3567
   4   2.0000     -11.289071      -307.1912
   5   2.0000     -11.283103      -307.0289
   6   2.0000     -11.279396      -306.9280
   7   2.0000     -11.275438      -306.8203
   8   2.0000     -11.219106      -305.2874
   9   2.0000      -1.411017       -38.3957
  10   2.0000      -1.378439       -37.5092
  11   2.0000      -1.363633       -37.1063
  12   2.0000      -1.047318       -28.4990
  13   2.0000      -1.024166       -27.8690
  14   2.0000      -0.944406       -25.6986
  15   2.0000      -0.909914       -24.7600
  16   2.0000      -0.833411       -22.6783
  17   2.0000      -0.755220       -20.5506
  18   2.0000      -0.707009       -19.2387
  19   2.0000      -0.693227       -18.8637
  20   2.0000      -0.668714       -18.1966
  21   2.0000      -0.642154       -17.4739
  22   2.0000      -0.622366       -16.9354
  23   2.0000      -0.600306       -16.3351
  24   2.0000      -0.594528       -16.1779
  25   2.0000      -0.574067       -15.6212
  26   2.0000      -0.560802       -15.2602
  27   2.0000      -0.546802       -14.8792
  28   2.0000      -0.533841       -14.5265
  29   2.0000      -0.516821       -14.0634
  30   2.0000      -0.494872       -13.4662
  31   2.0000      -0.448272       -12.1981
  32   2.0000      -0.433165       -11.7870
  33   2.0000      -0.422358       -11.4929
  34   2.0000      -0.413162       -11.2427
  35   0.0000       0.121478         3.3056
  36   0.0000       0.150090         4.0842
  37   0.0000       0.167528         4.5587
  38   0.0000       0.181808         4.9473
  39   0.0000       0.188510         5.1296

MULLIKEN ATOMIC CHARGES
-----------------------
   0 C :   -0.402189
   1 C :    0.173148
   2 C :   -0.052647
   3 O :   -0.323589
   4 C :   -0.066665
   5 C :    0.148207
   6 O :   -0.452515
   7 C :   -0.061229
   8 O :   -0.334495
   9 H :    0.130455
  10 H :    0.142004
  11 H :    0.144757
  12 H :    0.127406
  13 H :    0.094101
  14 H :    0.119067
  15 H :    0.098387
  16 H :    0.324707
  17 H :    0.098001
  18 H :    0.093089
Sum of atomic charges:   -0.0000000

LOEWDIN ATOMIC CHARGES
----------------------
   0 C :   -0.264206
   1 C :   -0.306592
   2 C :   -0.259483
   3 O :    0.157142
   4 C :   -0.282668
   5 C :   -0.338658
   6 O :    0.024889
   7 C :   -0.236724
   8 O :    0.161638
   9 H :    0.132327
  10 H :    0.133873
  11 H :    0.135025
  12 H :    0.136501
  13 H :    0.127045
  14 H :    0.128923
  15 H :    0.126127
  16 H :    0.182417
  17 H :    0.121984
  18 H :    0.120439

  Mayer bond orders larger than 0.1
B(  0-C ,  1-C ) :   0.9043 B(  0-C ,  9-H ) :   0.9272 B(  0-C , 10-H ) :   0.9326
B(  0-C , 11-H ) :   0.9323 B(  1-C ,  2-C ) :   0.9572 B(  1-C ,  5-C ) :   0.8834
B(  1-C ,  8-O ) :   0.9194 B(  2-C ,  3-O ) :   0.9155 B(  2-C , 12-H ) :   0.9121
B(  2-C , 13-H ) :   0.9161 B(  3-O ,  4-C ) :   0.9541 B(  4-C ,  5-C ) :   0.9598
B(  4-C , 14-H ) :   0.9095 B(  4-C , 15-H ) :   0.9236 B(  5-C ,  6-O ) :   1.0551
B(  5-C ,  7-C ) :   0.9945 B(  6-O , 16-H ) :   0.8362 B(  7-C ,  8-O ) :   0.9709
B(  7-C , 17-H ) :   0.9005 B(  7-C , 18-H ) :   0.9001

MP2 TOTAL ENERGY:     -459.419882116 Eh
FINAL SINGLE POINT ENERGY      -459.419882116018

DIPOLE MOMENT
-------------
                                X             Y             Z
Electronic contribution:     -0.95008      -2.67143       0.62968
Nuclear contribution   :      1.59741       2.62010      -0.00165
                        -----------------------------------------
Total Dipole Moment    :      0.64733      -0.05133       0.62804
                        -----------------------------------------
Magnitude (a.u.)       :      0.90338
Magnitude (Debye)      :      2.29622

                             ****ORCA TERMINATED NORMALLY****
TOTAL RUN TIME: 0 days 0 hours 17 minutes 35 seconds 23 msec
