                         Program Version 3.0.3 - RELEASE   -
|  1> ! RI-MP2 RIJK def2-TZVP def2-TZVP/C def2-TZVP/JK TIGHTSCF
|  2> % maxcore 2000
|  3> % mp2 density relaxed end
|  4> *xyz 0 1
|  5>  C        0.2219507304     1.2891578051     0.2251641506
|  6>  O       -0.3046272629     0.0837774519    -0.2906411205
|  7>  C        0.4800516826    -0.4829370972    -1.2826378123
|  8>  C        1.7425933290    -1.3227646037    -0.8826359568
|  9>  N        0.7647264558    -2.3421579065    -0.3033502977
| 10>  C        0.0956936954    -1.9477715675    -1.6367418091
| 11>  C       -1.2260187846    -2.4884427513    -2.0798216671
| 12>  C        1.5287544834    -2.0850574364    -2.2044446447
| 13>  O        2.1352050961    -2.6779484424    -3.0451799133
| 14>  H        1.1785656089     1.1277925630     0.7420161274
| 15>  H        0.3757289137     2.0364944398    -0.5685773023
| 16>  H       -0.5062067184     1.6766059200     0.9406707684
| 17>  H        0.6258305948     0.1998888865    -2.1316041881
| 18>  H        2.6477401765    -1.0262690377    -0.3583384650
| 19>  H        1.1536634607    -3.2884324144    -0.3602981660
| 20>  H       -2.0070238058    -2.2202572305    -1.3628969225
| 21>  H       -1.4935676072    -2.0751018189    -3.0571994762
| 22>  H       -1.1929037585    -3.5783059601    -2.1729193248
| 23> *
| 24>
| 25>                          ****END OF INPUT****

CARTESIAN COORDINATES (ANGSTROEM)
---------------------------------
  C      0.221951    1.289158    0.225164
  O     -0.304627    0.083777   -0.290641
  C      0.480052   -0.482937   -1.282638
  C      1.742593   -1.322765   -0.882636
  N      0.764726   -2.342158   -0.303350
  C      0.095694   -1.947772   -1.636742
  C     -1.226019   -2.488443   -2.079822
  C      1.528754   -2.085057   -2.204445
  O      2.135205   -2.677948   -3.045180
  H      1.178566    1.127793    0.742016
  H      0.375729    2.036494   -0.568577
  H     -0.506207    1.676606    0.940671
  H      0.625831    0.199889   -2.131604
  H      2.647740   -1.026269   -0.358338
  H      1.153663   -3.288432   -0.360298
  H     -2.007024   -2.220257   -1.362897
  H     -1.493568   -2.075102   -3.057199
  H     -1.192904   -3.578306   -2.172919

 Total Charge           Charge          ....    0
 Multiplicity           Mult            ....    1
 Number of Electrons    NEL             ....   68
 Basis Dimension        Dim             ....  333

ORBITAL ENERGIES
----------------

  NO   OCC          E(Eh)            E(eV)
   0   2.0000     -20.572252      -559.7994
   1   2.0000     -20.559385      -559.4493
   2   2.0000     -15.582418      -424.0191
   3   2.0000     -11.347161      -308.7719
   4   2.0000     -11.311388      -307.7985
   5   2.0000     -11.296409      -307.3909
   6   2.0000     -11.290873      -307.2403
   7   2.0000     -11.283066      -307.0278
   8   2.0000     -11.233555      -305.6806
   9   2.0000      -1.410515       -38.3821
  10   2.0000      -1.398919       -38.0665
  11   2.0000      -1.291597       -35.1462
  12   2.0000      -1.030351       -28.0373
  13   2.0000      -1.007746       -27.4222
  14   2.0000      -0.950221       -25.8568
  15   2.0000      -0.857809       -23.3422
  16   2.0000      -0.835943       -22.7472
  17   2.0000      -0.752777       -20.4841
  18   2.0000      -0.682719       -18.5777
  19   2.0000      -0.672339       -18.2953
  20   2.0000      -0.655466       -17.8361
  21   2.0000      -0.644549       -17.5391
  22   2.0000      -0.622384       -16.9359
  23   2.0000      -0.617435       -16.8013
  24   2.0000      -0.587942       -15.9987
  25   2.0000      -0.563507       -15.3338
  26   2.0000      -0.557180       -15.1616
  27   2.0000      -0.523545       -14.2464
  28   2.0000      -0.507467       -13.8089
  29   2.0000      -0.495456       -13.4820
  30   2.0000      -0.468274       -12.7424
  31   2.0000      -0.435238       -11.8434
  32   2.0000      -0.412555       -11.2262
  33   2.0000      -0.393103       -10.6969
  34   0.0000       0.133196         3.6244
  35   0.0000       0.141271         3.8442
  36   0.0000       0.144960         3.9446
  37   0.0000       0.167983         4.5711
  38   0.0000       0.181506         4.9390

MULLIKEN ATOMIC CHARGES
-----------------------
   0 C :   -0.217745
   1 O :   -0.295907
   2 C :    0.092286
   3 C :   -0.111260
   4 N :   -0.280937
   5 C :    0.016282
   6 C :   -0.419658
   7 C :    0.163744
   8 O :   -0.258010
   9 H :    0.117473
  10 H :    0.113201
  11 H :    0.146481
  12 H :    0.104375
  13 H :    0.163320
  14 H :    0.216661
  15 H :    0.163352
  16 H :    0.142892
  17 H :    0.143452
Sum of atomic charges:   -0.0000000

LOEWDIN ATOMIC CHARGES
----------------------
   0 C :   -0.342723
   1 O :    0.184536
   2 C :   -0.265945
   3 C :   -0.178950
   4 N :    0.069585
   5 C :   -0.228307
   6 C :   -0.269133
   7 C :   -0.291625
   8 O :    0.152738
   9 H :    0.104559
  10 H :    0.103458
  11 H :    0.116270
  12 H :    0.137060
  13 H :    0.127821
  14 H :    0.166246
  15 H :    0.140384
  16 H :    0.138308
  17 H :    0.135719

  Mayer bond orders larger than 0.1
B(  0-C ,  1-O ) :   0.9034 B(  0-C ,  9-H ) :   0.9343 B(  0-C , 10-H ) :   0.9343
B(  0-C , 11-H ) :   0.9407 B(  1-O ,  2-C ) :   0.9942 B(  2-C ,  3-C ) :   0.8843
B(  2-C ,  5-C ) :   0.8476 B(  2-C , 12-H ) :   0.9260 B(  3-C ,  4-N ) :   0.9862
B(  3-C ,  7-C ) :   0.9155 B(  3-C , 13-H ) :   0.8668 B(  4-N ,  5-C ) :   0.9523
B(  4-N , 14-H ) :   0.8849 B(  5-C ,  6-C ) :   0.8368 B(  5-C ,  7-C ) :   0.9132
B(  6-C , 15-H ) :   0.9474 B(  6-C , 16-H ) :   0.9324 B(  6-C , 17-H ) :   0.9342
B(  7-C ,  8-O ) :   2.0502

MP2 TOTAL ENERGY:     -438.295154180 Eh
FINAL SINGLE POINT ENERGY      -438.295154179537

DIPOLE MOMENT
-------------
                                X             Y             Z
Electronic contribution:      4.07432      -3.67411      -2.49764
Nuclear contribution   :     -4.23232       4.31605       2.83354
                        -----------------------------------------
Total Dipole Moment    :     -0.15800       0.64194       0.33590
                        -----------------------------------------
Magnitude (a.u.)       :      0.74154
Magnitude (Debye)      :      1.88485

                             ****ORCA TERMINATED NORMALLY****
TOTAL RUN TIME: 0 days 0 hours 28 minutes 48 seconds 95 msec
