                         Program Version 3.0.3 - RELEASE   -
|  1> ! RI-MP2 RIJK def2-TZVP def2-TZVP/C def2-TZVP/JK TIGHTSCF
|  2> % maxcore 2000
|  3> % mp2 density relaxed end
|  4> *xyz 0 1
|  5>  N        0.2734874136     0.7767365994     0.9197732903
|  6>  C       -0.0458239816     0.1319749916    -0.2336337579
|  7>  O        0.6243692324     0.1299841501    -1.2426175018
|  8>  C       -1.3455100066    -0.6674581947    -0.1350508329
|  9>  C       -1.4217443119    -1.7356630559     0.8923946263
| 10>  O       -2.0906686197    -0.4955551033     1.0903995364
| 11>  C       -2.1128353556    -0.7772827534    -1.3463576999
| 12>  C       -2.7643030813    -0.8607406672    -2.3513339439
| 13>  H        1.0792193439     1.3800363917     0.9157782391
| 14>  H       -0.4224348393     0.8709485750     1.6413760662
| 15>  H       -2.0671947193    -2.5903779286     0.7039784059
| 16>  H       -0.5564806409    -1.9121057449     1.5284292232
| 17>  H       -3.3329467138    -0.9316733797    -3.2456865710
| 18> *
| 19>
| 20>                          ****END OF INPUT****

CARTESIAN COORDINATES (ANGSTROEM)
---------------------------------
  N      0.273487    0.776737    0.919773
  C     -0.045824    0.131975   -0.233634
  O      0.624369    0.129984   -1.242618
  C     -1.345510   -0.667458   -0.135051
  C     -1.421744   -1.735663    0.892395
  O     -2.090669   -0.495555    1.090400
  C     -2.112835   -0.777283   -1.346358
  C     -2.764303   -0.860741   -2.351334
  H      1.079219    1.380036    0.915778
  H     -0.422435    0.870949    1.641376
  H     -2.067195   -2.590378    0.703978
  H     -0.556481   -1.912106    1.528429
  H     -3.332947   -0.931673   -3.245687

 Total Charge           Charge          ....    0
 Multiplicity           Mult            ....    1
 Number of Electrons    NEL             ....   58
 Basis Dimension        Dim             ....  278

ORBITAL ENERGIES
----------------

  NO   OCC          E(Eh)            E(eV)
   0   2.0000     -20.608336      -560.7813
   1   2.0000     -20.532263      -558.7113
   2   2.0000     -15.592247      -424.2866
   3   2.0000     -11.369833      -309.3889
   4   2.0000     -11.343704      -308.6779
   5   2.0000     -11.320062      -308.0346
   6   2.0000     -11.248206      -306.0792
   7   2.0000     -11.242667      -305.9285
   8   2.0000      -1.453303       -39.5464
   9   2.0000      -1.395130       -37.9634
  10   2.0000      -1.223926       -33.3047
  11   2.0000      -1.066764       -29.0281
  12   2.0000      -0.980608       -26.6837
  13   2.0000      -0.922461       -25.1014
  14   2.0000      -0.837135       -22.7796
  15   2.0000      -0.766535       -20.8585
  16   2.0000      -0.735461       -20.0129
  17   2.0000      -0.706506       -19.2250
  18   2.0000      -0.691585       -18.8190
  19   2.0000      -0.646122       -17.5819
  20   2.0000      -0.603262       -16.4156
  21   2.0000      -0.601418       -16.3654
  22   2.0000      -0.587733       -15.9930
  23   2.0000      -0.512337       -13.9414
  24   2.0000      -0.493404       -13.4262
  25   2.0000      -0.443377       -12.0649
  26   2.0000      -0.427623       -11.6362
  27   2.0000      -0.409799       -11.1512
  28   2.0000      -0.391813       -10.6618
  29   0.0000       0.133961         3.6453
  30   0.0000       0.134893         3.6706
  31   0.0000       0.160408         4.3649
  32   0.0000       0.163512         4.4494
  33   0.0000       0.170543         4.6407

MULLIKEN ATOMIC CHARGES
-----------------------
   0 N :   -0.483651
   1 C :    0.227056
   2 O :   -0.321807
   3 C :   -0.039885
   4 C :   -0.060524
   5 O :   -0.333297
   6 C :    0.060315
   7 C :   -0.070376
   8 H :    0.259735
   9 H :    0.285119
  10 H :    0.140164
  11 H :    0.137716
  12 H :    0.199434
Sum of atomic charges:    0.0000000

LOEWDIN ATOMIC CHARGES
----------------------
   0 N :   -0.001848
   1 C :   -0.445377
   2 O :    0.113039
   3 C :   -0.270058
   4 C :   -0.211341
   5 O :    0.177035
   6 C :   -0.055665
   7 C :   -0.052610
   8 H :    0.176883
   9 H :    0.180056
  10 H :    0.131189
  11 H :    0.127942
  12 H :    0.130756

  Mayer bond orders larger than 0.1
B(  0-N ,  1-C ) :   1.1875 B(  0-N ,  8-H ) :   0.8610 B(  0-N ,  9-H ) :   0.8468
B(  1-C ,  2-O ) :   2.0147 B(  1-C ,  3-C ) :   0.9055 B(  3-C ,  4-C ) :   0.9425
B(  3-C ,  5-O ) :   0.8593 B(  3-C ,  6-C ) :   1.2018 B(  3-C ,  7-C ) :  -0.1629
B(  4-C ,  5-O ) :   0.8765 B(  4-C , 10-H ) :   0.9189 B(  4-C , 11-H ) :   0.9008
B(  6-C ,  7-C ) :   2.5782 B(  7-C , 12-H ) :   0.8808

MP2 TOTAL ENERGY:     -397.913400253 Eh
FINAL SINGLE POINT ENERGY      -397.913400253448

DIPOLE MOMENT
-------------
                                X             Y             Z
Electronic contribution:     -0.18935       0.91243      -1.63368
Nuclear contribution   :     -0.00104      -1.06774       2.56227
                        -----------------------------------------
Total Dipole Moment    :     -0.19039      -0.15531       0.92859
                        -----------------------------------------
Magnitude (a.u.)       :      0.96055
Magnitude (Debye)      :      2.44151

                             ****ORCA TERMINATED NORMALLY****
TOTAL RUN TIME: 0 days 0 hours 9 minutes 42 seconds 929 msec
