                         Program Version 3.0.3 - RELEASE   -
|  1> ! RI-MP2 RIJK def2-TZVP def2-TZVP/C def2-TZVP/JK TIGHTSCF
|  2> % maxcore 2000
|  3> % mp2 density relaxed end
|  4> *xyz 0 1
|  5>  C       -0.3612414464     1.4188591790    -0.3475283796
|  6>  C        0.0604888989    -0.0363971718    -0.1701021291
|  7>  O        1.0553147522    -0.4051698171    -1.1395144062
|  8>  C        0.5764083411    -0.3555732262     1.2518836094
|  9>  C        0.6339772413    -1.8768983250     1.4862808130
| 10>  O        1.4567580801    -2.5828184055     0.5772000727
| 11>  N        1.8192598395     0.4127461107     1.4503092010
| 12>  C        2.4381296636     0.4176593932     2.7696857438
| 13>  C        3.1124396817    -0.2618712442     1.6339666565
| 14>  H        0.4582333114     2.0867354703    -0.0671430720
| 15>  H       -0.6351594526     1.6043859093    -1.3895297793
| 16>  H       -1.2239907398     1.6537468960     0.2846451892
| 17>  H       -0.7912009400    -0.6916181729    -0.3868491330
| 18>  H        1.8288949959     0.1387956603    -0.9414274541
| 19>  H       -0.1579817881     0.0443673547     1.9643259498
| 20>  H        1.0069621777    -2.0941890773     2.4956767322
| 21>  H       -0.4040022224    -2.2506695714     1.4529133296
| 22>  H        1.4128142535    -2.1104687691    -0.2688424991
| 23>  H        2.7817595478     1.3858013307     3.1250781430
| 24>  H        2.0059786295    -0.2176422976     3.5410705423
| 25>  H        3.1358603017    -1.3455762761     1.6182938777
| 26>  H        3.9505637135     0.2224560602     1.1383688423
| 27> *
| 28>
| 29>                          ****END OF INPUT****

CARTESIAN COORDINATES (ANGSTROEM)
---------------------------------
  C     -0.361241    1.418859   -0.347528
  C      0.060489   -0.036397   -0.170102
  O      1.055315   -0.405170   -1.139514
  C      0.576408   -0.355573    1.251884
  C      0.633977   -1.876898    1.486281
  O      1.456758   -2.582818    0.577200
  N      1.819260    0.412746    1.450309
  C      2.438130    0.417659    2.769686
  C      3.112440   -0.261871    1.633967
  H      0.458233    2.086735   -0.067143
  H     -0.635159    1.604386   -1.389530
  H     -1.223991    1.653747    0.284645
  H     -0.791201   -0.691618   -0.386849
  H      1.828895    0.138796   -0.941427
  H     -0.157982    0.044367    1.964326
  H      1.006962   -2.094189    2.495677
  H     -0.404002   -2.250670    1.452913
  H      1.412814   -2.110469   -0.268842
  H      2.781760    1.385801    3.125078
  H      2.005979   -0.217642    3.541071
  H      3.135860   -1.345576    1.618294
  H      3.950564    0.222456    1.138369

 Total Charge           Charge          ....    0
 Multiplicity           Mult            ....    1
 Number of Electrons    NEL             ....   72
 Basis Dimension        Dim             ....  357

ORBITAL ENERGIES
----------------

  NO   OCC          E(Eh)            E(eV)
   0   2.0000     -20.564482      -559.5880
   1   2.0000     -20.540562      -558.9371
   2   2.0000     -15.565014      -423.5456
   3   2.0000     -11.286324      -307.1165
   4   2.0000     -11.276103      -306.8384
   5   2.0000     -11.266094      -306.5660
   6   2.0000     -11.259414      -306.3842
   7   2.0000     -11.255757      -306.2847
   8   2.0000     -11.215673      -305.1940
   9   2.0000      -1.375115       -37.4188
  10   2.0000      -1.346807       -36.6485
  11   2.0000      -1.272945       -34.6386
  12   2.0000      -1.068255       -29.0687
  13   2.0000      -0.984786       -26.7974
  14   2.0000      -0.909869       -24.7588
  15   2.0000      -0.856972       -23.3194
  16   2.0000      -0.847637       -23.0654
  17   2.0000      -0.778238       -21.1769
  18   2.0000      -0.703177       -19.1344
  19   2.0000      -0.699955       -19.0468
  20   2.0000      -0.658306       -17.9134
  21   2.0000      -0.646861       -17.6020
  22   2.0000      -0.618285       -16.8244
  23   2.0000      -0.605588       -16.4789
  24   2.0000      -0.597620       -16.2621
  25   2.0000      -0.583710       -15.8836
  26   2.0000      -0.549477       -14.9520
  27   2.0000      -0.532611       -14.4931
  28   2.0000      -0.525953       -14.3119
  29   2.0000      -0.515085       -14.0162
  30   2.0000      -0.502422       -13.6716
  31   2.0000      -0.471241       -12.8231
  32   2.0000      -0.453909       -12.3515
  33   2.0000      -0.446072       -12.1382
  34   2.0000      -0.427689       -11.6380
  35   2.0000      -0.375364       -10.2142
  36   0.0000       0.135416         3.6848
  37   0.0000       0.147946         4.0258
  38   0.0000       0.158482         4.3125
  39   0.0000       0.171171         4.6578
  40   0.0000       0.187323         5.0973

MULLIKEN ATOMIC CHARGES
-----------------------
   0 C :   -0.411061
   1 C :    0.136680
   2 O :   -0.506835
   3 C :   -0.125958
   4 C :   -0.010809
   5 O :   -0.494242
   6 N :   -0.254815
   7 C :   -0.190167
   8 C :   -0.207784
   9 H :    0.141131
  10 H :    0.145420
  11 H :    0.120455
  12 H :    0.107727
  13 H :    0.333276
  14 H :    0.106789
  15 H :    0.112771
  16 H :    0.105200
  17 H :    0.339951
  18 H :    0.131763
  19 H :    0.121192
  20 H :    0.170048
  21 H :    0.129268
Sum of atomic charges:    0.0000000

LOEWDIN ATOMIC CHARGES
----------------------
   0 C :   -0.303427
   1 C :   -0.341845
   2 O :   -0.026708
   3 C :   -0.294881
   4 C :   -0.338861
   5 O :   -0.051022
   6 N :    0.101330
   7 C :   -0.268766
   8 C :   -0.266087
   9 H :    0.127050
  10 H :    0.126634
  11 H :    0.125760
  12 H :    0.147519
  13 H :    0.181954
  14 H :    0.159808
  15 H :    0.126397
  16 H :    0.123633
  17 H :    0.169689
  18 H :    0.123653
  19 H :    0.123125
  20 H :    0.132452
  21 H :    0.122593

  Mayer bond orders larger than 0.1
B(  0-C ,  1-C ) :   0.9311 B(  0-C ,  9-H ) :   0.9236 B(  0-C , 10-H ) :   0.9401
B(  0-C , 11-H ) :   0.9313 B(  1-C ,  2-O ) :   0.8381 B(  1-C ,  3-C ) :   0.8861
B(  1-C , 12-H ) :   0.9304 B(  2-O , 13-H ) :   0.8284 B(  3-C ,  4-C ) :   0.9361
B(  3-C ,  6-N ) :   0.9054 B(  3-C , 14-H ) :   0.9157 B(  4-C ,  5-O ) :   0.9203
B(  4-C , 15-H ) :   0.9490 B(  4-C , 16-H ) :   0.9134 B(  5-O , 17-H ) :   0.8012
B(  6-N ,  7-C ) :   0.8965 B(  6-N ,  8-C ) :   0.8442 B(  7-C ,  8-C ) :   0.9390
B(  7-C , 18-H ) :   0.9251 B(  7-C , 19-H ) :   0.9238 B(  8-C , 20-H ) :   0.9141
B(  8-C , 21-H ) :   0.9346

MP2 TOTAL ENERGY:     -440.734634151 Eh
FINAL SINGLE POINT ENERGY      -440.734634150812

DIPOLE MOMENT
-------------
                                X             Y             Z
Electronic contribution:      1.80698      -2.62849      -1.55946
Nuclear contribution   :     -2.02599       3.32541       2.13401
                        -----------------------------------------
Total Dipole Moment    :     -0.21900       0.69692       0.57455
                        -----------------------------------------
Magnitude (a.u.)       :      0.92939
Magnitude (Debye)      :      2.36232

                             ****ORCA TERMINATED NORMALLY****
TOTAL RUN TIME: 0 days 0 hours 19 minutes 3 seconds 387 msec
