                         Program Version 3.0.3 - RELEASE   -
|  1> ! RI-MP2 RIJK def2-TZVP def2-TZVP/C def2-TZVP/JK TIGHTSCF
|  2> % maxcore 2000
|  3> % mp2 density relaxed end
|  4> *xyz 0 1
|  5>  C        0.0823059428     1.3330169978     0.2937045760
|  6>  O        0.0379499962    -0.0458011803     0.0208514841
|  7>  C       -1.2738252176    -0.5625368211     0.0280910764
|  8>  C       -1.1865514510    -2.0581817766    -0.2021919079
|  9>  O       -0.7749624336    -2.8041026821     0.9684400642
| 10>  C       -2.0204573772    -3.5263885691     1.0208453105
| 11>  C       -2.5225327829    -2.8296811345    -0.2661993566
| 12>  O       -3.6494240210    -2.0033180024    -0.1555349218
| 13>  C       -4.8667014493    -2.7174986915    -0.1459665745
| 14>  H        1.1308874205     1.6393116089     0.2637741828
| 15>  H       -0.4804173306     1.9171160927    -0.4527435982
| 16>  H       -0.3279928480     1.5668420486     1.2889676324
| 17>  H       -1.7768552115    -0.3586633368     0.9851757455
| 18>  H       -1.8842172120    -0.1069937204    -0.7699406354
| 19>  H       -0.5049468682    -2.2459890939    -1.0408825546
| 20>  H       -1.8705278935    -4.6114000664     0.9678858520
| 21>  H       -2.6085010000    -3.2809108593     1.9150332408
| 22>  H       -2.6202527847    -3.4993490473    -1.1323884627
| 23>  H       -4.9911191762    -3.3129392268    -1.0637120502
| 24>  H       -4.9401022754    -3.3947677794     0.7179487271
| 25>  H       -5.6729673769    -1.9832240300    -0.0860674699
| 26> *
| 27>
| 28>                          ****END OF INPUT****

CARTESIAN COORDINATES (ANGSTROEM)
---------------------------------
  C      0.082306    1.333017    0.293705
  O      0.037950   -0.045801    0.020851
  C     -1.273825   -0.562537    0.028091
  C     -1.186551   -2.058182   -0.202192
  O     -0.774962   -2.804103    0.968440
  C     -2.020457   -3.526389    1.020845
  C     -2.522533   -2.829681   -0.266199
  O     -3.649424   -2.003318   -0.155535
  C     -4.866701   -2.717499   -0.145967
  H      1.130887    1.639312    0.263774
  H     -0.480417    1.917116   -0.452744
  H     -0.327993    1.566842    1.288968
  H     -1.776855   -0.358663    0.985176
  H     -1.884217   -0.106994   -0.769941
  H     -0.504947   -2.245989   -1.040883
  H     -1.870528   -4.611400    0.967886
  H     -2.608501   -3.280911    1.915033
  H     -2.620253   -3.499349   -1.132388
  H     -4.991119   -3.312939   -1.063712
  H     -4.940102   -3.394768    0.717949
  H     -5.672967   -1.983224   -0.086067

 Total Charge           Charge          ....    0
 Multiplicity           Mult            ....    1
 Number of Electrons    NEL             ....   72
 Basis Dimension        Dim             ....  351

ORBITAL ENERGIES
----------------

  NO   OCC          E(Eh)            E(eV)
   0   2.0000     -20.569924      -559.7361
   1   2.0000     -20.549797      -559.1884
   2   2.0000     -20.545152      -559.0620
   3   2.0000     -11.290169      -307.2211
   4   2.0000     -11.282862      -307.0223
   5   2.0000     -11.279165      -306.9217
   6   2.0000     -11.277410      -306.8739
   7   2.0000     -11.268440      -306.6298
   8   2.0000     -11.265610      -306.5528
   9   2.0000      -1.401958       -38.1492
  10   2.0000      -1.375271       -37.4230
  11   2.0000      -1.362686       -37.0806
  12   2.0000      -1.030477       -28.0407
  13   2.0000      -0.992375       -27.0039
  14   2.0000      -0.926336       -25.2069
  15   2.0000      -0.908141       -24.7118
  16   2.0000      -0.854308       -23.2469
  17   2.0000      -0.759813       -20.6756
  18   2.0000      -0.712902       -19.3990
  19   2.0000      -0.687510       -18.7081
  20   2.0000      -0.669247       -18.2111
  21   2.0000      -0.654817       -17.8185
  22   2.0000      -0.628459       -17.1012
  23   2.0000      -0.624782       -17.0012
  24   2.0000      -0.607587       -16.5333
  25   2.0000      -0.591270       -16.0893
  26   2.0000      -0.584962       -15.9176
  27   2.0000      -0.543173       -14.7805
  28   2.0000      -0.524231       -14.2650
  29   2.0000      -0.512924       -13.9574
  30   2.0000      -0.494771       -13.4634
  31   2.0000      -0.478121       -13.0103
  32   2.0000      -0.456196       -12.4137
  33   2.0000      -0.427122       -11.6226
  34   2.0000      -0.413860       -11.2617
  35   2.0000      -0.411492       -11.1973
  36   0.0000       0.136731         3.7206
  37   0.0000       0.153263         4.1705
  38   0.0000       0.164123         4.4660
  39   0.0000       0.175194         4.7673
  40   0.0000       0.189447         5.1551

MULLIKEN ATOMIC CHARGES
-----------------------
   0 C :   -0.213304
   1 O :   -0.295555
   2 C :   -0.072423
   3 C :    0.150930
   4 O :   -0.325020
   5 C :   -0.031711
   6 C :    0.003446
   7 O :   -0.299805
   8 C :   -0.229607
   9 H :    0.138863
  10 H :    0.107144
  11 H :    0.112253
  12 H :    0.097840
  13 H :    0.098110
  14 H :    0.094687
  15 H :    0.098986
  16 H :    0.094796
  17 H :    0.092409
  18 H :    0.116657
  19 H :    0.116753
  20 H :    0.144553
Sum of atomic charges:   -0.0000000

LOEWDIN ATOMIC CHARGES
----------------------
   0 C :   -0.362019
   1 O :    0.139463
   2 C :   -0.312076
   3 C :   -0.257921
   4 O :    0.139029
   5 C :   -0.261413
   6 C :   -0.298867
   7 O :    0.162479
   8 C :   -0.350172
   9 H :    0.113326
  10 H :    0.100065
  11 H :    0.101656
  12 H :    0.127340
  13 H :    0.127046
  14 H :    0.141869
  15 H :    0.116180
  16 H :    0.120646
  17 H :    0.130661
  18 H :    0.103846
  19 H :    0.103373
  20 H :    0.115490

  Mayer bond orders larger than 0.1
B(  0-C ,  1-O ) :   0.9212 B(  0-C ,  9-H ) :   0.9397 B(  0-C , 10-H ) :   0.9359
B(  0-C , 11-H ) :   0.9372 B(  1-O ,  2-C ) :   0.9510 B(  2-C ,  3-C ) :   0.9497
B(  2-C , 12-H ) :   0.9152 B(  2-C , 13-H ) :   0.9123 B(  3-C ,  4-O ) :   0.9512
B(  3-C ,  6-C ) :   0.9241 B(  3-C , 14-H ) :   0.9127 B(  4-O ,  5-C ) :   0.9671
B(  5-C ,  6-C ) :   0.9747 B(  5-C , 15-H ) :   0.9105 B(  5-C , 16-H ) :   0.8959
B(  6-C ,  7-O ) :   0.9802 B(  6-C , 17-H ) :   0.9326 B(  7-O ,  8-C ) :   0.9076
B(  8-C , 18-H ) :   0.9357 B(  8-C , 19-H ) :   0.9340 B(  8-C , 20-H ) :   0.9401

MP2 TOTAL ENERGY:     -460.571597393 Eh
FINAL SINGLE POINT ENERGY      -460.571597392640

DIPOLE MOMENT
-------------
                                X             Y             Z
Electronic contribution:      3.45086      -2.30378       0.19526
Nuclear contribution   :     -4.57191       2.15670      -0.51933
                        -----------------------------------------
Total Dipole Moment    :     -1.12105      -0.14708      -0.32407
                        -----------------------------------------
Magnitude (a.u.)       :      1.17618
Magnitude (Debye)      :      2.98961

                             ****ORCA TERMINATED NORMALLY****
TOTAL RUN TIME: 0 days 0 hours 14 minutes 43 seconds 567 msec
