                         Program Version 3.0.3 - RELEASE   -
|  1> ! RI-MP2 RIJK def2-TZVP def2-TZVP/C def2-TZVP/JK TIGHTSCF
|  2> % maxcore 2000
|  3> % mp2 density relaxed end
|  4> *xyz 0 1
|  5>  O        0.0410879891     0.0943574184     0.6512101689
|  6>  C       -0.0244836554     1.1616839115     0.1091807579
|  7>  C       -1.3218828285     1.9071156407    -0.1632328022
|  8>  C       -1.1131767149     3.2387039846    -0.8633996086
|  9>  C       -0.0774459609     3.2691168427    -2.0356263662
| 10>  C        0.0898847179     4.7870651585    -1.7586237336
| 11>  C        0.0647204523     4.1322704250    -0.3516727586
| 12>  C        1.0050478902     3.0509231290    -0.9459765431
| 13>  O        1.1084733352     1.7836031531    -0.3051319453
| 14>  H       -1.9605936843     1.2395554625    -0.7527626848
| 15>  H       -1.8294355556     2.0352740792     0.7996289760
| 16>  H       -2.0529415065     3.7654378651    -1.0540313506
| 17>  H       -0.1514957162     2.7678004331    -3.0010593039
| 18>  H        1.0294858194     5.2479896922    -2.0742073740
| 19>  H       -0.7687725299     5.4137920479    -2.0073787429
| 20>  H        0.1540412486     4.6228345494     0.6179823703
| 21>  H        2.0288710194     3.3434075270    -1.1823126193
| 22> *
| 23>
| 24>                          ****END OF INPUT****

CARTESIAN COORDINATES (ANGSTROEM)
---------------------------------
  O      0.041088    0.094357    0.651210
  C     -0.024484    1.161684    0.109181
  C     -1.321883    1.907116   -0.163233
  C     -1.113177    3.238704   -0.863400
  C     -0.077446    3.269117   -2.035626
  C      0.089885    4.787065   -1.758624
  C      0.064720    4.132270   -0.351673
  C      1.005048    3.050923   -0.945977
  O      1.108473    1.783603   -0.305132
  H     -1.960594    1.239555   -0.752763
  H     -1.829436    2.035274    0.799629
  H     -2.052942    3.765438   -1.054031
  H     -0.151496    2.767800   -3.001059
  H      1.029486    5.247990   -2.074207
  H     -0.768773    5.413792   -2.007379
  H      0.154041    4.622835    0.617982
  H      2.028871    3.343408   -1.182313

 Total Charge           Charge          ....    0
 Multiplicity           Mult            ....    1
 Number of Electrons    NEL             ....   66
 Basis Dimension        Dim             ....  327

ORBITAL ENERGIES
----------------

  NO   OCC          E(Eh)            E(eV)
   0   2.0000     -20.598884      -560.5241
   1   2.0000     -20.533401      -558.7422
   2   2.0000     -11.376819      -309.5790
   3   2.0000     -11.312285      -307.8229
   4   2.0000     -11.263513      -306.4958
   5   2.0000     -11.262971      -306.4810
   6   2.0000     -11.262735      -306.4746
   7   2.0000     -11.252114      -306.1856
   8   2.0000     -11.251927      -306.1805
   9   2.0000      -1.455845       -39.6156
  10   2.0000      -1.361913       -37.0595
  11   2.0000      -1.232348       -33.5339
  12   2.0000      -1.053569       -28.6691
  13   2.0000      -0.933911       -25.4130
  14   2.0000      -0.888341       -24.1730
  15   2.0000      -0.885859       -24.1055
  16   2.0000      -0.829337       -22.5674
  17   2.0000      -0.707428       -19.2501
  18   2.0000      -0.702124       -19.1058
  19   2.0000      -0.677406       -18.4332
  20   2.0000      -0.672019       -18.2866
  21   2.0000      -0.654128       -17.7997
  22   2.0000      -0.605756       -16.4835
  23   2.0000      -0.596236       -16.2244
  24   2.0000      -0.572049       -15.5662
  25   2.0000      -0.561051       -15.2670
  26   2.0000      -0.507632       -13.8134
  27   2.0000      -0.484308       -13.1787
  28   2.0000      -0.474219       -12.9042
  29   2.0000      -0.466837       -12.7033
  30   2.0000      -0.457114       -12.4387
  31   2.0000      -0.427506       -11.6330
  32   2.0000      -0.426386       -11.6025
  33   0.0000       0.132437         3.6038
  34   0.0000       0.143251         3.8981
  35   0.0000       0.150225         4.0878
  36   0.0000       0.161651         4.3988
  37   0.0000       0.168461         4.5841

MULLIKEN ATOMIC CHARGES
-----------------------
   0 O :   -0.281128
   1 C :    0.230988
   2 C :   -0.262107
   3 C :   -0.093009
   4 C :   -0.137055
   5 C :   -0.235557
   6 C :   -0.137043
   7 C :    0.064866
   8 O :   -0.228502
   9 H :    0.148571
  10 H :    0.148587
  11 H :    0.115038
  12 H :    0.144863
  13 H :    0.125396
  14 H :    0.124003
  15 H :    0.144866
  16 H :    0.127223
Sum of atomic charges:    0.0000000

LOEWDIN ATOMIC CHARGES
----------------------
   0 O :    0.137318
   1 C :   -0.460792
   2 C :   -0.213029
   3 C :   -0.178396
   4 C :   -0.145082
   5 C :   -0.189252
   6 C :   -0.145083
   7 C :   -0.226519
   8 O :    0.280487
   9 H :    0.161563
  10 H :    0.161569
  11 H :    0.147144
  12 H :    0.129753
  13 H :    0.131530
  14 H :    0.134033
  15 H :    0.129753
  16 H :    0.145003

  Mayer bond orders larger than 0.1
B(  0-O ,  1-C ) :   2.0454 B(  1-C ,  2-C ) :   0.9636 B(  1-C ,  8-O ) :   1.1181
B(  2-C ,  3-C ) :   0.8954 B(  2-C ,  9-H ) :   0.9046 B(  2-C , 10-H ) :   0.9046
B(  3-C ,  4-C ) :   0.8725 B(  3-C ,  6-C ) :   0.8724 B(  3-C , 11-H ) :   0.9120
B(  4-C ,  5-C ) :   0.8966 B(  4-C ,  7-C ) :   0.8741 B(  4-C , 12-H ) :   0.8938
B(  5-C ,  6-C ) :   0.8966 B(  5-C , 13-H ) :   0.9287 B(  5-C , 14-H ) :   0.9249
B(  6-C ,  7-C ) :   0.8741 B(  6-C , 15-H ) :   0.8938 B(  7-C ,  8-O ) :   0.8659
B(  7-C , 16-H ) :   0.9642

MP2 TOTAL ENERGY:     -421.120413171 Eh
FINAL SINGLE POINT ENERGY      -421.120413170992

DIPOLE MOMENT
-------------
                                X             Y             Z
Electronic contribution:      2.61164      -5.89725       2.80215
Nuclear contribution   :     -3.20927       7.43370      -3.53950
                        -----------------------------------------
Total Dipole Moment    :     -0.59763       1.53646      -0.73735
                        -----------------------------------------
Magnitude (a.u.)       :      1.80597
Magnitude (Debye)      :      4.59042

                             ****ORCA TERMINATED NORMALLY****
TOTAL RUN TIME: 0 days 0 hours 16 minutes 59 seconds 546 msec
