                         Program Version 3.0.3 - RELEASE   -
|  1> ! RI-MP2 RIJK def2-TZVP def2-TZVP/C def2-TZVP/JK TIGHTSCF
|  2> % maxcore 2000
|  3> % mp2 density relaxed end
|  4> *xyz 0 1
|  5>  C        0.0182054688     1.4897252333     0.0745142495
|  6>  C       -0.0098022757     0.0020305432    -0.0480750505
|  7>  C       -0.0778620062    -0.8424357490    -1.1508983195
|  8>  C       -0.1369957193    -0.4423092736    -2.5442329660
|  9>  O       -0.1967947414    -1.2085641900    -3.4858746404
| 10>  C       -0.0589619599    -2.1960288388    -0.6694538770
| 11>  C        0.0101834617    -2.1399853475     0.6938291016
| 12>  N       -0.0172112086    -3.1160765870     1.7053195460
| 13>  N        0.0379994554    -0.8029634142     1.0578695919
| 14>  H        0.9534118703     1.8424130225     0.5269786305
| 15>  H       -0.0720430312     1.9601502384    -0.9054662495
| 16>  H       -0.8059700454     1.8606570288     0.6963869698
| 17>  H       -0.1236743368     0.6578716505    -2.7190899403
| 18>  H       -0.0802269039    -3.0794129631    -1.2870636242
| 19>  H       -0.2641218710    -4.0192561446     1.3201688795
| 20>  H        0.8767642909    -3.2138579839     2.1785656294
| 21>  H        0.0046284121    -0.4851043049     2.0127260791
| 22> *
| 23>
| 24>                          ****END OF INPUT****

CARTESIAN COORDINATES (ANGSTROEM)
---------------------------------
  C      0.018205    1.489725    0.074514
  C     -0.009802    0.002031   -0.048075
  C     -0.077862   -0.842436   -1.150898
  C     -0.136996   -0.442309   -2.544233
  O     -0.196795   -1.208564   -3.485875
  C     -0.058962   -2.196029   -0.669454
  C      0.010183   -2.139985    0.693829
  N     -0.017211   -3.116077    1.705320
  N      0.037999   -0.802963    1.057870
  H      0.953412    1.842413    0.526979
  H     -0.072043    1.960150   -0.905466
  H     -0.805970    1.860657    0.696387
  H     -0.123674    0.657872   -2.719090
  H     -0.080227   -3.079413   -1.287064
  H     -0.264122   -4.019256    1.320169
  H      0.876764   -3.213858    2.178566
  H      0.004628   -0.485104    2.012726

 Total Charge           Charge          ....    0
 Multiplicity           Mult            ....    1
 Number of Electrons    NEL             ....   66
 Basis Dimension        Dim             ....  327

ORBITAL ENERGIES
----------------

  NO   OCC          E(Eh)            E(eV)
   0   2.0000     -20.525675      -558.5320
   1   2.0000     -15.613835      -424.8741
   2   2.0000     -15.575865      -423.8408
   3   2.0000     -11.313698      -307.8614
   4   2.0000     -11.299219      -307.4674
   5   2.0000     -11.288067      -307.1639
   6   2.0000     -11.249724      -306.1206
   7   2.0000     -11.218896      -305.2817
   8   2.0000     -11.210557      -305.0548
   9   2.0000      -1.363341       -37.0984
  10   2.0000      -1.317923       -35.8625
  11   2.0000      -1.202278       -32.7156
  12   2.0000      -1.068261       -29.0689
  13   2.0000      -1.036845       -28.2140
  14   2.0000      -0.934430       -25.4271
  15   2.0000      -0.864879       -23.5346
  16   2.0000      -0.800025       -21.7698
  17   2.0000      -0.742538       -20.2055
  18   2.0000      -0.710351       -19.3296
  19   2.0000      -0.673886       -18.3374
  20   2.0000      -0.660458       -17.9720
  21   2.0000      -0.619314       -16.8524
  22   2.0000      -0.604596       -16.4519
  23   2.0000      -0.601904       -16.3786
  24   2.0000      -0.590013       -16.0551
  25   2.0000      -0.566809       -15.4237
  26   2.0000      -0.553859       -15.0713
  27   2.0000      -0.527028       -14.3412
  28   2.0000      -0.514654       -14.0044
  29   2.0000      -0.457884       -12.4596
  30   2.0000      -0.407639       -11.0924
  31   2.0000      -0.359344        -9.7782
  32   2.0000      -0.290248        -7.8980
  33   0.0000       0.114734         3.1221
  34   0.0000       0.117573         3.1993
  35   0.0000       0.134346         3.6557
  36   0.0000       0.160138         4.3576
  37   0.0000       0.168466         4.5842

MULLIKEN ATOMIC CHARGES
-----------------------
   0 C :   -0.433523
   1 C :    0.074776
   2 C :    0.090526
   3 C :    0.080044
   4 O :   -0.308344
   5 C :   -0.351429
   6 C :    0.263262
   7 N :   -0.542030
   8 N :   -0.272088
   9 H :    0.148831
  10 H :    0.146982
  11 H :    0.147297
  12 H :    0.054161
  13 H :    0.143833
  14 H :    0.257937
  15 H :    0.255476
  16 H :    0.244290
Sum of atomic charges:   -0.0000000

LOEWDIN ATOMIC CHARGES
----------------------
   0 C :   -0.275124
   1 C :   -0.207040
   2 C :   -0.182834
   3 C :   -0.286620
   4 O :    0.101900
   5 C :   -0.139754
   6 C :   -0.317623
   7 N :   -0.108160
   8 N :    0.219582
   9 H :    0.132568
  10 H :    0.135774
  11 H :    0.132361
  12 H :    0.111203
  13 H :    0.147278
  14 H :    0.174125
  15 H :    0.167746
  16 H :    0.194618

  Mayer bond orders larger than 0.1
B(  0-C ,  1-C ) :   0.8435 B(  0-C ,  9-H ) :   0.9338 B(  0-C , 10-H ) :   0.9528
B(  0-C , 11-H ) :   0.9348 B(  1-C ,  2-C ) :   1.4070 B(  1-C ,  8-N ) :   1.1798
B(  2-C ,  3-C ) :   0.8576 B(  2-C ,  4-O ) :  -0.1432 B(  2-C ,  5-C ) :   1.1967
B(  2-C , 12-H ) :  -0.1240 B(  3-C ,  4-O ) :   1.9974 B(  3-C , 12-H ) :   1.0003
B(  5-C ,  6-C ) :   1.5002 B(  5-C , 13-H ) :   0.9330 B(  6-C ,  7-N ) :   1.0359
B(  6-C ,  8-N ) :   1.0636 B(  7-N , 14-H ) :   0.8855 B(  7-N , 15-H ) :   0.8698
B(  8-N , 16-H ) :   0.8681

MP2 TOTAL ENERGY:     -417.350636332 Eh
FINAL SINGLE POINT ENERGY      -417.350636331774

DIPOLE MOMENT
-------------
                                X             Y             Z
Electronic contribution:     -0.33416      -3.17297      -3.23937
Nuclear contribution   :      0.78519       3.54632       5.25346
                        -----------------------------------------
Total Dipole Moment    :      0.45102       0.37336       2.01409
                        -----------------------------------------
Magnitude (a.u.)       :      2.09747
Magnitude (Debye)      :      5.33134

                             ****ORCA TERMINATED NORMALLY****
TOTAL RUN TIME: 0 days 0 hours 15 minutes 57 seconds 755 msec
