                         Program Version 3.0.3 - RELEASE   -
|  1> ! RI-MP2 RIJK def2-TZVP def2-TZVP/C def2-TZVP/JK TIGHTSCF
|  2> % maxcore 2000
|  3> % mp2 density relaxed end
|  4> *xyz 0 1
|  5>  C       -0.1201525616     1.0686976533     0.2143806918
|  6>  C        0.0406182999    -0.4006636636    -0.0403127653
|  7>  O       -0.4390118090    -1.2939913220     0.6216702669
|  8>  C        0.9005094530    -0.8258139306    -1.2394935786
|  9>  O        1.5720088234    -0.0731708614    -1.8929752689
| 10>  C        0.8837435983    -2.3549555361    -1.5024452694
| 11>  O        1.8481601880    -3.0520791390    -1.3305919616
| 12>  C       -0.4216100015    -2.8975526396    -2.0794224166
| 13>  O       -1.3081871416    -2.1532233849    -2.4085069610
| 14>  H       -0.6815210756     1.5182817438    -0.6129684915
| 15>  H       -0.6483378339     1.2322660561     1.1537104400
| 16>  H        0.8589073185     1.5573224992     0.2246545919
| 17>  H       -0.4606160680    -4.0000929852    -2.1850741978
| 18> *
| 19>
| 20>                          ****END OF INPUT****

CARTESIAN COORDINATES (ANGSTROEM)
---------------------------------
  C     -0.120153    1.068698    0.214381
  C      0.040618   -0.400664   -0.040313
  O     -0.439012   -1.293991    0.621670
  C      0.900509   -0.825814   -1.239494
  O      1.572009   -0.073171   -1.892975
  C      0.883744   -2.354956   -1.502445
  O      1.848160   -3.052079   -1.330592
  C     -0.421610   -2.897553   -2.079422
  O     -1.308187   -2.153223   -2.408507
  H     -0.681521    1.518282   -0.612968
  H     -0.648338    1.232266    1.153710
  H      0.858907    1.557322    0.224655
  H     -0.460616   -4.000093   -2.185074

 Total Charge           Charge          ....    0
 Multiplicity           Mult            ....    1
 Number of Electrons    NEL             ....   66
 Basis Dimension        Dim             ....  303

ORBITAL ENERGIES
----------------

  NO   OCC          E(Eh)            E(eV)
   0   2.0000     -20.617138      -561.0208
   1   2.0000     -20.616599      -561.0062
   2   2.0000     -20.614242      -560.9420
   3   2.0000     -20.601407      -560.5928
   4   2.0000     -11.385134      -309.8053
   5   2.0000     -11.384581      -309.7902
   6   2.0000     -11.377418      -309.5953
   7   2.0000     -11.377214      -309.5897
   8   2.0000     -11.260850      -306.4233
   9   2.0000      -1.470001       -40.0008
  10   2.0000      -1.448782       -39.4234
  11   2.0000      -1.440839       -39.2072
  12   2.0000      -1.434883       -39.0452
  13   2.0000      -1.054259       -28.6878
  14   2.0000      -1.013086       -27.5675
  15   2.0000      -0.929452       -25.2917
  16   2.0000      -0.838563       -22.8185
  17   2.0000      -0.753837       -20.5129
  18   2.0000      -0.731170       -19.8961
  19   2.0000      -0.721990       -19.6463
  20   2.0000      -0.712007       -19.3747
  21   2.0000      -0.684631       -18.6298
  22   2.0000      -0.652024       -17.7425
  23   2.0000      -0.638106       -17.3638
  24   2.0000      -0.609200       -16.5772
  25   2.0000      -0.586415       -15.9572
  26   2.0000      -0.573675       -15.6105
  27   2.0000      -0.565141       -15.3783
  28   2.0000      -0.547987       -14.9115
  29   2.0000      -0.530981       -14.4487
  30   2.0000      -0.528123       -14.3709
  31   2.0000      -0.481386       -13.0992
  32   2.0000      -0.415863       -11.3162
  33   0.0000       0.030092         0.8188
  34   0.0000       0.046902         1.2763
  35   0.0000       0.131491         3.5780
  36   0.0000       0.155252         4.2246
  37   0.0000       0.167428         4.5559

MULLIKEN ATOMIC CHARGES
-----------------------
   0 C :   -0.396310
   1 C :    0.197195
   2 O :   -0.267956
   3 C :    0.215181
   4 O :   -0.230156
   5 C :    0.230521
   6 O :   -0.225754
   7 C :    0.101299
   8 O :   -0.239641
   9 H :    0.163189
  10 H :    0.163888
  11 H :    0.166017
  12 H :    0.122524
Sum of atomic charges:    0.0000000

LOEWDIN ATOMIC CHARGES
----------------------
   0 C :   -0.265593
   1 C :   -0.316713
   2 O :    0.191330
   3 C :   -0.254752
   4 O :    0.217560
   5 C :   -0.283576
   6 O :    0.216912
   7 C :   -0.245310
   8 O :    0.176579
   9 H :    0.151061
  10 H :    0.139187
  11 H :    0.148122
  12 H :    0.125193

  Mayer bond orders larger than 0.1
B(  0-C ,  1-C ) :   0.9424 B(  0-C ,  9-H ) :   0.9035 B(  0-C , 10-H ) :   0.9344
B(  0-C , 11-H ) :   0.9081 B(  1-C ,  2-O ) :   1.8966 B(  1-C ,  3-C ) :   0.8561
B(  3-C ,  4-O ) :   1.9475 B(  3-C ,  5-C ) :   0.7946 B(  5-C ,  6-O ) :   1.9574
B(  5-C ,  7-C ) :   0.8678 B(  7-C ,  8-O ) :   1.9362 B(  7-C , 12-H ) :   0.9160

MP2 TOTAL ENERGY:     -492.944703994 Eh
FINAL SINGLE POINT ENERGY      -492.944703993621

DIPOLE MOMENT
-------------
                                X             Y             Z
Electronic contribution:      1.80134      -4.82914      -2.50133
Nuclear contribution   :     -2.07652       5.24571       2.68347
                        -----------------------------------------
Total Dipole Moment    :     -0.27517       0.41657       0.18213
                        -----------------------------------------
Magnitude (a.u.)       :      0.53144
Magnitude (Debye)      :      1.35080

                             ****ORCA TERMINATED NORMALLY****
TOTAL RUN TIME: 0 days 0 hours 13 minutes 48 seconds 642 msec
