                         Program Version 3.0.3 - RELEASE   -
|  1> ! RI-MP2 RIJK def2-TZVP def2-TZVP/C def2-TZVP/JK TIGHTSCF
|  2> % maxcore 2000
|  3> % mp2 density relaxed end
|  4> *xyz 0 1
|  5>  C       -0.0263467264     1.4568641058     0.0394936834
|  6>  C        1.4145428535     1.9818797560     0.0189336626
|  7>  O        2.1451727927     1.5485500148     1.1712513238
|  8>  C        1.9904961838     0.2163401460     1.3949261194
|  9>  C        2.7616553430    -0.6186248116     2.1408168052
| 10>  O        2.2373478176    -1.8775940301     2.0920956173
| 11>  C        1.1166097522    -1.8343263619     1.3187712532
| 12>  C        0.9149077205    -0.5692057017     0.8556369767
| 13>  N       -0.1038733577    -0.0076026901     0.0616135457
| 14>  H       -0.5253342501     1.8498923984     0.9341928948
| 15>  H       -0.5695529198     1.8311423015    -0.8324316520
| 16>  H        1.9289190486     1.6402883151    -0.8916250207
| 17>  H        1.4352187228     3.0741443210     0.0455040456
| 18>  H        3.6512264216    -0.4846555812     2.7303402101
| 19>  H        0.5948116672    -2.7661095991     1.1824588576
| 20>  H       -0.1415258395    -0.4040554329    -0.8685700826
| 21> *
| 22>
| 23>                          ****END OF INPUT****

CARTESIAN COORDINATES (ANGSTROEM)
---------------------------------
  C     -0.026347    1.456864    0.039494
  C      1.414543    1.981880    0.018934
  O      2.145173    1.548550    1.171251
  C      1.990496    0.216340    1.394926
  C      2.761655   -0.618625    2.140817
  O      2.237348   -1.877594    2.092096
  C      1.116610   -1.834326    1.318771
  C      0.914908   -0.569206    0.855637
  N     -0.103873   -0.007603    0.061614
  H     -0.525334    1.849892    0.934193
  H     -0.569553    1.831142   -0.832432
  H      1.928919    1.640288   -0.891625
  H      1.435219    3.074144    0.045504
  H      3.651226   -0.484656    2.730340
  H      0.594812   -2.766110    1.182459
  H     -0.141526   -0.404055   -0.868570

 Total Charge           Charge          ....    0
 Multiplicity           Mult            ....    1
 Number of Electrons    NEL             ....   66
 Basis Dimension        Dim             ....  321

ORBITAL ENERGIES
----------------

  NO   OCC          E(Eh)            E(eV)
   0   2.0000     -20.610527      -560.8410
   1   2.0000     -20.584580      -560.1349
   2   2.0000     -15.569300      -423.6622
   3   2.0000     -11.292898      -307.2954
   4   2.0000     -11.282336      -307.0080
   5   2.0000     -11.275984      -306.8351
   6   2.0000     -11.271164      -306.7040
   7   2.0000     -11.270265      -306.6795
   8   2.0000     -11.261115      -306.4305
   9   2.0000      -1.447179       -39.3798
  10   2.0000      -1.409797       -38.3625
  11   2.0000      -1.234968       -33.6052
  12   2.0000      -1.075546       -29.2671
  13   2.0000      -0.996103       -27.1053
  14   2.0000      -0.981126       -26.6978
  15   2.0000      -0.873454       -23.7679
  16   2.0000      -0.803817       -21.8730
  17   2.0000      -0.764015       -20.7899
  18   2.0000      -0.731806       -19.9135
  19   2.0000      -0.684818       -18.6348
  20   2.0000      -0.662867       -18.0375
  21   2.0000      -0.639958       -17.4141
  22   2.0000      -0.630479       -17.1562
  23   2.0000      -0.605184       -16.4679
  24   2.0000      -0.597864       -16.2687
  25   2.0000      -0.580975       -15.8091
  26   2.0000      -0.566065       -15.4034
  27   2.0000      -0.534514       -14.5449
  28   2.0000      -0.511079       -13.9072
  29   2.0000      -0.495589       -13.4857
  30   2.0000      -0.425746       -11.5851
  31   2.0000      -0.342386        -9.3168
  32   2.0000      -0.298009        -8.1092
  33   0.0000       0.126037         3.4296
  34   0.0000       0.147709         4.0194
  35   0.0000       0.167195         4.5496
  36   0.0000       0.179422         4.8823
  37   0.0000       0.184440         5.0189

MULLIKEN ATOMIC CHARGES
-----------------------
   0 C :   -0.151979
   1 C :   -0.033061
   2 O :   -0.292746
   3 C :    0.123784
   4 C :   -0.069381
   5 O :   -0.201197
   6 C :   -0.091058
   7 C :    0.054747
   8 N :   -0.345631
   9 H :    0.118476
  10 H :    0.137821
  11 H :    0.093170
  12 H :    0.131990
  13 H :    0.147432
  14 H :    0.146489
  15 H :    0.231144
Sum of atomic charges:   -0.0000000

LOEWDIN ATOMIC CHARGES
----------------------
   0 C :   -0.292513
   1 C :   -0.290590
   2 O :    0.233172
   3 C :   -0.281884
   4 C :   -0.234697
   5 O :    0.332179
   6 C :   -0.236596
   7 C :   -0.248011
   8 N :    0.040752
   9 H :    0.138982
  10 H :    0.137283
  11 H :    0.124573
  12 H :    0.132794
  13 H :    0.132894
  14 H :    0.131500
  15 H :    0.180162

  Mayer bond orders larger than 0.1
B(  0-C ,  1-C ) :   0.9223 B(  0-C ,  8-N ) :   0.9527 B(  0-C ,  9-H ) :   0.9288
B(  0-C , 10-H ) :   0.9265 B(  1-C ,  2-O ) :   0.8828 B(  1-C , 11-H ) :   0.9244
B(  1-C , 12-H ) :   0.9263 B(  2-O ,  3-C ) :   1.0549 B(  3-C ,  4-C ) :   1.5052
B(  3-C ,  7-C ) :   1.1115 B(  4-C ,  5-O ) :   1.0245 B(  4-C , 13-H ) :   0.9367
B(  5-O ,  6-C ) :   1.0528 B(  6-C ,  7-C ) :   1.4774 B(  6-C , 14-H ) :   0.9339
B(  7-C ,  8-N ) :   0.9979 B(  8-N , 15-H ) :   0.8717

MP2 TOTAL ENERGY:     -437.165204480 Eh
FINAL SINGLE POINT ENERGY      -437.165204480159

DIPOLE MOMENT
-------------
                                X             Y             Z
Electronic contribution:      2.75897      -3.67343       3.42324
Nuclear contribution   :     -3.09694       4.07278      -4.37234
                        -----------------------------------------
Total Dipole Moment    :     -0.33797       0.39935      -0.94910
                        -----------------------------------------
Magnitude (a.u.)       :      1.08374
Magnitude (Debye)      :      2.75466

                             ****ORCA TERMINATED NORMALLY****
TOTAL RUN TIME: 0 days 0 hours 14 minutes 54 seconds 762 msec
