                         Program Version 3.0.3 - RELEASE   -
|  1> ! RI-MP2 RIJK def2-TZVP def2-TZVP/C def2-TZVP/JK TIGHTSCF
|  2> % maxcore 2000
|  3> % mp2 density relaxed end
|  4> *xyz 0 1
|  5>  C       -0.7489507261     1.4280139084    -0.4661270910
|  6>  C        0.0170361344     0.1265286600    -0.2469963056
|  7>  C       -0.9140290984    -1.0833142595    -0.3675931636
|  8>  C        1.3176032065    -0.0367358512    -1.0962175575
|  9>  C        2.1296359531    -0.3978943182     0.1973392147
| 10>  C        3.4410828872     0.3638588129     0.4164028385
| 11>  C        0.8952998617     0.0749708696     1.0434693185
| 12>  C        2.3619104614    -1.8350489282     0.3182147602
| 13>  N        2.5495228634    -2.9726882641     0.4146293638
| 14>  H       -0.0918946646     2.3004502009    -0.3819817061
| 15>  H       -1.2091429728     1.4508072609    -1.4607760459
| 16>  H       -1.5512060013     1.5412773056     0.2722364209
| 17>  H       -1.3757332021    -1.1201706035    -1.3608020378
| 18>  H       -0.3783927327    -2.0248329862    -0.2127273022
| 19>  H       -1.7182900192    -1.0295595280     0.3748809676
| 20>  H        1.3001086476    -0.7923277082    -1.8842993886
| 21>  H        1.6706488967     0.9073834037    -1.5201244047
| 22>  H        3.2629724130     1.4393527416     0.3251119259
| 23>  H        3.8500464863     0.1652212101     1.4116159677
| 24>  H        4.1926431210     0.0746087219    -0.3243057101
| 25>  H        1.0799829669     1.0636231993     1.4726054647
| 26>  H        0.5655301080    -0.5980217179     1.8375921006
| 27> *
| 28>
| 29>                          ****END OF INPUT****

CARTESIAN COORDINATES (ANGSTROEM)
---------------------------------
  C     -0.748951    1.428014   -0.466127
  C      0.017036    0.126529   -0.246996
  C     -0.914029   -1.083314   -0.367593
  C      1.317603   -0.036736   -1.096218
  C      2.129636   -0.397894    0.197339
  C      3.441083    0.363859    0.416403
  C      0.895300    0.074971    1.043469
  C      2.361910   -1.835049    0.318215
  N      2.549523   -2.972688    0.414629
  H     -0.091895    2.300450   -0.381982
  H     -1.209143    1.450807   -1.460776
  H     -1.551206    1.541277    0.272236
  H     -1.375733   -1.120171   -1.360802
  H     -0.378393   -2.024833   -0.212727
  H     -1.718290   -1.029560    0.374881
  H      1.300109   -0.792328   -1.884299
  H      1.670649    0.907383   -1.520124
  H      3.262972    1.439353    0.325112
  H      3.850046    0.165221    1.411616
  H      4.192643    0.074609   -0.324306
  H      1.079983    1.063623    1.472605
  H      0.565530   -0.598022    1.837592

 Total Charge           Charge          ....    0
 Multiplicity           Mult            ....    1
 Number of Electrons    NEL             ....   68
 Basis Dimension        Dim             ....  357

ORBITAL ENERGIES
----------------

  NO   OCC          E(Eh)            E(eV)
   0   2.0000     -15.560996      -423.4362
   1   2.0000     -11.283987      -307.0529
   2   2.0000     -11.264155      -306.5132
   3   2.0000     -11.250142      -306.1319
   4   2.0000     -11.241523      -305.8974
   5   2.0000     -11.241502      -305.8968
   6   2.0000     -11.239732      -305.8487
   7   2.0000     -11.224278      -305.4281
   8   2.0000     -11.220031      -305.3126
   9   2.0000      -1.216204       -33.0946
  10   2.0000      -1.166222       -31.7345
  11   2.0000      -1.055637       -28.7254
  12   2.0000      -0.960065       -26.1247
  13   2.0000      -0.941346       -25.6153
  14   2.0000      -0.925894       -25.1949
  15   2.0000      -0.862787       -23.4776
  16   2.0000      -0.741822       -20.1860
  17   2.0000      -0.686302       -18.6752
  18   2.0000      -0.641139       -17.4463
  19   2.0000      -0.624935       -17.0053
  20   2.0000      -0.606432       -16.5019
  21   2.0000      -0.582927       -15.8622
  22   2.0000      -0.580120       -15.7859
  23   2.0000      -0.574055       -15.6208
  24   2.0000      -0.558089       -15.1864
  25   2.0000      -0.545019       -14.8307
  26   2.0000      -0.533757       -14.5243
  27   2.0000      -0.517421       -14.0797
  28   2.0000      -0.498388       -13.5618
  29   2.0000      -0.478857       -13.0304
  30   2.0000      -0.467055       -12.7092
  31   2.0000      -0.445949       -12.1349
  32   2.0000      -0.430555       -11.7160
  33   2.0000      -0.422936       -11.5087
  34   0.0000       0.117278         3.1913
  35   0.0000       0.140076         3.8117
  36   0.0000       0.155682         4.2363
  37   0.0000       0.170562         4.6412
  38   0.0000       0.187416         5.0999

MULLIKEN ATOMIC CHARGES
-----------------------
   0 C :   -0.426070
   1 C :    0.136829
   2 C :   -0.440422
   3 C :   -0.273512
   4 C :    0.260410
   5 C :   -0.420159
   6 C :   -0.273513
   7 C :   -0.283054
   8 N :   -0.048690
   9 H :    0.124318
  10 H :    0.134181
  11 H :    0.134181
  12 H :    0.129910
  13 H :    0.158632
  14 H :    0.129910
  15 H :    0.141481
  16 H :    0.121472
  17 H :    0.134446
  18 H :    0.148350
  19 H :    0.148349
  20 H :    0.121472
  21 H :    0.141481
Sum of atomic charges:    0.0000000

LOEWDIN ATOMIC CHARGES
----------------------
   0 C :   -0.276112
   1 C :   -0.297726
   2 C :   -0.266961
   3 C :   -0.134497
   4 C :   -0.256985
   5 C :   -0.251537
   6 C :   -0.134497
   7 C :   -0.159819
   8 N :    0.056594
   9 H :    0.123165
  10 H :    0.127734
  11 H :    0.127734
  12 H :    0.127097
  13 H :    0.133504
  14 H :    0.127097
  15 H :    0.139160
  16 H :    0.141236
  17 H :    0.127910
  18 H :    0.133253
  19 H :    0.133254
  20 H :    0.141236
  21 H :    0.139161

  Mayer bond orders larger than 0.1
B(  0-C ,  1-C ) :   0.8709 B(  0-C ,  9-H ) :   0.9329 B(  0-C , 10-H ) :   0.9398
B(  0-C , 11-H ) :   0.9398 B(  1-C ,  2-C ) :   0.9191 B(  1-C ,  3-C ) :   0.9303
B(  1-C ,  6-C ) :   0.9303 B(  2-C , 12-H ) :   0.9385 B(  2-C , 13-H ) :   0.9258
B(  2-C , 14-H ) :   0.9385 B(  3-C ,  4-C ) :   0.8773 B(  3-C , 15-H ) :   0.9236
B(  3-C , 16-H ) :   0.8969 B(  4-C ,  5-C ) :   0.8627 B(  4-C ,  6-C ) :   0.8773
B(  4-C ,  7-C ) :   0.9468 B(  5-C , 17-H ) :   0.9308 B(  5-C , 18-H ) :   0.9352
B(  5-C , 19-H ) :   0.9352 B(  6-C , 20-H ) :   0.8969 B(  6-C , 21-H ) :   0.9236
B(  7-C ,  8-N ) :   2.8854

MP2 TOTAL ENERGY:     -366.573742445 Eh
FINAL SINGLE POINT ENERGY      -366.573742445116

DIPOLE MOMENT
-------------
                                X             Y             Z
Electronic contribution:      5.18422      -7.01721       1.38955
Nuclear contribution   :     -5.58803       8.55671      -1.54962
                        -----------------------------------------
Total Dipole Moment    :     -0.40382       1.53950      -0.16007
                        -----------------------------------------
Magnitude (a.u.)       :      1.59961
Magnitude (Debye)      :      4.06588

                             ****ORCA TERMINATED NORMALLY****
TOTAL RUN TIME: 0 days 0 hours 23 minutes 55 seconds 411 msec
