                         Program Version 3.0.3 - RELEASE   -
|  1> ! RI-MP2 RIJK def2-TZVP def2-TZVP/C def2-TZVP/JK TIGHTSCF
|  2> % maxcore 2000
|  3> % mp2 density relaxed end
|  4> *xyz 0 1
|  5>  O        0.2722671054     1.3470986602    -0.0532804461
|  6>  C        0.2087287159    -0.0597390415    -0.0901036570
|  7>  C       -1.2367555483    -0.5394037033     0.0482518543
|  8>  O       -2.0507948246     0.1074327614    -0.9403688448
|  9>  C       -1.4073664389    -2.0572794592    -0.0392819598
| 10>  C       -0.8205521712    -2.8237294895     1.1465386397
| 11>  O       -0.3754686606    -2.3045185812     2.1356372375
| 12>  C       -2.8917763819    -2.4416256858    -0.1236676853
| 13>  O       -3.2896114416    -3.4214576598    -0.6934549543
| 14>  H       -0.4678284208     1.6609603897    -0.5883716297
| 15>  H        0.6288310951    -0.4609387350    -1.0329053029
| 16>  H        0.8136352102    -0.4417950510     0.7358516231
| 17>  H       -1.6273538874    -0.1830405978     1.0065148592
| 18>  H       -1.7710063458    -0.2062045103    -1.8095940541
| 19>  H       -0.9373190100    -2.4721988041    -0.9422108588
| 20>  H       -0.8601462680    -3.9268054354     1.0291279797
| 21>  H       -3.5731637577    -1.7572013574     0.4213729692
| 22> *
| 23>
| 24>                          ****END OF INPUT****

CARTESIAN COORDINATES (ANGSTROEM)
---------------------------------
  O      0.272267    1.347099   -0.053280
  C      0.208729   -0.059739   -0.090104
  C     -1.236756   -0.539404    0.048252
  O     -2.050795    0.107433   -0.940369
  C     -1.407366   -2.057279   -0.039282
  C     -0.820552   -2.823729    1.146539
  O     -0.375469   -2.304519    2.135637
  C     -2.891776   -2.441626   -0.123668
  O     -3.289611   -3.421458   -0.693455
  H     -0.467828    1.660960   -0.588372
  H      0.628831   -0.460939   -1.032905
  H      0.813635   -0.441795    0.735852
  H     -1.627354   -0.183041    1.006515
  H     -1.771006   -0.206205   -1.809594
  H     -0.937319   -2.472199   -0.942211
  H     -0.860146   -3.926805    1.029128
  H     -3.573164   -1.757201    0.421373

 Total Charge           Charge          ....    0
 Multiplicity           Mult            ....    1
 Number of Electrons    NEL             ....   70
 Basis Dimension        Dim             ....  327

ORBITAL ENERGIES
----------------

  NO   OCC          E(Eh)            E(eV)
   0   2.0000     -20.595392      -560.4291
   1   2.0000     -20.589722      -560.2748
   2   2.0000     -20.586471      -560.1863
   3   2.0000     -20.563955      -559.5737
   4   2.0000     -11.366153      -309.2887
   5   2.0000     -11.362485      -309.1889
   6   2.0000     -11.314792      -307.8911
   7   2.0000     -11.291979      -307.2704
   8   2.0000     -11.283497      -307.0396
   9   2.0000      -1.431662       -38.9575
  10   2.0000      -1.425386       -38.7867
  11   2.0000      -1.405617       -38.2488
  12   2.0000      -1.366074       -37.1728
  13   2.0000      -1.109616       -30.1942
  14   2.0000      -0.992800       -27.0155
  15   2.0000      -0.883372       -24.0378
  16   2.0000      -0.854199       -23.2439
  17   2.0000      -0.806076       -21.9344
  18   2.0000      -0.730507       -19.8781
  19   2.0000      -0.726051       -19.7569
  20   2.0000      -0.697592       -18.9825
  21   2.0000      -0.674466       -18.3531
  22   2.0000      -0.670450       -18.2439
  23   2.0000      -0.658606       -17.9216
  24   2.0000      -0.632844       -17.2205
  25   2.0000      -0.624182       -16.9849
  26   2.0000      -0.587069       -15.9749
  27   2.0000      -0.556258       -15.1366
  28   2.0000      -0.549411       -14.9502
  29   2.0000      -0.542512       -14.7625
  30   2.0000      -0.519118       -14.1259
  31   2.0000      -0.497736       -13.5441
  32   2.0000      -0.465007       -12.6535
  33   2.0000      -0.446776       -12.1574
  34   2.0000      -0.435290       -11.8448
  35   0.0000       0.079220         2.1557
  36   0.0000       0.111338         3.0297
  37   0.0000       0.128781         3.5043
  38   0.0000       0.153758         4.1840
  39   0.0000       0.166704         4.5362

MULLIKEN ATOMIC CHARGES
-----------------------
   0 O :   -0.465310
   1 C :   -0.026033
   2 C :    0.012067
   3 O :   -0.482508
   4 C :   -0.051675
   5 C :    0.065618
   6 O :   -0.250831
   7 C :    0.095097
   8 O :   -0.243941
   9 H :    0.326933
  10 H :    0.084455
  11 H :    0.139826
  12 H :    0.120051
  13 H :    0.324732
  14 H :    0.119129
  15 H :    0.119720
  16 H :    0.112670
Sum of atomic charges:    0.0000000

LOEWDIN ATOMIC CHARGES
----------------------
   0 O :   -0.037227
   1 C :   -0.340154
   2 C :   -0.329029
   3 O :   -0.018717
   4 C :   -0.249295
   5 C :   -0.261054
   6 O :    0.155509
   7 C :   -0.262665
   8 O :    0.151014
   9 H :    0.176509
  10 H :    0.115990
  11 H :    0.138017
  12 H :    0.157573
  13 H :    0.179897
  14 H :    0.173758
  15 H :    0.124857
  16 H :    0.125019

  Mayer bond orders larger than 0.1
B(  0-O ,  1-C ) :   0.9464 B(  0-O ,  9-H ) :   0.8260 B(  1-C ,  2-C ) :   0.9734
B(  1-C , 10-H ) :   0.8964 B(  1-C , 11-H ) :   0.9279 B(  2-C ,  3-O ) :   0.8572
B(  2-C ,  4-C ) :   0.9343 B(  2-C , 12-H ) :   0.8904 B(  3-O , 13-H ) :   0.8347
B(  4-C ,  5-C ) :   0.8566 B(  4-C ,  7-C ) :   0.8190 B(  4-C , 14-H ) :   0.8721
B(  5-C ,  6-O ) :   1.9749 B(  5-C , 15-H ) :   0.9360 B(  7-C ,  8-O ) :   1.9910
B(  7-C , 16-H ) :   0.9335

MP2 TOTAL ENERGY:     -495.339034122 Eh
FINAL SINGLE POINT ENERGY      -495.339034122280

DIPOLE MOMENT
-------------
                                X             Y             Z
Electronic contribution:     -2.24963      -2.73827       1.33721
Nuclear contribution   :      2.27146       2.44135      -2.09103
                        -----------------------------------------
Total Dipole Moment    :      0.02183      -0.29692      -0.75383
                        -----------------------------------------
Magnitude (a.u.)       :      0.81049
Magnitude (Debye)      :      2.06010

                             ****ORCA TERMINATED NORMALLY****
TOTAL RUN TIME: 0 days 0 hours 13 minutes 34 seconds 140 msec
