                         Program Version 3.0.3 - RELEASE   -
|  1> ! RI-MP2 RIJK def2-TZVP def2-TZVP/C def2-TZVP/JK TIGHTSCF
|  2> % maxcore 2000
|  3> % mp2 density relaxed end
|  4> *xyz 0 1
|  5>  C        0.0563524971     1.3967473514    -0.4401603693
|  6>  C       -0.0522013536    -0.0385905756     0.0933220097
|  7>  O        0.5007426844    -0.1181471149     1.3788489150
|  8>  C       -1.4892954110    -0.5538328373     0.1133407076
|  9>  O       -1.9590517074    -0.9871867981     1.1468027393
| 10>  C       -2.2944488017    -0.5357350291    -1.1701562567
| 11>  N       -3.5507076050    -1.2122265527    -0.9749889175
| 12>  C       -4.4023958244    -1.4500185187    -2.0029198578
| 13>  O       -4.1983199140    -1.1139544006    -3.1510414995
| 14>  H        1.0967476348     1.7194059460    -0.3586999663
| 15>  H       -0.2434635867     1.4655224230    -1.4898894142
| 16>  H       -0.5591683894     2.0771324691     0.1557204068
| 17>  H        0.4961977911    -0.7055708276    -0.5974165674
| 18>  H       -0.1697882697    -0.5477627584     1.9319559824
| 19>  H       -2.4432447148     0.5090287351    -1.4791679764
| 20>  H       -1.7165437813    -0.9994347156    -1.9803125275
| 21>  H       -3.7555335586    -1.5168284430    -0.0343823000
| 22>  H       -5.3116277398    -1.9903652831    -1.6754584681
| 23> *
| 24>
| 25>                          ****END OF INPUT****

CARTESIAN COORDINATES (ANGSTROEM)
---------------------------------
  C      0.056352    1.396747   -0.440160
  C     -0.052201   -0.038591    0.093322
  O      0.500743   -0.118147    1.378849
  C     -1.489295   -0.553833    0.113341
  O     -1.959052   -0.987187    1.146803
  C     -2.294449   -0.535735   -1.170156
  N     -3.550708   -1.212227   -0.974989
  C     -4.402396   -1.450019   -2.002920
  O     -4.198320   -1.113954   -3.151041
  H      1.096748    1.719406   -0.358700
  H     -0.243464    1.465522   -1.489889
  H     -0.559168    2.077132    0.155720
  H      0.496198   -0.705571   -0.597417
  H     -0.169788   -0.547763    1.931956
  H     -2.443245    0.509029   -1.479168
  H     -1.716544   -0.999435   -1.980313
  H     -3.755534   -1.516828   -0.034382
  H     -5.311628   -1.990365   -1.675458

 Total Charge           Charge          ....    0
 Multiplicity           Mult            ....    1
 Number of Electrons    NEL             ....   70
 Basis Dimension        Dim             ....  333

ORBITAL ENERGIES
----------------

  NO   OCC          E(Eh)            E(eV)
   0   2.0000     -20.586491      -560.1869
   1   2.0000     -20.564956      -559.6009
   2   2.0000     -20.532615      -558.7209
   3   2.0000     -15.600470      -424.5104
   4   2.0000     -11.364878      -309.2541
   5   2.0000     -11.358187      -309.0720
   6   2.0000     -11.313121      -307.8457
   7   2.0000     -11.300918      -307.5136
   8   2.0000     -11.242145      -305.9143
   9   2.0000      -1.438667       -39.1481
  10   2.0000      -1.393570       -37.9210
  11   2.0000      -1.373583       -37.3771
  12   2.0000      -1.251165       -34.0459
  13   2.0000      -1.071371       -29.1535
  14   2.0000      -1.006772       -27.3957
  15   2.0000      -0.903813       -24.5940
  16   2.0000      -0.829480       -22.5713
  17   2.0000      -0.791495       -21.5377
  18   2.0000      -0.758084       -20.6285
  19   2.0000      -0.719057       -19.5665
  20   2.0000      -0.686163       -18.6714
  21   2.0000      -0.665538       -18.1102
  22   2.0000      -0.656602       -17.8670
  23   2.0000      -0.645035       -17.5523
  24   2.0000      -0.601224       -16.3601
  25   2.0000      -0.590032       -16.0556
  26   2.0000      -0.574104       -15.6222
  27   2.0000      -0.562363       -15.3027
  28   2.0000      -0.549501       -14.9527
  29   2.0000      -0.546701       -14.8765
  30   2.0000      -0.529359       -14.4046
  31   2.0000      -0.463164       -12.6033
  32   2.0000      -0.449472       -12.2308
  33   2.0000      -0.442976       -12.0540
  34   2.0000      -0.411147       -11.1879
  35   0.0000       0.107992         2.9386
  36   0.0000       0.128509         3.4969
  37   0.0000       0.147842         4.0230
  38   0.0000       0.155153         4.2219
  39   0.0000       0.168750         4.5919

MULLIKEN ATOMIC CHARGES
-----------------------
   0 C :   -0.389585
   1 C :    0.071128
   2 O :   -0.471747
   3 C :    0.242811
   4 O :   -0.345458
   5 C :   -0.162241
   6 N :   -0.322555
   7 C :    0.189737
   8 O :   -0.365898
   9 H :    0.155514
  10 H :    0.134610
  11 H :    0.132753
  12 H :    0.107946
  13 H :    0.336439
  14 H :    0.166646
  15 H :    0.164799
  16 H :    0.264197
  17 H :    0.090906
Sum of atomic charges:   -0.0000000

LOEWDIN ATOMIC CHARGES
----------------------
   0 C :   -0.283646
   1 C :   -0.360790
   2 O :   -0.002332
   3 C :   -0.295787
   4 O :    0.137193
   5 C :   -0.247401
   6 N :    0.085240
   7 C :   -0.432580
   8 O :    0.057133
   9 H :    0.134195
  10 H :    0.125977
  11 H :    0.128451
  12 H :    0.152846
  13 H :    0.182299
  14 H :    0.156878
  15 H :    0.157711
  16 H :    0.191934
  17 H :    0.112678

  Mayer bond orders larger than 0.1
B(  0-C ,  1-C ) :   0.8706 B(  0-C ,  9-H ) :   0.9300 B(  0-C , 10-H ) :   0.9217
B(  0-C , 11-H ) :   0.9290 B(  1-C ,  2-O ) :   1.0779 B(  1-C ,  3-C ) :   0.9501
B(  1-C , 12-H ) :   0.9163 B(  2-O , 13-H ) :   0.8048 B(  3-C ,  4-O ) :   1.8360
B(  3-C ,  5-C ) :   0.9109 B(  5-C ,  6-N ) :   0.8641 B(  5-C , 14-H ) :   0.9138
B(  5-C , 15-H ) :   0.9178 B(  6-N ,  7-C ) :   1.1478 B(  6-N , 16-H ) :   0.8509
B(  7-C ,  8-O ) :   1.8852 B(  7-C , 17-H ) :   0.9315

MP2 TOTAL ENERGY:     -475.515012656 Eh
FINAL SINGLE POINT ENERGY      -475.515012655764

DIPOLE MOMENT
-------------
                                X             Y             Z
Electronic contribution:     -4.24530      -4.22229       1.07866
Nuclear contribution   :      4.34123       4.28889      -0.65682
                        -----------------------------------------
Total Dipole Moment    :      0.09593       0.06660       0.42184
                        -----------------------------------------
Magnitude (a.u.)       :      0.43771
Magnitude (Debye)      :      1.11256

                             ****ORCA TERMINATED NORMALLY****
TOTAL RUN TIME: 0 days 0 hours 15 minutes 41 seconds 474 msec
