                         Program Version 3.0.3 - RELEASE   -
|  1> ! RI-MP2 RIJK def2-TZVP def2-TZVP/C def2-TZVP/JK TIGHTSCF
|  2> % maxcore 2000
|  3> % mp2 density relaxed end
|  4> *xyz 0 1
|  5>  C       -0.2177758822     1.4291371154    -0.1611670316
|  6>  N        0.1848626502     0.0399158543     0.0625514061
|  7>  C        0.7964491106    -0.5671772253    -1.1027478647
|  8>  C        1.0476734680    -2.0861169129    -0.9958256804
|  9>  O        0.0999626564    -2.3301426046    -2.0820642576
| 10>  C       -0.1847854205    -0.9865612307    -2.1905157791
| 11>  N       -0.9852110091    -0.3771500885    -2.9381486737
| 12>  H        0.6142672034     2.0910532753    -0.4591031179
| 13>  H       -0.9689105947     1.4585958452    -0.9540142538
| 14>  H       -0.6634288940     1.8248442071     0.7555048068
| 15>  H        0.8445579154    -0.0009125286     0.8336470852
| 16>  H        1.6528407346    -0.0053147573    -1.5139850873
| 17>  H        2.0454755030    -2.4432534777    -1.2599473091
| 18>  H        0.6981480803    -2.5369318899    -0.0643324593
| 19>  H       -1.5022660214    -1.0231843517    -3.5375949936
| 20> *
| 21>
| 22>                          ****END OF INPUT****

CARTESIAN COORDINATES (ANGSTROEM)
---------------------------------
  C     -0.217776    1.429137   -0.161167
  N      0.184863    0.039916    0.062551
  C      0.796449   -0.567177   -1.102748
  C      1.047673   -2.086117   -0.995826
  O      0.099963   -2.330143   -2.082064
  C     -0.184785   -0.986561   -2.190516
  N     -0.985211   -0.377150   -2.938149
  H      0.614267    2.091053   -0.459103
  H     -0.968911    1.458596   -0.954014
  H     -0.663429    1.824844    0.755505
  H      0.844558   -0.000913    0.833647
  H      1.652841   -0.005315   -1.513985
  H      2.045476   -2.443253   -1.259947
  H      0.698148   -2.536932   -0.064332
  H     -1.502266   -1.023184   -3.537595

 Total Charge           Charge          ....    0
 Multiplicity           Mult            ....    1
 Number of Electrons    NEL             ....   54
 Basis Dimension        Dim             ....  265

ORBITAL ENERGIES
----------------

  NO   OCC          E(Eh)            E(eV)
   0   2.0000     -20.592025      -560.3375
   1   2.0000     -15.561955      -423.4623
   2   2.0000     -15.536749      -422.7764
   3   2.0000     -11.337712      -308.5148
   4   2.0000     -11.301123      -307.5192
   5   2.0000     -11.283108      -307.0290
   6   2.0000     -11.245333      -306.0011
   7   2.0000      -1.434962       -39.0473
   8   2.0000      -1.222107       -33.2552
   9   2.0000      -1.194564       -32.5057
  10   2.0000      -1.017826       -27.6964
  11   2.0000      -0.906312       -24.6620
  12   2.0000      -0.889972       -24.2174
  13   2.0000      -0.738885       -20.1061
  14   2.0000      -0.708547       -19.2805
  15   2.0000      -0.702335       -19.1115
  16   2.0000      -0.666661       -18.1408
  17   2.0000      -0.639604       -17.4045
  18   2.0000      -0.589615       -16.0442
  19   2.0000      -0.584376       -15.9017
  20   2.0000      -0.532331       -14.4855
  21   2.0000      -0.530954       -14.4480
  22   2.0000      -0.512774       -13.9533
  23   2.0000      -0.492325       -13.3969
  24   2.0000      -0.439924       -11.9709
  25   2.0000      -0.404706       -11.0126
  26   2.0000      -0.386578       -10.5193
  27   0.0000       0.126553         3.4437
  28   0.0000       0.160965         4.3801
  29   0.0000       0.161538         4.3957
  30   0.0000       0.178457         4.8561
  31   0.0000       0.184000         5.0069

MULLIKEN ATOMIC CHARGES
-----------------------
   0 C :   -0.308637
   1 N :   -0.377213
   2 C :    0.040955
   3 C :   -0.019105
   4 O :   -0.266931
   5 C :    0.141142
   6 N :   -0.386179
   7 H :    0.106071
   8 H :    0.168169
   9 H :    0.133676
  10 H :    0.206176
  11 H :    0.104050
  12 H :    0.114818
  13 H :    0.114412
  14 H :    0.228595
Sum of atomic charges:   -0.0000000

LOEWDIN ATOMIC CHARGES
----------------------
   0 C :   -0.340186
   1 N :   -0.029447
   2 C :   -0.261727
   3 C :   -0.214581
   4 O :    0.211241
   5 C :   -0.381200
   6 N :   -0.055208
   7 H :    0.100202
   8 H :    0.125987
   9 H :    0.115231
  10 H :    0.170602
  11 H :    0.139056
  12 H :    0.120648
  13 H :    0.125876
  14 H :    0.173507

  Mayer bond orders larger than 0.1
B(  0-C ,  1-N ) :   0.9156 B(  0-C ,  7-H ) :   0.9332 B(  0-C ,  8-H ) :   0.9319
B(  0-C ,  9-H ) :   0.9353 B(  1-N ,  2-C ) :   0.9656 B(  1-N , 10-H ) :   0.8809
B(  2-C ,  3-C ) :   0.9545 B(  2-C ,  5-C ) :   0.8826 B(  2-C , 11-H ) :   0.9093
B(  3-C ,  4-O ) :   0.9029 B(  3-C , 12-H ) :   0.9192 B(  3-C , 13-H ) :   0.9099
B(  4-O ,  5-C ) :   1.0706 B(  5-C ,  6-N ) :   2.0187 B(  6-N , 14-H ) :   0.8446

MP2 TOTAL ENERGY:     -341.247965844 Eh
FINAL SINGLE POINT ENERGY      -341.247965844071

DIPOLE MOMENT
-------------
                                X             Y             Z
Electronic contribution:     -0.84401      -4.62077      -3.48245
Nuclear contribution   :      1.76380       4.57290       4.16313
                        -----------------------------------------
Total Dipole Moment    :      0.91980      -0.04787       0.68069
                        -----------------------------------------
Magnitude (a.u.)       :      1.14527
Magnitude (Debye)      :      2.91105

                             ****ORCA TERMINATED NORMALLY****
TOTAL RUN TIME: 0 days 0 hours 7 minutes 30 seconds 385 msec
