                         Program Version 3.0.3 - RELEASE   -
|  1> ! RI-MP2 RIJK def2-TZVP def2-TZVP/C def2-TZVP/JK TIGHTSCF
|  2> % maxcore 2000
|  3> % mp2 density relaxed end
|  4> *xyz 0 1
|  5>  C       -0.7071621704     1.4112947930    -0.4200820048
|  6>  N       -0.4709068395     0.0061802772    -0.1118940906
|  7>  C       -1.2201789209    -0.6020783541     1.0292568944
|  8>  C       -0.1225911532    -1.6962974666     1.2034300164
|  9>  C       -0.0642859701    -1.4754456950     2.7171366130
| 10>  O        1.1163898115    -1.7587663560     3.4312077494
| 11>  C       -0.2981075499    -0.0409738818     2.1919911182
| 12>  C       -0.3960180272     1.1781609735     3.0718008771
| 13>  C        0.5799996415    -0.3341636834     0.8898417565
| 14>  H        0.0997629234     1.7718891089    -1.0673964475
| 15>  H       -1.6425256572     1.4957629516    -0.9839590529
| 16>  H       -0.7743876117     2.0827197268     0.4482463725
| 17>  H       -2.3029891261    -0.7409183187     1.0327053978
| 18>  H       -0.0371257575    -2.6026278834     0.6057842186
| 19>  H       -0.8803970249    -1.9090150703     3.3037441657
| 20>  H        1.8682509237    -1.4653346123     2.9053445315
| 21>  H        0.4557016825     1.1981468002     3.7619589905
| 22>  H       -0.4027653071     2.1193965818     2.5187376574
| 23>  H       -1.3063082831     1.1376422703     3.6813516439
| 24>  H        1.6405913764    -0.1362500216     0.7154081730
| 25> *
| 26>
| 27>                          ****END OF INPUT****

CARTESIAN COORDINATES (ANGSTROEM)
---------------------------------
  C     -0.707162    1.411295   -0.420082
  N     -0.470907    0.006180   -0.111894
  C     -1.220179   -0.602078    1.029257
  C     -0.122591   -1.696297    1.203430
  C     -0.064286   -1.475446    2.717137
  O      1.116390   -1.758766    3.431208
  C     -0.298108   -0.040974    2.191991
  C     -0.396018    1.178161    3.071801
  C      0.580000   -0.334164    0.889842
  H      0.099763    1.771889   -1.067396
  H     -1.642526    1.495763   -0.983959
  H     -0.774388    2.082720    0.448246
  H     -2.302989   -0.740918    1.032705
  H     -0.037126   -2.602628    0.605784
  H     -0.880397   -1.909015    3.303744
  H      1.868251   -1.465335    2.905345
  H      0.455702    1.198147    3.761959
  H     -0.402765    2.119397    2.518738
  H     -1.306308    1.137642    3.681352
  H      1.640591   -0.136250    0.715408

 Total Charge           Charge          ....    0
 Multiplicity           Mult            ....    1
 Number of Electrons    NEL             ....   68
 Basis Dimension        Dim             ....  345

ORBITAL ENERGIES
----------------

  NO   OCC          E(Eh)            E(eV)
   0   2.0000     -20.557953      -559.4103
   1   2.0000     -15.550673      -423.1553
   2   2.0000     -11.281326      -306.9805
   3   2.0000     -11.276981      -306.8622
   4   2.0000     -11.275929      -306.8336
   5   2.0000     -11.250425      -306.1396
   6   2.0000     -11.241634      -305.9004
   7   2.0000     -11.239812      -305.8508
   8   2.0000     -11.223439      -305.4053
   9   2.0000      -1.368402       -37.2361
  10   2.0000      -1.297367       -35.3032
  11   2.0000      -1.117384       -30.4056
  12   2.0000      -0.998131       -27.1605
  13   2.0000      -0.939055       -25.5530
  14   2.0000      -0.880331       -23.9550
  15   2.0000      -0.831441       -22.6247
  16   2.0000      -0.830918       -22.6104
  17   2.0000      -0.715297       -19.4642
  18   2.0000      -0.688836       -18.7442
  19   2.0000      -0.644768       -17.5450
  20   2.0000      -0.636488       -17.3197
  21   2.0000      -0.626472       -17.0472
  22   2.0000      -0.586710       -15.9652
  23   2.0000      -0.581852       -15.8330
  24   2.0000      -0.571025       -15.5384
  25   2.0000      -0.555797       -15.1240
  26   2.0000      -0.543507       -14.7896
  27   2.0000      -0.505267       -13.7490
  28   2.0000      -0.475256       -12.9324
  29   2.0000      -0.449229       -12.2241
  30   2.0000      -0.441490       -12.0135
  31   2.0000      -0.420891       -11.4530
  32   2.0000      -0.407961       -11.1012
  33   2.0000      -0.352214        -9.5842
  34   0.0000       0.132926         3.6171
  35   0.0000       0.146493         3.9863
  36   0.0000       0.162924         4.4334
  37   0.0000       0.168241         4.5781
  38   0.0000       0.191543         5.2122

MULLIKEN ATOMIC CHARGES
-----------------------
   0 C :   -0.316468
   1 N :   -0.209799
   2 C :   -0.033830
   3 C :   -0.096455
   4 C :    0.067445
   5 O :   -0.465019
   6 C :   -0.030425
   7 C :   -0.424523
   8 C :   -0.078084
   9 H :    0.137066
  10 H :    0.138958
  11 H :    0.093868
  12 H :    0.126986
  13 H :    0.134285
  14 H :    0.104613
  15 H :    0.314146
  16 H :    0.143279
  17 H :    0.133761
  18 H :    0.136942
  19 H :    0.123253
Sum of atomic charges:   -0.0000000

LOEWDIN ATOMIC CHARGES
----------------------
   0 C :   -0.336669
   1 N :    0.093074
   2 C :   -0.141552
   3 C :   -0.128603
   4 C :   -0.279800
   5 O :   -0.013036
   6 C :   -0.177617
   7 C :   -0.284715
   8 C :   -0.157443
   9 H :    0.118506
  10 H :    0.118653
  11 H :    0.102076
  12 H :    0.128340
  13 H :    0.131474
  14 H :    0.138984
  15 H :    0.176663
  16 H :    0.133852
  17 H :    0.121657
  18 H :    0.132110
  19 H :    0.124044

  Mayer bond orders larger than 0.1
B(  0-C ,  1-N ) :   0.9001 B(  0-C ,  9-H ) :   0.9400 B(  0-C , 10-H ) :   0.9411
B(  0-C , 11-H ) :   0.9171 B(  1-N ,  2-C ) :   0.8840 B(  1-N ,  8-C ) :   0.8898
B(  2-C ,  3-C ) :   0.8575 B(  2-C ,  6-C ) :   0.8376 B(  2-C , 12-H ) :   0.8925
B(  3-C ,  4-C ) :   0.8844 B(  3-C ,  8-C ) :   0.8257 B(  3-C , 13-H ) :   0.9011
B(  4-C ,  5-O ) :   0.9660 B(  4-C ,  6-C ) :   0.8880 B(  4-C , 14-H ) :   0.9573
B(  5-O , 15-H ) :   0.8404 B(  6-C ,  7-C ) :   0.8624 B(  6-C ,  8-C ) :   0.8080
B(  7-C , 16-H ) :   0.9405 B(  7-C , 17-H ) :   0.9418 B(  7-C , 18-H ) :   0.9392
B(  8-C , 19-H ) :   0.9052

MP2 TOTAL ENERGY:     -402.358722445 Eh
FINAL SINGLE POINT ENERGY      -402.358722444691

DIPOLE MOMENT
-------------
                                X             Y             Z
Electronic contribution:      1.47398      -5.78578       0.39682
Nuclear contribution   :     -1.51165       6.36191      -0.48883
                        -----------------------------------------
Total Dipole Moment    :     -0.03768       0.57612      -0.09201
                        -----------------------------------------
Magnitude (a.u.)       :      0.58464
Magnitude (Debye)      :      1.48604

                             ****ORCA TERMINATED NORMALLY****
TOTAL RUN TIME: 0 days 0 hours 18 minutes 24 seconds 292 msec
