                         Program Version 3.0.3 - RELEASE   -
|  1> ! RI-MP2 RIJK def2-TZVP def2-TZVP/C def2-TZVP/JK TIGHTSCF
|  2> % maxcore 2000
|  3> % mp2 density relaxed end
|  4> *xyz 0 1
|  5>  C       -0.3011559604     1.4571074607    -0.0362739607
|  6>  N        0.1265817782     0.0726399479     0.0073290572
|  7>  C        1.2292781448    -0.4002897819    -0.8523229680
|  8>  C        1.8399234001    -1.1668411378     0.3602847800
|  9>  C        2.1163150797    -2.6455991020     0.2607289650
| 10>  N        2.8176286439    -0.3599593462     1.1055097305
| 11>  C        1.8785423884     0.3583227785     1.8293908885
| 12>  O        1.9731926207     1.3174254488     2.5483550129
| 13>  C        0.7241148613    -0.4919061449     1.2295128353
| 14>  H        0.5072535254     2.1819144231     0.1567922185
| 15>  H       -0.7296899140     1.6703869457    -1.0212153503
| 16>  H       -1.0823049584     1.6186644394     0.7133323189
| 17>  H        0.8811555962    -1.0195466865    -1.6873987577
| 18>  H        1.8948201804     0.3826215760    -1.2441780349
| 19>  H        2.9663826637    -2.8411280681    -0.4037688231
| 20>  H        2.3522445666    -3.0647919146     1.2429931740
| 21>  H        1.2488717705    -3.1727785479    -0.1472156009
| 22>  H        3.7333986548    -0.0478371033     0.8044341562
| 23>  H        0.0384606881    -0.9979417766     1.9125193085
| 24> *
| 25>
| 26>                          ****END OF INPUT****

CARTESIAN COORDINATES (ANGSTROEM)
---------------------------------
  C     -0.301156    1.457107   -0.036274
  N      0.126582    0.072640    0.007329
  C      1.229278   -0.400290   -0.852323
  C      1.839923   -1.166841    0.360285
  C      2.116315   -2.645599    0.260729
  N      2.817629   -0.359959    1.105510
  C      1.878542    0.358323    1.829391
  O      1.973193    1.317425    2.548355
  C      0.724115   -0.491906    1.229513
  H      0.507254    2.181914    0.156792
  H     -0.729690    1.670387   -1.021215
  H     -1.082305    1.618664    0.713332
  H      0.881156   -1.019547   -1.687399
  H      1.894820    0.382622   -1.244178
  H      2.966383   -2.841128   -0.403769
  H      2.352245   -3.064792    1.242993
  H      1.248872   -3.172779   -0.147216
  H      3.733399   -0.047837    0.804434
  H      0.038461   -0.997942    1.912519

 Total Charge           Charge          ....    0
 Multiplicity           Mult            ....    1
 Number of Electrons    NEL             ....   68
 Basis Dimension        Dim             ....  339

ORBITAL ENERGIES
----------------

  NO   OCC          E(Eh)            E(eV)
   0   2.0000     -20.529946      -558.6482
   1   2.0000     -15.584639      -424.0796
   2   2.0000     -15.562416      -423.4749
   3   2.0000     -11.349561      -308.8373
   4   2.0000     -11.292031      -307.2718
   5   2.0000     -11.275744      -306.8286
   6   2.0000     -11.264319      -306.5177
   7   2.0000     -11.246855      -306.0425
   8   2.0000     -11.234331      -305.7017
   9   2.0000      -1.391104       -37.8539
  10   2.0000      -1.301124       -35.4054
  11   2.0000      -1.214519       -33.0488
  12   2.0000      -1.037244       -28.2248
  13   2.0000      -0.982675       -26.7399
  14   2.0000      -0.955039       -25.9879
  15   2.0000      -0.854880       -23.2625
  16   2.0000      -0.805155       -21.9094
  17   2.0000      -0.747582       -20.3427
  18   2.0000      -0.685938       -18.6653
  19   2.0000      -0.681455       -18.5433
  20   2.0000      -0.657995       -17.9049
  21   2.0000      -0.624575       -16.9955
  22   2.0000      -0.598372       -16.2825
  23   2.0000      -0.587486       -15.9863
  24   2.0000      -0.580448       -15.7948
  25   2.0000      -0.572885       -15.5890
  26   2.0000      -0.550051       -14.9676
  27   2.0000      -0.531386       -14.4597
  28   2.0000      -0.496552       -13.5119
  29   2.0000      -0.491499       -13.3744
  30   2.0000      -0.466753       -12.7010
  31   2.0000      -0.427480       -11.6323
  32   2.0000      -0.403402       -10.9771
  33   2.0000      -0.355089        -9.6625
  34   0.0000       0.122306         3.3281
  35   0.0000       0.149153         4.0587
  36   0.0000       0.154830         4.2131
  37   0.0000       0.173390         4.7182
  38   0.0000       0.181561         4.9405

MULLIKEN ATOMIC CHARGES
-----------------------
   0 C :   -0.314674
   1 N :   -0.138310
   2 C :   -0.159482
   3 C :    0.155187
   4 C :   -0.421697
   5 N :   -0.307109
   6 C :    0.168757
   7 O :   -0.305674
   8 C :   -0.063231
   9 H :    0.122057
  10 H :    0.136013
  11 H :    0.140407
  12 H :    0.112617
  13 H :    0.098060
  14 H :    0.134467
  15 H :    0.143136
  16 H :    0.142602
  17 H :    0.226742
  18 H :    0.130132
Sum of atomic charges:   -0.0000000

LOEWDIN ATOMIC CHARGES
----------------------
   0 C :   -0.328508
   1 N :    0.095773
   2 C :   -0.209449
   3 C :   -0.268247
   4 C :   -0.273366
   5 N :    0.155240
   6 C :   -0.419941
   7 O :    0.107015
   8 C :   -0.160792
   9 H :    0.107942
  10 H :    0.118398
  11 H :    0.123664
  12 H :    0.125423
  13 H :    0.122301
  14 H :    0.130439
  15 H :    0.132319
  16 H :    0.134291
  17 H :    0.170367
  18 H :    0.137130

  Mayer bond orders larger than 0.1
B(  0-C ,  1-N ) :   0.8939 B(  0-C ,  9-H ) :   0.9225 B(  0-C , 10-H ) :   0.9338
B(  0-C , 11-H ) :   0.9372 B(  1-N ,  2-C ) :   0.9674 B(  1-N ,  8-C ) :   1.0034
B(  2-C ,  3-C ) :   0.9328 B(  2-C , 12-H ) :   0.9074 B(  2-C , 13-H ) :   0.9066
B(  3-C ,  4-C ) :   0.8966 B(  3-C ,  5-N ) :   0.9243 B(  3-C ,  8-C ) :   0.8272
B(  4-C , 14-H ) :   0.9308 B(  4-C , 15-H ) :   0.9415 B(  4-C , 16-H ) :   0.9374
B(  5-N ,  6-C ) :   1.1653 B(  5-N ,  8-C ) :  -0.1046 B(  5-N , 17-H ) :   0.8474
B(  6-C ,  7-O ) :   2.0155 B(  6-C ,  8-C ) :   0.8494 B(  8-C , 18-H ) :   0.8958

MP2 TOTAL ENERGY:     -418.491140033 Eh
FINAL SINGLE POINT ENERGY      -418.491140032931

DIPOLE MOMENT
-------------
                                X             Y             Z
Electronic contribution:      2.14641       2.41792       5.26449
Nuclear contribution   :     -1.89696      -3.23171      -6.37725
                        -----------------------------------------
Total Dipole Moment    :      0.24945      -0.81380      -1.11276
                        -----------------------------------------
Magnitude (a.u.)       :      1.40098
Magnitude (Debye)      :      3.56100

                             ****ORCA TERMINATED NORMALLY****
TOTAL RUN TIME: 0 days 0 hours 19 minutes 37 seconds 846 msec
