                         Program Version 3.0.3 - RELEASE   -
|  1> ! RI-MP2 RIJK def2-TZVP def2-TZVP/C def2-TZVP/JK TIGHTSCF
|  2> % maxcore 2000
|  3> % mp2 density relaxed end
|  4> *xyz 0 1
|  5>  C       -0.0675193843     1.5821932048     0.2302021768
|  6>  C        0.0510566099     0.0739313889    -0.0355082001
|  7>  O        0.9892582468    -0.5116964493     0.8523119724
|  8>  C       -1.3238957633    -0.5988917475    -0.0056368256
|  9>  O       -2.2306593394    -0.0381633683    -0.9266882517
| 10>  C       -1.6406784580    -2.0774025394     0.1068823804
| 11>  C       -0.7999661291    -2.7770251244     1.1643934413
| 12>  O       -1.1086035895    -1.7353574522     2.1506139236
| 13>  C       -2.0205467995    -1.1190880198     1.2243595140
| 14>  H        0.9334985597     2.0194962586     0.2507093145
| 15>  H       -0.6425868887     2.0931444431    -0.5489215166
| 16>  H       -0.5405574485     1.7714258477     1.2014216925
| 17>  H        0.4591191601    -0.0710681914    -1.0442227017
| 18>  H        0.5286547073    -0.6722749704     1.6880317019
| 19>  H       -2.4734644978     0.8387696799    -0.6102963477
| 20>  H       -2.2654141684    -2.5529150182    -0.6363378676
| 21>  H       -1.2350504324    -3.7275047259     1.4904855098
| 22>  H        0.2731949604    -2.8773235401     0.9951413582
| 23>  H       -2.9740484554    -0.7664352661     1.6033502456
| 24> *
| 25>
| 26>                          ****END OF INPUT****

CARTESIAN COORDINATES (ANGSTROEM)
---------------------------------
  C     -0.067519    1.582193    0.230202
  C      0.051057    0.073931   -0.035508
  O      0.989258   -0.511696    0.852312
  C     -1.323896   -0.598892   -0.005637
  O     -2.230659   -0.038163   -0.926688
  C     -1.640678   -2.077403    0.106882
  C     -0.799966   -2.777025    1.164393
  O     -1.108604   -1.735357    2.150614
  C     -2.020547   -1.119088    1.224360
  H      0.933499    2.019496    0.250709
  H     -0.642587    2.093144   -0.548922
  H     -0.540557    1.771426    1.201422
  H      0.459119   -0.071068   -1.044223
  H      0.528655   -0.672275    1.688032
  H     -2.473464    0.838770   -0.610296
  H     -2.265414   -2.552915   -0.636338
  H     -1.235050   -3.727505    1.490486
  H      0.273195   -2.877324    0.995141
  H     -2.974048   -0.766435    1.603350

 Total Charge           Charge          ....    0
 Multiplicity           Mult            ....    1
 Number of Electrons    NEL             ....   70
 Basis Dimension        Dim             ....  339

ORBITAL ENERGIES
----------------

  NO   OCC          E(Eh)            E(eV)
   0   2.0000     -20.578976      -559.9824
   1   2.0000     -20.571570      -559.7809
   2   2.0000     -20.546427      -559.0967
   3   2.0000     -11.304541      -307.6122
   4   2.0000     -11.298363      -307.4441
   5   2.0000     -11.292533      -307.2854
   6   2.0000     -11.287530      -307.1493
   7   2.0000     -11.246330      -306.0282
   8   2.0000     -11.221512      -305.3529
   9   2.0000      -1.412523       -38.4367
  10   2.0000      -1.382955       -37.6321
  11   2.0000      -1.355081       -36.8736
  12   2.0000      -1.115522       -30.3549
  13   2.0000      -1.020927       -27.7808
  14   2.0000      -0.957620       -26.0582
  15   2.0000      -0.881071       -23.9752
  16   2.0000      -0.798821       -21.7370
  17   2.0000      -0.776477       -21.1290
  18   2.0000      -0.737947       -20.0806
  19   2.0000      -0.695652       -18.9296
  20   2.0000      -0.666363       -18.1327
  21   2.0000      -0.647832       -17.6284
  22   2.0000      -0.631444       -17.1825
  23   2.0000      -0.608199       -16.5499
  24   2.0000      -0.590625       -16.0717
  25   2.0000      -0.578353       -15.7378
  26   2.0000      -0.547000       -14.8846
  27   2.0000      -0.539796       -14.6886
  28   2.0000      -0.526058       -14.3148
  29   2.0000      -0.505800       -13.7635
  30   2.0000      -0.493423       -13.4267
  31   2.0000      -0.488896       -13.3035
  32   2.0000      -0.456230       -12.4146
  33   2.0000      -0.398166       -10.8346
  34   2.0000      -0.378262       -10.2930
  35   0.0000       0.129098         3.5129
  36   0.0000       0.156687         4.2637
  37   0.0000       0.163406         4.4465
  38   0.0000       0.171861         4.6766
  39   0.0000       0.192676         5.2430

MULLIKEN ATOMIC CHARGES
-----------------------
   0 C :   -0.449106
   1 C :    0.143310
   2 O :   -0.473144
   3 C :    0.147604
   4 O :   -0.468120
   5 C :   -0.187100
   6 C :   -0.057190
   7 O :   -0.372694
   8 C :   -0.004965
   9 H :    0.151033
  10 H :    0.122864
  11 H :    0.129618
  12 H :    0.095806
  13 H :    0.334803
  14 H :    0.330397
  15 H :    0.147115
  16 H :    0.118559
  17 H :    0.148262
  18 H :    0.142949
Sum of atomic charges:   -0.0000000

LOEWDIN ATOMIC CHARGES
----------------------
   0 C :   -0.303783
   1 C :   -0.337432
   2 O :   -0.008421
   3 C :   -0.317705
   4 O :    0.043151
   5 C :   -0.156809
   6 C :   -0.232299
   7 O :    0.125432
   8 C :   -0.222076
   9 H :    0.130786
  10 H :    0.119923
  11 H :    0.123095
  12 H :    0.149653
  13 H :    0.173878
  14 H :    0.181608
  15 H :    0.145753
  16 H :    0.127090
  17 H :    0.125425
  18 H :    0.132731

  Mayer bond orders larger than 0.1
B(  0-C ,  1-C ) :   0.8921 B(  0-C ,  9-H ) :   0.9361 B(  0-C , 10-H ) :   0.9346
B(  0-C , 11-H ) :   0.9311 B(  1-C ,  2-O ) :   0.9588 B(  1-C ,  3-C ) :   0.9045
B(  1-C , 12-H ) :   0.9224 B(  2-O , 13-H ) :   0.8073 B(  3-C ,  4-O ) :   0.9057
B(  3-C ,  5-C ) :   0.8758 B(  3-C ,  8-C ) :   0.8698 B(  4-O , 14-H ) :   0.8369
B(  5-C ,  6-C ) :   0.9704 B(  5-C ,  8-C ) :   0.9009 B(  5-C , 15-H ) :   0.9159
B(  6-C ,  7-O ) :   0.8700 B(  6-C , 16-H ) :   0.9156 B(  6-C , 17-H ) :   0.9210
B(  7-O ,  8-C ) :   0.8856 B(  8-C , 18-H ) :   0.9152

MP2 TOTAL ENERGY:     -459.373159913 Eh
FINAL SINGLE POINT ENERGY      -459.373159913086

DIPOLE MOMENT
-------------
                                X             Y             Z
Electronic contribution:     -1.53749      -3.31251       0.87651
Nuclear contribution   :      0.86890       3.47838      -0.91322
                        -----------------------------------------
Total Dipole Moment    :     -0.66859       0.16587      -0.03671
                        -----------------------------------------
Magnitude (a.u.)       :      0.68983
Magnitude (Debye)      :      1.75342

                             ****ORCA TERMINATED NORMALLY****
TOTAL RUN TIME: 0 days 0 hours 17 minutes 34 seconds 980 msec
