                         Program Version 3.0.3 - RELEASE   -
|  1> ! RI-MP2 RIJK def2-TZVP def2-TZVP/C def2-TZVP/JK TIGHTSCF
|  2> % maxcore 2000
|  3> % mp2 density relaxed end
|  4> *xyz 0 1
|  5>  C       -0.0158932010     1.4664581127     0.0169745687
|  6>  N        0.0031688848     0.0034280488     0.0350370806
|  7>  C        0.0604953322    -0.6779198108    -1.2209255007
|  8>  N        0.0903347705     0.0472868687    -2.2690537448
|  9>  N        0.0782820889    -2.0630484027    -1.1765548815
| 10>  C        0.0418242982    -2.6317331449    -0.0120901281
| 11>  N       -0.0135195868    -2.0323885789     1.2123477844
| 12>  C       -0.0301041387    -0.7256041382     1.1630565617
| 13>  O       -0.0832479505    -0.0372098905     2.3048317521
| 14>  H        0.8800850041     1.8286291374    -0.4908620005
| 15>  H       -0.8802565963     1.8051919276    -0.5575206379
| 16>  H       -0.0595406355     1.8399751457     1.0364898473
| 17>  H        0.1299956751    -0.5682843439    -3.0795455642
| 18>  H        0.0562609007    -3.7199416161     0.0119699992
| 19>  H       -0.1004873258    -0.7049988549     3.0061218638
| 20> *
| 21>
| 22>                          ****END OF INPUT****

CARTESIAN COORDINATES (ANGSTROEM)
---------------------------------
  C     -0.015893    1.466458    0.016975
  N      0.003169    0.003428    0.035037
  C      0.060495   -0.677920   -1.220926
  N      0.090335    0.047287   -2.269054
  N      0.078282   -2.063048   -1.176555
  C      0.041824   -2.631733   -0.012090
  N     -0.013520   -2.032389    1.212348
  C     -0.030104   -0.725604    1.163057
  O     -0.083248   -0.037210    2.304832
  H      0.880085    1.828629   -0.490862
  H     -0.880257    1.805192   -0.557521
  H     -0.059541    1.839975    1.036490
  H      0.129996   -0.568284   -3.079546
  H      0.056261   -3.719942    0.011970
  H     -0.100487   -0.704999    3.006122

 Total Charge           Charge          ....    0
 Multiplicity           Mult            ....    1
 Number of Electrons    NEL             ....   66
 Basis Dimension        Dim             ....  315

ORBITAL ENERGIES
----------------

  NO   OCC          E(Eh)            E(eV)
   0   2.0000     -20.643666      -561.7427
   1   2.0000     -15.639151      -425.5629
   2   2.0000     -15.564704      -423.5371
   3   2.0000     -15.559143      -423.3858
   4   2.0000     -15.521697      -422.3668
   5   2.0000     -11.423994      -310.8627
   6   2.0000     -11.350934      -308.8746
   7   2.0000     -11.335549      -308.4560
   8   2.0000     -11.273583      -306.7698
   9   2.0000      -1.489742       -40.5379
  10   2.0000      -1.358401       -36.9640
  11   2.0000      -1.258674       -34.2503
  12   2.0000      -1.225656       -33.3518
  13   2.0000      -1.147511       -31.2254
  14   2.0000      -0.992571       -27.0092
  15   2.0000      -0.913821       -24.8663
  16   2.0000      -0.895998       -24.3813
  17   2.0000      -0.779568       -21.2131
  18   2.0000      -0.772615       -21.0239
  19   2.0000      -0.694900       -18.9092
  20   2.0000      -0.693258       -18.8645
  21   2.0000      -0.665820       -18.1179
  22   2.0000      -0.643490       -17.5102
  23   2.0000      -0.612986       -16.6802
  24   2.0000      -0.611462       -16.6387
  25   2.0000      -0.577539       -15.7156
  26   2.0000      -0.564309       -15.3556
  27   2.0000      -0.496873       -13.5206
  28   2.0000      -0.475282       -12.9331
  29   2.0000      -0.450537       -12.2597
  30   2.0000      -0.440740       -11.9932
  31   2.0000      -0.432188       -11.7604
  32   2.0000      -0.343194        -9.3388
  33   0.0000       0.103818         2.8250
  34   0.0000       0.128134         3.4867
  35   0.0000       0.156263         4.2521
  36   0.0000       0.166733         4.5370
  37   0.0000       0.173884         4.7316

MULLIKEN ATOMIC CHARGES
-----------------------
   0 C :   -0.303774
   1 N :   -0.050122
   2 C :    0.184591
   3 N :   -0.429703
   4 N :   -0.277056
   5 C :    0.065271
   6 N :   -0.365257
   7 C :    0.364766
   8 O :   -0.410966
   9 H :    0.161074
  10 H :    0.161065
  11 H :    0.172843
  12 H :    0.228734
  13 H :    0.138998
  14 H :    0.359535
Sum of atomic charges:    0.0000000

LOEWDIN ATOMIC CHARGES
----------------------
   0 C :   -0.256087
   1 N :    0.248816
   2 C :   -0.403338
   3 N :   -0.079748
   4 N :    0.106171
   5 C :   -0.283533
   6 N :    0.059997
   7 C :   -0.424456
   8 O :    0.117320
   9 H :    0.131695
  10 H :    0.131688
  11 H :    0.128213
  12 H :    0.170566
  13 H :    0.137772
  14 H :    0.214924

  Mayer bond orders larger than 0.1
B(  0-C ,  1-N ) :   0.8509 B(  0-C ,  9-H ) :   0.9265 B(  0-C , 10-H ) :   0.9265
B(  0-C , 11-H ) :   0.9174 B(  1-N ,  2-C ) :   0.9612 B(  1-N ,  7-C ) :   1.2619
B(  2-C ,  3-N ) :   1.9003 B(  2-C ,  4-N ) :   1.1438 B(  3-N , 12-H ) :   0.8570
B(  4-N ,  5-C ) :   1.6322 B(  5-C ,  6-N ) :   1.2064 B(  5-C , 13-H ) :   0.9336
B(  6-N ,  7-C ) :   1.4866 B(  7-C ,  8-O ) :   1.1479 B(  8-O , 14-H ) :   0.7989

MP2 TOTAL ENERGY:     -449.444204820 Eh
FINAL SINGLE POINT ENERGY      -449.444204819908

DIPOLE MOMENT
-------------
                                X             Y             Z
Electronic contribution:      0.00073      -4.06501       1.40997
Nuclear contribution   :     -0.04724       4.36431      -0.28826
                        -----------------------------------------
Total Dipole Moment    :     -0.04651       0.29930       1.12171
                        -----------------------------------------
Magnitude (a.u.)       :      1.16189
Magnitude (Debye)      :      2.95328

                             ****ORCA TERMINATED NORMALLY****
TOTAL RUN TIME: 0 days 0 hours 15 minutes 4 seconds 653 msec
