                         Program Version 3.0.3 - RELEASE   -
|  1> ! RI-MP2 RIJK def2-TZVP def2-TZVP/C def2-TZVP/JK TIGHTSCF
|  2> % maxcore 2000
|  3> % mp2 density relaxed end
|  4> *xyz 0 1
|  5>  O        0.1726020108     1.3473851854    -0.0733197284
|  6>  C        0.0686310555    -0.0591817103     0.0263548141
|  7>  C        0.2914199031    -0.7792482009     1.3865616558
|  8>  N       -1.0727484061    -1.4143360687     1.3260119736
|  9>  C       -2.0624664555    -0.3254905629     1.3271059104
| 10>  C       -1.9673033322     0.9568284930     2.1495664933
| 11>  C       -2.0817636495     0.7109515063     3.5839188946
| 12>  C       -2.1703056144     0.4908865759     4.7621566324
| 13>  C       -1.3535045688    -0.5928951046     0.0567686194
| 14>  H        1.1029886938     1.5774226134    -0.1648033345
| 15>  H        0.6467275338    -0.5460552402    -0.7685629692
| 16>  H        1.0586289829    -1.5553337782     1.3547078739
| 17>  H        0.4580195094    -0.1454685631     2.2616197084
| 18>  H       -3.0605183854    -0.7586327163     1.3591677578
| 19>  H       -1.0481111227     1.5016168124     1.9242732408
| 20>  H       -2.7837324445     1.6142057253     1.8234853314
| 21>  H       -2.2502036478     0.3016004005     5.8037055341
| 22>  H       -1.8617612823    -1.0225182769    -0.8007860781
| 23> *
| 24>
| 25>                          ****END OF INPUT****

CARTESIAN COORDINATES (ANGSTROEM)
---------------------------------
  O      0.172602    1.347385   -0.073320
  C      0.068631   -0.059182    0.026355
  C      0.291420   -0.779248    1.386562
  N     -1.072748   -1.414336    1.326012
  C     -2.062466   -0.325491    1.327106
  C     -1.967303    0.956828    2.149566
  C     -2.081764    0.710952    3.583919
  C     -2.170306    0.490887    4.762157
  C     -1.353505   -0.592895    0.056769
  H      1.102989    1.577423   -0.164803
  H      0.646728   -0.546055   -0.768563
  H      1.058629   -1.555334    1.354708
  H      0.458020   -0.145469    2.261620
  H     -3.060518   -0.758633    1.359168
  H     -1.048111    1.501617    1.924273
  H     -2.783732    1.614206    1.823485
  H     -2.250204    0.301600    5.803706
  H     -1.861761   -1.022518   -0.800786

 Total Charge           Charge          ....    0
 Multiplicity           Mult            ....    1
 Number of Electrons    NEL             ....   66
 Basis Dimension        Dim             ....  333

ORBITAL ENERGIES
----------------

  NO   OCC          E(Eh)            E(eV)
   0   2.0000     -20.571626      -559.7824
   1   2.0000     -15.565251      -423.5520
   2   2.0000     -11.297731      -307.4269
   3   2.0000     -11.270943      -306.6980
   4   2.0000     -11.264085      -306.5113
   5   2.0000     -11.256681      -306.3099
   6   2.0000     -11.252405      -306.1935
   7   2.0000     -11.230909      -305.6086
   8   2.0000     -11.217332      -305.2391
   9   2.0000      -1.380131       -37.5553
  10   2.0000      -1.288661       -35.0662
  11   2.0000      -1.071412       -29.1546
  12   2.0000      -1.007009       -27.4021
  13   2.0000      -0.964054       -26.2332
  14   2.0000      -0.935652       -25.4604
  15   2.0000      -0.794552       -21.6208
  16   2.0000      -0.759864       -20.6769
  17   2.0000      -0.733339       -19.9552
  18   2.0000      -0.712604       -19.3909
  19   2.0000      -0.681878       -18.5549
  20   2.0000      -0.642003       -17.4698
  21   2.0000      -0.624874       -17.0037
  22   2.0000      -0.615418       -16.7464
  23   2.0000      -0.581860       -15.8332
  24   2.0000      -0.570410       -15.5217
  25   2.0000      -0.549065       -14.9408
  26   2.0000      -0.504637       -13.7319
  27   2.0000      -0.463816       -12.6211
  28   2.0000      -0.451906       -12.2970
  29   2.0000      -0.425350       -11.5744
  30   2.0000      -0.383242       -10.4286
  31   2.0000      -0.382161       -10.3991
  32   2.0000      -0.377121       -10.2620
  33   0.0000       0.123040         3.3481
  34   0.0000       0.152961         4.1623
  35   0.0000       0.161276         4.3885
  36   0.0000       0.170658         4.6438
  37   0.0000       0.177171         4.8211

MULLIKEN ATOMIC CHARGES
-----------------------
   0 O :   -0.464321
   1 C :    0.028655
   2 C :   -0.169632
   3 N :   -0.228665
   4 C :   -0.012961
   5 C :   -0.344351
   6 C :   -0.021117
   7 C :   -0.170979
   8 C :   -0.065685
   9 H :    0.319693
  10 H :    0.100862
  11 H :    0.126509
  12 H :    0.126711
  13 H :    0.122225
  14 H :    0.182021
  15 H :    0.150274
  16 H :    0.187874
  17 H :    0.132890
Sum of atomic charges:   -0.0000000

LOEWDIN ATOMIC CHARGES
----------------------
   0 O :   -0.019261
   1 C :   -0.329969
   2 C :   -0.233132
   3 N :    0.121227
   4 C :   -0.235225
   5 C :   -0.233341
   6 C :   -0.107827
   7 C :   -0.105297
   8 C :   -0.172543
   9 H :    0.176000
  10 H :    0.136628
  11 H :    0.127824
  12 H :    0.127669
  13 H :    0.158051
  14 H :    0.163278
  15 H :    0.166093
  16 H :    0.125932
  17 H :    0.133891

  Mayer bond orders larger than 0.1
B(  0-O ,  1-C ) :   1.0539 B(  0-O ,  9-H ) :   0.8415 B(  1-C ,  2-C ) :   0.9533
B(  1-C ,  8-C ) :   0.9080 B(  1-C , 10-H ) :   0.9420 B(  2-C ,  3-N ) :   0.9247
B(  2-C , 11-H ) :   0.9169 B(  2-C , 12-H ) :   0.9235 B(  3-N ,  4-C ) :   0.9414
B(  3-N ,  8-C ) :   0.8404 B(  4-C ,  5-C ) :   0.8738 B(  4-C ,  8-C ) :   0.9573
B(  4-C , 13-H ) :   0.9268 B(  5-C ,  6-C ) :   1.0451 B(  5-C , 14-H ) :   0.9369
B(  5-C , 15-H ) :   0.9198 B(  6-C ,  7-C ) :   2.6331 B(  7-C , 16-H ) :   0.9072
B(  8-C , 17-H ) :   0.9017

MP2 TOTAL ENERGY:     -401.161211876 Eh
FINAL SINGLE POINT ENERGY      -401.161211875947

DIPOLE MOMENT
-------------
                                X             Y             Z
Electronic contribution:     -1.07510      -0.09203       0.57966
Nuclear contribution   :      1.77240       0.40050      -1.04634
                        -----------------------------------------
Total Dipole Moment    :      0.69730       0.30848      -0.46668
                        -----------------------------------------
Magnitude (a.u.)       :      0.89397
Magnitude (Debye)      :      2.27228

                             ****ORCA TERMINATED NORMALLY****
TOTAL RUN TIME: 0 days 0 hours 17 minutes 39 seconds 234 msec
