                         Program Version 3.0.3 - RELEASE   -
|  1> ! RI-MP2 RIJK def2-TZVP def2-TZVP/C def2-TZVP/JK TIGHTSCF
|  2> % maxcore 2000
|  3> % mp2 density relaxed end
|  4> *xyz 0 1
|  5>  C        0.2720869851    -1.2874202744     0.0080044554
|  6>  C        0.1200177459    -0.0957327046    -0.0122719131
|  7>  C       -0.0444807754     1.3547301311    -0.0722218278
|  8>  C        1.3583917382     2.0353439970    -0.0921355422
|  9>  C        1.2797351537     3.4770337532     0.1303250750
| 10>  N        1.1944581260     4.6111622712     0.3356970187
| 11>  C       -0.8901796545     1.7450418419    -1.2808090565
| 12>  C       -2.3605959619     1.8724744063    -1.1434422387
| 13>  N       -1.5254441296     3.0622770336    -1.3741836988
| 14>  H        0.3924041720    -2.3424557041     0.0380756233
| 15>  H       -0.5624964290     1.6903814284     0.8362204631
| 16>  H        1.9883802620     1.5963562135     0.6874192362
| 17>  H        1.8496151669     1.8393203969    -1.0507803656
| 18>  H       -0.4839034088     1.3856231482    -2.2246032976
| 19>  H       -3.0108869056     1.5992257921    -1.9689342494
| 20>  H       -2.7910429721     1.7147031655    -0.1572374044
| 21>  H       -1.3980030630     3.5960270141    -0.5177894974
| 22> *
| 23>
| 24>                          ****END OF INPUT****

CARTESIAN COORDINATES (ANGSTROEM)
---------------------------------
  C      0.272087   -1.287420    0.008004
  C      0.120018   -0.095733   -0.012272
  C     -0.044481    1.354730   -0.072222
  C      1.358392    2.035344   -0.092136
  C      1.279735    3.477034    0.130325
  N      1.194458    4.611162    0.335697
  C     -0.890180    1.745042   -1.280809
  C     -2.360596    1.872474   -1.143442
  N     -1.525444    3.062277   -1.374184
  H      0.392404   -2.342456    0.038076
  H     -0.562496    1.690381    0.836220
  H      1.988380    1.596356    0.687419
  H      1.849615    1.839320   -1.050780
  H     -0.483903    1.385623   -2.224603
  H     -3.010887    1.599226   -1.968934
  H     -2.791043    1.714703   -0.157237
  H     -1.398003    3.596027   -0.517789

 Total Charge           Charge          ....    0
 Multiplicity           Mult            ....    1
 Number of Electrons    NEL             ....   64
 Basis Dimension        Dim             ....  327

ORBITAL ENERGIES
----------------

  NO   OCC          E(Eh)            E(eV)
   0   2.0000     -15.577697      -423.8907
   1   2.0000     -15.568690      -423.6456
   2   2.0000     -11.299500      -307.4750
   3   2.0000     -11.297706      -307.4262
   4   2.0000     -11.281982      -306.9983
   5   2.0000     -11.281089      -306.9740
   6   2.0000     -11.266820      -306.5858
   7   2.0000     -11.255573      -306.2797
   8   2.0000     -11.246357      -306.0289
   9   2.0000      -1.277841       -34.7718
  10   2.0000      -1.227599       -33.4047
  11   2.0000      -1.129997       -30.7488
  12   2.0000      -1.038686       -28.2641
  13   2.0000      -0.965790       -26.2805
  14   2.0000      -0.895147       -24.3582
  15   2.0000      -0.835651       -22.7392
  16   2.0000      -0.754746       -20.5377
  17   2.0000      -0.721428       -19.6311
  18   2.0000      -0.698382       -19.0039
  19   2.0000      -0.665601       -18.1119
  20   2.0000      -0.646907       -17.6032
  21   2.0000      -0.629774       -17.1370
  22   2.0000      -0.581865       -15.8333
  23   2.0000      -0.560917       -15.2633
  24   2.0000      -0.538406       -14.6508
  25   2.0000      -0.501250       -13.6397
  26   2.0000      -0.491644       -13.3783
  27   2.0000      -0.468482       -12.7480
  28   2.0000      -0.461564       -12.5598
  29   2.0000      -0.416357       -11.3296
  30   2.0000      -0.410850       -11.1798
  31   2.0000      -0.397287       -10.8107
  32   0.0000       0.120228         3.2716
  33   0.0000       0.135314         3.6821
  34   0.0000       0.143160         3.8956
  35   0.0000       0.154161         4.1949
  36   0.0000       0.155416         4.2291

MULLIKEN ATOMIC CHARGES
-----------------------
   0 C :   -0.099553
   1 C :   -0.051423
   2 C :   -0.238231
   3 C :   -0.074112
   4 C :   -0.200028
   5 N :   -0.056173
   6 C :   -0.053166
   7 C :   -0.183593
   8 N :   -0.340903
   9 H :    0.199576
  10 H :    0.135043
  11 H :    0.173674
  12 H :    0.162382
  13 H :    0.133540
  14 H :    0.128411
  15 H :    0.130307
  16 H :    0.234248
Sum of atomic charges:    0.0000000

LOEWDIN ATOMIC CHARGES
----------------------
   0 C :   -0.080190
   1 C :   -0.083070
   2 C :   -0.221819
   3 C :   -0.199553
   4 C :   -0.193818
   5 N :    0.062022
   6 C :   -0.250384
   7 C :   -0.254776
   8 N :   -0.000086
   9 H :    0.130191
  10 H :    0.178914
  11 H :    0.171669
  12 H :    0.170588
  13 H :    0.149810
  14 H :    0.127170
  15 H :    0.124052
  16 H :    0.169280

  Mayer bond orders larger than 0.1
B(  0-C ,  1-C ) :   2.6104 B(  0-C ,  2-C ) :  -0.1044 B(  0-C ,  9-H ) :   0.8815
B(  1-C ,  2-C ) :   1.1559 B(  2-C ,  3-C ) :   0.9099 B(  2-C ,  6-C ) :   0.9159
B(  2-C , 10-H ) :   0.9120 B(  3-C ,  4-C ) :   0.9166 B(  3-C , 11-H ) :   0.9087
B(  3-C , 12-H ) :   0.8921 B(  4-C ,  5-N ) :   2.8572 B(  6-C ,  7-C ) :   0.9460
B(  6-C ,  8-N ) :   0.9544 B(  6-C , 13-H ) :   0.8997 B(  7-C ,  8-N ) :   0.9259
B(  7-C , 14-H ) :   0.9212 B(  7-C , 15-H ) :   0.9124 B(  8-N , 16-H ) :   0.8616

MP2 TOTAL ENERGY:     -380.136079689 Eh
FINAL SINGLE POINT ENERGY      -380.136079688909

DIPOLE MOMENT
-------------
                                X             Y             Z
Electronic contribution:      2.99518       2.14204       1.30373
Nuclear contribution   :     -3.02710      -3.82427      -1.05896
                        -----------------------------------------
Total Dipole Moment    :     -0.03191      -1.68222       0.24477
                        -----------------------------------------
Magnitude (a.u.)       :      1.70024
Magnitude (Debye)      :      4.32166

                             ****ORCA TERMINATED NORMALLY****
TOTAL RUN TIME: 0 days 0 hours 16 minutes 28 seconds 695 msec
