                         Program Version 3.0.3 - RELEASE   -
|  1> ! RI-MP2 RIJK def2-TZVP def2-TZVP/C def2-TZVP/JK TIGHTSCF
|  2> % maxcore 2000
|  3> % mp2 density relaxed end
|  4> *xyz 0 1
|  5>  C       -0.1254888441     1.5502806978    -0.0069534766
|  6>  C       -0.0863442872     0.0209489073    -0.0497271225
|  7>  C        0.8013019117    -0.5115574164    -1.1844256306
|  8>  O        2.1259981651    -0.0223964365    -1.1118399402
|  9>  C        0.7795729347    -2.0645403283    -1.2570518659
| 10>  O        1.4106918269    -2.5644802306    -2.4247082164
| 11>  C        0.5970713219    -2.5415766487    -3.5769139427
| 12>  C        1.4777601886    -2.6311614137    -0.0999798504
| 13>  C        2.0721509893    -3.0342275162     0.8641473713
| 14>  H        0.8857954474     1.9547852851     0.0816526037
| 15>  H       -0.5686055232     1.9605735363    -0.9213563736
| 16>  H       -0.7181657133     1.9064213545     0.8408045590
| 17>  H        0.2876775017    -0.3724416651     0.9039699056
| 18>  H       -1.1014033638    -0.3790692611    -0.1739042411
| 19>  H        0.4110328837    -0.1386857495    -2.1393490157
| 20>  H        2.5671258959    -0.4917743078    -0.3918610665
| 21>  H       -0.2736858934    -2.3930767830    -1.2339972626
| 22>  H       -0.3372069824    -3.1044619007    -3.4241208198
| 23>  H        0.3393865562    -1.5219488948    -3.8970262814
| 24>  H        1.1701583616    -3.0186607787    -4.3749870894
| 25>  H        2.5827777326    -3.4250598397     1.7099087758
| 26> *
| 27>
| 28>                          ****END OF INPUT****

CARTESIAN COORDINATES (ANGSTROEM)
---------------------------------
  C     -0.125489    1.550281   -0.006953
  C     -0.086344    0.020949   -0.049727
  C      0.801302   -0.511557   -1.184426
  O      2.125998   -0.022396   -1.111840
  C      0.779573   -2.064540   -1.257052
  O      1.410692   -2.564480   -2.424708
  C      0.597071   -2.541577   -3.576914
  C      1.477760   -2.631161   -0.099980
  C      2.072151   -3.034228    0.864147
  H      0.885795    1.954785    0.081653
  H     -0.568606    1.960574   -0.921356
  H     -0.718166    1.906421    0.840805
  H      0.287678   -0.372442    0.903970
  H     -1.101403   -0.379069   -0.173904
  H      0.411033   -0.138686   -2.139349
  H      2.567126   -0.491774   -0.391861
  H     -0.273686   -2.393077   -1.233997
  H     -0.337207   -3.104462   -3.424121
  H      0.339387   -1.521949   -3.897026
  H      1.170158   -3.018661   -4.374987
  H      2.582778   -3.425060    1.709909

 Total Charge           Charge          ....    0
 Multiplicity           Mult            ....    1
 Number of Electrons    NEL             ....   70
 Basis Dimension        Dim             ....  351

ORBITAL ENERGIES
----------------

  NO   OCC          E(Eh)            E(eV)
   0   2.0000     -20.565532      -559.6166
   1   2.0000     -20.551263      -559.2283
   2   2.0000     -11.314773      -307.8906
   3   2.0000     -11.286919      -307.1327
   4   2.0000     -11.277755      -306.8833
   5   2.0000     -11.243292      -305.9455
   6   2.0000     -11.236471      -305.7599
   7   2.0000     -11.225572      -305.4633
   8   2.0000     -11.212481      -305.1071
   9   2.0000      -1.390651       -37.8415
  10   2.0000      -1.358511       -36.9670
  11   2.0000      -1.083005       -29.4701
  12   2.0000      -1.042937       -28.3798
  13   2.0000      -0.986256       -26.8374
  14   2.0000      -0.928908       -25.2769
  15   2.0000      -0.865474       -23.5507
  16   2.0000      -0.816574       -22.2201
  17   2.0000      -0.737413       -20.0660
  18   2.0000      -0.693489       -18.8708
  19   2.0000      -0.685485       -18.6530
  20   2.0000      -0.673305       -18.3216
  21   2.0000      -0.636441       -17.3184
  22   2.0000      -0.627503       -17.0752
  23   2.0000      -0.606061       -16.4918
  24   2.0000      -0.575423       -15.6580
  25   2.0000      -0.550735       -14.9863
  26   2.0000      -0.532961       -14.5026
  27   2.0000      -0.525982       -14.3127
  28   2.0000      -0.499056       -13.5800
  29   2.0000      -0.487465       -13.2646
  30   2.0000      -0.485653       -13.2153
  31   2.0000      -0.450076       -12.2472
  32   2.0000      -0.427608       -11.6358
  33   2.0000      -0.405867       -11.0442
  34   2.0000      -0.394919       -10.7463
  35   0.0000       0.130970         3.5639
  36   0.0000       0.149187         4.0596
  37   0.0000       0.157867         4.2958
  38   0.0000       0.161637         4.3984
  39   0.0000       0.168450         4.5838

MULLIKEN ATOMIC CHARGES
-----------------------
   0 C :   -0.384584
   1 C :   -0.222200
   2 C :    0.078278
   3 O :   -0.467050
   4 C :   -0.024511
   5 O :   -0.280102
   6 C :   -0.223267
   7 C :   -0.062114
   8 C :   -0.111085
   9 H :    0.142606
  10 H :    0.117296
  11 H :    0.132161
  12 H :    0.121030
  13 H :    0.103795
  14 H :    0.084185
  15 H :    0.321056
  16 H :    0.103637
  17 H :    0.113769
  18 H :    0.114568
  19 H :    0.147185
  20 H :    0.195347
Sum of atomic charges:    0.0000000

LOEWDIN ATOMIC CHARGES
----------------------
   0 C :   -0.317667
   1 C :   -0.278027
   2 C :   -0.328826
   3 O :    0.000846
   4 C :   -0.306354
   5 O :    0.174112
   6 C :   -0.354041
   7 C :   -0.087600
   8 C :   -0.085521
   9 H :    0.125894
  10 H :    0.120522
  11 H :    0.120217
  12 H :    0.141862
  13 H :    0.138603
  14 H :    0.147188
  15 H :    0.181816
  16 H :    0.156281
  17 H :    0.102485
  18 H :    0.101305
  19 H :    0.117360
  20 H :    0.129546

  Mayer bond orders larger than 0.1
B(  0-C ,  1-C ) :   0.9199 B(  0-C ,  9-H ) :   0.9364 B(  0-C , 10-H ) :   0.9370
B(  0-C , 11-H ) :   0.9405 B(  1-C ,  2-C ) :   0.9265 B(  1-C , 12-H ) :   0.9174
B(  1-C , 13-H ) :   0.9234 B(  2-C ,  3-O ) :   0.9143 B(  2-C ,  4-C ) :   0.8895
B(  2-C , 14-H ) :   0.9246 B(  3-O , 15-H ) :   0.8313 B(  4-C ,  5-O ) :   0.9886
B(  4-C ,  7-C ) :   1.0952 B(  4-C ,  8-C ) :  -0.1049 B(  4-C , 16-H ) :   0.9532
B(  5-O ,  6-C ) :   0.9146 B(  6-C , 17-H ) :   0.9330 B(  6-C , 18-H ) :   0.9329
B(  6-C , 19-H ) :   0.9398 B(  7-C ,  8-C ) :   2.5765 B(  8-C , 20-H ) :   0.8966

MP2 TOTAL ENERGY:     -423.465951973 Eh
FINAL SINGLE POINT ENERGY      -423.465951972726

DIPOLE MOMENT
-------------
                                X             Y             Z
Electronic contribution:      5.58746      -5.91219       0.78734
Nuclear contribution   :     -6.31056       5.68619      -0.51105
                        -----------------------------------------
Total Dipole Moment    :     -0.72310      -0.22600       0.27629
                        -----------------------------------------
Magnitude (a.u.)       :      0.80640
Magnitude (Debye)      :      2.04971

                             ****ORCA TERMINATED NORMALLY****
TOTAL RUN TIME: 0 days 0 hours 18 minutes 37 seconds 783 msec
