                         Program Version 3.0.3 - RELEASE   -
|  1> ! RI-MP2 RIJK def2-TZVP def2-TZVP/C def2-TZVP/JK TIGHTSCF
|  2> % maxcore 2000
|  3> % mp2 density relaxed end
|  4> *xyz 0 1
|  5>  C       -0.0338325349     0.9958097983    -0.5711200472
|  6>  N       -0.2340577655     0.2920284794     0.6961523239
|  7>  C       -1.3771454081    -0.5819782825     0.7165066100
|  8>  C       -1.2134704560    -1.8871843318    -0.0631379433
|  9>  O       -0.1768815302    -2.2647882714    -0.5462914266
| 10>  C       -2.4393250670    -2.7121558310    -0.1564784425
| 11>  N       -3.4223689430    -3.3192854651    -0.2087202873
| 12>  H        0.8601083133     1.6197393665    -0.4910871226
| 13>  H        0.0829208942     0.3380053304    -1.4452330773
| 14>  H       -0.8859517660     1.6604580580    -0.7513794406
| 15>  H        0.5995286070    -0.2384992516     0.9265356251
| 16>  H       -1.6287206948    -0.8744959285     1.7483578486
| 17>  H       -2.2655436989    -0.0597917206     0.3377100398
| 18> *
| 19>
| 20>                          ****END OF INPUT****

CARTESIAN COORDINATES (ANGSTROEM)
---------------------------------
  C     -0.033833    0.995810   -0.571120
  N     -0.234058    0.292028    0.696152
  C     -1.377145   -0.581978    0.716507
  C     -1.213470   -1.887184   -0.063138
  O     -0.176882   -2.264788   -0.546291
  C     -2.439325   -2.712156   -0.156478
  N     -3.422369   -3.319285   -0.208720
  H      0.860108    1.619739   -0.491087
  H      0.082921    0.338005   -1.445233
  H     -0.885952    1.660458   -0.751379
  H      0.599529   -0.238499    0.926536
  H     -1.628721   -0.874496    1.748358
  H     -2.265544   -0.059792    0.337710

 Total Charge           Charge          ....    0
 Multiplicity           Mult            ....    1
 Number of Electrons    NEL             ....   52
 Basis Dimension        Dim             ....  253

ORBITAL ENERGIES
----------------

  NO   OCC          E(Eh)            E(eV)
   0   2.0000     -20.606097      -560.7204
   1   2.0000     -15.615382      -424.9161
   2   2.0000     -15.570826      -423.7037
   3   2.0000     -11.399956      -310.2086
   4   2.0000     -11.302409      -307.5542
   5   2.0000     -11.301298      -307.5240
   6   2.0000     -11.260367      -306.4102
   7   2.0000      -1.449581       -39.4451
   8   2.0000      -1.251185       -34.0465
   9   2.0000      -1.235037       -33.6071
  10   2.0000      -1.037546       -28.2331
  11   2.0000      -0.935074       -25.4447
  12   2.0000      -0.866774       -23.5861
  13   2.0000      -0.747496       -20.3404
  14   2.0000      -0.707681       -19.2570
  15   2.0000      -0.677561       -18.4374
  16   2.0000      -0.629766       -17.1368
  17   2.0000      -0.614287       -16.7156
  18   2.0000      -0.599674       -16.3179
  19   2.0000      -0.576550       -15.6887
  20   2.0000      -0.539185       -14.6720
  21   2.0000      -0.536976       -14.6119
  22   2.0000      -0.508229       -13.8296
  23   2.0000      -0.494948       -13.4682
  24   2.0000      -0.492172       -13.3927
  25   2.0000      -0.399945       -10.8831
  26   0.0000       0.057661         1.5690
  27   0.0000       0.119126         3.2416
  28   0.0000       0.147320         4.0088
  29   0.0000       0.160440         4.3658
  30   0.0000       0.164526         4.4770

MULLIKEN ATOMIC CHARGES
-----------------------
   0 C :   -0.312285
   1 N :   -0.321042
   2 C :   -0.177215
   3 C :    0.292170
   4 O :   -0.238822
   5 C :   -0.154341
   6 N :   -0.041517
   7 H :    0.142878
   8 H :    0.134272
   9 H :    0.131637
  10 H :    0.216648
  11 H :    0.168792
  12 H :    0.158824
Sum of atomic charges:    0.0000000

LOEWDIN ATOMIC CHARGES
----------------------
   0 C :   -0.343594
   1 N :   -0.034463
   2 C :   -0.292207
   3 C :   -0.327808
   4 O :    0.202933
   5 C :   -0.137819
   6 N :    0.101549
   7 H :    0.119393
   8 H :    0.104539
   9 H :    0.116426
  10 H :    0.175129
  11 H :    0.159283
  12 H :    0.156640

  Mayer bond orders larger than 0.1
B(  0-C ,  1-N ) :   0.9214 B(  0-C ,  7-H ) :   0.9398 B(  0-C ,  8-H ) :   0.9274
B(  0-C ,  9-H ) :   0.9357 B(  1-N ,  2-C ) :   1.0123 B(  1-N , 10-H ) :   0.8778
B(  2-C ,  3-C ) :   0.9142 B(  2-C , 11-H ) :   0.8914 B(  2-C , 12-H ) :   0.9207
B(  3-C ,  4-O ) :   1.9734 B(  3-C ,  5-C ) :   0.8666 B(  5-C ,  6-N ) :   2.7780

MP2 TOTAL ENERGY:     -340.070989977 Eh
FINAL SINGLE POINT ENERGY      -340.070989976936

DIPOLE MOMENT
-------------
                                X             Y             Z
Electronic contribution:     -3.29124      -8.60685      -0.21273
Nuclear contribution   :      3.74888       9.53243       0.44218
                        -----------------------------------------
Total Dipole Moment    :      0.45764       0.92558       0.22945
                        -----------------------------------------
Magnitude (a.u.)       :      1.05773
Magnitude (Debye)      :      2.68853

                             ****ORCA TERMINATED NORMALLY****
TOTAL RUN TIME: 0 days 0 hours 6 minutes 39 seconds 626 msec
