                         Program Version 3.0.3 - RELEASE   -
|  1> ! RI-MP2 RIJK def2-TZVP def2-TZVP/C def2-TZVP/JK TIGHTSCF
|  2> % maxcore 2000
|  3> % mp2 density relaxed end
|  4> *xyz 0 1
|  5>  C       -0.0590629096     1.5964774492    -0.1485600954
|  6>  C       -0.0361864812     0.0749724617    -0.0825721357
|  7>  C       -1.4228141427    -0.5239465508     0.2268919871
|  8>  O       -1.9048725158    -0.1005365605     1.4833315168
|  9>  C        0.7422055950    -0.6647304966    -1.1973975219
| 10>  O        2.0770040464    -0.1881111951    -1.1515267212
| 11>  C        1.7293173094    -1.2642646250    -0.2549039871
| 12>  C        0.9721009012    -0.6197478785     0.8918772534
| 13>  O        0.9456454208    -0.7867459904     2.0806928894
| 14>  H        0.9394425509     1.9958167304    -0.3363690406
| 15>  H       -0.7265258826     1.9334898000    -0.9499487544
| 16>  H       -0.4371724009     2.0024052871     0.7924843725
| 17>  H       -2.1463688901    -0.1779973310    -0.5205273114
| 18>  H       -1.3801547323    -1.6242628862     0.1569103058
| 19>  H       -1.2407640049    -0.3491324001     2.1406259185
| 20>  H        0.3783594202    -1.0872055756    -2.1268992909
| 21>  H        2.3146824962    -2.1742569085    -0.3059724451
| 22> *
| 23>
| 24>                          ****END OF INPUT****

CARTESIAN COORDINATES (ANGSTROEM)
---------------------------------
  C     -0.059063    1.596477   -0.148560
  C     -0.036186    0.074972   -0.082572
  C     -1.422814   -0.523947    0.226892
  O     -1.904873   -0.100537    1.483332
  C      0.742206   -0.664730   -1.197398
  O      2.077004   -0.188111   -1.151527
  C      1.729317   -1.264265   -0.254904
  C      0.972101   -0.619748    0.891877
  O      0.945645   -0.786746    2.080693
  H      0.939443    1.995817   -0.336369
  H     -0.726526    1.933490   -0.949949
  H     -0.437172    2.002405    0.792484
  H     -2.146369   -0.177997   -0.520527
  H     -1.380155   -1.624263    0.156910
  H     -1.240764   -0.349132    2.140626
  H      0.378359   -1.087206   -2.126899
  H      2.314682   -2.174257   -0.305972

 Total Charge           Charge          ....    0
 Multiplicity           Mult            ....    1
 Number of Electrons    NEL             ....   68
 Basis Dimension        Dim             ....  327

ORBITAL ENERGIES
----------------

  NO   OCC          E(Eh)            E(eV)
   0   2.0000     -20.608624      -560.7892
   1   2.0000     -20.578580      -559.9716
   2   2.0000     -20.560532      -559.4805
   3   2.0000     -11.359051      -309.0955
   4   2.0000     -11.324084      -308.1440
   5   2.0000     -11.318910      -308.0032
   6   2.0000     -11.296850      -307.4029
   7   2.0000     -11.272525      -306.7410
   8   2.0000     -11.229163      -305.5611
   9   2.0000      -1.460116       -39.7318
  10   2.0000      -1.418241       -38.5923
  11   2.0000      -1.368828       -37.2477
  12   2.0000      -1.125774       -30.6339
  13   2.0000      -1.001153       -27.2428
  14   2.0000      -0.938491       -25.5376
  15   2.0000      -0.891889       -24.2695
  16   2.0000      -0.853419       -23.2227
  17   2.0000      -0.746754       -20.3202
  18   2.0000      -0.723491       -19.6872
  19   2.0000      -0.693174       -18.8622
  20   2.0000      -0.689196       -18.7540
  21   2.0000      -0.642130       -17.4732
  22   2.0000      -0.625959       -17.0332
  23   2.0000      -0.603198       -16.4138
  24   2.0000      -0.589239       -16.0340
  25   2.0000      -0.580355       -15.7923
  26   2.0000      -0.556791       -15.1511
  27   2.0000      -0.546859       -14.8808
  28   2.0000      -0.537344       -14.6219
  29   2.0000      -0.520903       -14.1745
  30   2.0000      -0.487631       -13.2691
  31   2.0000      -0.449189       -12.2230
  32   2.0000      -0.440988       -11.9999
  33   2.0000      -0.406045       -11.0491
  34   0.0000       0.113559         3.0901
  35   0.0000       0.138730         3.7750
  36   0.0000       0.152913         4.1610
  37   0.0000       0.162723         4.4279
  38   0.0000       0.179019         4.8714

MULLIKEN ATOMIC CHARGES
-----------------------
   0 C :   -0.416230
   1 C :    0.075125
   2 C :   -0.044339
   3 O :   -0.468128
   4 C :   -0.006897
   5 O :   -0.299507
   6 C :   -0.053321
   7 C :    0.183822
   8 O :   -0.285330
   9 H :    0.155451
  10 H :    0.129974
  11 H :    0.154738
  12 H :    0.118737
  13 H :    0.111367
  14 H :    0.331161
  15 H :    0.161308
  16 H :    0.152070
Sum of atomic charges:    0.0000000

LOEWDIN ATOMIC CHARGES
----------------------
   0 C :   -0.260350
   1 C :   -0.249712
   2 C :   -0.299106
   3 O :   -0.029416
   4 C :   -0.194346
   5 O :    0.201668
   6 C :   -0.187736
   7 C :   -0.258936
   8 O :    0.161720
   9 H :    0.132880
  10 H :    0.130327
  11 H :    0.136575
  12 H :    0.135051
  13 H :    0.125576
  14 H :    0.179053
  15 H :    0.139278
  16 H :    0.137474

  Mayer bond orders larger than 0.1
B(  0-C ,  1-C ) :   0.8893 B(  0-C ,  9-H ) :   0.9325 B(  0-C , 10-H ) :   0.9302
B(  0-C , 11-H ) :   0.9266 B(  1-C ,  2-C ) :   0.9164 B(  1-C ,  4-C ) :   0.8674
B(  1-C ,  7-C ) :   0.8547 B(  2-C ,  3-O ) :   0.9479 B(  2-C , 12-H ) :   0.9293
B(  2-C , 13-H ) :   0.9063 B(  3-O , 14-H ) :   0.8234 B(  4-C ,  5-O ) :   0.8950
B(  4-C ,  6-C ) :   0.8967 B(  4-C , 15-H ) :   0.9111 B(  5-O ,  6-C ) :   0.9076
B(  6-C ,  7-C ) :   0.8953 B(  6-C , 16-H ) :   0.9207 B(  7-C ,  8-O ) :   1.9357

MP2 TOTAL ENERGY:     -458.194369924 Eh
FINAL SINGLE POINT ENERGY      -458.194369923739

DIPOLE MOMENT
-------------
                                X             Y             Z
Electronic contribution:      4.44502      -2.95139       1.91387
Nuclear contribution   :     -4.41990       2.44557      -2.84935
                        -----------------------------------------
Total Dipole Moment    :      0.02512      -0.50582      -0.93548
                        -----------------------------------------
Magnitude (a.u.)       :      1.06377
Magnitude (Debye)      :      2.70388

                             ****ORCA TERMINATED NORMALLY****
TOTAL RUN TIME: 0 days 0 hours 17 minutes 22 seconds 808 msec
