                         Program Version 3.0.3 - RELEASE   -
|  1> ! RI-MP2 RIJK def2-TZVP def2-TZVP/C def2-TZVP/JK TIGHTSCF
|  2> % maxcore 2000
|  3> % mp2 density relaxed end
|  4> *xyz 0 1
|  5>  O       -0.0813573812     1.4426225673    -0.1128801714
|  6>  C        0.0200938645     0.0301310599     0.0426419312
|  7>  C       -1.4155061261    -0.5062563318     0.0297029742
|  8>  O       -2.0413012116    -0.0987879481    -1.1821550275
|  9>  C       -1.4797737167    -2.0360387222     0.1616514351
| 10>  C       -2.1810677202    -2.3147783735     1.5002107491
| 11>  O       -2.3329604611    -3.3997843311     2.0087326263
| 12>  C       -2.6213537217    -1.0025087033     2.0340598641
| 13>  C       -2.2056641415    -0.0145581301     1.2371793653
| 14>  H        0.7879228488     1.7989223297    -0.3151773657
| 15>  H        0.5699464655    -0.4224013141    -0.7945283375
| 16>  H        0.5224780364    -0.2382218766     0.9830642362
| 17>  H       -1.7786540975     0.8219180593    -1.3159863865
| 18>  H       -2.0786338449    -2.4439634554    -0.6569245974
| 19>  H       -0.5036694946    -2.5289178456     0.1343446805
| 20>  H       -3.1960753424    -0.9128211422     2.9474715822
| 21>  H       -2.3842443556     1.0450894378     1.3805373419
| 22> *
| 23>
| 24>                          ****END OF INPUT****

CARTESIAN COORDINATES (ANGSTROEM)
---------------------------------
  O     -0.081357    1.442623   -0.112880
  C      0.020094    0.030131    0.042642
  C     -1.415506   -0.506256    0.029703
  O     -2.041301   -0.098788   -1.182155
  C     -1.479774   -2.036039    0.161651
  C     -2.181068   -2.314778    1.500211
  O     -2.332960   -3.399784    2.008733
  C     -2.621354   -1.002509    2.034060
  C     -2.205664   -0.014558    1.237179
  H      0.787923    1.798922   -0.315177
  H      0.569946   -0.422401   -0.794528
  H      0.522478   -0.238222    0.983064
  H     -1.778654    0.821918   -1.315986
  H     -2.078634   -2.443963   -0.656925
  H     -0.503669   -2.528918    0.134345
  H     -3.196075   -0.912821    2.947472
  H     -2.384244    1.045089    1.380537

 Total Charge           Charge          ....    0
 Multiplicity           Mult            ....    1
 Number of Electrons    NEL             ....   68
 Basis Dimension        Dim             ....  327

ORBITAL ENERGIES
----------------

  NO   OCC          E(Eh)            E(eV)
   0   2.0000     -20.588945      -560.2537
   1   2.0000     -20.565681      -559.6206
   2   2.0000     -20.539661      -558.9126
   3   2.0000     -11.330018      -308.3055
   4   2.0000     -11.311478      -307.8010
   5   2.0000     -11.302445      -307.5552
   6   2.0000     -11.263948      -306.5076
   7   2.0000     -11.243552      -305.9526
   8   2.0000     -11.239606      -305.8452
   9   2.0000      -1.402625       -38.1674
  10   2.0000      -1.383203       -37.6389
  11   2.0000      -1.367398       -37.2088
  12   2.0000      -1.145464       -31.1697
  13   2.0000      -1.017292       -27.6819
  14   2.0000      -0.972526       -26.4638
  15   2.0000      -0.882133       -24.0041
  16   2.0000      -0.782649       -21.2970
  17   2.0000      -0.762163       -20.7395
  18   2.0000      -0.726884       -19.7795
  19   2.0000      -0.691842       -18.8260
  20   2.0000      -0.679966       -18.5028
  21   2.0000      -0.664256       -18.0753
  22   2.0000      -0.616872       -16.7860
  23   2.0000      -0.600434       -16.3386
  24   2.0000      -0.588405       -16.0113
  25   2.0000      -0.581772       -15.8308
  26   2.0000      -0.561902       -15.2901
  27   2.0000      -0.554958       -15.1012
  28   2.0000      -0.511425       -13.9166
  29   2.0000      -0.506358       -13.7787
  30   2.0000      -0.480324       -13.0703
  31   2.0000      -0.454456       -12.3664
  32   2.0000      -0.407742       -11.0952
  33   2.0000      -0.389850       -10.6084
  34   0.0000       0.092664         2.5215
  35   0.0000       0.115179         3.1342
  36   0.0000       0.147769         4.0210
  37   0.0000       0.169929         4.6240
  38   0.0000       0.184998         5.0340

MULLIKEN ATOMIC CHARGES
-----------------------
   0 O :   -0.497497
   1 C :   -0.149165
   2 C :    0.338785
   3 O :   -0.476068
   4 C :   -0.248641
   5 C :    0.163143
   6 O :   -0.277783
   7 C :   -0.169739
   8 C :   -0.185100
   9 H :    0.329155
  10 H :    0.129019
  11 H :    0.115450
  12 H :    0.330595
  13 H :    0.155202
  14 H :    0.141920
  15 H :    0.148475
  16 H :    0.152248
Sum of atomic charges:    0.0000000

LOEWDIN ATOMIC CHARGES
----------------------
   0 O :   -0.049192
   1 C :   -0.307868
   2 C :   -0.366351
   3 O :    0.012869
   4 C :   -0.162920
   5 C :   -0.313934
   6 O :    0.144864
   7 C :   -0.113633
   8 C :   -0.066633
   9 H :    0.178145
  10 H :    0.126422
  11 H :    0.127422
  12 H :    0.180627
  13 H :    0.164406
  14 H :    0.152044
  15 H :    0.146799
  16 H :    0.146934

  Mayer bond orders larger than 0.1
B(  0-O ,  1-C ) :   0.9812 B(  0-O ,  9-H ) :   0.8422 B(  1-C ,  2-C ) :   0.8924
B(  1-C , 10-H ) :   0.9338 B(  1-C , 11-H ) :   0.9200 B(  2-C ,  3-O ) :   0.9523
B(  2-C ,  4-C ) :   0.8414 B(  2-C ,  8-C ) :   0.9152 B(  3-O , 12-H ) :   0.8195
B(  4-C ,  5-C ) :   0.9269 B(  4-C ,  7-C ) :  -0.1054 B(  4-C , 13-H ) :   0.8913
B(  4-C , 14-H ) :   0.9128 B(  5-C ,  6-O ) :   2.0192 B(  5-C ,  7-C ) :   0.9796
B(  7-C ,  8-C ) :   1.6339 B(  7-C , 15-H ) :   0.9164 B(  8-C , 16-H ) :   0.8974

MP2 TOTAL ENERGY:     -458.256231310 Eh
FINAL SINGLE POINT ENERGY      -458.256231310348

DIPOLE MOMENT
-------------
                                X             Y             Z
Electronic contribution:     -2.86990      -2.17748       1.84057
Nuclear contribution   :      4.04552       3.51259      -2.12843
                        -----------------------------------------
Total Dipole Moment    :      1.17562       1.33510      -0.28786
                        -----------------------------------------
Magnitude (a.u.)       :      1.80207
Magnitude (Debye)      :      4.58050

                             ****ORCA TERMINATED NORMALLY****
TOTAL RUN TIME: 0 days 0 hours 17 minutes 20 seconds 58 msec
