                         Program Version 3.0.3 - RELEASE   -
|  1> ! RI-MP2 RIJK def2-TZVP def2-TZVP/C def2-TZVP/JK TIGHTSCF
|  2> % maxcore 2000
|  3> % mp2 density relaxed end
|  4> *xyz 0 1
|  5>  O       -0.0525913275     1.4526240536    -0.0193248882
|  6>  C        0.0458517785     0.0407532862     0.0198726216
|  7>  C       -1.3752488923    -0.5124974517     0.0328009876
|  8>  C       -1.3990992213    -2.0411962070     0.0382750535
|  9>  C       -2.8455811942    -2.6139183525     0.0556640580
| 10>  C       -2.8355432770    -4.0756166673    -0.0964424805
| 11>  N       -2.7938206552    -5.2197405782    -0.2438931651
| 12>  C       -3.5704986724    -2.2282335554     1.2755667929
| 13>  N       -4.1231028433    -1.8960866048     2.2331925316
| 14>  H        0.8355225263     1.8205927810     0.0036508056
| 15>  H        0.5905196274    -0.3495725324    -0.8558850669
| 16>  H        0.5847960623    -0.3020748714     0.9180106673
| 17>  H       -1.8952572080    -0.1183295521     0.9125815265
| 18>  H       -1.9037933275    -0.1284942508    -0.8483539149
| 19>  H       -0.9080639592    -2.4392200465    -0.8557152478
| 20>  H       -0.8612360075    -2.4390648461     0.9047729118
| 21>  H       -3.3965797789    -2.1974938246    -0.7981992229
| 22> *
| 23>
| 24>                          ****END OF INPUT****

CARTESIAN COORDINATES (ANGSTROEM)
---------------------------------
  O     -0.052591    1.452624   -0.019325
  C      0.045852    0.040753    0.019873
  C     -1.375249   -0.512497    0.032801
  C     -1.399099   -2.041196    0.038275
  C     -2.845581   -2.613918    0.055664
  C     -2.835543   -4.075617   -0.096442
  N     -2.793821   -5.219741   -0.243893
  C     -3.570499   -2.228234    1.275567
  N     -4.123103   -1.896087    2.233193
  H      0.835523    1.820593    0.003651
  H      0.590520   -0.349573   -0.855885
  H      0.584796   -0.302075    0.918011
  H     -1.895257   -0.118330    0.912582
  H     -1.903793   -0.128494   -0.848354
  H     -0.908064   -2.439220   -0.855715
  H     -0.861236   -2.439065    0.904773
  H     -3.396580   -2.197494   -0.798199

 Total Charge           Charge          ....    0
 Multiplicity           Mult            ....    1
 Number of Electrons    NEL             ....   66
 Basis Dimension        Dim             ....  327

ORBITAL ENERGIES
----------------

  NO   OCC          E(Eh)            E(eV)
   0   2.0000     -20.574483      -559.8602
   1   2.0000     -15.598811      -424.4652
   2   2.0000     -15.598264      -424.4503
   3   2.0000     -11.352531      -308.9181
   4   2.0000     -11.301526      -307.5301
   5   2.0000     -11.300942      -307.5143
   6   2.0000     -11.300038      -307.4897
   7   2.0000     -11.283759      -307.0467
   8   2.0000     -11.252697      -306.2014
   9   2.0000      -1.379995       -37.5516
  10   2.0000      -1.255871       -34.1740
  11   2.0000      -1.239505       -33.7286
  12   2.0000      -1.147308       -31.2198
  13   2.0000      -1.057926       -28.7876
  14   2.0000      -0.933484       -25.4014
  15   2.0000      -0.845227       -22.9998
  16   2.0000      -0.786021       -21.3887
  17   2.0000      -0.733499       -19.9595
  18   2.0000      -0.716427       -19.4950
  19   2.0000      -0.679368       -18.4865
  20   2.0000      -0.644633       -17.5414
  21   2.0000      -0.605622       -16.4798
  22   2.0000      -0.589412       -16.0387
  23   2.0000      -0.580206       -15.7882
  24   2.0000      -0.577487       -15.7142
  25   2.0000      -0.547820       -14.9070
  26   2.0000      -0.524489       -14.2721
  27   2.0000      -0.510876       -13.9016
  28   2.0000      -0.500301       -13.6139
  29   2.0000      -0.495069       -13.4715
  30   2.0000      -0.484879       -13.1942
  31   2.0000      -0.471402       -12.8275
  32   2.0000      -0.464811       -12.6482
  33   0.0000       0.101058         2.7499
  34   0.0000       0.120619         3.2822
  35   0.0000       0.131583         3.5806
  36   0.0000       0.145602         3.9620
  37   0.0000       0.152661         4.1541

MULLIKEN ATOMIC CHARGES
-----------------------
   0 O :   -0.458849
   1 C :   -0.075394
   2 C :   -0.181287
   3 C :   -0.296704
   4 C :    0.174478
   5 C :   -0.163130
   6 N :   -0.036004
   7 C :   -0.180275
   8 N :   -0.038587
   9 H :    0.320236
  10 H :    0.097459
  11 H :    0.102662
  12 H :    0.148521
  13 H :    0.119140
  14 H :    0.151032
  15 H :    0.148196
  16 H :    0.168506
Sum of atomic charges:    0.0000000

LOEWDIN ATOMIC CHARGES
----------------------
   0 O :   -0.043539
   1 C :   -0.351120
   2 C :   -0.262025
   3 C :   -0.205893
   4 C :   -0.221747
   5 C :   -0.150568
   6 N :    0.087512
   7 C :   -0.152245
   8 N :    0.088847
   9 H :    0.175500
  10 H :    0.116089
  11 H :    0.117708
  12 H :    0.150749
  13 H :    0.144527
  14 H :    0.152128
  15 H :    0.153050
  16 H :    0.201029

  Mayer bond orders larger than 0.1
B(  0-O ,  1-C ) :   1.0335 B(  0-O ,  9-H ) :   0.8461 B(  1-C ,  2-C ) :   0.9331
B(  1-C , 10-H ) :   0.9306 B(  1-C , 11-H ) :   0.9314 B(  2-C ,  3-C ) :   0.9112
B(  2-C , 12-H ) :   0.9213 B(  2-C , 13-H ) :   0.9170 B(  3-C ,  4-C ) :   0.8959
B(  3-C , 14-H ) :   0.9260 B(  3-C , 15-H ) :   0.9099 B(  4-C ,  5-C ) :   0.9039
B(  4-C ,  7-C ) :   0.9007 B(  4-C , 16-H ) :   0.8948 B(  5-C ,  6-N ) :   2.8550
B(  7-C ,  8-N ) :   2.8386

MP2 TOTAL ENERGY:     -417.321201299 Eh
FINAL SINGLE POINT ENERGY      -417.321201298790

DIPOLE MOMENT
-------------
                                X             Y             Z
Electronic contribution:     -7.08697      -6.62295       2.23299
Nuclear contribution   :      8.52025       7.55115      -3.16997
                        -----------------------------------------
Total Dipole Moment    :      1.43328       0.92820      -0.93699
                        -----------------------------------------
Magnitude (a.u.)       :      1.94776
Magnitude (Debye)      :      4.95082

                             ****ORCA TERMINATED NORMALLY****
TOTAL RUN TIME: 0 days 0 hours 13 minutes 42 seconds 173 msec
