                         Program Version 3.0.3 - RELEASE   -
|  1> ! RI-MP2 RIJK def2-TZVP def2-TZVP/C def2-TZVP/JK TIGHTSCF
|  2> % maxcore 2000
|  3> % mp2 density relaxed end
|  4> *xyz 0 1
|  5>  C       -0.1703279383     1.5038438215    -0.0599395185
|  6>  C       -0.1609110246    -0.0172781963    -0.2305293049
|  7>  C        1.0889025189    -0.5115754712    -0.9646613448
|  8>  N        1.1100344479    -1.9572247217    -1.1146818948
|  9>  C        1.4039508046    -2.5477398045    -2.3275914808
| 10>  O        1.5232068011    -1.9213265152    -3.3676223207
| 11>  N        1.5591256282    -3.9208262433    -2.2542890822
| 12>  C        1.6484010114    -4.7004196898    -3.4754420761
| 13>  H        0.6991426106     1.8456700951     0.5127918563
| 14>  H       -0.1452468606     2.0101402367    -1.0309655082
| 15>  H       -1.0681095862     1.8387740198     0.4677748501
| 16>  H       -0.2203408041    -0.4989332670     0.7551516179
| 17>  H       -1.0471738531    -0.3438707763    -0.7867696078
| 18>  H        1.1318541423    -0.1023362982    -1.9766314883
| 19>  H        1.9900847133    -0.1636052851    -0.4371587159
| 20>  H        1.2682828191    -2.4999224874    -0.2803897666
| 21>  H        1.1559672213    -4.3844199722    -1.4552346218
| 22>  H        0.6669620777    -5.0194602998    -3.8524661984
| 23>  H        2.1158325426    -4.0743351917    -4.2354435289
| 24>  H        2.2651850777    -5.5883266333    -3.3079322155
| 25> *
| 26>
| 27>                          ****END OF INPUT****

CARTESIAN COORDINATES (ANGSTROEM)
---------------------------------
  C     -0.170328    1.503844   -0.059940
  C     -0.160911   -0.017278   -0.230529
  C      1.088903   -0.511575   -0.964661
  N      1.110034   -1.957225   -1.114682
  C      1.403951   -2.547740   -2.327591
  O      1.523207   -1.921327   -3.367622
  N      1.559126   -3.920826   -2.254289
  C      1.648401   -4.700420   -3.475442
  H      0.699143    1.845670    0.512792
  H     -0.145247    2.010140   -1.030966
  H     -1.068110    1.838774    0.467775
  H     -0.220341   -0.498933    0.755152
  H     -1.047174   -0.343871   -0.786770
  H      1.131854   -0.102336   -1.976631
  H      1.990085   -0.163605   -0.437159
  H      1.268283   -2.499922   -0.280390
  H      1.155967   -4.384420   -1.455235
  H      0.666962   -5.019460   -3.852466
  H      2.115833   -4.074335   -4.235444
  H      2.265185   -5.588327   -3.307932

 Total Charge           Charge          ....    0
 Multiplicity           Mult            ....    1
 Number of Electrons    NEL             ....   64
 Basis Dimension        Dim             ....  320

ORBITAL ENERGIES
----------------

  NO   OCC          E(Eh)            E(eV)
   0   2.0000     -20.500319      -557.8420
   1   2.0000     -15.574310      -423.7985
   2   2.0000     -15.572590      -423.7517
   3   2.0000     -11.366163      -309.2890
   4   2.0000     -11.253716      -306.2292
   5   2.0000     -11.251675      -306.1736
   6   2.0000     -11.222823      -305.3885
   7   2.0000     -11.215881      -305.1996
   8   2.0000      -1.383416       -37.6447
   9   2.0000      -1.237360       -33.6703
  10   2.0000      -1.200719       -32.6732
  11   2.0000      -1.049940       -28.5703
  12   2.0000      -0.954257       -25.9666
  13   2.0000      -0.902307       -24.5530
  14   2.0000      -0.812493       -22.1090
  15   2.0000      -0.788620       -21.4594
  16   2.0000      -0.748680       -20.3726
  17   2.0000      -0.667295       -18.1580
  18   2.0000      -0.637696       -17.3526
  19   2.0000      -0.626401       -17.0452
  20   2.0000      -0.604126       -16.4391
  21   2.0000      -0.593529       -16.1507
  22   2.0000      -0.581242       -15.8164
  23   2.0000      -0.547024       -14.8853
  24   2.0000      -0.537826       -14.6350
  25   2.0000      -0.531119       -14.4525
  26   2.0000      -0.506638       -13.7863
  27   2.0000      -0.489122       -13.3097
  28   2.0000      -0.476177       -12.9574
  29   2.0000      -0.434877       -11.8336
  30   2.0000      -0.397883       -10.8269
  31   2.0000      -0.382689       -10.4135
  32   0.0000       0.121313         3.3011
  33   0.0000       0.141593         3.8529
  34   0.0000       0.159859         4.3500
  35   0.0000       0.180142         4.9019
  36   0.0000       0.183770         5.0006

MULLIKEN ATOMIC CHARGES
-----------------------
   0 C :   -0.398840
   1 C :   -0.170089
   2 C :   -0.140633
   3 N :   -0.375224
   4 C :    0.424873
   5 O :   -0.426316
   6 N :   -0.376986
   7 C :   -0.278948
   8 H :    0.120623
   9 H :    0.130642
  10 H :    0.134830
  11 H :    0.090112
  12 H :    0.117709
  13 H :    0.161218
  14 H :    0.112729
  15 H :    0.221974
  16 H :    0.223222
  17 H :    0.125464
  18 H :    0.172392
  19 H :    0.131248
Sum of atomic charges:   -0.0000000

LOEWDIN ATOMIC CHARGES
----------------------
   0 C :   -0.320010
   1 C :   -0.301956
   2 C :   -0.284823
   3 N :    0.076250
   4 C :   -0.549768
   5 O :    0.046293
   6 N :    0.040125
   7 C :   -0.322061
   8 H :    0.120232
   9 H :    0.123126
  10 H :    0.121749
  11 H :    0.129315
  12 H :    0.136517
  13 H :    0.149228
  14 H :    0.127369
  15 H :    0.177343
  16 H :    0.175204
  17 H :    0.109463
  18 H :    0.132734
  19 H :    0.113671

  Mayer bond orders larger than 0.1
B(  0-C ,  1-C ) :   0.9200 B(  0-C ,  8-H ) :   0.9359 B(  0-C ,  9-H ) :   0.9392
B(  0-C , 10-H ) :   0.9397 B(  1-C ,  2-C ) :   0.9202 B(  1-C , 11-H ) :   0.9311
B(  1-C , 12-H ) :   0.9318 B(  2-C ,  3-N ) :   0.8677 B(  2-C , 13-H ) :   0.9199
B(  2-C , 14-H ) :   0.9381 B(  3-N ,  4-C ) :   1.1054 B(  3-N , 15-H ) :   0.8777
B(  4-C ,  5-O ) :   1.8649 B(  4-C ,  6-N ) :   1.1011 B(  6-N ,  7-C ) :   0.8849
B(  6-N , 16-H ) :   0.8785 B(  7-C , 17-H ) :   0.9395 B(  7-C , 18-H ) :   0.9293
B(  7-C , 19-H ) :   0.9343

MP2 TOTAL ENERGY:     -381.728472606 Eh
FINAL SINGLE POINT ENERGY      -381.728472605821

DIPOLE MOMENT
-------------
                                X             Y             Z
Electronic contribution:      2.76902      -4.69383      -3.61673
Nuclear contribution   :     -3.00216       3.97378       4.85307
                        -----------------------------------------
Total Dipole Moment    :     -0.23315      -0.72005       1.23634
                        -----------------------------------------
Magnitude (a.u.)       :      1.44961
Magnitude (Debye)      :      3.68460

                             ****ORCA TERMINATED NORMALLY****
TOTAL RUN TIME: 0 days 0 hours 11 minutes 6 seconds 669 msec
