                         Program Version 3.0.3 - RELEASE   -
|  1> ! RI-MP2 RIJK def2-TZVP def2-TZVP/C def2-TZVP/JK TIGHTSCF
|  2> % maxcore 2000
|  3> % mp2 density relaxed end
|  4> *xyz 0 1
|  5>  C        0.1306100259     1.6537599977    -0.1904569889
|  6>  C        0.2004854016     0.1445530161    -0.0906810278
|  7>  C        1.5240694657    -0.5656904617     0.0382373940
|  8>  O        2.6823877318     0.2048291891     0.1146172394
|  9>  C        0.5608954415    -0.5632081349     1.2078147487
| 10>  C        0.8653276686     0.1909497648     2.4840178379
| 11>  O       -0.3162707901     0.4441634333     3.2434388107
| 12>  C        1.8936144322    -0.5409039614     3.3664766154
| 13>  O        3.2202720840    -0.4952778549     2.8264599614
| 14>  H        1.0583792360     2.1141910024     0.1545186948
| 15>  H       -0.0120759773     1.9562681867    -1.2328221688
| 16>  H       -0.7014093569     2.0566153461     0.3961889001
| 17>  H       -0.5396568825    -0.3766082706    -0.6924262319
| 18>  H        1.6426931514    -1.5063709369    -0.5007815013
| 19>  H        3.1506135981    -0.0992862959     0.9083663074
| 20>  H        0.0536402985    -1.5105355073     1.3981248304
| 21>  H        1.2758448983     1.1783816803     2.2510991477
| 22>  H       -0.8697633840    -0.3422985616     3.1987060204
| 23>  H        1.8665563867    -0.1044936064     4.3717586326
| 24>  H        1.6357206281    -1.6028013408     3.4529640658
| 25>  H        3.6116600923     0.3440155758     3.0891287618
| 26> *
| 27>
| 28>                          ****END OF INPUT****

CARTESIAN COORDINATES (ANGSTROEM)
---------------------------------
  C      0.130610    1.653760   -0.190457
  C      0.200485    0.144553   -0.090681
  C      1.524069   -0.565690    0.038237
  O      2.682388    0.204829    0.114617
  C      0.560895   -0.563208    1.207815
  C      0.865328    0.190950    2.484018
  O     -0.316271    0.444163    3.243439
  C      1.893614   -0.540904    3.366477
  O      3.220272   -0.495278    2.826460
  H      1.058379    2.114191    0.154519
  H     -0.012076    1.956268   -1.232822
  H     -0.701409    2.056615    0.396189
  H     -0.539657   -0.376608   -0.692426
  H      1.642693   -1.506371   -0.500782
  H      3.150614   -0.099286    0.908366
  H      0.053640   -1.510536    1.398125
  H      1.275845    1.178382    2.251099
  H     -0.869763   -0.342299    3.198706
  H      1.866556   -0.104494    4.371759
  H      1.635721   -1.602801    3.452964
  H      3.611660    0.344016    3.089129

 Total Charge           Charge          ....    0
 Multiplicity           Mult            ....    1
 Number of Electrons    NEL             ....   72
 Basis Dimension        Dim             ....  351

ORBITAL ENERGIES
----------------

  NO   OCC          E(Eh)            E(eV)
   0   2.0000     -20.581095      -560.0401
   1   2.0000     -20.562703      -559.5396
   2   2.0000     -20.546473      -559.0980
   3   2.0000     -11.288680      -307.1806
   4   2.0000     -11.286664      -307.1258
   5   2.0000     -11.278551      -306.9050
   6   2.0000     -11.231689      -305.6298
   7   2.0000     -11.230640      -305.6013
   8   2.0000     -11.209997      -305.0395
   9   2.0000      -1.385559       -37.7030
  10   2.0000      -1.365719       -37.1631
  11   2.0000      -1.359775       -37.0014
  12   2.0000      -1.137483       -30.9525
  13   2.0000      -1.009849       -27.4794
  14   2.0000      -0.955579       -26.0026
  15   2.0000      -0.879519       -23.9329
  16   2.0000      -0.801356       -21.8060
  17   2.0000      -0.772145       -21.0111
  18   2.0000      -0.710555       -19.3352
  19   2.0000      -0.696703       -18.9583
  20   2.0000      -0.686478       -18.6800
  21   2.0000      -0.669785       -18.2258
  22   2.0000      -0.635039       -17.2803
  23   2.0000      -0.607425       -16.5289
  24   2.0000      -0.586211       -15.9516
  25   2.0000      -0.571055       -15.5392
  26   2.0000      -0.560190       -15.2435
  27   2.0000      -0.544398       -14.8138
  28   2.0000      -0.537158       -14.6168
  29   2.0000      -0.520084       -14.1522
  30   2.0000      -0.505738       -13.7618
  31   2.0000      -0.483745       -13.1634
  32   2.0000      -0.471978       -12.8432
  33   2.0000      -0.442682       -12.0460
  34   2.0000      -0.397392       -10.8136
  35   2.0000      -0.386091       -10.5061
  36   0.0000       0.125801         3.4232
  37   0.0000       0.129525         3.5245
  38   0.0000       0.159227         4.3328
  39   0.0000       0.163241         4.4420
  40   0.0000       0.191662         5.2154

MULLIKEN ATOMIC CHARGES
-----------------------
   0 C :   -0.432444
   1 C :   -0.033432
   2 C :    0.040429
   3 O :   -0.497849
   4 C :   -0.212816
   5 C :    0.052983
   6 O :   -0.468595
   7 C :   -0.036592
   8 O :   -0.510686
   9 H :    0.150270
  10 H :    0.135154
  11 H :    0.140695
  12 H :    0.119604
  13 H :    0.111135
  14 H :    0.332920
  15 H :    0.114777
  16 H :    0.103371
  17 H :    0.315621
  18 H :    0.140416
  19 H :    0.101537
  20 H :    0.333500
Sum of atomic charges:   -0.0000000

LOEWDIN ATOMIC CHARGES
----------------------
   0 C :   -0.292269
   1 C :   -0.212376
   2 C :   -0.299890
   3 O :   -0.005681
   4 C :   -0.203054
   5 C :   -0.341140
   6 O :   -0.016261
   7 C :   -0.316081
   8 O :   -0.048342
   9 H :    0.128813
  10 H :    0.127174
  11 H :    0.127221
  12 H :    0.147935
  13 H :    0.130454
  14 H :    0.170569
  15 H :    0.147436
  16 H :    0.149716
  17 H :    0.174332
  18 H :    0.124435
  19 H :    0.128682
  20 H :    0.178329

  Mayer bond orders larger than 0.1
B(  0-C ,  1-C ) :   0.9098 B(  0-C ,  9-H ) :   0.9347 B(  0-C , 10-H ) :   0.9342
B(  0-C , 11-H ) :   0.9371 B(  1-C ,  2-C ) :   0.8661 B(  1-C ,  4-C ) :   0.8501
B(  1-C , 12-H ) :   0.9241 B(  2-C ,  3-O ) :   1.0007 B(  2-C ,  4-C ) :   0.8798
B(  2-C , 13-H ) :   0.9601 B(  3-O , 14-H ) :   0.8041 B(  4-C ,  5-C ) :   0.9504
B(  4-C , 15-H ) :   0.9005 B(  5-C ,  6-O ) :   0.9159 B(  5-C ,  7-C ) :   0.8926
B(  5-C , 16-H ) :   0.9262 B(  6-O , 17-H ) :   0.8417 B(  7-C ,  8-O ) :   0.8829
B(  7-C , 18-H ) :   0.9464 B(  7-C , 19-H ) :   0.9186 B(  8-O , 20-H ) :   0.8385

MP2 TOTAL ENERGY:     -460.612064785 Eh
FINAL SINGLE POINT ENERGY      -460.612064785009

DIPOLE MOMENT
-------------
                                X             Y             Z
Electronic contribution:      2.26714      -1.66763       1.60585
Nuclear contribution   :     -2.50646       1.25897      -1.06270
                        -----------------------------------------
Total Dipole Moment    :     -0.23932      -0.40866       0.54315
                        -----------------------------------------
Magnitude (a.u.)       :      0.72062
Magnitude (Debye)      :      1.83167

                             ****ORCA TERMINATED NORMALLY****
TOTAL RUN TIME: 0 days 0 hours 17 minutes 16 seconds 742 msec
