                         Program Version 3.0.3 - RELEASE   -
|  1> ! RI-MP2 RIJK def2-TZVP def2-TZVP/C def2-TZVP/JK TIGHTSCF
|  2> % maxcore 2000
|  3> % mp2 density relaxed end
|  4> *xyz 0 1
|  5>  O        0.1568232282    -0.0228954853     0.2840925332
|  6>  C        0.0731404118     1.1418598670     0.0671874378
|  7>  C       -1.0318816639     2.2315624119     0.0284079564
|  8>  O       -0.0809157926     3.0043075921     0.8437625086
|  9>  C        0.9851521253     2.3893481179     0.0433947994
| 10>  C        0.6912373174     2.9748977721    -1.3579155020
| 11>  O        0.7706899066     2.0248069538    -2.4412643561
| 12>  C       -0.6721708611     1.9962011738    -2.5867752804
| 13>  C       -0.8610285905     2.8982807427    -1.3481345809
| 14>  H       -2.0183447564     2.1190834266     0.4730540815
| 15>  H        1.9772438971     2.4498726373     0.4844705080
| 16>  H        1.2042336558     3.9146865742    -1.5751790428
| 17>  H       -0.9839619961     2.4602947267    -3.5289436246
| 18>  H       -1.0728718050     0.9780987225    -2.5318471809
| 19>  H       -1.4504479165     3.8067759269    -1.4599334174
| 20> *
| 21>
| 22>                          ****END OF INPUT****

CARTESIAN COORDINATES (ANGSTROEM)
---------------------------------
  O      0.156823   -0.022895    0.284093
  C      0.073140    1.141860    0.067187
  C     -1.031882    2.231562    0.028408
  O     -0.080916    3.004308    0.843763
  C      0.985152    2.389348    0.043395
  C      0.691237    2.974898   -1.357916
  O      0.770690    2.024807   -2.441264
  C     -0.672171    1.996201   -2.586775
  C     -0.861029    2.898281   -1.348135
  H     -2.018345    2.119083    0.473054
  H      1.977244    2.449873    0.484471
  H      1.204234    3.914687   -1.575179
  H     -0.983962    2.460295   -3.528944
  H     -1.072872    0.978099   -2.531847
  H     -1.450448    3.806776   -1.459933

 Total Charge           Charge          ....    0
 Multiplicity           Mult            ....    1
 Number of Electrons    NEL             ....   66
 Basis Dimension        Dim             ....  315

ORBITAL ENERGIES
----------------

  NO   OCC          E(Eh)            E(eV)
   0   2.0000     -20.591590      -560.3257
   1   2.0000     -20.573222      -559.8258
   2   2.0000     -20.573051      -559.8212
   3   2.0000     -11.355030      -308.9861
   4   2.0000     -11.319331      -308.0147
   5   2.0000     -11.314907      -307.8943
   6   2.0000     -11.312413      -307.8264
   7   2.0000     -11.303151      -307.5744
   8   2.0000     -11.265181      -306.5412
   9   2.0000      -1.442918       -39.2638
  10   2.0000      -1.407800       -38.3082
  11   2.0000      -1.393450       -37.9177
  12   2.0000      -1.082814       -29.4649
  13   2.0000      -1.014584       -27.6082
  14   2.0000      -0.951553       -25.8931
  15   2.0000      -0.921929       -25.0870
  16   2.0000      -0.767803       -20.8930
  17   2.0000      -0.765580       -20.8325
  18   2.0000      -0.733669       -19.9641
  19   2.0000      -0.690188       -18.7810
  20   2.0000      -0.685606       -18.6563
  21   2.0000      -0.653915       -17.7939
  22   2.0000      -0.637787       -17.3551
  23   2.0000      -0.600356       -16.3365
  24   2.0000      -0.580292       -15.7905
  25   2.0000      -0.565400       -15.3853
  26   2.0000      -0.561022       -15.2662
  27   2.0000      -0.519990       -14.1497
  28   2.0000      -0.495100       -13.4724
  29   2.0000      -0.482348       -13.1254
  30   2.0000      -0.458711       -12.4822
  31   2.0000      -0.443976       -12.0812
  32   2.0000      -0.407499       -11.0886
  33   0.0000       0.125227         3.4076
  34   0.0000       0.145092         3.9481
  35   0.0000       0.152551         4.1511
  36   0.0000       0.169276         4.6062
  37   0.0000       0.173665         4.7257

MULLIKEN ATOMIC CHARGES
-----------------------
   0 O :   -0.220652
   1 C :    0.145018
   2 C :    0.007884
   3 O :   -0.281829
   4 C :    0.003542
   5 C :    0.072761
   6 O :   -0.331794
   7 C :   -0.039217
   8 C :   -0.153865
   9 H :    0.154495
  10 H :    0.159291
  11 H :    0.116738
  12 H :    0.114056
  13 H :    0.117824
  14 H :    0.135750
Sum of atomic charges:   -0.0000000

LOEWDIN ATOMIC CHARGES
----------------------
   0 O :    0.189010
   1 C :   -0.278973
   2 C :   -0.199509
   3 O :    0.188635
   4 C :   -0.200486
   5 C :   -0.223843
   6 O :    0.141377
   7 C :   -0.239947
   8 C :   -0.186386
   9 H :    0.139624
  10 H :    0.139756
  11 H :    0.135840
  12 H :    0.123374
  13 H :    0.124933
  14 H :    0.146594

  Mayer bond orders larger than 0.1
B(  0-O ,  1-C ) :   2.0914 B(  1-C ,  2-C ) :   0.9020 B(  1-C ,  4-C ) :   0.9085
B(  2-C ,  3-O ) :   0.9008 B(  2-C ,  4-C ) :  -0.1214 B(  2-C ,  8-C ) :   0.8970
B(  2-C ,  9-H ) :   0.9024 B(  3-O ,  4-C ) :   0.9229 B(  4-C ,  5-C ) :   0.8472
B(  4-C , 10-H ) :   0.8908 B(  5-C ,  6-O ) :   0.9808 B(  5-C ,  8-C ) :   0.9403
B(  5-C , 11-H ) :   0.9194 B(  6-O ,  7-C ) :   0.9152 B(  7-C ,  8-C ) :   0.9812
B(  7-C , 12-H ) :   0.9164 B(  7-C , 13-H ) :   0.9054 B(  8-C , 14-H ) :   0.9056

MP2 TOTAL ENERGY:     -456.978573662 Eh
FINAL SINGLE POINT ENERGY      -456.978573662051

DIPOLE MOMENT
-------------
                                X             Y             Z
Electronic contribution:      1.64510      -2.23349       3.10113
Nuclear contribution   :     -2.24907       3.14785      -3.55542
                        -----------------------------------------
Total Dipole Moment    :     -0.60397       0.91436      -0.45429
                        -----------------------------------------
Magnitude (a.u.)       :      1.18626
Magnitude (Debye)      :      3.01524

                             ****ORCA TERMINATED NORMALLY****
TOTAL RUN TIME: 0 days 0 hours 18 minutes 33 seconds 591 msec
