                         Program Version 3.0.3 - RELEASE   -
|  1> ! RI-MP2 RIJK def2-TZVP def2-TZVP/C def2-TZVP/JK TIGHTSCF
|  2> % maxcore 2000
|  3> % mp2 density relaxed end
|  4> *xyz 0 1
|  5>  C       -0.1517596418     1.5030547250     0.1045738298
|  6>  C        0.0315760676     0.0153407254     0.0075871382
|  7>  C       -0.7999160403    -0.9721734026     0.7860094701
|  8>  C        0.6931854034    -0.9681260139     0.9771951880
|  9>  C        1.3679582821    -1.7134509916    -0.1805272315
| 10>  C        0.7207995440    -0.6962637983    -1.1796118269
| 11>  C       -0.1363854894    -1.2027048643    -2.3112834809
| 12>  C        0.1817260561    -2.4210615061    -3.0673619968
| 13>  O       -0.8764334203    -2.4127950098    -2.1065328884
| 14>  H        0.7727278995     2.0388972240    -0.1427493355
| 15>  H       -0.9331375018     1.8595133111    -0.5784587997
| 16>  H       -0.4468572880     1.7975340515     1.1173065970
| 17>  H       -1.3692061560    -0.5331559236     1.5999651810
| 18>  H       -1.2887052054    -1.8070354726     0.2936262873
| 19>  H        1.1476683492    -0.7638632672     1.9396014255
| 20>  H        2.4581897349    -1.6518471204    -0.1726222240
| 21>  H        1.0692253818    -2.7588047658    -0.3006274673
| 22>  H        1.4882203538    -0.0401588736    -1.6080741790
| 23>  H       -0.7090034360    -0.4313778005    -2.8316440107
| 24>  H       -0.1321048432    -2.5150290274    -4.1059553777
| 25>  H        1.0559463796    -3.0096135592    -2.7918444885
| 26> *
| 27>
| 28>                          ****END OF INPUT****

CARTESIAN COORDINATES (ANGSTROEM)
---------------------------------
  C     -0.151760    1.503055    0.104574
  C      0.031576    0.015341    0.007587
  C     -0.799916   -0.972173    0.786009
  C      0.693185   -0.968126    0.977195
  C      1.367958   -1.713451   -0.180527
  C      0.720800   -0.696264   -1.179612
  C     -0.136385   -1.202705   -2.311283
  C      0.181726   -2.421062   -3.067362
  O     -0.876433   -2.412795   -2.106533
  H      0.772728    2.038897   -0.142749
  H     -0.933138    1.859513   -0.578459
  H     -0.446857    1.797534    1.117307
  H     -1.369206   -0.533156    1.599965
  H     -1.288705   -1.807035    0.293626
  H      1.147668   -0.763863    1.939601
  H      2.458190   -1.651847   -0.172622
  H      1.069225   -2.758805   -0.300627
  H      1.488220   -0.040159   -1.608074
  H     -0.709003   -0.431378   -2.831644
  H     -0.132105   -2.515029   -4.105955
  H      1.055946   -3.009614   -2.791844

 Total Charge           Charge          ....    0
 Multiplicity           Mult            ....    1
 Number of Electrons    NEL             ....   68
 Basis Dimension        Dim             ....  351

ORBITAL ENERGIES
----------------

  NO   OCC          E(Eh)            E(eV)
   0   2.0000     -20.562796      -559.5421
   1   2.0000     -11.282590      -307.0149
   2   2.0000     -11.278380      -306.9003
   3   2.0000     -11.234692      -305.7115
   4   2.0000     -11.232973      -305.6647
   5   2.0000     -11.223913      -305.4182
   6   2.0000     -11.222080      -305.3683
   7   2.0000     -11.218179      -305.2622
   8   2.0000     -11.214805      -305.1704
   9   2.0000      -1.405663       -38.2500
  10   2.0000      -1.187996       -32.3270
  11   2.0000      -1.008960       -27.4552
  12   2.0000      -0.977958       -26.6116
  13   2.0000      -0.923960       -25.1422
  14   2.0000      -0.891797       -24.2670
  15   2.0000      -0.810620       -22.0581
  16   2.0000      -0.785972       -21.3874
  17   2.0000      -0.712910       -19.3993
  18   2.0000      -0.691723       -18.8227
  19   2.0000      -0.658160       -17.9094
  20   2.0000      -0.644576       -17.5398
  21   2.0000      -0.604009       -16.4359
  22   2.0000      -0.569901       -15.5078
  23   2.0000      -0.561978       -15.2922
  24   2.0000      -0.556633       -15.1468
  25   2.0000      -0.537911       -14.6373
  26   2.0000      -0.525770       -14.3069
  27   2.0000      -0.510255       -13.8847
  28   2.0000      -0.479430       -13.0460
  29   2.0000      -0.461998       -12.5716
  30   2.0000      -0.444134       -12.0855
  31   2.0000      -0.422973       -11.5097
  32   2.0000      -0.392850       -10.6900
  33   2.0000      -0.361113        -9.8264
  34   0.0000       0.137345         3.7373
  35   0.0000       0.155939         4.2433
  36   0.0000       0.169825         4.6212
  37   0.0000       0.176740         4.8094
  38   0.0000       0.186864         5.0848

MULLIKEN ATOMIC CHARGES
-----------------------
   0 C :   -0.411920
   1 C :    0.053232
   2 C :   -0.295502
   3 C :   -0.122229
   4 C :   -0.250628
   5 C :   -0.053938
   6 C :    0.001156
   7 C :   -0.077250
   8 O :   -0.344049
   9 H :    0.126451
  10 H :    0.133818
  11 H :    0.130356
  12 H :    0.124217
  13 H :    0.156087
  14 H :    0.125631
  15 H :    0.117728
  16 H :    0.124596
  17 H :    0.099705
  18 H :    0.128349
  19 H :    0.116852
  20 H :    0.117336
Sum of atomic charges:   -0.0000000

LOEWDIN ATOMIC CHARGES
----------------------
   0 C :   -0.277365
   1 C :   -0.209096
   2 C :   -0.185381
   3 C :   -0.167397
   4 C :   -0.187932
   5 C :   -0.174674
   6 C :   -0.270900
   7 C :   -0.267411
   8 O :    0.140293
   9 H :    0.125291
  10 H :    0.127785
  11 H :    0.130412
  12 H :    0.139221
  13 H :    0.138095
  14 H :    0.133246
  15 H :    0.132375
  16 H :    0.134277
  17 H :    0.159771
  18 H :    0.140333
  19 H :    0.118730
  20 H :    0.120329

  Mayer bond orders larger than 0.1
B(  0-C ,  1-C ) :   0.8947 B(  0-C ,  9-H ) :   0.9417 B(  0-C , 10-H ) :   0.9375
B(  0-C , 11-H ) :   0.9360 B(  1-C ,  2-C ) :   0.9044 B(  1-C ,  3-C ) :   0.8250
B(  1-C ,  5-C ) :   0.9247 B(  2-C ,  3-C ) :   0.8796 B(  2-C , 12-H ) :   0.9337
B(  2-C , 13-H ) :   0.9055 B(  3-C ,  4-C ) :   0.9605 B(  3-C , 14-H ) :   0.9213
B(  4-C ,  5-C ) :   0.9871 B(  4-C , 15-H ) :   0.9239 B(  4-C , 16-H ) :   0.9059
B(  5-C ,  6-C ) :   0.9204 B(  5-C , 17-H ) :   0.9116 B(  6-C ,  7-C ) :   0.9765
B(  6-C ,  8-O ) :   0.8535 B(  6-C , 18-H ) :   0.9153 B(  7-C ,  8-O ) :   0.9141
B(  7-C , 19-H ) :   0.9245 B(  7-C , 20-H ) :   0.9037

MP2 TOTAL ENERGY:     -386.360533369 Eh
FINAL SINGLE POINT ENERGY      -386.360533368512

DIPOLE MOMENT
-------------
                                X             Y             Z
Electronic contribution:     -1.26614      -3.44028      -2.15300
Nuclear contribution   :      1.81614       3.89021       1.91187
                        -----------------------------------------
Total Dipole Moment    :      0.55000       0.44993      -0.24113
                        -----------------------------------------
Magnitude (a.u.)       :      0.75039
Magnitude (Debye)      :      1.90734

                             ****ORCA TERMINATED NORMALLY****
TOTAL RUN TIME: 0 days 0 hours 18 minutes 28 seconds 607 msec
