                         Program Version 3.0.3 - RELEASE   -
|  1> ! RI-MP2 RIJK def2-TZVP def2-TZVP/C def2-TZVP/JK TIGHTSCF
|  2> % maxcore 2000
|  3> % mp2 density relaxed end
|  4> *xyz 0 1
|  5>  C       -0.3105647984     1.5641002874     0.3042486492
|  6>  C        0.0351091094     0.0860676067     0.0211360430
|  7>  C        0.8593458860    -0.4855073492     1.0836360325
|  8>  C        1.5376861186    -0.9596477720     1.9592363854
|  9>  C        2.2745969881    -1.5714226694     3.0648260988
| 10>  O        1.5586938308    -2.6299481621     3.6880162317
| 11>  C       -1.2470505519    -0.7111832231    -0.2106229016
| 12>  C       -1.4427139430    -2.1004357120     0.2137339587
| 13>  O       -2.0416620178    -1.0131365584     0.9315980208
| 14>  H        0.5979620953     2.1560106944     0.4375916977
| 15>  H       -0.8817351774     1.9878234939    -0.5279866283
| 16>  H       -0.9127348401     1.6404699836     1.2130783973
| 17>  H        0.6025676246     0.0402029720    -0.9202180889
| 18>  H        3.2078679388    -2.0165297589     2.7021184704
| 19>  H        2.5566363517    -0.7942326403     3.7931182554
| 20>  H        0.6861693585    -2.2898931783     3.9136504545
| 21>  H       -1.8203541559    -0.3525221524    -1.0683809246
| 22>  H       -2.1380319614    -2.7353765263    -0.3333924830
| 23>  H       -0.6416447161    -2.6126547156     0.7413372210
| 24> *
| 25>
| 26>                          ****END OF INPUT****

CARTESIAN COORDINATES (ANGSTROEM)
---------------------------------
  C     -0.310565    1.564100    0.304249
  C      0.035109    0.086068    0.021136
  C      0.859346   -0.485507    1.083636
  C      1.537686   -0.959648    1.959236
  C      2.274597   -1.571423    3.064826
  O      1.558694   -2.629948    3.688016
  C     -1.247051   -0.711183   -0.210623
  C     -1.442714   -2.100436    0.213734
  O     -2.041662   -1.013137    0.931598
  H      0.597962    2.156011    0.437592
  H     -0.881735    1.987823   -0.527987
  H     -0.912735    1.640470    1.213078
  H      0.602568    0.040203   -0.920218
  H      3.207868   -2.016530    2.702118
  H      2.556636   -0.794233    3.793118
  H      0.686169   -2.289893    3.913650
  H     -1.820354   -0.352522   -1.068381
  H     -2.138032   -2.735377   -0.333392
  H     -0.641645   -2.612655    0.741337

 Total Charge           Charge          ....    0
 Multiplicity           Mult            ....    1
 Number of Electrons    NEL             ....   68
 Basis Dimension        Dim             ....  339

ORBITAL ENERGIES
----------------

  NO   OCC          E(Eh)            E(eV)
   0   2.0000     -20.569805      -559.7328
   1   2.0000     -20.564493      -559.5883
   2   2.0000     -11.304658      -307.6154
   3   2.0000     -11.295565      -307.3680
   4   2.0000     -11.282552      -307.0138
   5   2.0000     -11.268939      -306.6434
   6   2.0000     -11.232228      -305.6445
   7   2.0000     -11.228738      -305.5495
   8   2.0000     -11.225375      -305.4580
   9   2.0000      -1.414423       -38.4884
  10   2.0000      -1.368613       -37.2419
  11   2.0000      -1.102472       -29.9998
  12   2.0000      -1.031133       -28.0585
  13   2.0000      -0.943017       -25.6608
  14   2.0000      -0.935115       -25.4458
  15   2.0000      -0.884616       -24.0716
  16   2.0000      -0.824580       -22.4380
  17   2.0000      -0.721746       -19.6397
  18   2.0000      -0.704960       -19.1829
  19   2.0000      -0.680531       -18.5182
  20   2.0000      -0.656672       -17.8689
  21   2.0000      -0.638861       -17.3843
  22   2.0000      -0.616536       -16.7768
  23   2.0000      -0.579375       -15.7656
  24   2.0000      -0.561139       -15.2694
  25   2.0000      -0.546414       -14.8687
  26   2.0000      -0.535779       -14.5793
  27   2.0000      -0.526636       -14.3305
  28   2.0000      -0.514468       -13.9994
  29   2.0000      -0.474455       -12.9106
  30   2.0000      -0.454428       -12.3656
  31   2.0000      -0.441012       -12.0005
  32   2.0000      -0.385760       -10.4971
  33   2.0000      -0.374672       -10.1953
  34   0.0000       0.133122         3.6224
  35   0.0000       0.135550         3.6885
  36   0.0000       0.164327         4.4716
  37   0.0000       0.172921         4.7054
  38   0.0000       0.178098         4.8463

MULLIKEN ATOMIC CHARGES
-----------------------
   0 C :   -0.410504
   1 C :   -0.089909
   2 C :   -0.061328
   3 C :   -0.029656
   4 C :   -0.065697
   5 O :   -0.462036
   6 C :    0.010113
   7 C :   -0.071904
   8 O :   -0.340868
   9 H :    0.141906
  10 H :    0.133027
  11 H :    0.149649
  12 H :    0.114615
  13 H :    0.136980
  14 H :    0.133345
  15 H :    0.324259
  16 H :    0.126275
  17 H :    0.119838
  18 H :    0.141894
Sum of atomic charges:    0.0000000

LOEWDIN ATOMIC CHARGES
----------------------
   0 C :   -0.266743
   1 C :   -0.255644
   2 C :   -0.045545
   3 C :   -0.085762
   4 C :   -0.333927
   5 O :   -0.042791
   6 C :   -0.269059
   7 C :   -0.254045
   8 O :    0.149285
   9 H :    0.127479
  10 H :    0.124561
  11 H :    0.132499
  12 H :    0.174975
  13 H :    0.144387
  14 H :    0.133857
  15 H :    0.179072
  16 H :    0.140432
  17 H :    0.119430
  18 H :    0.127541

  Mayer bond orders larger than 0.1
B(  0-C ,  1-C ) :   0.8977 B(  0-C ,  9-H ) :   0.9370 B(  0-C , 10-H ) :   0.9361
B(  0-C , 11-H ) :   0.9319 B(  1-C ,  2-C ) :   1.0873 B(  1-C ,  3-C ) :  -0.1301
B(  1-C ,  6-C ) :   0.9199 B(  1-C , 12-H ) :   0.9165 B(  2-C ,  3-C ) :   2.6899
B(  3-C ,  4-C ) :   0.8425 B(  4-C ,  5-O ) :   0.9540 B(  4-C , 13-H ) :   0.9290
B(  4-C , 14-H ) :   0.9825 B(  5-O , 15-H ) :   0.8402 B(  6-C ,  7-C ) :   0.9826
B(  6-C ,  8-O ) :   0.8980 B(  6-C , 16-H ) :   0.9213 B(  7-C ,  8-O ) :   0.8942
B(  7-C , 17-H ) :   0.9234 B(  7-C , 18-H ) :   0.9026

MP2 TOTAL ENERGY:     -422.255118202 Eh
FINAL SINGLE POINT ENERGY      -422.255118201943

DIPOLE MOMENT
-------------
                                X             Y             Z
Electronic contribution:     -0.01197      -3.29310       1.95125
Nuclear contribution   :      0.12480       3.74320      -2.62506
                        -----------------------------------------
Total Dipole Moment    :      0.11284       0.45010      -0.67381
                        -----------------------------------------
Magnitude (a.u.)       :      0.81814
Magnitude (Debye)      :      2.07954

                             ****ORCA TERMINATED NORMALLY****
TOTAL RUN TIME: 0 days 0 hours 16 minutes 55 seconds 511 msec
