                         Program Version 3.0.3 - RELEASE   -
|  1> ! RI-MP2 RIJK def2-TZVP def2-TZVP/C def2-TZVP/JK TIGHTSCF
|  2> % maxcore 2000
|  3> % mp2 density relaxed end
|  4> *xyz 0 1
|  5>  C       -0.1482406511     1.5254178557     0.0487387841
|  6>  C       -0.1982630528     0.0106980941    -0.1648111238
|  7>  C        0.9367141447    -0.5020194334    -1.0617347623
|  8>  C        0.8962019034    -2.0041382044    -1.2312786317
|  9>  C        0.0283594377    -2.6382204228    -2.2814906958
| 10>  O       -0.7045753373    -1.8272510720    -3.1423234418
| 11>  C        1.5482184565    -2.7042565948    -2.4334835064
| 12>  C        2.1294054186    -1.9557719847    -3.5047299397
| 13>  C        2.5502508403    -1.3354122429    -4.4483240615
| 14>  H        0.7914056264     1.8296403593     0.5239160427
| 15>  H       -0.2241503543     2.0613681391    -0.9038945787
| 16>  H       -0.9691257744     1.8657178817     0.6876872923
| 17>  H       -0.1547452749    -0.4986468644     0.8072712913
| 18>  H       -1.1560673927    -0.2700471272    -0.6182829879
| 19>  H        0.8683129760    -0.0217171146    -2.0421678432
| 20>  H        1.9070292806    -0.2100175008    -0.6389235587
| 21>  H        0.9888189678    -2.5688174344    -0.3061575736
| 22>  H       -0.4766595407    -3.5722075575    -2.0445279983
| 23>  H       -0.1747355551    -1.6690214592    -3.9346977364
| 24>  H        2.0150430250    -3.6649018604    -2.2382840944
| 25>  H        2.9646604364    -0.7845481963    -5.2561467863
| 26> *
| 27>
| 28>                          ****END OF INPUT****

CARTESIAN COORDINATES (ANGSTROEM)
---------------------------------
  C     -0.148241    1.525418    0.048739
  C     -0.198263    0.010698   -0.164811
  C      0.936714   -0.502019   -1.061735
  C      0.896202   -2.004138   -1.231279
  C      0.028359   -2.638220   -2.281491
  O     -0.704575   -1.827251   -3.142323
  C      1.548218   -2.704257   -2.433484
  C      2.129405   -1.955772   -3.504730
  C      2.550251   -1.335412   -4.448324
  H      0.791406    1.829640    0.523916
  H     -0.224150    2.061368   -0.903895
  H     -0.969126    1.865718    0.687687
  H     -0.154745   -0.498647    0.807271
  H     -1.156067   -0.270047   -0.618283
  H      0.868313   -0.021717   -2.042168
  H      1.907029   -0.210018   -0.638924
  H      0.988819   -2.568817   -0.306158
  H     -0.476660   -3.572208   -2.044528
  H     -0.174736   -1.669021   -3.934698
  H      2.015043   -3.664902   -2.238284
  H      2.964660   -0.784548   -5.256147

 Total Charge           Charge          ....    0
 Multiplicity           Mult            ....    1
 Number of Electrons    NEL             ....   68
 Basis Dimension        Dim             ....  351

ORBITAL ENERGIES
----------------

  NO   OCC          E(Eh)            E(eV)
   0   2.0000     -20.562620      -559.5373
   1   2.0000     -11.294165      -307.3298
   2   2.0000     -11.259603      -306.3894
   3   2.0000     -11.245502      -306.0057
   4   2.0000     -11.243280      -305.9452
   5   2.0000     -11.231163      -305.6155
   6   2.0000     -11.219997      -305.3117
   7   2.0000     -11.215346      -305.1851
   8   2.0000     -11.209082      -305.0146
   9   2.0000      -1.376920       -37.4679
  10   2.0000      -1.155933       -31.4545
  11   2.0000      -1.057207       -28.7681
  12   2.0000      -1.029826       -28.0230
  13   2.0000      -0.943845       -25.6833
  14   2.0000      -0.871573       -23.7167
  15   2.0000      -0.821276       -22.3481
  16   2.0000      -0.781065       -21.2539
  17   2.0000      -0.722997       -19.6737
  18   2.0000      -0.706430       -19.2229
  19   2.0000      -0.687442       -18.7063
  20   2.0000      -0.636257       -17.3134
  21   2.0000      -0.612532       -16.6678
  22   2.0000      -0.579152       -15.7595
  23   2.0000      -0.576970       -15.7002
  24   2.0000      -0.560168       -15.2429
  25   2.0000      -0.525179       -14.2909
  26   2.0000      -0.520561       -14.1652
  27   2.0000      -0.487356       -13.2616
  28   2.0000      -0.479734       -13.0542
  29   2.0000      -0.467423       -12.7192
  30   2.0000      -0.455213       -12.3870
  31   2.0000      -0.425593       -11.5810
  32   2.0000      -0.380459       -10.3528
  33   2.0000      -0.364048        -9.9063
  34   0.0000       0.138322         3.7639
  35   0.0000       0.143191         3.8964
  36   0.0000       0.160262         4.3610
  37   0.0000       0.164314         4.4712
  38   0.0000       0.171077         4.6552

MULLIKEN ATOMIC CHARGES
-----------------------
   0 C :   -0.388413
   1 C :   -0.206921
   2 C :   -0.196861
   3 C :   -0.086393
   4 C :    0.060623
   5 O :   -0.479832
   6 C :   -0.248997
   7 C :   -0.047622
   8 C :   -0.157417
   9 H :    0.119283
  10 H :    0.125160
  11 H :    0.132939
  12 H :    0.099554
  13 H :    0.130451
  14 H :    0.108346
  15 H :    0.118956
  16 H :    0.122646
  17 H :    0.123886
  18 H :    0.336826
  19 H :    0.142902
  20 H :    0.190886
Sum of atomic charges:   -0.0000000

LOEWDIN ATOMIC CHARGES
----------------------
   0 C :   -0.321104
   1 C :   -0.288615
   2 C :   -0.243237
   3 C :   -0.177856
   4 C :   -0.278929
   5 O :    0.012155
   6 C :   -0.186139
   7 C :   -0.107924
   8 C :   -0.102320
   9 H :    0.119295
  10 H :    0.121121
  11 H :    0.120374
  12 H :    0.133023
  13 H :    0.140905
  14 H :    0.147090
  15 H :    0.142358
  16 H :    0.153141
  17 H :    0.136429
  18 H :    0.187641
  19 H :    0.164412
  20 H :    0.128179

  Mayer bond orders larger than 0.1
B(  0-C ,  1-C ) :   0.9185 B(  0-C ,  9-H ) :   0.9387 B(  0-C , 10-H ) :   0.9411
B(  0-C , 11-H ) :   0.9437 B(  1-C ,  2-C ) :   0.9308 B(  1-C , 12-H ) :   0.9311
B(  1-C , 13-H ) :   0.9347 B(  2-C ,  3-C ) :   0.9420 B(  2-C , 14-H ) :   0.9126
B(  2-C , 15-H ) :   0.9295 B(  3-C ,  4-C ) :   0.8601 B(  3-C ,  6-C ) :   0.8433
B(  3-C , 16-H ) :   0.9156 B(  4-C ,  5-O ) :   0.9960 B(  4-C ,  6-C ) :   0.8522
B(  4-C , 17-H ) :   0.9493 B(  5-O , 18-H ) :   0.8191 B(  6-C ,  7-C ) :   1.1624
B(  6-C ,  8-C ) :  -0.1036 B(  6-C , 19-H ) :   0.9303 B(  7-C ,  8-C ) :   2.5363
B(  8-C , 20-H ) :   0.9099

MP2 TOTAL ENERGY:     -386.360423555 Eh
FINAL SINGLE POINT ENERGY      -386.360423555023

DIPOLE MOMENT
-------------
                                X             Y             Z
Electronic contribution:      2.42232      -6.91843      -7.37392
Nuclear contribution   :     -2.02749       6.74508       7.43960
                        -----------------------------------------
Total Dipole Moment    :      0.39483      -0.17335       0.06567
                        -----------------------------------------
Magnitude (a.u.)       :      0.43618
Magnitude (Debye)      :      1.10869

                             ****ORCA TERMINATED NORMALLY****
TOTAL RUN TIME: 0 days 0 hours 18 minutes 55 seconds 699 msec
