                         Program Version 3.0.3 - RELEASE   -
|  1> ! RI-MP2 RIJK def2-TZVP def2-TZVP/C def2-TZVP/JK TIGHTSCF
|  2> % maxcore 2000
|  3> % mp2 density relaxed end
|  4> *xyz 0 1
|  5>  C       -0.0140003882     1.3598119337     0.1490947210
|  6>  O       -0.2142254452     0.0307255105    -0.3496396230
|  7>  C       -1.1822133829    -0.6768558126     0.2678628245
|  8>  O       -1.8591685424    -0.2386324541     1.1638012845
|  9>  C       -1.2706359343    -2.0806092712    -0.3038129612
| 10>  C       -2.6408632279    -2.7046398817    -0.1316322046
| 11>  C       -2.7824334700    -4.1888820848    -0.0414914591
| 12>  N       -3.0982423726    -3.3406995891     1.0975712188
| 13>  C       -2.2353932137    -3.3897717824     2.2673489621
| 14>  H        0.7906919513     1.7840607402    -0.4513882483
| 15>  H       -0.9258092840     1.9525649157     0.0419762345
| 16>  H        0.2666250391     1.3379173328     1.2052375202
| 17>  H       -0.9991188870    -2.0464216212    -1.3636480933
| 18>  H       -0.4931787426    -2.6784979727     0.1844670586
| 19>  H       -3.4300803853    -2.1445350307    -0.6314063041
| 20>  H       -3.6177267181    -4.7029831447    -0.5106146506
| 21>  H       -1.8580314872    -4.7674806528    -0.0078691093
| 22>  H       -1.1928161912    -3.6817700747     2.0579422805
| 23>  H       -2.2313101804    -2.4062393997     2.7436657061
| 24>  H       -2.6445114574    -4.1217271204     2.9710476527
| 25> *
| 26>
| 27>                          ****END OF INPUT****

CARTESIAN COORDINATES (ANGSTROEM)
---------------------------------
  C     -0.014000    1.359812    0.149095
  O     -0.214225    0.030726   -0.349640
  C     -1.182213   -0.676856    0.267863
  O     -1.859169   -0.238632    1.163801
  C     -1.270636   -2.080609   -0.303813
  C     -2.640863   -2.704640   -0.131632
  C     -2.782433   -4.188882   -0.041491
  N     -3.098242   -3.340700    1.097571
  C     -2.235393   -3.389772    2.267349
  H      0.790692    1.784061   -0.451388
  H     -0.925809    1.952565    0.041976
  H      0.266625    1.337917    1.205238
  H     -0.999119   -2.046422   -1.363648
  H     -0.493179   -2.678498    0.184467
  H     -3.430080   -2.144535   -0.631406
  H     -3.617727   -4.702983   -0.510615
  H     -1.858031   -4.767481   -0.007869
  H     -1.192816   -3.681770    2.057942
  H     -2.231310   -2.406239    2.743666
  H     -2.644511   -4.121727    2.971048

 Total Charge           Charge          ....    0
 Multiplicity           Mult            ....    1
 Number of Electrons    NEL             ....   70
 Basis Dimension        Dim             ....  345

ORBITAL ENERGIES
----------------

  NO   OCC          E(Eh)            E(eV)
   0   2.0000     -20.605273      -560.6980
   1   2.0000     -20.544610      -559.0473
   2   2.0000     -15.554596      -423.2621
   3   2.0000     -11.380372      -309.6757
   4   2.0000     -11.287259      -307.1419
   5   2.0000     -11.263466      -306.4945
   6   2.0000     -11.252029      -306.1833
   7   2.0000     -11.251529      -306.1697
   8   2.0000     -11.239422      -305.8402
   9   2.0000      -1.462755       -39.8036
  10   2.0000      -1.361798       -37.0564
  11   2.0000      -1.271894       -34.6100
  12   2.0000      -1.052878       -28.6503
  13   2.0000      -0.988906       -26.9095
  14   2.0000      -0.954729       -25.9795
  15   2.0000      -0.832835       -22.6626
  16   2.0000      -0.808059       -21.9884
  17   2.0000      -0.763723       -20.7819
  18   2.0000      -0.706538       -19.2259
  19   2.0000      -0.688687       -18.7401
  20   2.0000      -0.678224       -18.4554
  21   2.0000      -0.657877       -17.9017
  22   2.0000      -0.634686       -17.2707
  23   2.0000      -0.607245       -16.5240
  24   2.0000      -0.585413       -15.9299
  25   2.0000      -0.566605       -15.4181
  26   2.0000      -0.550619       -14.9831
  27   2.0000      -0.535599       -14.5744
  28   2.0000      -0.529530       -14.4092
  29   2.0000      -0.514507       -14.0004
  30   2.0000      -0.467148       -12.7117
  31   2.0000      -0.464173       -12.6308
  32   2.0000      -0.447024       -12.1641
  33   2.0000      -0.442821       -12.0498
  34   2.0000      -0.365331        -9.9412
  35   0.0000       0.135543         3.6883
  36   0.0000       0.156138         4.2487
  37   0.0000       0.167695         4.5632
  38   0.0000       0.171542         4.6679
  39   0.0000       0.182778         4.9736

MULLIKEN ATOMIC CHARGES
-----------------------
   0 C :   -0.220129
   1 O :   -0.254678
   2 C :    0.298356
   3 O :   -0.324568
   4 C :   -0.253291
   5 C :   -0.025915
   6 C :   -0.184262
   7 N :   -0.208037
   8 C :   -0.306471
   9 H :    0.144663
  10 H :    0.141632
  11 H :    0.138917
  12 H :    0.155505
  13 H :    0.145196
  14 H :    0.120519
  15 H :    0.126643
  16 H :    0.111659
  17 H :    0.094997
  18 H :    0.158243
  19 H :    0.141021
Sum of atomic charges:   -0.0000000

LOEWDIN ATOMIC CHARGES
----------------------
   0 C :   -0.310323
   1 O :    0.224611
   2 C :   -0.477369
   3 O :    0.131381
   4 C :   -0.222179
   5 C :   -0.254322
   6 C :   -0.249450
   7 N :    0.094815
   8 C :   -0.331563
   9 H :    0.114604
  10 H :    0.114385
  11 H :    0.113674
  12 H :    0.158813
  13 H :    0.158584
  14 H :    0.145928
  15 H :    0.123407
  16 H :    0.122082
  17 H :    0.100626
  18 H :    0.123806
  19 H :    0.118490

  Mayer bond orders larger than 0.1
B(  0-C ,  1-O ) :   0.8368 B(  0-C ,  9-H ) :   0.9338 B(  0-C , 10-H ) :   0.9385
B(  0-C , 11-H ) :   0.9384 B(  1-O ,  2-C ) :   1.1372 B(  2-C ,  3-O ) :   1.9220
B(  2-C ,  4-C ) :   0.9304 B(  4-C ,  5-C ) :   0.9173 B(  4-C , 12-H ) :   0.9177
B(  4-C , 13-H ) :   0.9163 B(  5-C ,  6-C ) :   0.9296 B(  5-C ,  7-N ) :   0.9312
B(  5-C , 14-H ) :   0.9141 B(  6-C ,  7-N ) :   0.8966 B(  6-C , 15-H ) :   0.9225
B(  6-C , 16-H ) :   0.9165 B(  7-N ,  8-C ) :   0.8884 B(  8-C , 17-H ) :   0.9285
B(  8-C , 18-H ) :   0.9329 B(  8-C , 19-H ) :   0.9353

MP2 TOTAL ENERGY:     -439.556114748 Eh
FINAL SINGLE POINT ENERGY      -439.556114747620

DIPOLE MOMENT
-------------
                                X             Y             Z
Electronic contribution:     -0.90198       3.17867      -1.48455
Nuclear contribution   :      1.83623      -3.16699       0.96506
                        -----------------------------------------
Total Dipole Moment    :      0.93425       0.01168      -0.51949
                        -----------------------------------------
Magnitude (a.u.)       :      1.06903
Magnitude (Debye)      :      2.71726

                             ****ORCA TERMINATED NORMALLY****
TOTAL RUN TIME: 0 days 0 hours 16 minutes 20 seconds 463 msec
