                         Program Version 3.0.3 - RELEASE   -
|  1> ! RI-MP2 RIJK def2-TZVP def2-TZVP/C def2-TZVP/JK TIGHTSCF
|  2> % maxcore 2000
|  3> % mp2 density relaxed end
|  4> *xyz 0 1
|  5>  O       -0.4091952073     1.3702275273     0.2496273737
|  6>  C       -0.1286265384     0.0631590658     0.0855074834
|  7>  C        0.0966398061    -0.5977240386    -1.0795002933
|  8>  C        0.1241986104    -0.2042041412    -2.5170685155
|  9>  C        1.4324568112    -0.3636192477    -3.1548409484
| 10>  C        2.5041469634    -0.5029286565    -3.6786151933
| 11>  O        0.3355001252    -1.9139976203    -0.7336661287
| 12>  C        0.2382535376    -1.9447855475     0.6038352915
| 13>  N       -0.0376764365    -0.8040094587     1.1554476521
| 14>  H       -0.5102934774     1.5179621541     1.1975115891
| 15>  H       -0.6249255257    -0.7760653431    -3.0823390454
| 16>  H       -0.1888275595     0.8451183835    -2.5683739178
| 17>  H        3.4535618662    -0.6232253940    -4.1384198942
| 18>  H        0.3941644547    -2.8960894032     1.0872585370
| 19> *
| 20>
| 21>                          ****END OF INPUT****

CARTESIAN COORDINATES (ANGSTROEM)
---------------------------------
  O     -0.409195    1.370228    0.249627
  C     -0.128627    0.063159    0.085507
  C      0.096640   -0.597724   -1.079500
  C      0.124199   -0.204204   -2.517069
  C      1.432457   -0.363619   -3.154841
  C      2.504147   -0.502929   -3.678615
  O      0.335500   -1.913998   -0.733666
  C      0.238254   -1.944786    0.603835
  N     -0.037676   -0.804009    1.155448
  H     -0.510293    1.517962    1.197512
  H     -0.624926   -0.776065   -3.082339
  H     -0.188828    0.845118   -2.568374
  H      3.453562   -0.623225   -4.138420
  H      0.394164   -2.896089    1.087259

 Total Charge           Charge          ....    0
 Multiplicity           Mult            ....    1
 Number of Electrons    NEL             ....   64
 Basis Dimension        Dim             ....  309

ORBITAL ENERGIES
----------------

  NO   OCC          E(Eh)            E(eV)
   0   2.0000     -20.642528      -561.7118
   1   2.0000     -20.601464      -560.5943
   2   2.0000     -15.576869      -423.8682
   3   2.0000     -11.349034      -308.8229
   4   2.0000     -11.328196      -308.2559
   5   2.0000     -11.290728      -307.2363
   6   2.0000     -11.274705      -306.8003
   7   2.0000     -11.237677      -305.7927
   8   2.0000     -11.223933      -305.4187
   9   2.0000      -1.495287       -40.6888
  10   2.0000      -1.423808       -38.7438
  11   2.0000      -1.240075       -33.7441
  12   2.0000      -1.099583       -29.9212
  13   2.0000      -1.025412       -27.9029
  14   2.0000      -0.959125       -26.0991
  15   2.0000      -0.862882       -23.4802
  16   2.0000      -0.814846       -22.1731
  17   2.0000      -0.758387       -20.6368
  18   2.0000      -0.727280       -19.7903
  19   2.0000      -0.698763       -19.0143
  20   2.0000      -0.682850       -18.5813
  21   2.0000      -0.642956       -17.4957
  22   2.0000      -0.621460       -16.9108
  23   2.0000      -0.605468       -16.4756
  24   2.0000      -0.592211       -16.1149
  25   2.0000      -0.590223       -16.0608
  26   2.0000      -0.559751       -15.2316
  27   2.0000      -0.481469       -13.1014
  28   2.0000      -0.449745       -12.2382
  29   2.0000      -0.394416       -10.7326
  30   2.0000      -0.390372       -10.6226
  31   2.0000      -0.326375        -8.8811
  32   0.0000       0.128900         3.5076
  33   0.0000       0.138314         3.7637
  34   0.0000       0.156136         4.2487
  35   0.0000       0.170454         4.6383
  36   0.0000       0.171901         4.6777

MULLIKEN ATOMIC CHARGES
-----------------------
   0 O :   -0.439593
   1 C :    0.170446
   2 C :    0.119867
   3 C :   -0.331524
   4 C :   -0.026283
   5 C :   -0.147630
   6 O :   -0.200611
   7 C :    0.111981
   8 N :   -0.298038
   9 H :    0.348072
  10 H :    0.161711
  11 H :    0.178678
  12 H :    0.192290
  13 H :    0.160635
Sum of atomic charges:   -0.0000000

LOEWDIN ATOMIC CHARGES
----------------------
   0 O :    0.075337
   1 C :   -0.382031
   2 C :   -0.229987
   3 C :   -0.215555
   4 C :   -0.101414
   5 C :   -0.095658
   6 O :    0.361500
   7 C :   -0.327191
   8 N :    0.102197
   9 H :    0.203707
  10 H :    0.169276
  11 H :    0.178590
  12 H :    0.127434
  13 H :    0.133794

  Mayer bond orders larger than 0.1
B(  0-O ,  1-C ) :   1.1164 B(  0-O ,  9-H ) :   0.8169 B(  1-C ,  2-C ) :   1.5560
B(  1-C ,  8-N ) :   1.2111 B(  2-C ,  3-C ) :   0.9034 B(  2-C ,  6-O ) :   0.9864
B(  3-C ,  4-C ) :   1.0632 B(  3-C , 10-H ) :   0.9199 B(  3-C , 11-H ) :   0.9297
B(  4-C ,  5-C ) :   2.6278 B(  5-C , 12-H ) :   0.9027 B(  6-O ,  7-C ) :   1.1247
B(  7-C ,  8-N ) :   1.6026 B(  7-C , 13-H ) :   0.9258

MP2 TOTAL ENERGY:     -435.948667033 Eh
FINAL SINGLE POINT ENERGY      -435.948667033388

DIPOLE MOMENT
-------------
                                X             Y             Z
Electronic contribution:     -0.47766      -0.79441       2.58426
Nuclear contribution   :      0.36678       0.65261      -2.58363
                        -----------------------------------------
Total Dipole Moment    :     -0.11088      -0.14180       0.00063
                        -----------------------------------------
Magnitude (a.u.)       :      0.18000
Magnitude (Debye)      :      0.45753

                             ****ORCA TERMINATED NORMALLY****
TOTAL RUN TIME: 0 days 0 hours 13 minutes 48 seconds 253 msec
