                         Program Version 3.0.3 - RELEASE   -
|  1> ! RI-MP2 RIJK def2-TZVP def2-TZVP/C def2-TZVP/JK TIGHTSCF
|  2> % maxcore 2000
|  3> % mp2 density relaxed end
|  4> *xyz 0 1
|  5>  C        0.0265630545     1.6101653725     0.0114535207
|  6>  C        0.0789723181     0.0882477353     0.0461067123
|  7>  C        1.0743321829    -0.7091945663    -0.7994530764
|  8>  C        1.1978699837    -1.7661363789     0.2276746742
|  9>  N        2.3737104891    -0.8944154756    -0.0498846394
| 10>  C        2.1552664654    -0.2145294363     1.2700106049
| 11>  C        0.6896482182    -0.6844100951     1.2634127419
| 12>  C       -0.1021146004    -0.9115629417     2.5188622105
| 13>  O       -0.3227821285     0.3591451939     3.1215429613
| 14>  H        1.0187789140     2.0622360453     0.0906947218
| 15>  H       -0.4153721242     1.9563228293    -0.9295037559
| 16>  H       -0.5842918718     1.9872605008     0.8368049507
| 17>  H       -0.9214803457    -0.3224667274    -0.1383140657
| 18>  H        1.1404480935    -0.7942730990    -1.8767477250
| 19>  H        1.2097210436    -2.8478702921     0.1936293274
| 20>  H        2.7579037405    -0.7327575586     2.0216549078
| 21>  H        2.3736643380     0.8570286544     1.2993884196
| 22>  H       -1.0551596913    -1.4096789263     2.2753473575
| 23>  H        0.4541807010    -1.5816823159     3.1950306209
| 24>  H       -0.8214862305     0.2260820817     3.9330227809
| 25> *
| 26>
| 27>                          ****END OF INPUT****

CARTESIAN COORDINATES (ANGSTROEM)
---------------------------------
  C      0.026563    1.610165    0.011454
  C      0.078972    0.088248    0.046107
  C      1.074332   -0.709195   -0.799453
  C      1.197870   -1.766136    0.227675
  N      2.373710   -0.894415   -0.049885
  C      2.155266   -0.214529    1.270011
  C      0.689648   -0.684410    1.263413
  C     -0.102115   -0.911563    2.518862
  O     -0.322782    0.359145    3.121543
  H      1.018779    2.062236    0.090695
  H     -0.415372    1.956323   -0.929504
  H     -0.584292    1.987261    0.836805
  H     -0.921480   -0.322467   -0.138314
  H      1.140448   -0.794273   -1.876748
  H      1.209721   -2.847870    0.193629
  H      2.757904   -0.732758    2.021655
  H      2.373664    0.857029    1.299388
  H     -1.055160   -1.409679    2.275347
  H      0.454181   -1.581682    3.195031
  H     -0.821486    0.226082    3.933023

 Total Charge           Charge          ....    0
 Multiplicity           Mult            ....    1
 Number of Electrons    NEL             ....   68
 Basis Dimension        Dim             ....  345

ORBITAL ENERGIES
----------------

  NO   OCC          E(Eh)            E(eV)
   0   2.0000     -20.564313      -559.5834
   1   2.0000     -15.556195      -423.3056
   2   2.0000     -11.284556      -307.0684
   3   2.0000     -11.257315      -306.3271
   4   2.0000     -11.254394      -306.2476
   5   2.0000     -11.246191      -306.0244
   6   2.0000     -11.243711      -305.9569
   7   2.0000     -11.234260      -305.6998
   8   2.0000     -11.206263      -304.9379
   9   2.0000      -1.367665       -37.2161
  10   2.0000      -1.308933       -35.6179
  11   2.0000      -1.056975       -28.7617
  12   2.0000      -1.005394       -27.3581
  13   2.0000      -0.958520       -26.0826
  14   2.0000      -0.894397       -24.3378
  15   2.0000      -0.835481       -22.7346
  16   2.0000      -0.759633       -20.6707
  17   2.0000      -0.726481       -19.7686
  18   2.0000      -0.708148       -19.2697
  19   2.0000      -0.657056       -17.8794
  20   2.0000      -0.645335       -17.5605
  21   2.0000      -0.616843       -16.7852
  22   2.0000      -0.598011       -16.2727
  23   2.0000      -0.573121       -15.5954
  24   2.0000      -0.552300       -15.0289
  25   2.0000      -0.544532       -14.8175
  26   2.0000      -0.536755       -14.6059
  27   2.0000      -0.491522       -13.3750
  28   2.0000      -0.466242       -12.6871
  29   2.0000      -0.449913       -12.2428
  30   2.0000      -0.434759       -11.8304
  31   2.0000      -0.425533       -11.5794
  32   2.0000      -0.406223       -11.0539
  33   2.0000      -0.363538        -9.8924
  34   0.0000       0.125358         3.4112
  35   0.0000       0.157627         4.2892
  36   0.0000       0.159637         4.3439
  37   0.0000       0.172964         4.7066
  38   0.0000       0.186036         5.0623

MULLIKEN ATOMIC CHARGES
-----------------------
   0 C :   -0.421491
   1 C :   -0.020761
   2 C :   -0.139844
   3 C :   -0.107105
   4 N :   -0.228575
   5 C :   -0.134980
   6 C :    0.095084
   7 C :   -0.089811
   8 O :   -0.467919
   9 H :    0.126341
  10 H :    0.128812
  11 H :    0.147315
  12 H :    0.095736
  13 H :    0.130024
  14 H :    0.145130
  15 H :    0.110286
  16 H :    0.112498
  17 H :    0.102333
  18 H :    0.102444
  19 H :    0.314480
Sum of atomic charges:    0.0000000

LOEWDIN ATOMIC CHARGES
----------------------
   0 C :   -0.293794
   1 C :   -0.204050
   2 C :   -0.188451
   3 C :   -0.148343
   4 N :    0.121232
   5 C :   -0.206625
   6 C :   -0.201134
   7 C :   -0.314417
   8 O :   -0.040691
   9 H :    0.123389
  10 H :    0.124248
  11 H :    0.129693
  12 H :    0.160622
  13 H :    0.134866
  14 H :    0.130127
  15 H :    0.134782
  16 H :    0.121520
  17 H :    0.121661
  18 H :    0.122256
  19 H :    0.173107

  Mayer bond orders larger than 0.1
B(  0-C ,  1-C ) :   0.8876 B(  0-C ,  9-H ) :   0.9388 B(  0-C , 10-H ) :   0.9345
B(  0-C , 11-H ) :   0.9314 B(  1-C ,  2-C ) :   0.9053 B(  1-C ,  6-C ) :   0.9194
B(  1-C , 12-H ) :   0.9166 B(  2-C ,  3-C ) :   0.8772 B(  2-C ,  4-N ) :   0.9010
B(  2-C , 13-H ) :   0.9407 B(  3-C ,  4-N ) :   0.8814 B(  3-C ,  6-C ) :   0.8988
B(  3-C , 14-H ) :   0.8919 B(  4-N ,  5-C ) :   0.9329 B(  5-C ,  6-C ) :   0.9288
B(  5-C , 15-H ) :   0.9228 B(  5-C , 16-H ) :   0.9193 B(  6-C ,  7-C ) :   0.8844
B(  6-C ,  8-O ) :  -0.1176 B(  7-C ,  8-O ) :   1.0631 B(  7-C , 17-H ) :   0.9250
B(  7-C , 18-H ) :   0.9237 B(  8-O , 19-H ) :   0.8478

MP2 TOTAL ENERGY:     -402.389696660 Eh
FINAL SINGLE POINT ENERGY      -402.389696660137

DIPOLE MOMENT
-------------
                                X             Y             Z
Electronic contribution:      2.04266      -2.99097      -0.14826
Nuclear contribution   :     -2.98372       2.61516       0.79460
                        -----------------------------------------
Total Dipole Moment    :     -0.94106      -0.37581       0.64634
                        -----------------------------------------
Magnitude (a.u.)       :      1.20191
Magnitude (Debye)      :      3.05501

                             ****ORCA TERMINATED NORMALLY****
TOTAL RUN TIME: 0 days 0 hours 19 minutes 59 seconds 765 msec
