                         Program Version 3.0.3 - RELEASE   -
|  1> ! RI-MP2 RIJK def2-TZVP def2-TZVP/C def2-TZVP/JK TIGHTSCF
|  2> % maxcore 2000
|  3> % mp2 density relaxed end
|  4> *xyz 0 1
|  5>  C        0.0858654264     1.5500241949    -0.0580627021
|  6>  C        0.0656075340     0.0512782775     0.0886347611
|  7>  O        1.3096297098    -0.6458884555     0.0300439908
|  8>  C        0.5682510936    -0.7035781965     1.2666407418
|  9>  C        1.2276225265    -0.0276864246     2.4582253781
| 10>  C        2.4680379765    -0.7706158703     2.9337955104
| 11>  O        3.4485484569    -0.2200862498     3.3595520000
| 12>  C       -0.0346868253    -1.9866826730     1.5587788924
| 13>  C       -0.5394854382    -3.0430803397     1.8320678993
| 14>  H        0.9150605001     2.0076093885     0.4835049260
| 15>  H        0.1924965874     1.8109019909    -1.1160342422
| 16>  H       -0.8551091163     1.9809830877     0.2994920363
| 17>  H       -0.7320287836    -0.4452739658    -0.4670147834
| 18>  H        1.5119348870     1.0028632107     2.2444271947
| 19>  H        0.5132496898    -0.0173242712     3.2930935098
| 20>  H        2.4004510321    -1.8787394886     2.8797823327
| 21>  H       -0.9840138566    -3.9803387654     2.0614862843
| 22> *
| 23>
| 24>                          ****END OF INPUT****

CARTESIAN COORDINATES (ANGSTROEM)
---------------------------------
  C      0.085865    1.550024   -0.058063
  C      0.065608    0.051278    0.088635
  O      1.309630   -0.645888    0.030044
  C      0.568251   -0.703578    1.266641
  C      1.227623   -0.027686    2.458225
  C      2.468038   -0.770616    2.933796
  O      3.448548   -0.220086    3.359552
  C     -0.034687   -1.986683    1.558779
  C     -0.539485   -3.043080    1.832068
  H      0.915061    2.007609    0.483505
  H      0.192497    1.810902   -1.116034
  H     -0.855109    1.980983    0.299492
  H     -0.732029   -0.445274   -0.467015
  H      1.511935    1.002863    2.244427
  H      0.513250   -0.017324    3.293094
  H      2.400451   -1.878739    2.879782
  H     -0.984014   -3.980339    2.061486

 Total Charge           Charge          ....    0
 Multiplicity           Mult            ....    1
 Number of Electrons    NEL             ....   66
 Basis Dimension        Dim             ....  327

ORBITAL ENERGIES
----------------

  NO   OCC          E(Eh)            E(eV)
   0   2.0000     -20.588120      -560.2312
   1   2.0000     -20.560019      -559.4666
   2   2.0000     -11.336838      -308.4911
   3   2.0000     -11.335769      -308.4620
   4   2.0000     -11.313095      -307.8450
   5   2.0000     -11.259454      -306.3853
   6   2.0000     -11.254170      -306.2415
   7   2.0000     -11.248768      -306.0945
   8   2.0000     -11.242012      -305.9107
   9   2.0000      -1.434817       -39.0434
  10   2.0000      -1.399644       -38.0863
  11   2.0000      -1.092261       -29.7219
  12   2.0000      -1.035879       -28.1877
  13   2.0000      -1.028183       -27.9783
  14   2.0000      -0.920748       -25.0548
  15   2.0000      -0.835035       -22.7224
  16   2.0000      -0.813199       -22.1283
  17   2.0000      -0.748784       -20.3755
  18   2.0000      -0.713390       -19.4123
  19   2.0000      -0.685049       -18.6411
  20   2.0000      -0.644582       -17.5400
  21   2.0000      -0.638572       -17.3764
  22   2.0000      -0.623278       -16.9602
  23   2.0000      -0.592053       -16.1106
  24   2.0000      -0.585949       -15.9445
  25   2.0000      -0.548235       -14.9182
  26   2.0000      -0.535079       -14.5602
  27   2.0000      -0.509809       -13.8726
  28   2.0000      -0.494799       -13.4642
  29   2.0000      -0.465124       -12.6567
  30   2.0000      -0.434172       -11.8144
  31   2.0000      -0.415028       -11.2935
  32   2.0000      -0.388304       -10.5663
  33   0.0000       0.128645         3.5006
  34   0.0000       0.134902         3.6709
  35   0.0000       0.147113         4.0031
  36   0.0000       0.148500         4.0409
  37   0.0000       0.160365         4.3638

MULLIKEN ATOMIC CHARGES
-----------------------
   0 C :   -0.380438
   1 C :    0.054074
   2 O :   -0.319802
   3 C :   -0.015479
   4 C :   -0.127406
   5 C :    0.063332
   6 O :   -0.257245
   7 C :   -0.034025
   8 C :   -0.102495
   9 H :    0.140498
  10 H :    0.148337
  11 H :    0.137973
  12 H :    0.124387
  13 H :    0.120035
  14 H :    0.145080
  15 H :    0.103463
  16 H :    0.199712
Sum of atomic charges:    0.0000000

LOEWDIN ATOMIC CHARGES
----------------------
   0 C :   -0.288514
   1 C :   -0.252713
   2 O :    0.200518
   3 C :   -0.294679
   4 C :   -0.203736
   5 C :   -0.276810
   6 O :    0.139479
   7 C :   -0.067702
   8 C :   -0.068822
   9 H :    0.128646
  10 H :    0.134838
  11 H :    0.133944
  12 H :    0.145682
  13 H :    0.152641
  14 H :    0.166924
  15 H :    0.119622
  16 H :    0.130683

  Mayer bond orders larger than 0.1
B(  0-C ,  1-C ) :   0.8762 B(  0-C ,  9-H ) :   0.9412 B(  0-C , 10-H ) :   0.9305
B(  0-C , 11-H ) :   0.9222 B(  1-C ,  2-O ) :   0.9025 B(  1-C ,  3-C ) :   0.9561
B(  1-C , 12-H ) :   0.9201 B(  2-O ,  3-C ) :   0.8801 B(  3-C ,  4-C ) :   0.9257
B(  3-C ,  7-C ) :   1.1263 B(  3-C ,  8-C ) :  -0.1278 B(  4-C ,  5-C ) :   0.8678
B(  4-C , 13-H ) :   0.8907 B(  4-C , 14-H ) :   0.9064 B(  5-C ,  6-O ) :   1.9973
B(  5-C , 15-H ) :   0.9379 B(  7-C ,  8-C ) :   2.6050 B(  8-C , 16-H ) :   0.8816

MP2 TOTAL ENERGY:     -421.060375479 Eh
FINAL SINGLE POINT ENERGY      -421.060375479236

DIPOLE MOMENT
-------------
                                X             Y             Z
Electronic contribution:      3.28495      -4.76503       1.99355
Nuclear contribution   :     -4.75306       4.84414      -2.10217
                        -----------------------------------------
Total Dipole Moment    :     -1.46810       0.07911      -0.10861
                        -----------------------------------------
Magnitude (a.u.)       :      1.47424
Magnitude (Debye)      :      3.74722

                             ****ORCA TERMINATED NORMALLY****
TOTAL RUN TIME: 0 days 0 hours 15 minutes 22 seconds 170 msec
