                         Program Version 3.0.3 - RELEASE   -
|  1> ! RI-MP2 RIJK def2-TZVP def2-TZVP/C def2-TZVP/JK TIGHTSCF
|  2> % maxcore 2000
|  3> % mp2 density relaxed end
|  4> *xyz 0 1
|  5>  O        0.0011220189    -0.0824564246    -0.1305587614
|  6>  C       -0.0133874844     1.1218454020    -0.0311224104
|  7>  C       -1.3048393738     1.9285822971     0.0653898104
|  8>  C       -1.1506750531     3.0746038764     1.0880892462
|  9>  C       -0.7760032829     2.5627402610     2.4984442322
| 10>  C        0.7785725883     2.5831372362     2.4775922376
| 11>  C        1.1017326465     3.1042213665     1.0578959750
| 12>  C        1.2585197123     1.9623075757     0.0310083131
| 13>  O       -0.0399232420     3.8842993301     0.6999822425
| 14>  H       -1.5034490281     2.3742041956    -0.9176643370
| 15>  H       -2.1312656362     1.2553649649     0.3086398715
| 16>  H       -2.0375877081     3.7121118656     1.0838044232
| 17>  H       -1.1643363941     3.2377388662     3.2640498641
| 18>  H       -1.1839314494     1.5684046489     2.6959567347
| 19>  H        1.1694647865     3.2683078927     3.2327882422
| 20>  H        1.2175866813     1.5998991209     2.6636826394
| 21>  H        1.9711418368     3.7648293236     1.0300899973
| 22>  H        2.1085957482     1.3111474396     0.2517651654
| 23>  H        1.4189038234     2.4126679117    -0.9568540259
| 24> *
| 25>
| 26>                          ****END OF INPUT****

CARTESIAN COORDINATES (ANGSTROEM)
---------------------------------
  O      0.001122   -0.082456   -0.130559
  C     -0.013387    1.121845   -0.031122
  C     -1.304839    1.928582    0.065390
  C     -1.150675    3.074604    1.088089
  C     -0.776003    2.562740    2.498444
  C      0.778573    2.583137    2.477592
  C      1.101733    3.104221    1.057896
  C      1.258520    1.962308    0.031008
  O     -0.039923    3.884299    0.699982
  H     -1.503449    2.374204   -0.917664
  H     -2.131266    1.255365    0.308640
  H     -2.037588    3.712112    1.083804
  H     -1.164336    3.237739    3.264050
  H     -1.183931    1.568405    2.695957
  H      1.169465    3.268308    3.232788
  H      1.217587    1.599899    2.663683
  H      1.971142    3.764829    1.030090
  H      2.108596    1.311147    0.251765
  H      1.418904    2.412668   -0.956854

 Total Charge           Charge          ....    0
 Multiplicity           Mult            ....    1
 Number of Electrons    NEL             ....   68
 Basis Dimension        Dim             ....  339

ORBITAL ENERGIES
----------------

  NO   OCC          E(Eh)            E(eV)
   0   2.0000     -20.562916      -559.5454
   1   2.0000     -20.546382      -559.0955
   2   2.0000     -11.331138      -308.3359
   3   2.0000     -11.293247      -307.3049
   4   2.0000     -11.293226      -307.3043
   5   2.0000     -11.237779      -305.7955
   6   2.0000     -11.237758      -305.7949
   7   2.0000     -11.235053      -305.7213
   8   2.0000     -11.234502      -305.7063
   9   2.0000      -1.397994       -38.0413
  10   2.0000      -1.386827       -37.7375
  11   2.0000      -1.084977       -29.5237
  12   2.0000      -1.053821       -28.6759
  13   2.0000      -1.030012       -28.0281
  14   2.0000      -0.908906       -24.7326
  15   2.0000      -0.819120       -22.2894
  16   2.0000      -0.812091       -22.0981
  17   2.0000      -0.737096       -20.0574
  18   2.0000      -0.698902       -19.0181
  19   2.0000      -0.656697       -17.8696
  20   2.0000      -0.642902       -17.4943
  21   2.0000      -0.637190       -17.3388
  22   2.0000      -0.608992       -16.5715
  23   2.0000      -0.603007       -16.4087
  24   2.0000      -0.577865       -15.7245
  25   2.0000      -0.574175       -15.6241
  26   2.0000      -0.528372       -14.3777
  27   2.0000      -0.514496       -14.0002
  28   2.0000      -0.502754       -13.6806
  29   2.0000      -0.495255       -13.4766
  30   2.0000      -0.469716       -12.7816
  31   2.0000      -0.467981       -12.7344
  32   2.0000      -0.427364       -11.6292
  33   2.0000      -0.403892       -10.9905
  34   0.0000       0.119432         3.2499
  35   0.0000       0.148218         4.0332
  36   0.0000       0.151117         4.1121
  37   0.0000       0.163760         4.4561
  38   0.0000       0.177073         4.8184

MULLIKEN ATOMIC CHARGES
-----------------------
   0 O :   -0.265016
   1 C :    0.142017
   2 C :   -0.255052
   3 C :    0.103198
   4 C :   -0.264864
   5 C :   -0.264867
   6 C :    0.103196
   7 C :   -0.255053
   8 O :   -0.325609
   9 H :    0.133790
  10 H :    0.128220
  11 H :    0.122376
  12 H :    0.128257
  13 H :    0.128379
  14 H :    0.128259
  15 H :    0.128381
  16 H :    0.122376
  17 H :    0.128221
  18 H :    0.133789
Sum of atomic charges:   -0.0000000

LOEWDIN ATOMIC CHARGES
----------------------
   0 O :    0.150422
   1 C :   -0.320742
   2 C :   -0.211425
   3 C :   -0.298387
   4 C :   -0.229455
   5 C :   -0.229454
   6 C :   -0.298385
   7 C :   -0.211426
   8 O :    0.194220
   9 H :    0.156972
  10 H :    0.148598
  11 H :    0.142751
  12 H :    0.137688
  13 H :    0.141309
  14 H :    0.137687
  15 H :    0.141310
  16 H :    0.142750
  17 H :    0.148598
  18 H :    0.156971

  Mayer bond orders larger than 0.1
B(  0-O ,  1-C ) :   2.0848 B(  1-C ,  2-C ) :   0.9294 B(  1-C ,  7-C ) :   0.9294
B(  2-C ,  3-C ) :   0.8705 B(  2-C ,  7-C ) :  -0.1293 B(  2-C ,  9-H ) :   0.9022
B(  2-C , 10-H ) :   0.9066 B(  3-C ,  4-C ) :   0.9353 B(  3-C ,  8-O ) :   0.9162
B(  3-C , 11-H ) :   0.9193 B(  4-C ,  5-C ) :   0.9663 B(  4-C , 12-H ) :   0.9244
B(  4-C , 13-H ) :   0.9203 B(  5-C ,  6-C ) :   0.9353 B(  5-C , 14-H ) :   0.9244
B(  5-C , 15-H ) :   0.9203 B(  6-C ,  7-C ) :   0.8705 B(  6-C ,  8-O ) :   0.9162
B(  6-C , 16-H ) :   0.9193 B(  7-C , 17-H ) :   0.9066 B(  7-C , 18-H ) :   0.9022

MP2 TOTAL ENERGY:     -422.367776784 Eh
FINAL SINGLE POINT ENERGY      -422.367776783899

DIPOLE MOMENT
-------------
                                X             Y             Z
Electronic contribution:     -0.02633      -1.40519      -3.34494
Nuclear contribution   :      0.02439       2.02658       3.81077
                        -----------------------------------------
Total Dipole Moment    :     -0.00194       0.62139       0.46584
                        -----------------------------------------
Magnitude (a.u.)       :      0.77662
Magnitude (Debye)      :      1.97401

                             ****ORCA TERMINATED NORMALLY****
TOTAL RUN TIME: 0 days 0 hours 20 minutes 4 seconds 306 msec
