                         Program Version 3.0.3 - RELEASE   -
|  1> ! RI-MP2 RIJK def2-TZVP def2-TZVP/C def2-TZVP/JK TIGHTSCF
|  2> % maxcore 2000
|  3> % mp2 density relaxed end
|  4> *xyz 0 1
|  5>  O       -0.0172131381     1.3915053338    -0.2090599952
|  6>  C        0.0524970858    -0.0178510343    -0.0477302366
|  7>  C       -1.3884359626    -0.5221976715     0.0974193301
|  8>  C       -2.2162403033    -0.2162147693    -1.1326665067
|  9>  C       -2.5124376663    -1.3010359863    -1.8650458880
| 10>  C       -1.9181270064    -2.4869872868    -1.2258270447
| 11>  O       -1.7173676017    -3.5959922393    -1.6725118629
| 12>  C       -1.4789651855    -2.0622462230     0.1840010895
| 13>  O       -0.2977197161    -2.7146926469     0.5746393323
| 14>  H        0.8801694391     1.7330461650    -0.2579839141
| 15>  H        0.5267726373    -0.5029623079    -0.9132602584
| 16>  H        0.6231069376    -0.3022949336     0.8453816580
| 17>  H       -1.8149280308    -0.0278190259     0.9773667022
| 18>  H       -2.4876513270     0.8028700158    -1.3818138928
| 19>  H       -3.0387805259    -1.3290763789    -2.8102329367
| 20>  H       -2.3098628741    -2.3222486365     0.8629350789
| 21>  H       -0.2710855820    -3.5285882843     0.0487404752
| 22> *
| 23>
| 24>                          ****END OF INPUT****

CARTESIAN COORDINATES (ANGSTROEM)
---------------------------------
  O     -0.017213    1.391505   -0.209060
  C      0.052497   -0.017851   -0.047730
  C     -1.388436   -0.522198    0.097419
  C     -2.216240   -0.216215   -1.132667
  C     -2.512438   -1.301036   -1.865046
  C     -1.918127   -2.486987   -1.225827
  O     -1.717368   -3.595992   -1.672512
  C     -1.478965   -2.062246    0.184001
  O     -0.297720   -2.714693    0.574639
  H      0.880169    1.733046   -0.257984
  H      0.526773   -0.502962   -0.913260
  H      0.623107   -0.302295    0.845382
  H     -1.814928   -0.027819    0.977367
  H     -2.487651    0.802870   -1.381814
  H     -3.038781   -1.329076   -2.810233
  H     -2.309863   -2.322249    0.862935
  H     -0.271086   -3.528588    0.048740

 Total Charge           Charge          ....    0
 Multiplicity           Mult            ....    1
 Number of Electrons    NEL             ....   68
 Basis Dimension        Dim             ....  327

ORBITAL ENERGIES
----------------

  NO   OCC          E(Eh)            E(eV)
   0   2.0000     -20.569204      -559.7165
   1   2.0000     -20.566791      -559.6508
   2   2.0000     -20.552839      -559.2712
   3   2.0000     -11.335880      -308.4650
   4   2.0000     -11.298362      -307.4441
   5   2.0000     -11.289087      -307.1917
   6   2.0000     -11.275164      -306.8128
   7   2.0000     -11.255461      -306.2767
   8   2.0000     -11.247709      -306.0657
   9   2.0000      -1.404322       -38.2136
  10   2.0000      -1.374438       -37.4004
  11   2.0000      -1.367499       -37.2115
  12   2.0000      -1.158539       -31.5254
  13   2.0000      -1.017387       -27.6845
  14   2.0000      -0.954550       -25.9746
  15   2.0000      -0.883670       -24.0459
  16   2.0000      -0.778041       -21.1716
  17   2.0000      -0.768527       -20.9127
  18   2.0000      -0.722333       -19.6557
  19   2.0000      -0.691269       -18.8104
  20   2.0000      -0.684114       -18.6157
  21   2.0000      -0.655701       -17.8425
  22   2.0000      -0.643847       -17.5200
  23   2.0000      -0.603566       -16.4239
  24   2.0000      -0.581038       -15.8108
  25   2.0000      -0.573860       -15.6155
  26   2.0000      -0.554136       -15.0788
  27   2.0000      -0.539716       -14.6864
  28   2.0000      -0.527353       -14.3500
  29   2.0000      -0.507360       -13.8060
  30   2.0000      -0.461900       -12.5689
  31   2.0000      -0.452364       -12.3095
  32   2.0000      -0.413534       -11.2528
  33   2.0000      -0.390026       -10.6132
  34   0.0000       0.084884         2.3098
  35   0.0000       0.129760         3.5309
  36   0.0000       0.144517         3.9325
  37   0.0000       0.164121         4.4660
  38   0.0000       0.175817         4.7842

MULLIKEN ATOMIC CHARGES
-----------------------
   0 O :   -0.475766
   1 C :   -0.087497
   2 C :    0.028899
   3 C :   -0.147290
   4 C :   -0.169410
   5 C :    0.146674
   6 O :   -0.312348
   7 C :    0.084735
   8 O :   -0.485067
   9 H :    0.321930
  10 H :    0.103392
  11 H :    0.125748
  12 H :    0.111207
  13 H :    0.156215
  14 H :    0.150031
  15 H :    0.113626
  16 H :    0.334923
Sum of atomic charges:   -0.0000000

LOEWDIN ATOMIC CHARGES
----------------------
   0 O :   -0.045530
   1 C :   -0.314756
   2 C :   -0.211597
   3 C :   -0.064191
   4 C :   -0.116404
   5 C :   -0.311866
   6 O :    0.133325
   7 C :   -0.283757
   8 O :   -0.004316
   9 H :    0.175221
  10 H :    0.122518
  11 H :    0.125485
  12 H :    0.160063
  13 H :    0.148027
  14 H :    0.147100
  15 H :    0.153522
  16 H :    0.187155

  Mayer bond orders larger than 0.1
B(  0-O ,  1-C ) :   1.0100 B(  0-O ,  9-H ) :   0.8462 B(  1-C ,  2-C ) :   0.9015
B(  1-C , 10-H ) :   0.9138 B(  1-C , 11-H ) :   0.9285 B(  2-C ,  3-C ) :   0.9225
B(  2-C ,  7-C ) :   0.8692 B(  2-C , 12-H ) :   0.9125 B(  3-C ,  4-C ) :   1.6522
B(  3-C , 13-H ) :   0.9105 B(  4-C ,  5-C ) :   1.0053 B(  4-C , 14-H ) :   0.9134
B(  5-C ,  6-O ) :   1.9326 B(  5-C ,  7-C ) :   0.9146 B(  7-C ,  8-O ) :   1.0166
B(  7-C , 15-H ) :   0.9095 B(  8-O , 16-H ) :   0.8128

MP2 TOTAL ENERGY:     -458.250716816 Eh
FINAL SINGLE POINT ENERGY      -458.250716816450

DIPOLE MOMENT
-------------
                                X             Y             Z
Electronic contribution:     -1.57098      -3.57307      -1.69237
Nuclear contribution   :      1.64670       4.42725       1.72632
                        -----------------------------------------
Total Dipole Moment    :      0.07572       0.85418       0.03395
                        -----------------------------------------
Magnitude (a.u.)       :      0.85820
Magnitude (Debye)      :      2.18138

                             ****ORCA TERMINATED NORMALLY****
TOTAL RUN TIME: 0 days 0 hours 27 minutes 29 seconds 495 msec
