                         Program Version 3.0.3 - RELEASE   -
|  1> ! RI-MP2 RIJK def2-TZVP def2-TZVP/C def2-TZVP/JK TIGHTSCF
|  2> % maxcore 2000
|  3> % mp2 density relaxed end
|  4> *xyz 0 1
|  5>  O       -0.0605742278    -0.0621858309     0.0038090097
|  6>  C        0.0079018715     1.1457390724     0.0090350711
|  7>  N       -1.1945196790     1.9059278863     0.0295070214
|  8>  C       -1.2366017749     3.2551749143     0.0369732851
|  9>  C       -0.0741563159     3.9598205641     0.0245415936
| 10>  C        1.1336653615     3.1907831673     0.0041010401
| 11>  N        1.1825270066     1.8781840800    -0.0033657071
| 12>  C        2.3789284477     3.9006761044    -0.0096786871
| 13>  C        3.4002309249     4.5361057317    -0.0207237316
| 14>  H       -2.0410425156     1.3546902813     0.0383485755
| 15>  H       -2.2181495143     3.7152250092     0.0528130778
| 16>  H       -0.0562974805     5.0389373242     0.0297349073
| 17>  H        4.3159900458     5.0749602256    -0.0308295658
| 18> *
| 19>
| 20>                          ****END OF INPUT****

CARTESIAN COORDINATES (ANGSTROEM)
---------------------------------
  O     -0.060574   -0.062186    0.003809
  C      0.007902    1.145739    0.009035
  N     -1.194520    1.905928    0.029507
  C     -1.236602    3.255175    0.036973
  C     -0.074156    3.959821    0.024542
  C      1.133665    3.190783    0.004101
  N      1.182527    1.878184   -0.003366
  C      2.378928    3.900676   -0.009679
  C      3.400231    4.536106   -0.020724
  H     -2.041043    1.354690    0.038349
  H     -2.218150    3.715225    0.052813
  H     -0.056297    5.038937    0.029735
  H      4.315990    5.074960   -0.030830

 Total Charge           Charge          ....    0
 Multiplicity           Mult            ....    1
 Number of Electrons    NEL             ....   62
 Basis Dimension        Dim             ....  303

ORBITAL ENERGIES
----------------

  NO   OCC          E(Eh)            E(eV)
   0   2.0000     -20.519010      -558.3506
   1   2.0000     -15.639042      -425.5600
   2   2.0000     -15.572105      -423.7385
   3   2.0000     -11.384850      -309.7975
   4   2.0000     -11.348395      -308.8055
   5   2.0000     -11.340207      -308.5827
   6   2.0000     -11.262609      -306.4712
   7   2.0000     -11.257400      -306.3294
   8   2.0000     -11.255022      -306.2647
   9   2.0000      -1.405243       -38.2386
  10   2.0000      -1.304572       -35.4992
  11   2.0000      -1.238645       -33.7052
  12   2.0000      -1.093404       -29.7530
  13   2.0000      -1.053000       -28.6536
  14   2.0000      -0.942732       -25.6531
  15   2.0000      -0.897337       -24.4178
  16   2.0000      -0.777051       -21.1446
  17   2.0000      -0.771840       -21.0028
  18   2.0000      -0.742839       -20.2137
  19   2.0000      -0.712551       -19.3895
  20   2.0000      -0.643891       -17.5212
  21   2.0000      -0.635704       -17.2984
  22   2.0000      -0.630528       -17.1575
  23   2.0000      -0.605135       -16.4665
  24   2.0000      -0.512733       -13.9522
  25   2.0000      -0.505347       -13.7512
  26   2.0000      -0.465354       -12.6629
  27   2.0000      -0.435368       -11.8470
  28   2.0000      -0.422918       -11.5082
  29   2.0000      -0.402042       -10.9401
  30   2.0000      -0.350090        -9.5264
  31   0.0000       0.044342         1.2066
  32   0.0000       0.116512         3.1705
  33   0.0000       0.129406         3.5213
  34   0.0000       0.151371         4.1190
  35   0.0000       0.158906         4.3240

MULLIKEN ATOMIC CHARGES
-----------------------
   0 O :   -0.324026
   1 C :    0.254324
   2 N :   -0.238737
   3 C :    0.020157
   4 C :   -0.236978
   5 C :   -0.031113
   6 N :   -0.222316
   7 C :    0.058152
   8 C :   -0.063756
   9 H :    0.260704
  10 H :    0.163750
  11 H :    0.155944
  12 H :    0.203895
Sum of atomic charges:   -0.0000000

LOEWDIN ATOMIC CHARGES
----------------------
   0 O :    0.091284
   1 C :   -0.502307
   2 N :    0.192295
   3 C :   -0.173331
   4 C :   -0.144317
   5 C :   -0.212926
   6 N :    0.190994
   7 C :   -0.046021
   8 C :   -0.044458
   9 H :    0.207177
  10 H :    0.150018
  11 H :    0.159422
  12 H :    0.132170

  Mayer bond orders larger than 0.1
B(  0-O ,  1-C ) :   1.9989 B(  1-C ,  2-N ) :   0.9935 B(  1-C ,  6-N ) :   1.1529
B(  2-N ,  3-C ) :   1.2035 B(  2-N ,  9-H ) :   0.8547 B(  3-C ,  4-C ) :   1.5232
B(  3-C , 10-H ) :   0.9109 B(  4-C ,  5-C ) :   1.1563 B(  4-C , 11-H ) :   0.9212
B(  5-C ,  6-N ) :   1.5863 B(  5-C ,  7-C ) :   1.1539 B(  5-C ,  8-C ) :  -0.1800
B(  7-C ,  8-C ) :   2.5809 B(  8-C , 12-H ) :   0.8727

MP2 TOTAL ENERGY:     -414.909771359 Eh
FINAL SINGLE POINT ENERGY      -414.909771358764

DIPOLE MOMENT
-------------
                                X             Y             Z
Electronic contribution:      0.86075      -2.65135      -0.02500
Nuclear contribution   :     -2.08445       4.59487       0.05169
                        -----------------------------------------
Total Dipole Moment    :     -1.22370       1.94352       0.02669
                        -----------------------------------------
Magnitude (a.u.)       :      2.29683
Magnitude (Debye)      :      5.83809

                             ****ORCA TERMINATED NORMALLY****
TOTAL RUN TIME: 0 days 0 hours 14 minutes 35 seconds 830 msec
