                         Program Version 3.0.3 - RELEASE   -
|  1> ! RI-MP2 RIJK def2-TZVP def2-TZVP/C def2-TZVP/JK TIGHTSCF
|  2> % maxcore 2000
|  3> % mp2 density relaxed end
|  4> *xyz 0 1
|  5>  C       -0.8769061040     1.1310332385    -0.0100076217
|  6>  C        0.1167363428    -0.0290243255    -0.0419041251
|  7>  C        1.2761883548     0.1413515081    -1.0567337152
|  8>  C        2.3874460731    -0.6865511005    -0.4481624220
|  9>  C        3.6065225705    -1.0456229758    -1.2321669201
| 10>  O        4.5167906654    -1.7617719687    -0.4168745579
| 11>  C        2.1279383968    -0.9860338042     0.8248934375
| 12>  C        0.8240657912    -0.3873024148     1.3062034489
| 13>  C        1.0733901286     0.7983204143     2.2566482555
| 14>  H       -0.3925134434     2.0748469568     0.2611386974
| 15>  H       -1.3411312973     1.2704015070    -0.9924716539
| 16>  H       -1.6817679379     0.9499997746     0.7108300447
| 17>  H       -0.4287254959    -0.9319878536    -0.3434754768
| 18>  H        0.9930447411    -0.1860838178    -2.0652785611
| 19>  H        1.5824708025     1.1944686719    -1.1539844197
| 20>  H        3.3069354878    -1.6386868132    -2.1154537911
| 21>  H        4.0645805349    -0.1214806242    -1.6303061831
| 22>  H        5.2751960717    -2.0015883031    -0.9563322296
| 23>  H        2.7994606374    -1.5377139897     1.4717393104
| 24>  H        0.2237328937    -1.1258550529     1.8541698544
| 25>  H        1.6483542568     1.5901944644     1.7649266770
| 26>  H        0.1350819984     1.2313464092     2.6183079921
| 27>  H        1.6475659610     0.4716282691     3.1299512294
| 28> *
| 29>
| 30>                          ****END OF INPUT****

CARTESIAN COORDINATES (ANGSTROEM)
---------------------------------
  C     -0.876906    1.131033   -0.010008
  C      0.116736   -0.029024   -0.041904
  C      1.276188    0.141352   -1.056734
  C      2.387446   -0.686551   -0.448162
  C      3.606523   -1.045623   -1.232167
  O      4.516791   -1.761772   -0.416875
  C      2.127938   -0.986034    0.824893
  C      0.824066   -0.387302    1.306203
  C      1.073390    0.798320    2.256648
  H     -0.392513    2.074847    0.261139
  H     -1.341131    1.270402   -0.992472
  H     -1.681768    0.950000    0.710830
  H     -0.428725   -0.931988   -0.343475
  H      0.993045   -0.186084   -2.065279
  H      1.582471    1.194469   -1.153984
  H      3.306935   -1.638687   -2.115454
  H      4.064581   -0.121481   -1.630306
  H      5.275196   -2.001588   -0.956332
  H      2.799461   -1.537714    1.471739
  H      0.223733   -1.125855    1.854170
  H      1.648354    1.590194    1.764927
  H      0.135082    1.231346    2.618308
  H      1.647566    0.471628    3.129951

 Total Charge           Charge          ....    0
 Multiplicity           Mult            ....    1
 Number of Electrons    NEL             ....   70
 Basis Dimension        Dim             ....  363

ORBITAL ENERGIES
----------------

  NO   OCC          E(Eh)            E(eV)
   0   2.0000     -20.556164      -559.3617
   1   2.0000     -11.280348      -306.9539
   2   2.0000     -11.221495      -305.3524
   3   2.0000     -11.220537      -305.3263
   4   2.0000     -11.219027      -305.2852
   5   2.0000     -11.218359      -305.2671
   6   2.0000     -11.208950      -305.0110
   7   2.0000     -11.206240      -304.9373
   8   2.0000     -11.204642      -304.8938
   9   2.0000      -1.361537       -37.0493
  10   2.0000      -1.137915       -30.9643
  11   2.0000      -1.025932       -27.9170
  12   2.0000      -0.997174       -27.1345
  13   2.0000      -0.929166       -25.2839
  14   2.0000      -0.904097       -24.6017
  15   2.0000      -0.846380       -23.0312
  16   2.0000      -0.744267       -20.2525
  17   2.0000      -0.704225       -19.1629
  18   2.0000      -0.689215       -18.7545
  19   2.0000      -0.658793       -17.9267
  20   2.0000      -0.631686       -17.1890
  21   2.0000      -0.611056       -16.6277
  22   2.0000      -0.579944       -15.7811
  23   2.0000      -0.565521       -15.3886
  24   2.0000      -0.552741       -15.0409
  25   2.0000      -0.537702       -14.6316
  26   2.0000      -0.524913       -14.2836
  27   2.0000      -0.516220       -14.0470
  28   2.0000      -0.499214       -13.5843
  29   2.0000      -0.465002       -12.6533
  30   2.0000      -0.461438       -12.5564
  31   2.0000      -0.457904       -12.4602
  32   2.0000      -0.445300       -12.1172
  33   2.0000      -0.434088       -11.8121
  34   2.0000      -0.328356        -8.9350
  35   0.0000       0.129483         3.5234
  36   0.0000       0.138246         3.7619
  37   0.0000       0.155686         4.2364
  38   0.0000       0.163831         4.4581
  39   0.0000       0.179447         4.8830

MULLIKEN ATOMIC CHARGES
-----------------------
   0 C :   -0.415818
   1 C :   -0.038210
   2 C :   -0.259591
   3 C :    0.025555
   4 C :   -0.122326
   5 O :   -0.460964
   6 C :   -0.206513
   7 C :    0.057819
   8 C :   -0.448517
   9 H :    0.128977
  10 H :    0.133207
  11 H :    0.133901
  12 H :    0.088784
  13 H :    0.121820
  14 H :    0.108347
  15 H :    0.107440
  16 H :    0.103742
  17 H :    0.313709
  18 H :    0.139078
  19 H :    0.093972
  20 H :    0.130348
  21 H :    0.131458
  22 H :    0.133782
Sum of atomic charges:   -0.0000000

LOEWDIN ATOMIC CHARGES
----------------------
   0 C :   -0.299679
   1 C :   -0.232549
   2 C :   -0.192937
   3 C :   -0.172992
   4 C :   -0.316452
   5 O :   -0.038166
   6 C :   -0.110373
   7 C :   -0.234329
   8 C :   -0.290169
   9 H :    0.122918
  10 H :    0.123775
  11 H :    0.123682
  12 H :    0.155017
  13 H :    0.136972
  14 H :    0.141326
  15 H :    0.124809
  16 H :    0.124835
  17 H :    0.172930
  18 H :    0.143678
  19 H :    0.148937
  20 H :    0.123616
  21 H :    0.120636
  22 H :    0.124515

  Mayer bond orders larger than 0.1
B(  0-C ,  1-C ) :   0.9015 B(  0-C ,  9-H ) :   0.9339 B(  0-C , 10-H ) :   0.9389
B(  0-C , 11-H ) :   0.9455 B(  1-C ,  2-C ) :   0.9599 B(  1-C ,  7-C ) :   0.9098
B(  1-C , 12-H ) :   0.9277 B(  2-C ,  3-C ) :   0.9353 B(  2-C , 13-H ) :   0.9229
B(  2-C , 14-H ) :   0.8926 B(  3-C ,  4-C ) :   0.9104 B(  3-C ,  5-O ) :  -0.1244
B(  3-C ,  6-C ) :   1.7613 B(  4-C ,  5-O ) :   1.0616 B(  4-C , 15-H ) :   0.9408
B(  4-C , 16-H ) :   0.9294 B(  5-O , 17-H ) :   0.8483 B(  6-C ,  7-C ) :   0.9018
B(  6-C , 18-H ) :   0.9291 B(  7-C ,  8-C ) :   0.8619 B(  7-C , 19-H ) :   0.9252
B(  8-C , 20-H ) :   0.9408 B(  8-C , 21-H ) :   0.9350 B(  8-C , 22-H ) :   0.9381

MP2 TOTAL ENERGY:     -387.629502845 Eh
FINAL SINGLE POINT ENERGY      -387.629502845126

DIPOLE MOMENT
-------------
                                X             Y             Z
Electronic contribution:      5.92349      -5.18175      -1.42931
Nuclear contribution   :     -5.79064       5.27488       0.81560
                        -----------------------------------------
Total Dipole Moment    :      0.13285       0.09313      -0.61371
                        -----------------------------------------
Magnitude (a.u.)       :      0.63480
Magnitude (Debye)      :      1.61352

                             ****ORCA TERMINATED NORMALLY****
TOTAL RUN TIME: 0 days 0 hours 19 minutes 14 seconds 42 msec
