                         Program Version 3.0.3 - RELEASE   -
|  1> ! RI-MP2 RIJK def2-TZVP def2-TZVP/C def2-TZVP/JK TIGHTSCF
|  2> % maxcore 2000
|  3> % mp2 density relaxed end
|  4> *xyz 0 1
|  5>  C       -0.0334052328    -1.1603261239    -0.2482861993
|  6>  C       -0.0496902437     0.0361834664    -0.1334728726
|  7>  C       -0.0304090870     1.4879615550     0.0056334679
|  8>  C        1.3974492983     2.0435184115     0.0958761876
|  9>  C        2.2961560828     1.9913029807    -1.1829943001
| 10>  C        2.5305294397     3.5139064844    -1.0639260723
| 11>  O        1.5975118847     4.2844723112    -1.8507271904
| 12>  C        0.7232206263     4.4705662182    -0.7141586124
| 13>  C        1.6047399438     3.5869615841     0.1851206570
| 14>  H       -0.0339407189    -2.2168384710    -0.3525524549
| 15>  H       -0.5538416744     1.9360353077    -0.8481728397
| 16>  H       -0.5958523700     1.7795148083     0.9011351582
| 17>  H        1.9007683874     1.5581857232     0.9363630723
| 18>  H        3.1910974374     1.3740624361    -1.0750562601
| 19>  H        1.7842575549     1.7149442889    -2.1079305631
| 20>  H        3.5500838329     3.9031059307    -1.1256474050
| 21>  H        0.6929180116     5.5234028452    -0.4047410106
| 22>  H       -0.3025266461     4.1382938402    -0.9155596680
| 23>  H        1.8930149332     3.9948851632     1.1532993353
| 24> *
| 25>
| 26>                          ****END OF INPUT****

CARTESIAN COORDINATES (ANGSTROEM)
---------------------------------
  C     -0.033405   -1.160326   -0.248286
  C     -0.049690    0.036183   -0.133473
  C     -0.030409    1.487962    0.005633
  C      1.397449    2.043518    0.095876
  C      2.296156    1.991303   -1.182994
  C      2.530529    3.513906   -1.063926
  O      1.597512    4.284472   -1.850727
  C      0.723221    4.470566   -0.714159
  C      1.604740    3.586962    0.185121
  H     -0.033941   -2.216838   -0.352552
  H     -0.553842    1.936035   -0.848173
  H     -0.595852    1.779515    0.901135
  H      1.900768    1.558186    0.936363
  H      3.191097    1.374062   -1.075056
  H      1.784258    1.714944   -2.107931
  H      3.550084    3.903106   -1.125647
  H      0.692918    5.523403   -0.404741
  H     -0.302527    4.138294   -0.915560
  H      1.893015    3.994885    1.153299

 Total Charge           Charge          ....    0
 Multiplicity           Mult            ....    1
 Number of Electrons    NEL             ....   66
 Basis Dimension        Dim             ....  339

ORBITAL ENERGIES
----------------

  NO   OCC          E(Eh)            E(eV)
   0   2.0000     -20.548056      -559.1410
   1   2.0000     -11.283406      -307.0371
   2   2.0000     -11.282098      -307.0015
   3   2.0000     -11.255104      -306.2670
   4   2.0000     -11.244790      -305.9863
   5   2.0000     -11.236954      -305.7731
   6   2.0000     -11.234213      -305.6985
   7   2.0000     -11.223370      -305.4034
   8   2.0000     -11.220366      -305.3217
   9   2.0000      -1.380650       -37.5694
  10   2.0000      -1.129356       -30.7314
  11   2.0000      -1.055681       -28.7266
  12   2.0000      -0.976602       -26.5747
  13   2.0000      -0.970710       -26.4144
  14   2.0000      -0.868082       -23.6217
  15   2.0000      -0.841024       -22.8854
  16   2.0000      -0.723185       -19.6789
  17   2.0000      -0.719156       -19.5692
  18   2.0000      -0.698889       -19.0177
  19   2.0000      -0.659273       -17.9397
  20   2.0000      -0.639144       -17.3920
  21   2.0000      -0.616751       -16.7826
  22   2.0000      -0.615023       -16.7356
  23   2.0000      -0.579627       -15.7724
  24   2.0000      -0.553503       -15.0616
  25   2.0000      -0.522041       -14.2054
  26   2.0000      -0.500023       -13.6063
  27   2.0000      -0.470766       -12.8102
  28   2.0000      -0.451117       -12.2755
  29   2.0000      -0.425613       -11.5815
  30   2.0000      -0.402761       -10.9597
  31   2.0000      -0.385761       -10.4971
  32   2.0000      -0.381339       -10.3768
  33   0.0000       0.134590         3.6624
  34   0.0000       0.154806         4.2125
  35   0.0000       0.159924         4.3518
  36   0.0000       0.163452         4.4478
  37   0.0000       0.171352         4.6627

MULLIKEN ATOMIC CHARGES
-----------------------
   0 C :   -0.134851
   1 C :   -0.006004
   2 C :   -0.430049
   3 C :   -0.041738
   4 C :   -0.238456
   5 C :    0.057043
   6 O :   -0.334507
   7 C :   -0.052162
   8 C :   -0.085877
   9 H :    0.189254
  10 H :    0.148938
  11 H :    0.146212
  12 H :    0.110329
  13 H :    0.122378
  14 H :    0.115302
  15 H :    0.107219
  16 H :    0.100825
  17 H :    0.099242
  18 H :    0.126903
Sum of atomic charges:    0.0000000

LOEWDIN ATOMIC CHARGES
----------------------
   0 C :   -0.107090
   1 C :   -0.107933
   2 C :   -0.234290
   3 C :   -0.196736
   4 C :   -0.193499
   5 C :   -0.232876
   6 O :    0.130864
   7 C :   -0.252741
   8 C :   -0.174969
   9 H :    0.126036
  10 H :    0.159166
  11 H :    0.159269
  12 H :    0.155615
  13 H :    0.133138
  14 H :    0.141165
  15 H :    0.124236
  16 H :    0.119649
  17 H :    0.115185
  18 H :    0.135813

  Mayer bond orders larger than 0.1
B(  0-C ,  1-C ) :   2.6103 B(  0-C ,  2-C ) :  -0.1054 B(  0-C ,  9-H ) :   0.8998
B(  1-C ,  2-C ) :   1.1090 B(  2-C ,  3-C ) :   0.8919 B(  2-C , 10-H ) :   0.9281
B(  2-C , 11-H ) :   0.9216 B(  3-C ,  4-C ) :   0.9565 B(  3-C ,  8-C ) :   0.9158
B(  3-C , 12-H ) :   0.9146 B(  4-C ,  5-C ) :   0.9196 B(  4-C , 13-H ) :   0.9138
B(  4-C , 14-H ) :   0.8923 B(  5-C ,  6-O ) :   0.9471 B(  5-C ,  8-C ) :   0.9261
B(  5-C , 15-H ) :   0.9323 B(  6-O ,  7-C ) :   0.9401 B(  7-C ,  8-C ) :   0.9594
B(  7-C , 16-H ) :   0.9183 B(  7-C , 17-H ) :   0.9090 B(  8-C , 18-H ) :   0.9121

MP2 TOTAL ENERGY:     -385.128497784 Eh
FINAL SINGLE POINT ENERGY      -385.128497783893

DIPOLE MOMENT
-------------
                                X             Y             Z
Electronic contribution:     -0.08334      -0.45868      -1.06475
Nuclear contribution   :      0.18170       0.43942       1.76961
                        -----------------------------------------
Total Dipole Moment    :      0.09835      -0.01925       0.70486
                        -----------------------------------------
Magnitude (a.u.)       :      0.71195
Magnitude (Debye)      :      1.80963

                             ****ORCA TERMINATED NORMALLY****
TOTAL RUN TIME: 0 days 0 hours 17 minutes 28 seconds 62 msec
