                         Program Version 3.0.3 - RELEASE   -
|  1> ! RI-MP2 RIJK def2-TZVP def2-TZVP/C def2-TZVP/JK TIGHTSCF
|  2> % maxcore 2000
|  3> % mp2 density relaxed end
|  4> *xyz 0 1
|  5>  C       -0.1875768701     1.3932432693     0.0104944767
|  6>  N        0.0543668245    -0.0261488021     0.0294140991
|  7>  C        0.6955938035    -0.6533673918     1.0523690687
|  8>  C        1.3506541412    -0.0468623596     2.0695445683
|  9>  O        2.0061128177    -0.7799727128     3.0387278975
| 10>  C        1.9546762770    -2.1113040761     2.9368194845
| 11>  N        1.3545250376    -2.7992118899     2.0429961437
| 12>  C        0.6598990701    -2.1289844009     1.0300758813
| 13>  N       -0.0016049268    -2.7137775339     0.1032581626
| 14>  H        0.7568987687     1.9530498113    -0.0210933315
| 15>  H       -0.7567902865     1.6492206076    -0.8847265073
| 16>  H       -0.7516670613     1.7377768992     0.8916778883
| 17>  H       -0.5065728843    -0.6527053287    -0.5300284279
| 18>  H        1.4503816380     1.0140472235     2.2355810817
| 19>  H        2.5075698844    -2.5852508849     3.7424005160
| 20>  H        0.0598443262    -3.7253079001     0.2238991384
| 21> *
| 22>
| 23>                          ****END OF INPUT****

CARTESIAN COORDINATES (ANGSTROEM)
---------------------------------
  C     -0.187577    1.393243    0.010494
  N      0.054367   -0.026149    0.029414
  C      0.695594   -0.653367    1.052369
  C      1.350654   -0.046862    2.069545
  O      2.006113   -0.779973    3.038728
  C      1.954676   -2.111304    2.936819
  N      1.354525   -2.799212    2.042996
  C      0.659899   -2.128984    1.030076
  N     -0.001605   -2.713778    0.103258
  H      0.756899    1.953050   -0.021093
  H     -0.756790    1.649221   -0.884727
  H     -0.751667    1.737777    0.891678
  H     -0.506573   -0.652705   -0.530028
  H      1.450382    1.014047    2.235581
  H      2.507570   -2.585251    3.742401
  H      0.059844   -3.725308    0.223899

 Total Charge           Charge          ....    0
 Multiplicity           Mult            ....    1
 Number of Electrons    NEL             ....   66
 Basis Dimension        Dim             ....  321

ORBITAL ENERGIES
----------------

  NO   OCC          E(Eh)            E(eV)
   0   2.0000     -20.640095      -561.6456
   1   2.0000     -15.571340      -423.7177
   2   2.0000     -15.565499      -423.5587
   3   2.0000     -15.535829      -422.7514
   4   2.0000     -11.369272      -309.3736
   5   2.0000     -11.320496      -308.0464
   6   2.0000     -11.295622      -307.3695
   7   2.0000     -11.289020      -307.1898
   8   2.0000     -11.264214      -306.5149
   9   2.0000      -1.479986       -40.2725
  10   2.0000      -1.283467       -34.9249
  11   2.0000      -1.243693       -33.8426
  12   2.0000      -1.170593       -31.8535
  13   2.0000      -1.053853       -28.6768
  14   2.0000      -0.958564       -26.0839
  15   2.0000      -0.884741       -24.0750
  16   2.0000      -0.870596       -23.6901
  17   2.0000      -0.761247       -20.7146
  18   2.0000      -0.743962       -20.2442
  19   2.0000      -0.704542       -19.1716
  20   2.0000      -0.666696       -18.1417
  21   2.0000      -0.649692       -17.6790
  22   2.0000      -0.635882       -17.3032
  23   2.0000      -0.613024       -16.6812
  24   2.0000      -0.592877       -16.1330
  25   2.0000      -0.581444       -15.8219
  26   2.0000      -0.545205       -14.8358
  27   2.0000      -0.527313       -14.3489
  28   2.0000      -0.471794       -12.8382
  29   2.0000      -0.453881       -12.3507
  30   2.0000      -0.437245       -11.8980
  31   2.0000      -0.383619       -10.4388
  32   2.0000      -0.306136        -8.3304
  33   0.0000       0.108166         2.9433
  34   0.0000       0.136428         3.7124
  35   0.0000       0.140198         3.8150
  36   0.0000       0.169510         4.6126
  37   0.0000       0.170138         4.6297

MULLIKEN ATOMIC CHARGES
-----------------------
   0 C :   -0.308323
   1 N :   -0.317157
   2 C :    0.158673
   3 C :   -0.098709
   4 O :   -0.198624
   5 C :    0.132383
   6 N :   -0.274672
   7 C :    0.135271
   8 N :   -0.433982
   9 H :    0.137289
  10 H :    0.148341
  11 H :    0.133631
  12 H :    0.262826
  13 H :    0.153618
  14 H :    0.149868
  15 H :    0.219564
Sum of atomic charges:   -0.0000000

LOEWDIN ATOMIC CHARGES
----------------------
   0 C :   -0.324630
   1 N :    0.083978
   2 C :   -0.239555
   3 C :   -0.226662
   4 O :    0.314628
   5 C :   -0.315839
   6 N :    0.120026
   7 C :   -0.337097
   8 N :   -0.065066
   9 H :    0.116834
  10 H :    0.123893
  11 H :    0.111750
  12 H :    0.195516
  13 H :    0.139309
  14 H :    0.138517
  15 H :    0.164397

  Mayer bond orders larger than 0.1
B(  0-C ,  1-N ) :   0.9038 B(  0-C ,  9-H ) :   0.9288 B(  0-C , 10-H ) :   0.9356
B(  0-C , 11-H ) :   0.9304 B(  1-N ,  2-C ) :   1.1630 B(  1-N , 12-H ) :   0.8433
B(  2-C ,  3-C ) :   1.5465 B(  2-C ,  7-C ) :   0.9802 B(  3-C ,  4-O ) :   0.9412
B(  3-C , 13-H ) :   0.9436 B(  4-O ,  5-C ) :   1.1024 B(  5-C ,  6-N ) :   1.7082
B(  5-C , 14-H ) :   0.9272 B(  6-N ,  7-C ) :   1.0856 B(  7-C ,  8-N ) :   1.9008
B(  8-N , 15-H ) :   0.8632

MP2 TOTAL ENERGY:     -433.355784105 Eh
FINAL SINGLE POINT ENERGY      -433.355784104864

DIPOLE MOMENT
-------------
                                X             Y             Z
Electronic contribution:      3.14977      -5.48370       3.92661
Nuclear contribution   :     -3.08545       6.41503      -3.60314
                        -----------------------------------------
Total Dipole Moment    :      0.06432       0.93133       0.32346
                        -----------------------------------------
Magnitude (a.u.)       :      0.98800
Magnitude (Debye)      :      2.51129

                             ****ORCA TERMINATED NORMALLY****
TOTAL RUN TIME: 0 days 0 hours 14 minutes 45 seconds 969 msec
