                         Program Version 3.0.3 - RELEASE   -
|  1> ! RI-MP2 RIJK def2-TZVP def2-TZVP/C def2-TZVP/JK TIGHTSCF
|  2> % maxcore 2000
|  3> % mp2 density relaxed end
|  4> *xyz 0 1
|  5>  O       -0.1305457745     1.4532458703     0.0018151137
|  6>  C        0.0422239456     0.0449605798     0.0080907040
|  7>  C       -1.3582111353    -0.5600849697     0.0078873598
|  8>  C       -1.3528352485    -2.0509092957     0.0139771014
|  9>  N       -0.2904104270    -2.7982556020     0.0182974943
| 10>  N       -0.7766058414    -4.0880443740     0.0228933781
| 11>  C       -2.1520283606    -4.1739525045     0.0216745396
| 12>  O       -2.8768727820    -5.1440534921     0.0247426984
| 13>  N       -2.4981656893    -2.8148036699     0.0158212758
| 14>  H        0.7399010175     1.8613063465     0.0024823495
| 15>  H        0.5965041039    -0.3040380760    -0.8740990410
| 16>  H        0.5930295685    -0.2965925451     0.8953554630
| 17>  H       -1.9060489081    -0.1864502603     0.8824486236
| 18>  H       -1.9026600057    -0.1935628097    -0.8717929066
| 19>  H       -0.1433904968    -4.8674958412     0.0270796299
| 20>  H       -3.4506079663    -2.4933642366     0.0128566566
| 21> *
| 22>
| 23>                          ****END OF INPUT****

CARTESIAN COORDINATES (ANGSTROEM)
---------------------------------
  O     -0.130546    1.453246    0.001815
  C      0.042224    0.044961    0.008091
  C     -1.358211   -0.560085    0.007887
  C     -1.352835   -2.050909    0.013977
  N     -0.290410   -2.798256    0.018297
  N     -0.776606   -4.088044    0.022893
  C     -2.152028   -4.173953    0.021675
  O     -2.876873   -5.144053    0.024743
  N     -2.498166   -2.814804    0.015821
  H      0.739901    1.861306    0.002482
  H      0.596504   -0.304038   -0.874099
  H      0.593030   -0.296593    0.895355
  H     -1.906049   -0.186450    0.882449
  H     -1.902660   -0.193563   -0.871793
  H     -0.143390   -4.867496    0.027080
  H     -3.450608   -2.493364    0.012857

 Total Charge           Charge          ....    0
 Multiplicity           Mult            ....    1
 Number of Electrons    NEL             ....   68
 Basis Dimension        Dim             ....  321

ORBITAL ENERGIES
----------------

  NO   OCC          E(Eh)            E(eV)
   0   2.0000     -20.569940      -559.7365
   1   2.0000     -20.519259      -558.3574
   2   2.0000     -15.624151      -425.1548
   3   2.0000     -15.622931      -425.1216
   4   2.0000     -15.603324      -424.5880
   5   2.0000     -11.387674      -309.8744
   6   2.0000     -11.333056      -308.3881
   7   2.0000     -11.292712      -307.2903
   8   2.0000     -11.260647      -306.4178
   9   2.0000      -1.432002       -38.9668
  10   2.0000      -1.375033       -37.4165
  11   2.0000      -1.357097       -36.9285
  12   2.0000      -1.232212       -33.5302
  13   2.0000      -1.132271       -30.8107
  14   2.0000      -1.040035       -28.3008
  15   2.0000      -0.900585       -24.5062
  16   2.0000      -0.879592       -23.9349
  17   2.0000      -0.808462       -21.9994
  18   2.0000      -0.753647       -20.5078
  19   2.0000      -0.705722       -19.2037
  20   2.0000      -0.686215       -18.6728
  21   2.0000      -0.685833       -18.6625
  22   2.0000      -0.654065       -17.7980
  23   2.0000      -0.633813       -17.2469
  24   2.0000      -0.590551       -16.0697
  25   2.0000      -0.585673       -15.9370
  26   2.0000      -0.568358       -15.4658
  27   2.0000      -0.521597       -14.1934
  28   2.0000      -0.509032       -13.8515
  29   2.0000      -0.506100       -13.7717
  30   2.0000      -0.473807       -12.8930
  31   2.0000      -0.458309       -12.4712
  32   2.0000      -0.436072       -11.8661
  33   2.0000      -0.344964        -9.3869
  34   0.0000       0.121557         3.3077
  35   0.0000       0.129627         3.5273
  36   0.0000       0.152032         4.1370
  37   0.0000       0.161177         4.3859
  38   0.0000       0.165426         4.5015

MULLIKEN ATOMIC CHARGES
-----------------------
   0 O :   -0.463483
   1 C :   -0.068721
   2 C :   -0.196755
   3 C :    0.177624
   4 N :   -0.202592
   5 N :   -0.204166
   6 C :    0.296827
   7 O :   -0.364663
   8 N :   -0.321607
   9 H :    0.320755
  10 H :    0.111649
  11 H :    0.111618
  12 H :    0.137034
  13 H :    0.137051
  14 H :    0.265882
  15 H :    0.263548
Sum of atomic charges:    0.0000000

LOEWDIN ATOMIC CHARGES
----------------------
   0 O :   -0.049084
   1 C :   -0.338494
   2 C :   -0.233629
   3 C :   -0.335309
   4 N :    0.048510
   5 N :    0.099901
   6 C :   -0.531822
   7 O :    0.050991
   8 N :    0.174887
   9 H :    0.175131
  10 H :    0.121529
  11 H :    0.121522
  12 H :    0.154523
  13 H :    0.154532
  14 H :    0.188321
  15 H :    0.198492

  Mayer bond orders larger than 0.1
B(  0-O ,  1-C ) :   1.0208 B(  0-O ,  2-C ) :  -0.1013 B(  0-O ,  9-H ) :   0.8471
B(  1-C ,  2-C ) :   0.9489 B(  1-C , 10-H ) :   0.9328 B(  1-C , 11-H ) :   0.9328
B(  2-C ,  3-C ) :   0.9220 B(  2-C , 12-H ) :   0.9106 B(  2-C , 13-H ) :   0.9105
B(  3-C ,  4-N ) :   1.6855 B(  3-C ,  8-N ) :   1.0940 B(  4-N ,  5-N ) :   0.9240
B(  5-N ,  6-C ) :   1.1176 B(  5-N , 14-H ) :   0.8716 B(  6-C ,  7-O ) :   2.0034
B(  6-C ,  8-N ) :   1.0376 B(  8-N , 15-H ) :   0.8629

MP2 TOTAL ENERGY:     -470.499416957 Eh
FINAL SINGLE POINT ENERGY      -470.499416956838

DIPOLE MOMENT
-------------
                                X             Y             Z
Electronic contribution:     -2.40598      -7.20827       0.02503
Nuclear contribution   :      3.07149       8.27760      -0.02782
                        -----------------------------------------
Total Dipole Moment    :      0.66551       1.06933      -0.00279
                        -----------------------------------------
Magnitude (a.u.)       :      1.25951
Magnitude (Debye)      :      3.20143

                             ****ORCA TERMINATED NORMALLY****
TOTAL RUN TIME: 0 days 0 hours 14 minutes 42 seconds 942 msec
