                         Program Version 3.0.3 - RELEASE   -
|  1> ! RI-MP2 RIJK def2-TZVP def2-TZVP/C def2-TZVP/JK TIGHTSCF
|  2> % maxcore 2000
|  3> % mp2 density relaxed end
|  4> *xyz 0 1
|  5>  C       -0.0171635812     1.5193127182     0.0103351642
|  6>  C        0.0048349091     0.0144491474     0.0020866593
|  7>  C        0.0086661321    -0.7370073741    -1.1737000325
|  8>  N        0.0505246379    -2.0653738962    -1.2073845999
|  9>  C        0.0928900749    -2.6786931461    -0.0130005727
| 10>  N        0.1990496028    -4.0417758459    -0.0210438266
| 11>  N        0.0653025736    -2.0783269245     1.1883420797
| 12>  C        0.0231185973    -0.7496553248     1.1695234633
| 13>  H        0.9947758387     1.9428264269     0.0039823823
| 14>  H       -0.5382687661     1.9142185830    -0.8672527660
| 15>  H       -0.5231928022     1.9046272610     0.9008997358
| 16>  H       -0.0323075867    -0.2373260682    -2.1415488024
| 17>  H       -0.0338899901    -4.5049396042    -0.8833502331
| 18>  H       -0.0232546347    -4.5142750444     0.8390024908
| 19>  H       -0.0058766555    -0.2604488882     2.1431372276
| 20> *
| 21>
| 22>                          ****END OF INPUT****

CARTESIAN COORDINATES (ANGSTROEM)
---------------------------------
  C     -0.017164    1.519313    0.010335
  C      0.004835    0.014449    0.002087
  C      0.008666   -0.737007   -1.173700
  N      0.050525   -2.065374   -1.207385
  C      0.092890   -2.678693   -0.013001
  N      0.199050   -4.041776   -0.021044
  N      0.065303   -2.078327    1.188342
  C      0.023119   -0.749655    1.169523
  H      0.994776    1.942826    0.003982
  H     -0.538269    1.914219   -0.867253
  H     -0.523193    1.904627    0.900900
  H     -0.032308   -0.237326   -2.141549
  H     -0.033890   -4.504940   -0.883350
  H     -0.023255   -4.514275    0.839002
  H     -0.005877   -0.260449    2.143137

 Total Charge           Charge          ....    0
 Multiplicity           Mult            ....    1
 Number of Electrons    NEL             ....   58
 Basis Dimension        Dim             ....  290

ORBITAL ENERGIES
----------------

  NO   OCC          E(Eh)            E(eV)
   0   2.0000     -15.566730      -423.5923
   1   2.0000     -15.553806      -423.2406
   2   2.0000     -15.553779      -423.2399
   3   2.0000     -11.342629      -308.6486
   4   2.0000     -11.287495      -307.1484
   5   2.0000     -11.287478      -307.1479
   6   2.0000     -11.232573      -305.6539
   7   2.0000     -11.231558      -305.6262
   8   2.0000      -1.321901       -35.9708
   9   2.0000      -1.199341       -32.6357
  10   2.0000      -1.186065       -32.2745
  11   2.0000      -1.072796       -29.1923
  12   2.0000      -0.943193       -25.6656
  13   2.0000      -0.892377       -24.2828
  14   2.0000      -0.841993       -22.9118
  15   2.0000      -0.731798       -19.9132
  16   2.0000      -0.729586       -19.8530
  17   2.0000      -0.650395       -17.6982
  18   2.0000      -0.620084       -16.8733
  19   2.0000      -0.599476       -16.3126
  20   2.0000      -0.580381       -15.7930
  21   2.0000      -0.575437       -15.6584
  22   2.0000      -0.567134       -15.4325
  23   2.0000      -0.549309       -14.9474
  24   2.0000      -0.476623       -12.9696
  25   2.0000      -0.456406       -12.4194
  26   2.0000      -0.420276       -11.4363
  27   2.0000      -0.400171       -10.8892
  28   2.0000      -0.317047        -8.6273
  29   0.0000       0.098966         2.6930
  30   0.0000       0.138906         3.7798
  31   0.0000       0.142777         3.8852
  32   0.0000       0.152676         4.1545
  33   0.0000       0.181206         4.9309

MULLIKEN ATOMIC CHARGES
-----------------------
   0 C :   -0.414544
   1 C :    0.090704
   2 C :   -0.088775
   3 N :   -0.280349
   4 C :    0.335929
   5 N :   -0.487659
   6 N :   -0.280364
   7 C :   -0.088820
   8 H :    0.149350
   9 H :    0.142889
  10 H :    0.142836
  11 H :    0.127969
  12 H :    0.261449
  13 H :    0.261448
  14 H :    0.127937
Sum of atomic charges:   -0.0000000

LOEWDIN ATOMIC CHARGES
----------------------
   0 C :   -0.267190
   1 C :   -0.198370
   2 C :   -0.185586
   3 N :    0.128410
   4 C :   -0.412310
   5 N :   -0.033414
   6 N :    0.128401
   7 C :   -0.185621
   8 H :    0.132884
   9 H :    0.132314
  10 H :    0.132310
  11 H :    0.141761
  12 H :    0.172328
  13 H :    0.172328
  14 H :    0.141755

  Mayer bond orders larger than 0.1
B(  0-C ,  1-C ) :   0.8715 B(  0-C ,  8-H ) :   0.9204 B(  0-C ,  9-H ) :   0.9444
B(  0-C , 10-H ) :   0.9445 B(  1-C ,  2-C ) :   1.3006 B(  1-C ,  7-C ) :   1.3008
B(  2-C ,  3-N ) :   1.4524 B(  2-C , 11-H ) :   0.9534 B(  3-N ,  4-C ) :   1.3559
B(  4-C ,  5-N ) :   1.1365 B(  4-C ,  6-N ) :   1.3560 B(  5-N , 12-H ) :   0.8662
B(  5-N , 13-H ) :   0.8662 B(  6-N ,  7-C ) :   1.4522 B(  7-C , 14-H ) :   0.9534

MP2 TOTAL ENERGY:     -358.286407301 Eh
FINAL SINGLE POINT ENERGY      -358.286407301278

DIPOLE MOMENT
-------------
                                X             Y             Z
Electronic contribution:      0.21499      -5.14663      -0.02925
Nuclear contribution   :     -0.48790       5.48389       0.03260
                        -----------------------------------------
Total Dipole Moment    :     -0.27290       0.33726       0.00335
                        -----------------------------------------
Magnitude (a.u.)       :      0.43386
Magnitude (Debye)      :      1.10278

                             ****ORCA TERMINATED NORMALLY****
TOTAL RUN TIME: 0 days 0 hours 11 minutes 11 seconds 257 msec
