                         Program Version 3.0.3 - RELEASE   -
|  1> ! RI-MP2 RIJK def2-TZVP def2-TZVP/C def2-TZVP/JK TIGHTSCF
|  2> % maxcore 2000
|  3> % mp2 density relaxed end
|  4> *xyz 0 1
|  5>  C        0.0100027066     1.5338783954     0.1212156089
|  6>  C        0.1094183665     0.0115881619     0.0349662921
|  7>  C        0.9992758991    -0.5449732676    -1.1176600585
|  8>  C        1.9300295642    -1.4290211668    -0.2907502653
|  9>  C        2.3269000421    -0.4394969532     0.9259905128
| 10>  C        0.8055697099    -0.6475336253     1.2691043567
| 11>  C       -0.2672133157    -1.3065485345     2.1834048145
| 12>  O       -0.3523923488    -2.4173540878     1.2019313144
| 13>  C        1.0351349851    -2.0540545145     0.8421802377
| 14>  H        0.9921469397     2.0084848133     0.2194214569
| 15>  H       -0.4633587402     1.9436485445    -0.7776049137
| 16>  H       -0.5946235652     1.8419139924     0.9818250717
| 17>  H       -0.8979200917    -0.3998280526    -0.0594519991
| 18>  H        0.4266128255    -1.1129655451    -1.8558509033
| 19>  H        1.5483768044     0.2393314811    -1.6493772707
| 20>  H        2.6958268658    -2.0087119733    -0.8098234900
| 21>  H        3.0171772503    -0.8942640173     1.6367305353
| 22>  H        2.6768687487     0.5547157623     0.6385420624
| 23>  H        0.0953620397    -1.6776216608     3.1486611579
| 24>  H       -1.2299853297    -0.8006891271     2.2986828769
| 25>  H        1.6847495439    -2.6263068248     1.5161259723
| 26> *
| 27>
| 28>                          ****END OF INPUT****

CARTESIAN COORDINATES (ANGSTROEM)
---------------------------------
  C      0.010003    1.533878    0.121216
  C      0.109418    0.011588    0.034966
  C      0.999276   -0.544973   -1.117660
  C      1.930030   -1.429021   -0.290750
  C      2.326900   -0.439497    0.925991
  C      0.805570   -0.647534    1.269104
  C     -0.267213   -1.306549    2.183405
  O     -0.352392   -2.417354    1.201931
  C      1.035135   -2.054055    0.842180
  H      0.992147    2.008485    0.219421
  H     -0.463359    1.943649   -0.777605
  H     -0.594624    1.841914    0.981825
  H     -0.897920   -0.399828   -0.059452
  H      0.426613   -1.112966   -1.855851
  H      1.548377    0.239331   -1.649377
  H      2.695827   -2.008712   -0.809823
  H      3.017177   -0.894264    1.636731
  H      2.676869    0.554716    0.638542
  H      0.095362   -1.677622    3.148661
  H     -1.229985   -0.800689    2.298683
  H      1.684750   -2.626307    1.516126

 Total Charge           Charge          ....    0
 Multiplicity           Mult            ....    1
 Number of Electrons    NEL             ....   68
 Basis Dimension        Dim             ....  351

ORBITAL ENERGIES
----------------

  NO   OCC          E(Eh)            E(eV)
   0   2.0000     -20.548703      -559.1586
   1   2.0000     -11.291159      -307.2481
   2   2.0000     -11.273872      -306.7777
   3   2.0000     -11.253409      -306.2208
   4   2.0000     -11.249463      -306.1135
   5   2.0000     -11.230348      -305.5933
   6   2.0000     -11.224472      -305.4334
   7   2.0000     -11.220415      -305.3230
   8   2.0000     -11.213318      -305.1299
   9   2.0000      -1.364282       -37.1240
  10   2.0000      -1.175757       -31.9940
  11   2.0000      -1.024951       -27.8903
  12   2.0000      -0.978768       -26.6336
  13   2.0000      -0.923249       -25.1229
  14   2.0000      -0.880580       -23.9618
  15   2.0000      -0.852196       -23.1894
  16   2.0000      -0.769363       -20.9354
  17   2.0000      -0.723200       -19.6793
  18   2.0000      -0.670607       -18.2482
  19   2.0000      -0.644875       -17.5479
  20   2.0000      -0.613997       -16.7077
  21   2.0000      -0.606616       -16.5069
  22   2.0000      -0.592553       -16.1242
  23   2.0000      -0.558631       -15.2011
  24   2.0000      -0.555224       -15.1084
  25   2.0000      -0.531921       -14.4743
  26   2.0000      -0.506749       -13.7893
  27   2.0000      -0.493425       -13.4268
  28   2.0000      -0.468961       -12.7611
  29   2.0000      -0.459669       -12.5082
  30   2.0000      -0.443177       -12.0595
  31   2.0000      -0.437887       -11.9155
  32   2.0000      -0.410207       -11.1623
  33   2.0000      -0.369688       -10.0597
  34   0.0000       0.134888         3.6705
  35   0.0000       0.149953         4.0804
  36   0.0000       0.158409         4.3105
  37   0.0000       0.166454         4.5294
  38   0.0000       0.194320         5.2877

MULLIKEN ATOMIC CHARGES
-----------------------
   0 C :   -0.401347
   1 C :   -0.098567
   2 C :   -0.285167
   3 C :   -0.018537
   4 C :   -0.295329
   5 C :    0.042899
   6 C :   -0.059022
   7 O :   -0.330013
   8 C :    0.005098
   9 H :    0.116275
  10 H :    0.137396
  11 H :    0.128455
  12 H :    0.113910
  13 H :    0.126298
  14 H :    0.116737
  15 H :    0.126596
  16 H :    0.134533
  17 H :    0.125662
  18 H :    0.103470
  19 H :    0.118529
  20 H :    0.092123
Sum of atomic charges:    0.0000000

LOEWDIN ATOMIC CHARGES
----------------------
   0 C :   -0.293417
   1 C :   -0.217325
   2 C :   -0.209611
   3 C :   -0.167887
   4 C :   -0.159432
   5 C :   -0.198606
   6 C :   -0.219035
   7 O :    0.095825
   8 C :   -0.220462
   9 H :    0.120157
  10 H :    0.124932
  11 H :    0.124070
  12 H :    0.157772
  13 H :    0.137868
  14 H :    0.137603
  15 H :    0.130808
  16 H :    0.136789
  17 H :    0.127362
  18 H :    0.123002
  19 H :    0.121808
  20 H :    0.147781

  Mayer bond orders larger than 0.1
B(  0-C ,  1-C ) :   0.8993 B(  0-C ,  9-H ) :   0.9301 B(  0-C , 10-H ) :   0.9428
B(  0-C , 11-H ) :   0.9407 B(  1-C ,  2-C ) :   0.9573 B(  1-C ,  5-C ) :   0.8779
B(  1-C , 12-H ) :   0.9177 B(  2-C ,  3-C ) :   0.9170 B(  2-C , 13-H ) :   0.9227
B(  2-C , 14-H ) :   0.9210 B(  3-C ,  4-C ) :   0.8785 B(  3-C ,  8-C ) :   0.8542
B(  3-C , 15-H ) :   0.9152 B(  4-C ,  5-C ) :   0.9030 B(  4-C , 16-H ) :   0.9231
B(  4-C , 17-H ) :   0.9136 B(  5-C ,  6-C ) :   0.9217 B(  5-C ,  8-C ) :   0.9031
B(  6-C ,  7-O ) :   0.8986 B(  6-C , 18-H ) :   0.9063 B(  6-C , 19-H ) :   0.9104
B(  7-O ,  8-C ) :   0.9296 B(  8-C , 20-H ) :   0.9595

MP2 TOTAL ENERGY:     -386.315852028 Eh
FINAL SINGLE POINT ENERGY      -386.315852028401

DIPOLE MOMENT
-------------
                                X             Y             Z
Electronic contribution:     -0.83409      -5.77645       1.64823
Nuclear contribution   :      1.35528       6.30892      -1.57759
                        -----------------------------------------
Total Dipole Moment    :      0.52119       0.53248       0.07063
                        -----------------------------------------
Magnitude (a.u.)       :      0.74844
Magnitude (Debye)      :      1.90238

                             ****ORCA TERMINATED NORMALLY****
TOTAL RUN TIME: 0 days 0 hours 23 minutes 37 seconds 997 msec
