                         Program Version 3.0.3 - RELEASE   -
|  1> ! RI-MP2 RIJK def2-TZVP def2-TZVP/C def2-TZVP/JK TIGHTSCF
|  2> % maxcore 2000
|  3> % mp2 density relaxed end
|  4> *xyz 0 1
|  5>  O       -0.1205339310     1.3706997486     0.0439876898
|  6>  C        0.0388216091    -0.0238780032     0.0391576834
|  7>  C        0.7236149584    -0.7047389501    -1.1905334632
|  8>  C        0.5345423333    -2.1274252638    -0.5920092549
|  9>  C        1.1393070819    -1.9075006859     0.7869821363
| 10>  C        0.8417681199    -0.6625579416     1.1643379720
| 11>  C       -1.0315241983    -2.1135832016    -0.4630696316
| 12>  N       -1.5785359309    -1.8533927463     0.8870977119
| 13>  C       -1.3498593813    -0.7333839684    -0.0490196724
| 14>  H        0.7561105914     1.7681786796     0.0627654560
| 15>  H        0.1675507645    -0.5438340981    -2.1201177997
| 16>  H        1.7717835420    -0.4177828403    -1.3175446135
| 17>  H        0.9229734499    -2.9691906596    -1.1645717962
| 18>  H        1.6047618320    -2.6810037083     1.3838102900
| 19>  H        0.9968219583    -0.1986935900     2.1301984676
| 20>  H       -1.6214739306    -2.6718410133    -1.1811252796
| 21>  H       -2.5723815044    -2.0787703136     0.8774786641
| 22>  H       -2.1807164641    -0.1506335842    -0.4295700998
| 23> *
| 24>
| 25>                          ****END OF INPUT****

CARTESIAN COORDINATES (ANGSTROEM)
---------------------------------
  O     -0.120534    1.370700    0.043988
  C      0.038822   -0.023878    0.039158
  C      0.723615   -0.704739   -1.190533
  C      0.534542   -2.127425   -0.592009
  C      1.139307   -1.907501    0.786982
  C      0.841768   -0.662558    1.164338
  C     -1.031524   -2.113583   -0.463070
  N     -1.578536   -1.853393    0.887098
  C     -1.349859   -0.733384   -0.049020
  H      0.756111    1.768179    0.062765
  H      0.167551   -0.543834   -2.120118
  H      1.771784   -0.417783   -1.317545
  H      0.922973   -2.969191   -1.164572
  H      1.604762   -2.681004    1.383810
  H      0.996822   -0.198694    2.130198
  H     -1.621474   -2.671841   -1.181125
  H     -2.572382   -2.078770    0.877479
  H     -2.180716   -0.150634   -0.429570

 Total Charge           Charge          ....    0
 Multiplicity           Mult            ....    1
 Number of Electrons    NEL             ....   66
 Basis Dimension        Dim             ....  333

ORBITAL ENERGIES
----------------

  NO   OCC          E(Eh)            E(eV)
   0   2.0000     -20.560713      -559.4854
   1   2.0000     -15.557175      -423.3323
   2   2.0000     -11.292260      -307.2780
   3   2.0000     -11.257224      -306.3246
   4   2.0000     -11.252887      -306.2066
   5   2.0000     -11.240713      -305.8753
   6   2.0000     -11.224627      -305.4376
   7   2.0000     -11.222806      -305.3881
   8   2.0000     -11.217237      -305.2365
   9   2.0000      -1.371593       -37.3230
  10   2.0000      -1.270982       -34.5852
  11   2.0000      -1.136810       -30.9342
  12   2.0000      -0.983376       -26.7590
  13   2.0000      -0.954852       -25.9828
  14   2.0000      -0.885416       -24.0934
  15   2.0000      -0.798783       -21.7360
  16   2.0000      -0.775471       -21.1016
  17   2.0000      -0.732696       -19.9377
  18   2.0000      -0.713557       -19.4169
  19   2.0000      -0.672029       -18.2868
  20   2.0000      -0.644767       -17.5450
  21   2.0000      -0.623942       -16.9783
  22   2.0000      -0.573000       -15.5921
  23   2.0000      -0.554036       -15.0761
  24   2.0000      -0.543238       -14.7823
  25   2.0000      -0.533386       -14.5142
  26   2.0000      -0.501877       -13.6568
  27   2.0000      -0.474226       -12.9043
  28   2.0000      -0.460872       -12.5410
  29   2.0000      -0.454326       -12.3628
  30   2.0000      -0.417046       -11.3484
  31   2.0000      -0.370744       -10.0885
  32   2.0000      -0.342319        -9.3150
  33   0.0000       0.136257         3.7077
  34   0.0000       0.139078         3.7845
  35   0.0000       0.154463         4.2032
  36   0.0000       0.164942         4.4883
  37   0.0000       0.179128         4.8743

MULLIKEN ATOMIC CHARGES
-----------------------
   0 O :   -0.462327
   1 C :    0.363644
   2 C :   -0.291598
   3 C :    0.066862
   4 C :   -0.209765
   5 C :   -0.249478
   6 C :   -0.147646
   7 N :   -0.344077
   8 C :   -0.149040
   9 H :    0.320964
  10 H :    0.113486
  11 H :    0.114998
  12 H :    0.133865
  13 H :    0.129948
  14 H :    0.134539
  15 H :    0.129753
  16 H :    0.215846
  17 H :    0.130027
Sum of atomic charges:   -0.0000000

LOEWDIN ATOMIC CHARGES
----------------------
   0 O :    0.017520
   1 C :   -0.331710
   2 C :   -0.175827
   3 C :   -0.187332
   4 C :   -0.116782
   5 C :   -0.115772
   6 C :   -0.216359
   7 N :    0.014602
   8 C :   -0.199826
   9 H :    0.180416
  10 H :    0.136889
  11 H :    0.132815
  12 H :    0.142624
  13 H :    0.135550
  14 H :    0.138367
  15 H :    0.134264
  16 H :    0.169973
  17 H :    0.140588

  Mayer bond orders larger than 0.1
B(  0-O ,  1-C ) :   0.9659 B(  0-O ,  9-H ) :   0.8384 B(  1-C ,  2-C ) :   0.9374
B(  1-C ,  5-C ) :   0.9078 B(  1-C ,  8-C ) :   0.8278 B(  2-C ,  3-C ) :   0.9057
B(  2-C , 10-H ) :   0.9189 B(  2-C , 11-H ) :   0.9170 B(  3-C ,  4-C ) :   0.9146
B(  3-C ,  6-C ) :   0.8230 B(  3-C , 12-H ) :   0.9112 B(  4-C ,  5-C ) :   1.7425
B(  4-C , 13-H ) :   0.9103 B(  5-C , 14-H ) :   0.9168 B(  6-C ,  7-N ) :   1.0126
B(  6-C ,  8-C ) :   0.9739 B(  6-C , 15-H ) :   0.9194 B(  7-N ,  8-C ) :   1.0143
B(  7-N , 16-H ) :   0.8687 B(  8-C , 17-H ) :   0.9341

MP2 TOTAL ENERGY:     -401.225836159 Eh
FINAL SINGLE POINT ENERGY      -401.225836158774

DIPOLE MOMENT
-------------
                                X             Y             Z
Electronic contribution:     -0.65827       1.27814       1.65787
Nuclear contribution   :      0.76714      -1.52381      -2.17383
                        -----------------------------------------
Total Dipole Moment    :      0.10887      -0.24567      -0.51596
                        -----------------------------------------
Magnitude (a.u.)       :      0.58174
Magnitude (Debye)      :      1.47867

                             ****ORCA TERMINATED NORMALLY****
TOTAL RUN TIME: 0 days 0 hours 20 minutes 3 seconds 358 msec
