                         Program Version 3.0.3 - RELEASE   -
|  1> ! RI-MP2 RIJK def2-TZVP def2-TZVP/C def2-TZVP/JK TIGHTSCF
|  2> % maxcore 2000
|  3> % mp2 density relaxed end
|  4> *xyz 0 1
|  5>  C       -0.0248031165     1.4547203791     0.0688698138
|  6>  O       -0.0305907919     0.0344392868    -0.0615174774
|  7>  C       -1.3054928052    -0.5540540894    -0.0284111522
|  8>  C       -1.1853181707    -2.0889070604     0.1616846096
|  9>  O       -1.8209943893    -1.9901850798     1.4727112533
| 10>  C       -1.9458155499    -0.6253579692     1.3734425888
| 11>  N       -2.3898137461     0.2277819920     2.1743056637
| 12>  C       -2.1923720299    -0.1090848103    -1.0975811114
| 13>  C       -2.9205895221     0.2448581304    -1.9853167267
| 14>  H        1.0254206006     1.7516613008     0.0595544850
| 15>  H       -0.5460329901     1.9306222516    -0.7705631310
| 16>  H       -0.4919176678     1.7680752415     1.0085773521
| 17>  H       -1.7706313189    -2.7084457994    -0.5181725937
| 18>  H       -0.1519599163    -2.4291756157     0.2424274589
| 19>  H       -2.6965258806    -0.1996310152     3.0505053917
| 20>  H       -3.5692805351     0.5644842272    -2.7638248345
| 21> *
| 22>
| 23>                          ****END OF INPUT****

CARTESIAN COORDINATES (ANGSTROEM)
---------------------------------
  C     -0.024803    1.454720    0.068870
  O     -0.030591    0.034439   -0.061517
  C     -1.305493   -0.554054   -0.028411
  C     -1.185318   -2.088907    0.161685
  O     -1.820994   -1.990185    1.472711
  C     -1.945816   -0.625358    1.373443
  N     -2.389814    0.227782    2.174306
  C     -2.192372   -0.109085   -1.097581
  C     -2.920590    0.244858   -1.985317
  H      1.025421    1.751661    0.059554
  H     -0.546033    1.930622   -0.770563
  H     -0.491918    1.768075    1.008577
  H     -1.770631   -2.708446   -0.518173
  H     -0.151960   -2.429176    0.242427
  H     -2.696526   -0.199631    3.050505
  H     -3.569281    0.564484   -2.763825

 Total Charge           Charge          ....    0
 Multiplicity           Mult            ....    1
 Number of Electrons    NEL             ....   66
 Basis Dimension        Dim             ....  321

ORBITAL ENERGIES
----------------

  NO   OCC          E(Eh)            E(eV)
   0   2.0000     -20.603368      -560.6461
   1   2.0000     -20.583250      -560.0987
   2   2.0000     -15.549695      -423.1287
   3   2.0000     -11.350896      -308.8736
   4   2.0000     -11.343441      -308.6707
   5   2.0000     -11.310791      -307.7823
   6   2.0000     -11.274471      -306.7939
   7   2.0000     -11.252195      -306.1878
   8   2.0000     -11.247617      -306.0632
   9   2.0000      -1.451994       -39.5108
  10   2.0000      -1.396886       -38.0112
  11   2.0000      -1.208979       -32.8980
  12   2.0000      -1.086396       -29.5624
  13   2.0000      -1.016668       -27.6649
  14   2.0000      -0.927986       -25.2518
  15   2.0000      -0.911159       -24.7939
  16   2.0000      -0.812478       -22.1086
  17   2.0000      -0.729768       -19.8580
  18   2.0000      -0.719619       -19.5818
  19   2.0000      -0.711905       -19.3719
  20   2.0000      -0.690714       -18.7953
  21   2.0000      -0.644677       -17.5426
  22   2.0000      -0.631853       -17.1936
  23   2.0000      -0.628763       -17.1095
  24   2.0000      -0.551528       -15.0079
  25   2.0000      -0.541733       -14.7413
  26   2.0000      -0.526555       -14.3283
  27   2.0000      -0.506644       -13.7865
  28   2.0000      -0.477383       -12.9903
  29   2.0000      -0.436891       -11.8884
  30   2.0000      -0.422307       -11.4916
  31   2.0000      -0.410378       -11.1670
  32   2.0000      -0.401284       -10.9195
  33   0.0000       0.133687         3.6378
  34   0.0000       0.144732         3.9383
  35   0.0000       0.154208         4.1962
  36   0.0000       0.163751         4.4559
  37   0.0000       0.171991         4.6801

MULLIKEN ATOMIC CHARGES
-----------------------
   0 C :   -0.237064
   1 O :   -0.303336
   2 C :    0.225554
   3 C :   -0.034914
   4 O :   -0.257975
   5 C :    0.104818
   6 N :   -0.381669
   7 C :   -0.075055
   8 C :   -0.155053
   9 H :    0.140531
  10 H :    0.130530
  11 H :    0.152403
  12 H :    0.132237
  13 H :    0.127831
  14 H :    0.232655
  15 H :    0.198507
Sum of atomic charges:   -0.0000000

LOEWDIN ATOMIC CHARGES
----------------------
   0 C :   -0.323573
   1 O :    0.195611
   2 C :   -0.317048
   3 C :   -0.167381
   4 O :    0.220965
   5 C :   -0.355406
   6 N :   -0.039293
   7 C :   -0.060744
   8 C :   -0.062303
   9 H :    0.114921
  10 H :    0.110728
  11 H :    0.114217
  12 H :    0.129505
  13 H :    0.132236
  14 H :    0.176560
  15 H :    0.131006

  Mayer bond orders larger than 0.1
B(  0-C ,  1-O ) :   0.8749 B(  0-C ,  9-H ) :   0.9357 B(  0-C , 10-H ) :   0.9347
B(  0-C , 11-H ) :   0.9259 B(  1-O ,  2-C ) :   1.0174 B(  2-C ,  3-C ) :   0.9078
B(  2-C ,  5-C ) :   0.9066 B(  2-C ,  7-C ) :   1.0420 B(  3-C ,  4-O ) :   0.8972
B(  3-C , 12-H ) :   0.9162 B(  3-C , 13-H ) :   0.9098 B(  4-O ,  5-C ) :   1.0785
B(  5-C ,  6-N ) :   2.0401 B(  6-N , 14-H ) :   0.8440 B(  7-C ,  8-C ) :   2.6149
B(  8-C , 15-H ) :   0.8913

MP2 TOTAL ENERGY:     -437.092618792 Eh
FINAL SINGLE POINT ENERGY      -437.092618791504

DIPOLE MOMENT
-------------
                                X             Y             Z
Electronic contribution:     -2.07640      -3.25952       0.98396
Nuclear contribution   :      2.09893       3.11799      -1.53715
                        -----------------------------------------
Total Dipole Moment    :      0.02253      -0.14152      -0.55320
                        -----------------------------------------
Magnitude (a.u.)       :      0.57146
Magnitude (Debye)      :      1.45253

                             ****ORCA TERMINATED NORMALLY****
TOTAL RUN TIME: 0 days 0 hours 15 minutes 47 seconds 103 msec
