                         Program Version 3.0.3 - RELEASE   -
|  1> ! RI-MP2 RIJK def2-TZVP def2-TZVP/C def2-TZVP/JK TIGHTSCF
|  2> % maxcore 2000
|  3> % mp2 density relaxed end
|  4> *xyz 0 1
|  5>  C        0.1671969484     1.4074934668    -0.0872064574
|  6>  O        0.2607089805     0.0066456975    -0.1573044578
|  7>  C        0.7364129845    -0.5733529418     1.0381413537
|  8>  C        0.7946374316    -2.0862742262     0.8568014258
|  9>  C        1.3564377434    -2.7886163382     2.0858355585
| 10>  C        0.5126558319    -3.0118135541     3.3891967456
| 11>  C       -0.2540330798    -4.1467078420     2.6483231279
| 12>  C        1.2459261381    -4.3369333224     2.2745945014
| 13>  C        1.5626965854    -4.0919129516     3.7785614181
| 14>  H        1.1462749475     1.8752620130     0.1061407086
| 15>  H       -0.2072268226     1.7611854360    -1.0511967887
| 16>  H       -0.5271211025     1.7339438091     0.7041024759
| 17>  H        1.7369769512    -0.1755672745     1.2850648447
| 18>  H        0.0730882505    -0.3119658150     1.8812690058
| 19>  H       -0.2072188978    -2.4395382436     0.5973417480
| 20>  H        1.4344077727    -2.3031644121    -0.0078371527
| 21>  H        2.3643586342    -2.4064288990     2.2943134008
| 22>  H        0.0879358519    -2.2471101933     4.0423373032
| 23>  H       -0.6923929579    -4.9222413085     3.2825935048
| 24>  H       -0.9456584991    -3.8625977653     1.8544372772
| 25>  H        1.6728692014    -5.1070614093     1.6293130132
| 26>  H        2.5693624458    -3.7376068947     4.0187620340
| 27>  H        1.2303510408    -4.8634913807     4.4780936994
| 28> *
| 29>
| 30>                          ****END OF INPUT****

CARTESIAN COORDINATES (ANGSTROEM)
---------------------------------
  C      0.167197    1.407493   -0.087206
  O      0.260709    0.006646   -0.157304
  C      0.736413   -0.573353    1.038141
  C      0.794637   -2.086274    0.856801
  C      1.356438   -2.788616    2.085836
  C      0.512656   -3.011814    3.389197
  C     -0.254033   -4.146708    2.648323
  C      1.245926   -4.336933    2.274595
  C      1.562697   -4.091913    3.778561
  H      1.146275    1.875262    0.106141
  H     -0.207227    1.761185   -1.051197
  H     -0.527121    1.733944    0.704102
  H      1.736977   -0.175567    1.285065
  H      0.073088   -0.311966    1.881269
  H     -0.207219   -2.439538    0.597342
  H      1.434408   -2.303164   -0.007837
  H      2.364359   -2.406429    2.294313
  H      0.087936   -2.247110    4.042337
  H     -0.692393   -4.922241    3.282594
  H     -0.945658   -3.862598    1.854437
  H      1.672869   -5.107061    1.629313
  H      2.569362   -3.737607    4.018762
  H      1.230351   -4.863491    4.478094

 Total Charge           Charge          ....    0
 Multiplicity           Mult            ....    1
 Number of Electrons    NEL             ....   70
 Basis Dimension        Dim             ....  363

ORBITAL ENERGIES
----------------

  NO   OCC          E(Eh)            E(eV)
   0   2.0000     -20.551174      -559.2259
   1   2.0000     -11.270090      -306.6747
   2   2.0000     -11.267762      -306.6114
   3   2.0000     -11.240058      -305.8575
   4   2.0000     -11.239710      -305.8481
   5   2.0000     -11.232239      -305.6448
   6   2.0000     -11.225013      -305.4481
   7   2.0000     -11.223648      -305.4110
   8   2.0000     -11.213711      -305.1406
   9   2.0000      -1.372544       -37.3488
  10   2.0000      -1.206306       -32.8253
  11   2.0000      -1.038973       -28.2719
  12   2.0000      -0.935218       -25.4486
  13   2.0000      -0.902744       -24.5649
  14   2.0000      -0.869099       -23.6494
  15   2.0000      -0.850118       -23.1329
  16   2.0000      -0.812906       -22.1203
  17   2.0000      -0.716516       -19.4974
  18   2.0000      -0.671151       -18.2630
  19   2.0000      -0.669562       -18.2197
  20   2.0000      -0.647388       -17.6163
  21   2.0000      -0.631054       -17.1719
  22   2.0000      -0.620065       -16.8728
  23   2.0000      -0.583639       -15.8816
  24   2.0000      -0.567526       -15.4432
  25   2.0000      -0.521181       -14.1821
  26   2.0000      -0.498927       -13.5765
  27   2.0000      -0.491822       -13.3832
  28   2.0000      -0.477150       -12.9839
  29   2.0000      -0.453076       -12.3288
  30   2.0000      -0.440984       -11.9998
  31   2.0000      -0.438772       -11.9396
  32   2.0000      -0.437157       -11.8956
  33   2.0000      -0.422137       -11.4869
  34   2.0000      -0.418732       -11.3943
  35   0.0000       0.142274         3.8715
  36   0.0000       0.158408         4.3105
  37   0.0000       0.166771         4.5381
  38   0.0000       0.167171         4.5490
  39   0.0000       0.171712         4.6725

MULLIKEN ATOMIC CHARGES
-----------------------
   0 C :   -0.213777
   1 O :   -0.300030
   2 C :   -0.070591
   3 C :   -0.164578
   4 C :   -0.124366
   5 C :   -0.143433
   6 C :   -0.225654
   7 C :   -0.114111
   8 C :   -0.199230
   9 H :    0.109206
  10 H :    0.138063
  11 H :    0.109099
  12 H :    0.089404
  13 H :    0.092910
  14 H :    0.107807
  15 H :    0.115227
  16 H :    0.092874
  17 H :    0.129669
  18 H :    0.108446
  19 H :    0.115288
  20 H :    0.128056
  21 H :    0.108056
  22 H :    0.111664
Sum of atomic charges:   -0.0000000

LOEWDIN ATOMIC CHARGES
----------------------
   0 C :   -0.364900
   1 O :    0.133481
   2 C :   -0.327282
   3 C :   -0.246980
   4 C :   -0.187331
   5 C :   -0.171320
   6 C :   -0.198656
   7 C :   -0.167471
   8 C :   -0.200329
   9 H :    0.100303
  10 H :    0.112877
  11 H :    0.100278
  12 H :    0.117842
  13 H :    0.118658
  14 H :    0.141036
  15 H :    0.144606
  16 H :    0.146941
  17 H :    0.121583
  18 H :    0.127211
  19 H :    0.123443
  20 H :    0.123042
  21 H :    0.126116
  22 H :    0.126853

  Mayer bond orders larger than 0.1
B(  0-C ,  1-O ) :   0.9223 B(  0-C ,  9-H ) :   0.9374 B(  0-C , 10-H ) :   0.9398
B(  0-C , 11-H ) :   0.9367 B(  1-O ,  2-C ) :   0.9635 B(  2-C ,  3-C ) :   0.9379
B(  2-C , 12-H ) :   0.9285 B(  2-C , 13-H ) :   0.9262 B(  3-C ,  4-C ) :   0.9083
B(  3-C , 14-H ) :   0.9194 B(  3-C , 15-H ) :   0.9275 B(  4-C ,  5-C ) :   0.8972
B(  4-C ,  7-C ) :   0.8860 B(  4-C , 16-H ) :   0.9245 B(  5-C ,  6-C ) :   0.9075
B(  5-C ,  8-C ) :   0.9113 B(  5-C , 17-H ) :   0.8898 B(  6-C ,  7-C ) :   0.9098
B(  6-C , 18-H ) :   0.9291 B(  6-C , 19-H ) :   0.9279 B(  7-C ,  8-C ) :   0.9070
B(  7-C , 20-H ) :   0.8947 B(  8-C , 21-H ) :   0.9303 B(  8-C , 22-H ) :   0.9271

MP2 TOTAL ENERGY:     -387.548927526 Eh
FINAL SINGLE POINT ENERGY      -387.548927526304

DIPOLE MOMENT
-------------
                                X             Y             Z
Electronic contribution:      0.08723      -1.82801      -0.83677
Nuclear contribution   :      0.01930       2.05293       1.18020
                        -----------------------------------------
Total Dipole Moment    :      0.10654       0.22492       0.34344
                        -----------------------------------------
Magnitude (a.u.)       :      0.42413
Magnitude (Debye)      :      1.07806

                             ****ORCA TERMINATED NORMALLY****
TOTAL RUN TIME: 0 days 0 hours 17 minutes 27 seconds 855 msec
