                         Program Version 3.0.3 - RELEASE   -
|  1> ! RI-MP2 RIJK def2-TZVP def2-TZVP/C def2-TZVP/JK TIGHTSCF
|  2> % maxcore 2000
|  3> % mp2 density relaxed end
|  4> *xyz 0 1
|  5>  C       -0.3208967793     1.4101493755    -0.0027746953
|  6>  C        0.1540199815    -0.0444948190    -0.0434638238
|  7>  C        0.6461767706    -0.5293338481     1.3124050545
|  8>  O        1.0625054102    -1.8842811401     1.1746699788
|  9>  C        1.5407500583    -2.4646385446     2.3521224577
| 10>  C        0.5089195483    -3.0107805440     3.3289193273
| 11>  C        1.2971444588    -3.9491016421     2.4521096131
| 12>  C        2.7701360427    -1.9156997986     2.8712494130
| 13>  C        3.7919602513    -1.4410585325     3.2929456878
| 14>  H        0.4854257140     2.0847872940     0.3052482545
| 15>  H       -0.6690264016     1.7370196330    -0.9867678799
| 16>  H       -1.1491051242     1.5409923748     0.7025172018
| 17>  H       -0.6583710788    -0.7005513233    -0.3771404388
| 18>  H        0.9664472558    -0.1595354537    -0.7698651897
| 19>  H        1.4857583754     0.0879378314     1.6641171811
| 20>  H       -0.1541244286    -0.4566778458     2.0660934566
| 21>  H        0.7335158131    -2.9703660504     4.3880956112
| 22>  H       -0.5273000594    -2.8329190037     3.0648149381
| 23>  H        0.7893247069    -4.3897659652     1.6022160339
| 24>  H        2.0721778449    -4.5579054491     2.9013307216
| 25>  H        4.6982244602    -1.0301309884     3.6635985767
| 26> *
| 27>
| 28>                          ****END OF INPUT****

CARTESIAN COORDINATES (ANGSTROEM)
---------------------------------
  C     -0.320897    1.410149   -0.002775
  C      0.154020   -0.044495   -0.043464
  C      0.646177   -0.529334    1.312405
  O      1.062505   -1.884281    1.174670
  C      1.540750   -2.464639    2.352122
  C      0.508920   -3.010781    3.328919
  C      1.297144   -3.949102    2.452110
  C      2.770136   -1.915700    2.871249
  C      3.791960   -1.441059    3.292946
  H      0.485426    2.084787    0.305248
  H     -0.669026    1.737020   -0.986768
  H     -1.149105    1.540992    0.702517
  H     -0.658371   -0.700551   -0.377140
  H      0.966447   -0.159535   -0.769865
  H      1.485758    0.087938    1.664117
  H     -0.154124   -0.456678    2.066093
  H      0.733516   -2.970366    4.388096
  H     -0.527300   -2.832919    3.064815
  H      0.789325   -4.389766    1.602216
  H      2.072178   -4.557905    2.901331
  H      4.698224   -1.030131    3.663599

 Total Charge           Charge          ....    0
 Multiplicity           Mult            ....    1
 Number of Electrons    NEL             ....   68
 Basis Dimension        Dim             ....  351

ORBITAL ENERGIES
----------------

  NO   OCC          E(Eh)            E(eV)
   0   2.0000     -20.563356      -559.5574
   1   2.0000     -11.310938      -307.7863
   2   2.0000     -11.270964      -306.6985
   3   2.0000     -11.237277      -305.7819
   4   2.0000     -11.235849      -305.7430
   5   2.0000     -11.235551      -305.7349
   6   2.0000     -11.226053      -305.4764
   7   2.0000     -11.219018      -305.2850
   8   2.0000     -11.216145      -305.2068
   9   2.0000      -1.388537       -37.7840
  10   2.0000      -1.149172       -31.2706
  11   2.0000      -1.049866       -28.5683
  12   2.0000      -1.027360       -27.9559
  13   2.0000      -0.924792       -25.1649
  14   2.0000      -0.852556       -23.1992
  15   2.0000      -0.839533       -22.8449
  16   2.0000      -0.805300       -21.9133
  17   2.0000      -0.730067       -19.8661
  18   2.0000      -0.696182       -18.9441
  19   2.0000      -0.673013       -18.3136
  20   2.0000      -0.646258       -17.5856
  21   2.0000      -0.616505       -16.7760
  22   2.0000      -0.598992       -16.2994
  23   2.0000      -0.575027       -15.6473
  24   2.0000      -0.547999       -14.9118
  25   2.0000      -0.527792       -14.3619
  26   2.0000      -0.506828       -13.7915
  27   2.0000      -0.495991       -13.4966
  28   2.0000      -0.473555       -12.8861
  29   2.0000      -0.468012       -12.7353
  30   2.0000      -0.453895       -12.3511
  31   2.0000      -0.424321       -11.5464
  32   2.0000      -0.395596       -10.7647
  33   2.0000      -0.360039        -9.7972
  34   0.0000       0.136184         3.7057
  35   0.0000       0.160721         4.3734
  36   0.0000       0.161633         4.3982
  37   0.0000       0.168526         4.5858
  38   0.0000       0.171233         4.6595

MULLIKEN ATOMIC CHARGES
-----------------------
   0 C :   -0.407682
   1 C :   -0.165952
   2 C :   -0.069476
   3 O :   -0.281757
   4 C :    0.087220
   5 C :   -0.272458
   6 C :   -0.259297
   7 C :   -0.031325
   8 C :   -0.159121
   9 H :    0.125368
  10 H :    0.138060
  11 H :    0.123331
  12 H :    0.109975
  13 H :    0.115937
  14 H :    0.109211
  15 H :    0.090780
  16 H :    0.138927
  17 H :    0.136984
  18 H :    0.138458
  19 H :    0.142116
  20 H :    0.190703
Sum of atomic charges:   -0.0000000

LOEWDIN ATOMIC CHARGES
----------------------
   0 C :   -0.319217
   1 C :   -0.294661
   2 C :   -0.306448
   3 O :    0.224702
   4 C :   -0.342530
   5 C :   -0.192786
   6 C :   -0.181652
   7 C :   -0.069195
   8 C :   -0.089041
   9 H :    0.121343
  10 H :    0.122699
  11 H :    0.120546
  12 H :    0.136573
  13 H :    0.138552
  14 H :    0.126806
  15 H :    0.120188
  16 H :    0.137039
  17 H :    0.138842
  18 H :    0.141887
  19 H :    0.139066
  20 H :    0.127286

  Mayer bond orders larger than 0.1
B(  0-C ,  1-C ) :   0.9133 B(  0-C ,  9-H ) :   0.9366 B(  0-C , 10-H ) :   0.9400
B(  0-C , 11-H ) :   0.9374 B(  1-C ,  2-C ) :   0.9511 B(  1-C , 12-H ) :   0.9309
B(  1-C , 13-H ) :   0.9298 B(  2-C ,  3-O ) :   0.8985 B(  2-C , 14-H ) :   0.9182
B(  2-C , 15-H ) :   0.9207 B(  3-O ,  4-C ) :   1.0194 B(  4-C ,  5-C ) :   0.8820
B(  4-C ,  6-C ) :   0.8436 B(  4-C ,  7-C ) :   1.1134 B(  4-C ,  8-C ) :  -0.1043
B(  5-C ,  6-C ) :   0.9317 B(  5-C , 16-H ) :   0.9203 B(  5-C , 17-H ) :   0.9172
B(  6-C , 18-H ) :   0.9155 B(  6-C , 19-H ) :   0.9271 B(  7-C ,  8-C ) :   2.5889
B(  8-C , 20-H ) :   0.8967

MP2 TOTAL ENERGY:     -386.345838826 Eh
FINAL SINGLE POINT ENERGY      -386.345838826095

DIPOLE MOMENT
-------------
                                X             Y             Z
Electronic contribution:      5.83305      -5.67400       3.51512
Nuclear contribution   :     -6.01869       5.87123      -3.22781
                        -----------------------------------------
Total Dipole Moment    :     -0.18565       0.19723       0.28731
                        -----------------------------------------
Magnitude (a.u.)       :      0.39486
Magnitude (Debye)      :      1.00364

                             ****ORCA TERMINATED NORMALLY****
TOTAL RUN TIME: 0 days 0 hours 17 minutes 57 seconds 522 msec
