                         Program Version 3.0.3 - RELEASE   -
|  1> ! RI-MP2 RIJK def2-TZVP def2-TZVP/C def2-TZVP/JK TIGHTSCF
|  2> % maxcore 2000
|  3> % mp2 density relaxed end
|  4> *xyz 0 1
|  5>  O       -0.0846359652     0.5426667457    -0.0348805998
|  6>  C        0.5459962620     1.3535233464    -0.6532783029
|  7>  C        1.9954628738     1.6892219189    -0.3197606080
|  8>  O        2.4784961280     2.8079487368    -1.0763826495
|  9>  C        1.9652366760     3.9979195785    -0.7288701304
| 10>  O        1.1500932131     4.1670229001     0.1373091068
| 11>  C        2.5787912568     5.1418522806    -1.5356106878
| 12>  C        3.0876783883     4.7768515450    -2.8525607180
| 13>  N        3.4853024639     4.5101005877    -3.9030157450
| 14>  H        0.1344645577     1.8956568014    -1.5329087277
| 15>  H        2.0873563725     1.8725672558     0.7534167383
| 16>  H        2.6357179956     0.8510469054    -0.6058299359
| 17>  H        1.8214339934     5.9249499556    -1.6227815694
| 18>  H        3.3963323242     5.5595703122    -0.9350184106
| 19> *
| 20>
| 21>                          ****END OF INPUT****

CARTESIAN COORDINATES (ANGSTROEM)
---------------------------------
  O     -0.084636    0.542667   -0.034881
  C      0.545996    1.353523   -0.653278
  C      1.995463    1.689222   -0.319761
  O      2.478496    2.807949   -1.076383
  C      1.965237    3.997920   -0.728870
  O      1.150093    4.167023    0.137309
  C      2.578791    5.141852   -1.535611
  C      3.087678    4.776852   -2.852561
  N      3.485302    4.510101   -3.903016
  H      0.134465    1.895657   -1.532909
  H      2.087356    1.872567    0.753417
  H      2.635718    0.851047   -0.605830
  H      1.821434    5.924950   -1.622782
  H      3.396332    5.559570   -0.935018

 Total Charge           Charge          ....    0
 Multiplicity           Mult            ....    1
 Number of Electrons    NEL             ....   66
 Basis Dimension        Dim             ....  309

ORBITAL ENERGIES
----------------

  NO   OCC          E(Eh)            E(eV)
   0   2.0000     -20.650073      -561.9171
   1   2.0000     -20.589577      -560.2709
   2   2.0000     -20.579256      -559.9900
   3   2.0000     -15.593395      -424.3178
   4   2.0000     -11.432464      -311.0932
   5   2.0000     -11.356837      -309.0352
   6   2.0000     -11.329929      -308.3030
   7   2.0000     -11.324798      -308.1634
   8   2.0000     -11.297828      -307.4295
   9   2.0000      -1.511826       -41.1389
  10   2.0000      -1.421413       -38.6786
  11   2.0000      -1.409129       -38.3443
  12   2.0000      -1.241927       -33.7945
  13   2.0000      -1.108601       -30.1666
  14   2.0000      -1.031599       -28.0712
  15   2.0000      -0.871106       -23.7040
  16   2.0000      -0.817352       -22.2413
  17   2.0000      -0.778375       -21.1807
  18   2.0000      -0.738269       -20.0893
  19   2.0000      -0.720723       -19.6119
  20   2.0000      -0.693097       -18.8601
  21   2.0000      -0.670529       -18.2460
  22   2.0000      -0.666052       -18.1242
  23   2.0000      -0.630971       -17.1696
  24   2.0000      -0.607720       -16.5369
  25   2.0000      -0.585825       -15.9411
  26   2.0000      -0.577682       -15.7195
  27   2.0000      -0.532098       -14.4791
  28   2.0000      -0.521609       -14.1937
  29   2.0000      -0.516613       -14.0578
  30   2.0000      -0.482027       -13.1166
  31   2.0000      -0.472240       -12.8503
  32   2.0000      -0.442593       -12.0436
  33   0.0000       0.105410         2.8684
  34   0.0000       0.113047         3.0762
  35   0.0000       0.125633         3.4187
  36   0.0000       0.150285         4.0895
  37   0.0000       0.161415         4.3923

MULLIKEN ATOMIC CHARGES
-----------------------
   0 O :   -0.247635
   1 C :    0.083409
   2 C :   -0.018248
   3 O :   -0.235583
   4 C :    0.276343
   5 O :   -0.300562
   6 C :   -0.122128
   7 C :   -0.165208
   8 N :   -0.053890
   9 H :    0.098039
  10 H :    0.149633
  11 H :    0.163826
  12 H :    0.189420
  13 H :    0.182584
Sum of atomic charges:   -0.0000000

LOEWDIN ATOMIC CHARGES
----------------------
   0 O :    0.154003
   1 C :   -0.292901
   2 C :   -0.267577
   3 O :    0.273495
   4 C :   -0.476422
   5 O :    0.150740
   6 C :   -0.202431
   7 C :   -0.189200
   8 N :    0.072924
   9 H :    0.116211
  10 H :    0.146197
  11 H :    0.149961
  12 H :    0.180550
  13 H :    0.184450

  Mayer bond orders larger than 0.1
B(  0-O ,  1-C ) :   1.9941 B(  1-C ,  2-C ) :   0.8565 B(  1-C ,  9-H ) :   0.9281
B(  2-C ,  3-O ) :   0.8352 B(  2-C , 10-H ) :   0.9149 B(  2-C , 11-H ) :   0.9057
B(  3-O ,  4-C ) :   1.1214 B(  4-C ,  5-O ) :   1.9427 B(  4-C ,  6-C ) :   0.9147
B(  6-C ,  7-C ) :   0.9021 B(  6-C , 12-H ) :   0.9114 B(  6-C , 13-H ) :   0.8875
B(  7-C ,  8-N ) :   2.8446

MP2 TOTAL ENERGY:     -473.109374105 Eh
FINAL SINGLE POINT ENERGY      -473.109374104717

DIPOLE MOMENT
-------------
                                X             Y             Z
Electronic contribution:     -0.16763       0.32264      -1.17501
Nuclear contribution   :      0.65175       0.19828       1.76178
                        -----------------------------------------
Total Dipole Moment    :      0.48412       0.52093       0.58677
                        -----------------------------------------
Magnitude (a.u.)       :      0.92197
Magnitude (Debye)      :      2.34347

                             ****ORCA TERMINATED NORMALLY****
TOTAL RUN TIME: 0 days 0 hours 12 minutes 20 seconds 508 msec
