                         Program Version 3.0.3 - RELEASE   -
|  1> ! RI-MP2 RIJK def2-TZVP def2-TZVP/C def2-TZVP/JK TIGHTSCF
|  2> % maxcore 2000
|  3> % mp2 density relaxed end
|  4> *xyz 0 1
|  5>  O        0.0564192346     0.0341503887    -0.1467321566
|  6>  C        0.0211305396     1.2350087822    -0.0394830029
|  7>  C       -1.2451056979     2.0987102041     0.0388533362
|  8>  N       -0.7189204277     3.4498678914     0.0055284439
|  9>  C        0.6499907728     3.5716161042    -0.0376533529
| 10>  O        1.2772471742     4.6043403795    -0.0505119427
| 11>  C        1.1850658412     2.1626160601    -0.0145821178
| 12>  C        2.4339538294     1.7900165045     0.7312176584
| 13>  N        2.4307005138     1.8057445195    -0.7170218641
| 14>  H       -1.9044809492     1.8688411508    -0.8070208269
| 15>  H       -1.7931791788     1.8727127549     0.9631555800
| 16>  H       -1.2972479967     4.2735441462     0.0546448629
| 17>  H        2.9802619132     2.6050366392     1.1966346911
| 18>  H        2.4234820627     0.8379691495     1.2551266073
| 19>  H        2.3096190188     0.8519692450    -1.0625796060
| 20> *
| 21>
| 22>                          ****END OF INPUT****

CARTESIAN COORDINATES (ANGSTROEM)
---------------------------------
  O      0.056419    0.034150   -0.146732
  C      0.021131    1.235009   -0.039483
  C     -1.245106    2.098710    0.038853
  N     -0.718920    3.449868    0.005528
  C      0.649991    3.571616   -0.037653
  O      1.277247    4.604340   -0.050512
  C      1.185066    2.162616   -0.014582
  C      2.433954    1.790017    0.731218
  N      2.430701    1.805745   -0.717022
  H     -1.904481    1.868841   -0.807021
  H     -1.793179    1.872713    0.963156
  H     -1.297248    4.273544    0.054645
  H      2.980262    2.605037    1.196635
  H      2.423482    0.837969    1.255127
  H      2.309619    0.851969   -1.062580

 Total Charge           Charge          ....    0
 Multiplicity           Mult            ....    1
 Number of Electrons    NEL             ....   66
 Basis Dimension        Dim             ....  315

ORBITAL ENERGIES
----------------

  NO   OCC          E(Eh)            E(eV)
   0   2.0000     -20.577471      -559.9415
   1   2.0000     -20.532895      -558.7285
   2   2.0000     -15.605659      -424.6516
   3   2.0000     -15.597703      -424.4351
   4   2.0000     -11.367288      -309.3196
   5   2.0000     -11.364324      -309.2390
   6   2.0000     -11.305659      -307.6426
   7   2.0000     -11.295719      -307.3721
   8   2.0000     -11.294354      -307.3350
   9   2.0000      -1.424254       -38.7559
  10   2.0000      -1.398685       -38.0601
  11   2.0000      -1.300479       -35.3878
  12   2.0000      -1.268708       -34.5233
  13   2.0000      -1.024296       -27.8725
  14   2.0000      -0.985197       -26.8086
  15   2.0000      -0.906855       -24.6768
  16   2.0000      -0.816356       -22.2142
  17   2.0000      -0.784596       -21.3499
  18   2.0000      -0.726551       -19.7705
  19   2.0000      -0.690334       -18.7849
  20   2.0000      -0.677945       -18.4478
  21   2.0000      -0.672724       -18.3058
  22   2.0000      -0.644866       -17.5477
  23   2.0000      -0.620015       -16.8715
  24   2.0000      -0.605616       -16.4797
  25   2.0000      -0.577510       -15.7148
  26   2.0000      -0.555708       -15.1216
  27   2.0000      -0.534451       -14.5432
  28   2.0000      -0.497847       -13.5471
  29   2.0000      -0.461281       -12.5521
  30   2.0000      -0.433277       -11.7901
  31   2.0000      -0.416466       -11.3326
  32   2.0000      -0.408122       -11.1056
  33   0.0000       0.094049         2.5592
  34   0.0000       0.123397         3.3578
  35   0.0000       0.147320         4.0088
  36   0.0000       0.162834         4.4309
  37   0.0000       0.167143         4.5482

MULLIKEN ATOMIC CHARGES
-----------------------
   0 O :   -0.286059
   1 C :    0.146033
   2 C :   -0.090985
   3 N :   -0.296936
   4 C :    0.164854
   5 O :   -0.317731
   6 C :    0.159341
   7 C :   -0.194677
   8 N :   -0.369004
   9 H :    0.147002
  10 H :    0.145060
  11 H :    0.246538
  12 H :    0.157206
  13 H :    0.150389
  14 H :    0.238970
Sum of atomic charges:   -0.0000000

LOEWDIN ATOMIC CHARGES
----------------------
   0 O :    0.159831
   1 C :   -0.289845
   2 C :   -0.228354
   3 N :    0.122919
   4 C :   -0.416246
   5 O :    0.109609
   6 C :   -0.242315
   7 C :   -0.202784
   8 N :    0.055307
   9 H :    0.144960
  10 H :    0.144940
  11 H :    0.186561
  12 H :    0.140940
  13 H :    0.132484
  14 H :    0.181993

  Mayer bond orders larger than 0.1
B(  0-O ,  1-C ) :   1.9862 B(  1-C ,  2-C ) :   0.9428 B(  1-C ,  6-C ) :   0.9147
B(  2-C ,  3-N ) :   0.8752 B(  2-C ,  9-H ) :   0.9140 B(  2-C , 10-H ) :   0.9046
B(  3-N ,  4-C ) :   1.1716 B(  3-N , 11-H ) :   0.8585 B(  4-C ,  5-O ) :   2.0657
B(  4-C ,  6-C ) :   0.8438 B(  6-C ,  7-C ) :   0.8323 B(  6-C ,  8-N ) :   0.8318
B(  7-C ,  8-N ) :   0.9891 B(  7-C , 12-H ) :   0.9173 B(  7-C , 13-H ) :   0.9126
B(  8-N , 14-H ) :   0.8581

MP2 TOTAL ENERGY:     -453.237007677 Eh
FINAL SINGLE POINT ENERGY      -453.237007676681

DIPOLE MOMENT
-------------
                                X             Y             Z
Electronic contribution:      0.08762       0.93896      -1.09795
Nuclear contribution   :     -1.22503      -1.41996       1.64532
                        -----------------------------------------
Total Dipole Moment    :     -1.13741      -0.48101       0.54737
                        -----------------------------------------
Magnitude (a.u.)       :      1.35081
Magnitude (Debye)      :      3.43348

                             ****ORCA TERMINATED NORMALLY****
TOTAL RUN TIME: 0 days 0 hours 16 minutes 1 seconds 250 msec
