                         Program Version 3.0.3 - RELEASE   -
|  1> ! RI-MP2 RIJK def2-TZVP def2-TZVP/C def2-TZVP/JK TIGHTSCF
|  2> % maxcore 2000
|  3> % mp2 density relaxed end
|  4> *xyz 0 1
|  5>  C       -0.0178801962     1.4160376065     0.0861642414
|  6>  N        0.0648081656    -0.0356738049     0.0326891635
|  7>  C        0.5458366577    -0.5968627785    -0.9784230795
|  8>  O        1.0452329197    -0.0381819333    -2.1315132588
|  9>  N        1.4689021362    -1.0656917327    -3.0241553933
| 10>  C        1.2368808612    -2.1676919275    -2.4120010242
| 11>  N        0.6811346756    -1.9887644961    -1.1627495028
| 12>  C        0.3145233732    -2.9887696293    -0.2603996776
| 13>  O        0.4591770179    -4.1592195004    -0.4965545159
| 14>  H        0.7854767736     1.8089434977     0.7205807820
| 15>  H        0.0509657416     1.8998043377    -0.8945661838
| 16>  H       -0.9660419247     1.6975697378     0.5530433988
| 17>  H        1.4472656074    -3.1452759605    -2.8162149869
| 18>  H       -0.1080288489    -2.5584327766     0.6590504470
| 19> *
| 20>
| 21>                          ****END OF INPUT****

CARTESIAN COORDINATES (ANGSTROEM)
---------------------------------
  C     -0.017880    1.416038    0.086164
  N      0.064808   -0.035674    0.032689
  C      0.545837   -0.596863   -0.978423
  O      1.045233   -0.038182   -2.131513
  N      1.468902   -1.065692   -3.024155
  C      1.236881   -2.167692   -2.412001
  N      0.681135   -1.988764   -1.162750
  C      0.314523   -2.988770   -0.260400
  O      0.459177   -4.159220   -0.496555
  H      0.785477    1.808943    0.720581
  H      0.050966    1.899804   -0.894566
  H     -0.966042    1.697570    0.553043
  H      1.447266   -3.145276   -2.816215
  H     -0.108029   -2.558433    0.659050

 Total Charge           Charge          ....    0
 Multiplicity           Mult            ....    1
 Number of Electrons    NEL             ....   66
 Basis Dimension        Dim             ....  309

ORBITAL ENERGIES
----------------

  NO   OCC          E(Eh)            E(eV)
   0   2.0000     -20.655456      -562.0635
   1   2.0000     -20.581843      -560.0604
   2   2.0000     -15.662017      -426.1851
   3   2.0000     -15.658321      -426.0846
   4   2.0000     -15.561274      -423.4438
   5   2.0000     -11.403394      -310.3021
   6   2.0000     -11.399500      -310.1962
   7   2.0000     -11.358832      -309.0895
   8   2.0000     -11.258992      -306.3728
   9   2.0000      -1.520500       -41.3749
  10   2.0000      -1.440050       -39.1857
  11   2.0000      -1.315529       -35.7974
  12   2.0000      -1.265953       -34.4483
  13   2.0000      -1.167765       -31.7765
  14   2.0000      -0.974806       -26.5258
  15   2.0000      -0.955268       -25.9942
  16   2.0000      -0.880756       -23.9666
  17   2.0000      -0.821371       -22.3506
  18   2.0000      -0.742379       -20.2012
  19   2.0000      -0.717593       -19.5267
  20   2.0000      -0.715317       -19.4648
  21   2.0000      -0.675300       -18.3759
  22   2.0000      -0.652970       -17.7682
  23   2.0000      -0.612195       -16.6587
  24   2.0000      -0.605077       -16.4650
  25   2.0000      -0.594994       -16.1906
  26   2.0000      -0.578757       -15.7488
  27   2.0000      -0.537325       -14.6213
  28   2.0000      -0.514993       -14.0137
  29   2.0000      -0.484800       -13.1921
  30   2.0000      -0.484028       -13.1711
  31   2.0000      -0.435878       -11.8608
  32   2.0000      -0.367720       -10.0062
  33   0.0000       0.090345         2.4584
  34   0.0000       0.140690         3.8284
  35   0.0000       0.143469         3.9040
  36   0.0000       0.162707         4.4275
  37   0.0000       0.175231         4.7683

MULLIKEN ATOMIC CHARGES
-----------------------
   0 C :   -0.283583
   1 N :   -0.307822
   2 C :    0.278773
   3 O :   -0.163573
   4 N :   -0.098268
   5 C :    0.013417
   6 N :   -0.087290
   7 C :    0.172903
   8 O :   -0.293032
   9 H :    0.141451
  10 H :    0.136999
  11 H :    0.143767
  12 H :    0.196699
  13 H :    0.149559
Sum of atomic charges:    0.0000000

LOEWDIN ATOMIC CHARGES
----------------------
   0 C :   -0.322723
   1 N :    0.057553
   2 C :   -0.412225
   3 O :    0.216941
   4 N :    0.056887
   5 C :   -0.264271
   6 N :    0.223408
   7 C :   -0.324702
   8 O :    0.124968
   9 H :    0.121369
  10 H :    0.113568
  11 H :    0.119486
  12 H :    0.155842
  13 H :    0.133900

  Mayer bond orders larger than 0.1
B(  0-C ,  1-N ) :   0.8669 B(  0-C ,  9-H ) :   0.9315 B(  0-C , 10-H ) :   0.9325
B(  0-C , 11-H ) :   0.9375 B(  1-N ,  2-C ) :   1.8531 B(  2-C ,  3-O ) :   1.0689
B(  2-C ,  6-N ) :   0.9747 B(  3-O ,  4-N ) :   0.8122 B(  4-N ,  5-C ) :   1.7349
B(  5-C ,  6-N ) :   1.0460 B(  5-C , 12-H ) :   0.9084 B(  6-N ,  7-C ) :   0.9728
B(  7-C ,  8-O ) :   1.9423 B(  7-C , 13-H ) :   0.9158

MP2 TOTAL ENERGY:     -469.239161575 Eh
FINAL SINGLE POINT ENERGY      -469.239161575439

DIPOLE MOMENT
-------------
                                X             Y             Z
Electronic contribution:      1.75968      -5.45436      -3.44746
Nuclear contribution   :     -1.86017       5.71048       3.66817
                        -----------------------------------------
Total Dipole Moment    :     -0.10048       0.25612       0.22071
                        -----------------------------------------
Magnitude (a.u.)       :      0.35271
Magnitude (Debye)      :      0.89653

                             ****ORCA TERMINATED NORMALLY****
TOTAL RUN TIME: 0 days 0 hours 13 minutes 36 seconds 213 msec
