                         Program Version 3.0.3 - RELEASE   -
|  1> ! RI-MP2 RIJK def2-TZVP def2-TZVP/C def2-TZVP/JK TIGHTSCF
|  2> % maxcore 2000
|  3> % mp2 density relaxed end
|  4> *xyz 0 1
|  5>  O       -0.0951076467     1.3367256344    -0.0974363359
|  6>  C       -0.2139486204    -0.0442298489    -0.1195705063
|  7>  C       -0.4759068744    -0.8381626402     1.1266465925
|  8>  N       -1.2985577214     0.0340418412     1.9969869055
|  9>  C       -2.4418297355    -0.0619915393     1.0199973721
| 10>  C       -1.5324412101    -0.7778445777     0.0227381704
| 11>  O       -1.9909729023    -1.7720665673    -0.8417267020
| 12>  C       -2.1499552896    -1.4246021105    -2.1479545525
| 13>  O       -2.5678302652    -2.1905880298    -2.9592775284
| 14>  H       -0.3112372028     1.5987296220     0.8116317366
| 15>  H        0.4702069273    -0.5169832272    -0.8198685150
| 16>  H        0.1527970251    -1.6321587212     1.5102196489
| 17>  H       -1.5268213647    -0.4161123692     2.8758928045
| 18>  H       -3.2401473093    -0.7215833260     1.3702517823
| 19>  H       -2.8589932321     0.9051034734     0.7219373573
| 20>  H       -1.8477443276    -0.3809248536    -2.3467136700
| 21> *
| 22>
| 23>                          ****END OF INPUT****

CARTESIAN COORDINATES (ANGSTROEM)
---------------------------------
  O     -0.095108    1.336726   -0.097436
  C     -0.213949   -0.044230   -0.119571
  C     -0.475907   -0.838163    1.126647
  N     -1.298558    0.034042    1.996987
  C     -2.441830   -0.061992    1.019997
  C     -1.532441   -0.777845    0.022738
  O     -1.990973   -1.772067   -0.841727
  C     -2.149955   -1.424602   -2.147955
  O     -2.567830   -2.190588   -2.959278
  H     -0.311237    1.598730    0.811632
  H      0.470207   -0.516983   -0.819869
  H      0.152797   -1.632159    1.510220
  H     -1.526821   -0.416112    2.875893
  H     -3.240147   -0.721583    1.370252
  H     -2.858993    0.905103    0.721937
  H     -1.847744   -0.380925   -2.346714

 Total Charge           Charge          ....    0
 Multiplicity           Mult            ....    1
 Number of Electrons    NEL             ....   68
 Basis Dimension        Dim             ....  321

ORBITAL ENERGIES
----------------

  NO   OCC          E(Eh)            E(eV)
   0   2.0000     -20.624149      -561.2116
   1   2.0000     -20.573113      -559.8229
   2   2.0000     -20.560722      -559.4857
   3   2.0000     -15.582140      -424.0116
   4   2.0000     -11.390664      -309.9557
   5   2.0000     -11.318244      -307.9851
   6   2.0000     -11.310598      -307.7770
   7   2.0000     -11.289700      -307.2084
   8   2.0000     -11.284737      -307.0733
   9   2.0000      -1.475588       -40.1528
  10   2.0000      -1.396159       -37.9914
  11   2.0000      -1.383172       -37.6380
  12   2.0000      -1.277359       -34.7587
  13   2.0000      -1.086272       -29.5590
  14   2.0000      -0.967375       -26.3236
  15   2.0000      -0.886074       -24.1113
  16   2.0000      -0.832594       -22.6560
  17   2.0000      -0.805300       -21.9133
  18   2.0000      -0.762082       -20.7373
  19   2.0000      -0.710783       -19.3414
  20   2.0000      -0.683210       -18.5911
  21   2.0000      -0.672647       -18.3037
  22   2.0000      -0.652044       -17.7430
  23   2.0000      -0.635112       -17.2823
  24   2.0000      -0.615480       -16.7481
  25   2.0000      -0.595284       -16.1985
  26   2.0000      -0.555739       -15.1224
  27   2.0000      -0.549168       -14.9436
  28   2.0000      -0.540263       -14.7013
  29   2.0000      -0.502613       -13.6768
  30   2.0000      -0.472472       -12.8566
  31   2.0000      -0.450957       -12.2712
  32   2.0000      -0.408999       -11.1294
  33   2.0000      -0.388082       -10.5603
  34   0.0000       0.120437         3.2773
  35   0.0000       0.137823         3.7504
  36   0.0000       0.153874         4.1871
  37   0.0000       0.155891         4.2420
  38   0.0000       0.170639         4.6433

MULLIKEN ATOMIC CHARGES
-----------------------
   0 O :   -0.462193
   1 C :    0.003663
   2 C :   -0.049197
   3 N :   -0.397868
   4 C :   -0.158111
   5 C :    0.089661
   6 O :   -0.206227
   7 C :    0.179701
   8 O :   -0.255122
   9 H :    0.344966
  10 H :    0.145919
  11 H :    0.151149
  12 H :    0.219889
  13 H :    0.146613
  14 H :    0.132830
  15 H :    0.114327
Sum of atomic charges:   -0.0000000

LOEWDIN ATOMIC CHARGES
----------------------
   0 O :    0.008480
   1 C :   -0.301843
   2 C :   -0.195071
   3 N :   -0.018533
   4 C :   -0.215919
   5 C :   -0.299332
   6 O :    0.284232
   7 C :   -0.423544
   8 O :    0.132836
   9 H :    0.190550
  10 H :    0.155541
  11 H :    0.136770
  12 H :    0.167148
  13 H :    0.136272
  14 H :    0.127675
  15 H :    0.114737

  Mayer bond orders larger than 0.1
B(  0-O ,  1-C ) :   0.9966 B(  0-O ,  9-H ) :   0.8034 B(  1-C ,  2-C ) :   0.9113
B(  1-C ,  5-C ) :   0.8536 B(  1-C , 10-H ) :   0.9504 B(  2-C ,  3-N ) :   0.9322
B(  2-C ,  5-C ) :   0.8573 B(  2-C , 11-H ) :   0.8955 B(  3-N ,  4-C ) :   0.8956
B(  3-N , 12-H ) :   0.8794 B(  4-C ,  5-C ) :   0.9144 B(  4-C , 13-H ) :   0.9229
B(  4-C , 14-H ) :   0.9203 B(  5-C ,  6-O ) :   0.9286 B(  6-O ,  7-C ) :   1.0054
B(  7-C ,  8-O ) :   2.0452 B(  7-C , 15-H ) :   0.9183

MP2 TOTAL ENERGY:     -474.228867096 Eh
FINAL SINGLE POINT ENERGY      -474.228867095958

DIPOLE MOMENT
-------------
                                X             Y             Z
Electronic contribution:     -0.62188      -2.74786      -4.01663
Nuclear contribution   :      0.74441       2.99525       5.43213
                        -----------------------------------------
Total Dipole Moment    :      0.12253       0.24739       1.41551
                        -----------------------------------------
Magnitude (a.u.)       :      1.44218
Magnitude (Debye)      :      3.66572

                             ****ORCA TERMINATED NORMALLY****
TOTAL RUN TIME: 0 days 0 hours 13 minutes 58 seconds 490 msec
