                         Program Version 3.0.3 - RELEASE   -
|  1> ! RI-MP2 RIJK def2-TZVP def2-TZVP/C def2-TZVP/JK TIGHTSCF
|  2> % maxcore 2000
|  3> % mp2 density relaxed end
|  4> *xyz 0 1
|  5>  C       -0.1621694798     1.5919696419     0.0367948588
|  6>  C        0.0519534135     0.0834726677    -0.0229576041
|  7>  C        0.8574049839    -0.4934448501    -1.1857056609
|  8>  C        2.3519945725    -0.0682303919    -1.1771326521
|  9>  C        2.5999528928    -1.3754720953    -0.4458381933
| 10>  C        1.6117741758    -1.6416941358     0.6508004000
| 11>  N        1.2467116393    -1.9254769135    -0.7642164921
| 12>  C        0.8049738469    -0.4976414878     1.1813000345
| 13>  O        0.7266737024    -0.1315751064     2.3272776216
| 14>  H        0.7820091829     2.1367649624    -0.0604112323
| 15>  H       -0.8328002952     1.9321137922    -0.7574260646
| 16>  H       -0.6001239826     1.8595010130     1.0021747823
| 17>  H       -0.9243389995    -0.4263016781    -0.0212109829
| 18>  H        0.3486776782    -0.4770588593    -2.1480976164
| 19>  H        2.7833748289    -0.0933300462    -2.1797681864
| 20>  H        2.6332022446     0.8696567764    -0.6903923807
| 21>  H        3.4952281699    -1.9866528032    -0.5109270602
| 22>  H        1.7915178758    -2.5013847160     1.2860802586
| 23> *
| 24>
| 25>                          ****END OF INPUT****

CARTESIAN COORDINATES (ANGSTROEM)
---------------------------------
  C     -0.162169    1.591970    0.036795
  C      0.051953    0.083473   -0.022958
  C      0.857405   -0.493445   -1.185706
  C      2.351995   -0.068230   -1.177133
  C      2.599953   -1.375472   -0.445838
  C      1.611774   -1.641694    0.650800
  N      1.246712   -1.925477   -0.764216
  C      0.804974   -0.497641    1.181300
  O      0.726674   -0.131575    2.327278
  H      0.782009    2.136765   -0.060411
  H     -0.832800    1.932114   -0.757426
  H     -0.600124    1.859501    1.002175
  H     -0.924339   -0.426302   -0.021211
  H      0.348678   -0.477059   -2.148098
  H      2.783375   -0.093330   -2.179768
  H      2.633202    0.869657   -0.690392
  H      3.495228   -1.986653   -0.510927
  H      1.791518   -2.501385    1.286080

 Total Charge           Charge          ....    0
 Multiplicity           Mult            ....    1
 Number of Electrons    NEL             ....   66
 Basis Dimension        Dim             ....  333

ORBITAL ENERGIES
----------------

  NO   OCC          E(Eh)            E(eV)
   0   2.0000     -20.550790      -559.2154
   1   2.0000     -15.580324      -423.9622
   2   2.0000     -11.334550      -308.4288
   3   2.0000     -11.286390      -307.1183
   4   2.0000     -11.280510      -306.9583
   5   2.0000     -11.274890      -306.8053
   6   2.0000     -11.249986      -306.1277
   7   2.0000     -11.248393      -306.0843
   8   2.0000     -11.229038      -305.5576
   9   2.0000      -1.395273       -37.9673
  10   2.0000      -1.320832       -35.9417
  11   2.0000      -1.085825       -29.5468
  12   2.0000      -1.021665       -27.8009
  13   2.0000      -0.948371       -25.8065
  14   2.0000      -0.941150       -25.6100
  15   2.0000      -0.821098       -22.3432
  16   2.0000      -0.777883       -21.1673
  17   2.0000      -0.730848       -19.8874
  18   2.0000      -0.706388       -19.2218
  19   2.0000      -0.658265       -17.9123
  20   2.0000      -0.633990       -17.2517
  21   2.0000      -0.623134       -16.9563
  22   2.0000      -0.589391       -16.0381
  23   2.0000      -0.578106       -15.7311
  24   2.0000      -0.563334       -15.3291
  25   2.0000      -0.536760       -14.6060
  26   2.0000      -0.525876       -14.3098
  27   2.0000      -0.521516       -14.1912
  28   2.0000      -0.494088       -13.4448
  29   2.0000      -0.462749       -12.5921
  30   2.0000      -0.441526       -12.0145
  31   2.0000      -0.401683       -10.9304
  32   2.0000      -0.389337       -10.5944
  33   0.0000       0.117649         3.2014
  34   0.0000       0.147375         4.0103
  35   0.0000       0.153605         4.1798
  36   0.0000       0.160895         4.3782
  37   0.0000       0.176044         4.7904

MULLIKEN ATOMIC CHARGES
-----------------------
   0 C :   -0.414892
   1 C :   -0.083887
   2 C :    0.082098
   3 C :   -0.274539
   4 C :   -0.052135
   5 C :   -0.108553
   6 N :   -0.229105
   7 C :    0.133105
   8 O :   -0.273458
   9 H :    0.125242
  10 H :    0.138396
  11 H :    0.157152
  12 H :    0.124630
  13 H :    0.135188
  14 H :    0.130862
  15 H :    0.124661
  16 H :    0.137622
  17 H :    0.147613
Sum of atomic charges:    0.0000000

LOEWDIN ATOMIC CHARGES
----------------------
   0 C :   -0.280365
   1 C :   -0.229132
   2 C :   -0.186495
   3 C :   -0.206947
   4 C :   -0.197847
   5 C :   -0.189814
   6 N :    0.150105
   7 C :   -0.289880
   8 O :    0.157812
   9 H :    0.125304
  10 H :    0.125807
  11 H :    0.135512
  12 H :    0.176391
  13 H :    0.141432
  14 H :    0.143631
  15 H :    0.131715
  16 H :    0.137544
  17 H :    0.155227

  Mayer bond orders larger than 0.1
B(  0-C ,  1-C ) :   0.9009 B(  0-C ,  9-H ) :   0.9321 B(  0-C , 10-H ) :   0.9396
B(  0-C , 11-H ) :   0.9281 B(  1-C ,  2-C ) :   0.9398 B(  1-C ,  7-C ) :   0.8898
B(  1-C , 12-H ) :   0.8830 B(  2-C ,  3-C ) :   0.9366 B(  2-C ,  6-N ) :   0.8795
B(  2-C , 13-H ) :   0.9051 B(  3-C ,  4-C ) :   0.9584 B(  3-C , 14-H ) :   0.9214
B(  3-C , 15-H ) :   0.9083 B(  4-C ,  5-C ) :   0.8813 B(  4-C ,  6-N ) :   0.8757
B(  4-C , 16-H ) :   0.9103 B(  5-C ,  6-N ) :   0.9286 B(  5-C ,  7-C ) :   0.9200
B(  5-C , 17-H ) :   0.9132 B(  7-C ,  8-O ) :   2.0268

MP2 TOTAL ENERGY:     -401.246943326 Eh
FINAL SINGLE POINT ENERGY      -401.246943325921

DIPOLE MOMENT
-------------
                                X             Y             Z
Electronic contribution:      0.74023      -4.78074       3.62040
Nuclear contribution   :     -0.44652       5.10876      -4.54345
                        -----------------------------------------
Total Dipole Moment    :      0.29371       0.32802      -0.92305
                        -----------------------------------------
Magnitude (a.u.)       :      1.02268
Magnitude (Debye)      :      2.59945

                             ****ORCA TERMINATED NORMALLY****
TOTAL RUN TIME: 0 days 0 hours 21 minutes 10 seconds 795 msec
