                         Program Version 3.0.3 - RELEASE   -
|  1> ! RI-MP2 RIJK def2-TZVP def2-TZVP/C def2-TZVP/JK TIGHTSCF
|  2> % maxcore 2000
|  3> % mp2 density relaxed end
|  4> *xyz 0 1
|  5>  C        0.0295276740     1.4826513232     0.0602920870
|  6>  C        0.0012934434    -0.0091349155    -0.0097515327
|  7>  C       -0.1608528674    -0.8117098664    -1.1086551486
|  8>  N       -0.1171314806    -2.1087288110    -0.6317409596
|  9>  C        0.0714314162    -2.0405502080     0.7153955463
| 10>  N        0.1425909727    -0.7894994438     1.1201586665
| 11>  C        0.1680026792    -3.2223003161     1.5918240844
| 12>  C        1.1809527713    -3.2264636945     2.6881556517
| 13>  N       -0.2431780022    -3.0750644031     2.9983577809
| 14>  H        0.9798005916     1.8406459627     0.4712751622
| 15>  H       -0.1019392533     1.9256620653    -0.9305818658
| 16>  H       -0.7647946332     1.8613800880     0.7125794311
| 17>  H       -0.3022553190    -0.5927861226    -2.1538953976
| 18>  H       -0.2045185974    -2.9481799148    -1.1794013161
| 19>  H       -0.1154771156    -4.1675296492     1.1338141732
| 20>  H        1.6262525904    -4.1659774518     3.0046598023
| 21>  H        1.8219921518    -2.3525864459     2.7564443025
| 22>  H       -0.4410314218    -2.0856793365     3.1472654624
| 23> *
| 24>
| 25>                          ****END OF INPUT****

CARTESIAN COORDINATES (ANGSTROEM)
---------------------------------
  C      0.029528    1.482651    0.060292
  C      0.001293   -0.009135   -0.009752
  C     -0.160853   -0.811710   -1.108655
  N     -0.117131   -2.108729   -0.631741
  C      0.071431   -2.040550    0.715396
  N      0.142591   -0.789499    1.120159
  C      0.168003   -3.222300    1.591824
  C      1.180953   -3.226464    2.688156
  N     -0.243178   -3.075064    2.998358
  H      0.979801    1.840646    0.471275
  H     -0.101939    1.925662   -0.930582
  H     -0.764795    1.861380    0.712579
  H     -0.302255   -0.592786   -2.153895
  H     -0.204519   -2.948180   -1.179401
  H     -0.115477   -4.167530    1.133814
  H      1.626253   -4.165977    3.004660
  H      1.821992   -2.352586    2.756444
  H     -0.441031   -2.085679    3.147265

 Total Charge           Charge          ....    0
 Multiplicity           Mult            ....    1
 Number of Electrons    NEL             ....   66
 Basis Dimension        Dim             ....  333

ORBITAL ENERGIES
----------------

  NO   OCC          E(Eh)            E(eV)
   0   2.0000     -15.616721      -424.9526
   1   2.0000     -15.560267      -423.4164
   2   2.0000     -15.537318      -422.7919
   3   2.0000     -11.303866      -307.5938
   4   2.0000     -11.273593      -306.7701
   5   2.0000     -11.259601      -306.3893
   6   2.0000     -11.251134      -306.1589
   7   2.0000     -11.249136      -306.1046
   8   2.0000     -11.218141      -305.2611
   9   2.0000      -1.342470       -36.5305
  10   2.0000      -1.265632       -34.4396
  11   2.0000      -1.166713       -31.7479
  12   2.0000      -1.041578       -28.3428
  13   2.0000      -0.955379       -25.9972
  14   2.0000      -0.898304       -24.4441
  15   2.0000      -0.865688       -23.5566
  16   2.0000      -0.799813       -21.7640
  17   2.0000      -0.781008       -21.2523
  18   2.0000      -0.730155       -19.8685
  19   2.0000      -0.654838       -17.8190
  20   2.0000      -0.648080       -17.6351
  21   2.0000      -0.612617       -16.6702
  22   2.0000      -0.606932       -16.5154
  23   2.0000      -0.562135       -15.2965
  24   2.0000      -0.552861       -15.0441
  25   2.0000      -0.540101       -14.6969
  26   2.0000      -0.521306       -14.1855
  27   2.0000      -0.489277       -13.3139
  28   2.0000      -0.483781       -13.1644
  29   2.0000      -0.437833       -11.9140
  30   2.0000      -0.415145       -11.2967
  31   2.0000      -0.389112       -10.5883
  32   2.0000      -0.301450        -8.2029
  33   0.0000       0.125553         3.4165
  34   0.0000       0.153033         4.1642
  35   0.0000       0.158957         4.3254
  36   0.0000       0.176129         4.7927
  37   0.0000       0.183731         4.9996

MULLIKEN ATOMIC CHARGES
-----------------------
   0 C :   -0.414645
   1 C :    0.100083
   2 C :   -0.123227
   3 N :   -0.272585
   4 C :    0.224479
   5 N :   -0.350762
   6 C :   -0.076958
   7 C :   -0.155099
   8 N :   -0.370151
   9 H :    0.141454
  10 H :    0.128466
  11 H :    0.142290
  12 H :    0.147830
  13 H :    0.248245
  14 H :    0.128567
  15 H :    0.122671
  16 H :    0.140980
  17 H :    0.238362
Sum of atomic charges:   -0.0000000

LOEWDIN ATOMIC CHARGES
----------------------
   0 C :   -0.275588
   1 C :   -0.287344
   2 C :   -0.220841
   3 N :    0.199715
   4 C :   -0.317746
   5 N :    0.124488
   6 C :   -0.256953
   7 C :   -0.254214
   8 N :   -0.002041
   9 H :    0.131854
  10 H :    0.128700
  11 H :    0.132158
  12 H :    0.135218
  13 H :    0.194603
  14 H :    0.143942
  15 H :    0.122908
  16 H :    0.128185
  17 H :    0.172956

  Mayer bond orders larger than 0.1
B(  0-C ,  1-C ) :   0.8811 B(  0-C ,  9-H ) :   0.9356 B(  0-C , 10-H ) :   0.9524
B(  0-C , 11-H ) :   0.9355 B(  1-C ,  2-C ) :   1.5240 B(  1-C ,  5-N ) :   1.2579
B(  2-C ,  3-N ) :   1.1125 B(  2-C , 12-H ) :   0.9029 B(  3-N ,  4-C ) :   1.1604
B(  3-N , 13-H ) :   0.8664 B(  4-C ,  5-N ) :   1.4787 B(  4-C ,  6-C ) :   0.9722
B(  6-C ,  7-C ) :   0.9493 B(  6-C ,  8-N ) :   0.9527 B(  6-C , 14-H ) :   0.8974
B(  7-C ,  8-N ) :   0.9102 B(  7-C , 15-H ) :   0.9252 B(  7-C , 16-H ) :   0.9115
B(  8-N , 17-H ) :   0.8709

MP2 TOTAL ENERGY:     -397.457464560 Eh
FINAL SINGLE POINT ENERGY      -397.457464560355

DIPOLE MOMENT
-------------
                                X             Y             Z
Electronic contribution:     -1.08844      -3.19262      -0.82461
Nuclear contribution   :      1.31428       2.88808      -0.53454
                        -----------------------------------------
Total Dipole Moment    :      0.22584      -0.30454      -1.35915
                        -----------------------------------------
Magnitude (a.u.)       :      1.41104
Magnitude (Debye)      :      3.58657

                             ****ORCA TERMINATED NORMALLY****
TOTAL RUN TIME: 0 days 0 hours 16 minutes 26 seconds 255 msec
