                         Program Version 3.0.3 - RELEASE   -
|  1> ! RI-MP2 RIJK def2-TZVP def2-TZVP/C def2-TZVP/JK TIGHTSCF
|  2> % maxcore 2000
|  3> % mp2 density relaxed end
|  4> *xyz 0 1
|  5>  C        0.1875813277     1.3462019435     0.4030876032
|  6>  C       -0.0844299358    -0.1284127770     0.1207115374
|  7>  O       -1.4670353252    -0.3979752464    -0.1073518507
|  8>  C        0.7175522575    -0.6405450331    -1.0706281612
|  9>  O        2.1604292579    -0.5030939440    -0.9331077477
| 10>  C        2.3300675799    -1.8819010902    -1.2883086412
| 11>  C        1.7062787893    -2.7663325522    -0.2557091048
| 12>  C        0.8410058119    -2.1436226630    -1.3396087925
| 13>  C       -0.0360245327    -2.9231704260    -2.2729314571
| 14>  H        1.2506093397     1.5052111274     0.6038857791
| 15>  H       -0.0853426688     1.9644610484    -0.4621930659
| 16>  H       -0.3945231358     1.6847366025     1.2645402437
| 17>  H        0.1742747943    -0.7202176083     1.0050286636
| 18>  H       -1.7765399167     0.2152723201    -0.7834950936
| 19>  H        0.3896060915    -0.1091090578    -1.9793323384
| 20>  H        3.1547497439    -2.1380195947    -1.9436812971
| 21>  H        1.8725174829    -3.8314089889    -0.3902812393
| 22>  H        1.6679703287    -2.4388160585     0.7793848754
| 23>  H       -1.0267494876    -3.0794372839    -1.8319935619
| 24>  H       -0.1727095464    -2.3972255687    -3.2249873917
| 25>  H        0.3921485839    -3.9062555891    -2.4929509794
| 26> *
| 27>
| 28>                          ****END OF INPUT****

CARTESIAN COORDINATES (ANGSTROEM)
---------------------------------
  C      0.187581    1.346202    0.403088
  C     -0.084430   -0.128413    0.120712
  O     -1.467035   -0.397975   -0.107352
  C      0.717552   -0.640545   -1.070628
  O      2.160429   -0.503094   -0.933108
  C      2.330068   -1.881901   -1.288309
  C      1.706279   -2.766333   -0.255709
  C      0.841006   -2.143623   -1.339609
  C     -0.036025   -2.923170   -2.272931
  H      1.250609    1.505211    0.603886
  H     -0.085343    1.964461   -0.462193
  H     -0.394523    1.684737    1.264540
  H      0.174275   -0.720218    1.005029
  H     -1.776540    0.215272   -0.783495
  H      0.389606   -0.109109   -1.979332
  H      3.154750   -2.138020   -1.943681
  H      1.872517   -3.831409   -0.390281
  H      1.667970   -2.438816    0.779385
  H     -1.026749   -3.079437   -1.831994
  H     -0.172710   -2.397226   -3.224987
  H      0.392149   -3.906256   -2.492951

 Total Charge           Charge          ....    0
 Multiplicity           Mult            ....    1
 Number of Electrons    NEL             ....   70
 Basis Dimension        Dim             ....  351

ORBITAL ENERGIES
----------------

  NO   OCC          E(Eh)            E(eV)
   0   2.0000     -20.558871      -559.4353
   1   2.0000     -20.553951      -559.3014
   2   2.0000     -11.285002      -307.0805
   3   2.0000     -11.284564      -307.0686
   4   2.0000     -11.279606      -306.9337
   5   2.0000     -11.242849      -305.9335
   6   2.0000     -11.230417      -305.5952
   7   2.0000     -11.224089      -305.4230
   8   2.0000     -11.216927      -305.2281
   9   2.0000      -1.393126       -37.9089
  10   2.0000      -1.362511       -37.0758
  11   2.0000      -1.124792       -30.6071
  12   2.0000      -1.036532       -28.2055
  13   2.0000      -0.977525       -26.5998
  14   2.0000      -0.929203       -25.2849
  15   2.0000      -0.838195       -22.8084
  16   2.0000      -0.812805       -22.1175
  17   2.0000      -0.747619       -20.3437
  18   2.0000      -0.676149       -18.3989
  19   2.0000      -0.667654       -18.1678
  20   2.0000      -0.641232       -17.4488
  21   2.0000      -0.633011       -17.2251
  22   2.0000      -0.622177       -16.9303
  23   2.0000      -0.569403       -15.4942
  24   2.0000      -0.561717       -15.2851
  25   2.0000      -0.553351       -15.0574
  26   2.0000      -0.549205       -14.9446
  27   2.0000      -0.544149       -14.8070
  28   2.0000      -0.524295       -14.2668
  29   2.0000      -0.515255       -14.0208
  30   2.0000      -0.484554       -13.1854
  31   2.0000      -0.470368       -12.7994
  32   2.0000      -0.437538       -11.9060
  33   2.0000      -0.392757       -10.6875
  34   2.0000      -0.372341       -10.1319
  35   0.0000       0.130048         3.5388
  36   0.0000       0.153327         4.1723
  37   0.0000       0.162735         4.4282
  38   0.0000       0.174657         4.7527
  39   0.0000       0.188910         5.1405

MULLIKEN ATOMIC CHARGES
-----------------------
   0 C :   -0.397631
   1 C :    0.091700
   2 O :   -0.471849
   3 C :    0.049388
   4 O :   -0.339890
   5 C :    0.054748
   6 C :   -0.273356
   7 C :    0.017547
   8 C :   -0.421209
   9 H :    0.151308
  10 H :    0.110548
  11 H :    0.147372
  12 H :    0.084327
  13 H :    0.311436
  14 H :    0.089721
  15 H :    0.128431
  16 H :    0.127743
  17 H :    0.134041
  18 H :    0.151249
  19 H :    0.126451
  20 H :    0.127925
Sum of atomic charges:    0.0000000

LOEWDIN ATOMIC CHARGES
----------------------
   0 C :   -0.299780
   1 C :   -0.354688
   2 O :   -0.016097
   3 C :   -0.226453
   4 O :    0.164326
   5 C :   -0.227955
   6 C :   -0.189216
   7 C :   -0.217643
   8 C :   -0.274935
   9 H :    0.134782
  10 H :    0.121452
  11 H :    0.126405
  12 H :    0.146975
  13 H :    0.173777
  14 H :    0.143456
  15 H :    0.130000
  16 H :    0.143181
  17 H :    0.132303
  18 H :    0.133740
  19 H :    0.127057
  20 H :    0.129312

  Mayer bond orders larger than 0.1
B(  0-C ,  1-C ) :   0.9477 B(  0-C ,  9-H ) :   0.9298 B(  0-C , 10-H ) :   0.9164
B(  0-C , 11-H ) :   0.9407 B(  1-C ,  2-O ) :   0.9170 B(  1-C ,  3-C ) :   0.9354
B(  1-C , 12-H ) :   0.9156 B(  2-O , 13-H ) :   0.8420 B(  3-C ,  4-O ) :   0.9121
B(  3-C ,  7-C ) :   0.9209 B(  3-C , 14-H ) :   0.8870 B(  4-O ,  5-C ) :   0.9596
B(  5-C ,  6-C ) :   0.8656 B(  5-C ,  7-C ) :   0.9064 B(  5-C , 15-H ) :   0.9195
B(  6-C ,  7-C ) :   0.8898 B(  6-C , 16-H ) :   0.9204 B(  6-C , 17-H ) :   0.9073
B(  7-C ,  8-C ) :   0.8915 B(  8-C , 18-H ) :   0.9373 B(  8-C , 19-H ) :   0.9398
B(  8-C , 20-H ) :   0.9310

MP2 TOTAL ENERGY:     -423.481881239 Eh
FINAL SINGLE POINT ENERGY      -423.481881238652

DIPOLE MOMENT
-------------
                                X             Y             Z
Electronic contribution:      2.20246       0.22443       0.08415
Nuclear contribution   :     -2.33004      -0.33327      -0.54850
                        -----------------------------------------
Total Dipole Moment    :     -0.12758      -0.10884      -0.46435
                        -----------------------------------------
Magnitude (a.u.)       :      0.49370
Magnitude (Debye)      :      1.25490

                             ****ORCA TERMINATED NORMALLY****
TOTAL RUN TIME: 0 days 0 hours 20 minutes 43 seconds 948 msec
