                         Program Version 3.0.3 - RELEASE   -
|  1> ! RI-MP2 RIJK def2-TZVP def2-TZVP/C def2-TZVP/JK TIGHTSCF
|  2> % maxcore 2000
|  3> % mp2 density relaxed end
|  4> *xyz 0 1
|  5>  C       -0.2538138318     1.4376029572     0.1668173720
|  6>  N        0.0384083797     0.0133062553     0.2117066616
|  7>  C        1.3590731562    -0.5295822236    -0.1694648165
|  8>  C        2.5352578072     0.3889183982    -0.1789543756
|  9>  C        2.7636545146     0.8997928568     1.0345266563
| 10>  C        1.8004377114     0.3553446552     2.0657534790
| 11>  C        0.8782549397    -0.5684004749     1.2585064512
| 12>  C        0.2817645183    -1.7881028527     1.9161875240
| 13>  O       -0.7480736307    -1.4369374599     2.8310003173
| 14>  H        0.6012479037     2.0988284078     0.3625297891
| 15>  H       -0.6524704604     1.6806484034    -0.8234005733
| 16>  H       -1.0322889786     1.6561224255     0.9053068824
| 17>  H        1.3215793702    -1.3825356900    -0.8420727363
| 18>  H        3.0930462611     0.6207680336    -1.0787295050
| 19>  H        3.5214246173     1.6376012579     1.2753913668
| 20>  H        2.3199002346    -0.2103182503     2.8497677510
| 21>  H        1.2499999322     1.1513554262     2.5829309122
| 22>  H       -0.0910243936    -2.4707469184     1.1391558490
| 23>  H        1.0389673130    -2.3200803460     2.5025633887
| 24>  H       -1.4294635440    -0.9976239112     2.3096202260
| 25> *
| 26>
| 27>                          ****END OF INPUT****

CARTESIAN COORDINATES (ANGSTROEM)
---------------------------------
  C     -0.253814    1.437603    0.166817
  N      0.038408    0.013306    0.211707
  C      1.359073   -0.529582   -0.169465
  C      2.535258    0.388918   -0.178954
  C      2.763655    0.899793    1.034527
  C      1.800438    0.355345    2.065753
  C      0.878255   -0.568400    1.258506
  C      0.281765   -1.788103    1.916188
  O     -0.748074   -1.436937    2.831000
  H      0.601248    2.098828    0.362530
  H     -0.652470    1.680648   -0.823401
  H     -1.032289    1.656122    0.905307
  H      1.321579   -1.382536   -0.842073
  H      3.093046    0.620768   -1.078730
  H      3.521425    1.637601    1.275391
  H      2.319900   -0.210318    2.849768
  H      1.250000    1.151355    2.582931
  H     -0.091024   -2.470747    1.139156
  H      1.038967   -2.320080    2.502563
  H     -1.429464   -0.997624    2.309620

 Total Charge           Charge          ....    0
 Multiplicity           Mult            ....    1
 Number of Electrons    NEL             ....   68
 Basis Dimension        Dim             ....  345

ORBITAL ENERGIES
----------------

  NO   OCC          E(Eh)            E(eV)
   0   2.0000     -20.550533      -559.2084
   1   2.0000     -15.560830      -423.4317
   2   2.0000     -11.272512      -306.7406
   3   2.0000     -11.262494      -306.4680
   4   2.0000     -11.261629      -306.4445
   5   2.0000     -11.243661      -305.9556
   6   2.0000     -11.236913      -305.7719
   7   2.0000     -11.234915      -305.7176
   8   2.0000     -11.231986      -305.6379
   9   2.0000      -1.356054       -36.9001
  10   2.0000      -1.280688       -34.8493
  11   2.0000      -1.094897       -29.7937
  12   2.0000      -1.005539       -27.3621
  13   2.0000      -0.977149       -26.5896
  14   2.0000      -0.911900       -24.8141
  15   2.0000      -0.830946       -22.6112
  16   2.0000      -0.762009       -20.7353
  17   2.0000      -0.736666       -20.0457
  18   2.0000      -0.707924       -19.2636
  19   2.0000      -0.661580       -18.0025
  20   2.0000      -0.642255       -17.4766
  21   2.0000      -0.610957       -16.6250
  22   2.0000      -0.595042       -16.1919
  23   2.0000      -0.590296       -16.0628
  24   2.0000      -0.565525       -15.3887
  25   2.0000      -0.550320       -14.9750
  26   2.0000      -0.537620       -14.6294
  27   2.0000      -0.518486       -14.1087
  28   2.0000      -0.507286       -13.8040
  29   2.0000      -0.454741       -12.3741
  30   2.0000      -0.446957       -12.1623
  31   2.0000      -0.428493       -11.6599
  32   2.0000      -0.380716       -10.3598
  33   2.0000      -0.346242        -9.4217
  34   0.0000       0.133033         3.6200
  35   0.0000       0.140574         3.8252
  36   0.0000       0.161964         4.4073
  37   0.0000       0.165340         4.4991
  38   0.0000       0.175078         4.7641

MULLIKEN ATOMIC CHARGES
-----------------------
   0 C :   -0.302162
   1 N :   -0.258221
   2 C :   -0.057434
   3 C :   -0.182091
   4 C :   -0.220221
   5 C :   -0.160437
   6 C :    0.082046
   7 C :   -0.009429
   8 O :   -0.475634
   9 H :    0.124359
  10 H :    0.140456
  11 H :    0.133065
  12 H :    0.126046
  13 H :    0.132790
  14 H :    0.128105
  15 H :    0.128662
  16 H :    0.136460
  17 H :    0.110480
  18 H :    0.104331
  19 H :    0.318829
Sum of atomic charges:   -0.0000000

LOEWDIN ATOMIC CHARGES
----------------------
   0 C :   -0.327220
   1 N :    0.129001
   2 C :   -0.191711
   3 C :   -0.149890
   4 C :   -0.151560
   5 C :   -0.198225
   6 C :   -0.258639
   7 C :   -0.306164
   8 O :   -0.047955
   9 H :    0.113026
  10 H :    0.119766
  11 H :    0.117617
  12 H :    0.140314
  13 H :    0.139266
  14 H :    0.136790
  15 H :    0.150968
  16 H :    0.150461
  17 H :    0.125748
  18 H :    0.131370
  19 H :    0.177037

  Mayer bond orders larger than 0.1
B(  0-C ,  1-N ) :   0.8834 B(  0-C ,  9-H ) :   0.9168 B(  0-C , 10-H ) :   0.9383
B(  0-C , 11-H ) :   0.9355 B(  1-N ,  2-C ) :   0.9332 B(  1-N ,  6-C ) :   0.8057
B(  2-C ,  3-C ) :   0.9438 B(  2-C ,  6-C ) :   0.8643 B(  2-C , 12-H ) :   0.9066
B(  3-C ,  4-C ) :   1.7620 B(  3-C , 13-H ) :   0.9268 B(  4-C ,  5-C ) :   0.9542
B(  4-C , 14-H ) :   0.9355 B(  5-C ,  6-C ) :   0.9352 B(  5-C , 15-H ) :   0.9073
B(  5-C , 16-H ) :   0.9039 B(  6-C ,  7-C ) :   0.9218 B(  7-C ,  8-O ) :   0.9106
B(  7-C , 17-H ) :   0.9355 B(  7-C , 18-H ) :   0.9199 B(  8-O , 19-H ) :   0.8414

MP2 TOTAL ENERGY:     -402.432068462 Eh
FINAL SINGLE POINT ENERGY      -402.432068461959

DIPOLE MOMENT
-------------
                                X             Y             Z
Electronic contribution:      0.27716      -2.45564       0.00475
Nuclear contribution   :      0.14023       2.92012      -0.42901
                        -----------------------------------------
Total Dipole Moment    :      0.41739       0.46448      -0.42426
                        -----------------------------------------
Magnitude (a.u.)       :      0.75495
Magnitude (Debye)      :      1.91893

                             ****ORCA TERMINATED NORMALLY****
TOTAL RUN TIME: 0 days 0 hours 20 minutes 10 seconds 557 msec
