                         Program Version 3.0.3 - RELEASE   -
|  1> ! RI-MP2 RIJK def2-TZVP def2-TZVP/C def2-TZVP/JK TIGHTSCF
|  2> % maxcore 2000
|  3> % mp2 density relaxed end
|  4> *xyz 0 1
|  5>  C       -0.3845387659     1.8258313933    -0.0059239610
|  6>  C       -0.1970421926     0.3063466257    -0.0282020662
|  7>  C       -1.5217032363    -0.4602804193     0.0381131439
|  8>  C       -1.3334383134    -1.9878718942     0.0271685556
|  9>  N       -2.5971634090    -2.6831787034     0.1979002536
| 10>  C       -3.2606832748    -3.0362690352    -0.8390239012
| 11>  N       -2.9641429762    -2.9154714708    -2.1711110200
| 12>  C       -4.5615975723    -3.7338608889    -0.5730916108
| 13>  O       -5.3158377832    -4.0820388237    -1.4502091093
| 14>  H        0.5765855495     2.3471601861    -0.0518990067
| 15>  H       -0.9877168060     2.1636126210    -0.8560533989
| 16>  H       -0.8951368198     2.1473017571     0.9084067296
| 17>  H        0.3484923240     0.0174109275    -0.9366192723
| 18>  H        0.4375903492     0.0023828545     0.8144021442
| 19>  H       -2.0694306410    -0.1869621528     0.9478674024
| 20>  H       -2.1637791775    -0.1648999068    -0.8032096907
| 21>  H       -0.8014645832    -2.2900765793    -0.8907801205
| 22>  H       -0.6863427760    -2.2653860690     0.8676926315
| 23>  H       -2.3147369595    -2.2158836778    -2.4842042644
| 24>  H       -3.7228247415    -3.1481907211    -2.7953985422
| 25>  H       -4.7597171045    -3.8878070030     0.5036839834
| 26> *
| 27>
| 28>                          ****END OF INPUT****

CARTESIAN COORDINATES (ANGSTROEM)
---------------------------------
  C     -0.384539    1.825831   -0.005924
  C     -0.197042    0.306347   -0.028202
  C     -1.521703   -0.460280    0.038113
  C     -1.333438   -1.987872    0.027169
  N     -2.597163   -2.683179    0.197900
  C     -3.260683   -3.036269   -0.839024
  N     -2.964143   -2.915471   -2.171111
  C     -4.561598   -3.733861   -0.573092
  O     -5.315838   -4.082039   -1.450209
  H      0.576586    2.347160   -0.051899
  H     -0.987717    2.163613   -0.856053
  H     -0.895137    2.147302    0.908407
  H      0.348492    0.017411   -0.936619
  H      0.437590    0.002383    0.814402
  H     -2.069431   -0.186962    0.947867
  H     -2.163779   -0.164900   -0.803210
  H     -0.801465   -2.290077   -0.890780
  H     -0.686343   -2.265386    0.867693
  H     -2.314737   -2.215884   -2.484204
  H     -3.722825   -3.148191   -2.795399
  H     -4.759717   -3.887807    0.503684

 Total Charge           Charge          ....    0
 Multiplicity           Mult            ....    1
 Number of Electrons    NEL             ....   70
 Basis Dimension        Dim             ....  351

ORBITAL ENERGIES
----------------

  NO   OCC          E(Eh)            E(eV)
   0   2.0000     -20.574906      -559.8716
   1   2.0000     -15.583512      -424.0489
   2   2.0000     -15.554121      -423.2492
   3   2.0000     -11.342377      -308.6418
   4   2.0000     -11.323568      -308.1299
   5   2.0000     -11.255597      -306.2804
   6   2.0000     -11.226917      -305.4999
   7   2.0000     -11.226297      -305.4831
   8   2.0000     -11.218061      -305.2590
   9   2.0000      -1.413129       -38.4532
  10   2.0000      -1.278422       -34.7876
  11   2.0000      -1.178582       -32.0708
  12   2.0000      -1.073973       -29.2243
  13   2.0000      -0.996680       -27.1210
  14   2.0000      -0.922995       -25.1160
  15   2.0000      -0.848277       -23.0828
  16   2.0000      -0.800853       -21.7923
  17   2.0000      -0.782783       -21.3006
  18   2.0000      -0.735785       -20.0217
  19   2.0000      -0.683247       -18.5921
  20   2.0000      -0.657482       -17.8910
  21   2.0000      -0.647430       -17.6175
  22   2.0000      -0.618251       -16.8235
  23   2.0000      -0.604256       -16.4426
  24   2.0000      -0.581053       -15.8112
  25   2.0000      -0.575038       -15.6476
  26   2.0000      -0.540168       -14.6987
  27   2.0000      -0.519225       -14.1288
  28   2.0000      -0.510462       -13.8904
  29   2.0000      -0.482886       -13.1400
  30   2.0000      -0.481049       -13.0900
  31   2.0000      -0.473415       -12.8823
  32   2.0000      -0.451567       -12.2877
  33   2.0000      -0.415523       -11.3070
  34   2.0000      -0.367817       -10.0088
  35   0.0000       0.084357         2.2955
  36   0.0000       0.119836         3.2609
  37   0.0000       0.146283         3.9806
  38   0.0000       0.163906         4.4601
  39   0.0000       0.174551         4.7498

MULLIKEN ATOMIC CHARGES
-----------------------
   0 C :   -0.381202
   1 C :   -0.186586
   2 C :   -0.239159
   3 C :   -0.149801
   4 N :   -0.250510
   5 C :    0.187239
   6 N :   -0.516540
   7 C :    0.135219
   8 O :   -0.294750
   9 H :    0.134462
  10 H :    0.121066
  11 H :    0.125836
  12 H :    0.102070
  13 H :    0.110048
  14 H :    0.123132
  15 H :    0.104452
  16 H :    0.104154
  17 H :    0.129544
  18 H :    0.259560
  19 H :    0.273479
  20 H :    0.108287
Sum of atomic charges:    0.0000000

LOEWDIN ATOMIC CHARGES
----------------------
   0 C :   -0.320294
   1 C :   -0.297341
   2 C :   -0.272404
   3 C :   -0.300136
   4 N :    0.102156
   5 C :   -0.394261
   6 N :   -0.029098
   7 C :   -0.251648
   8 O :    0.127517
   9 H :    0.121020
  10 H :    0.119907
  11 H :    0.121539
  12 H :    0.133083
  13 H :    0.136144
  14 H :    0.141322
  15 H :    0.132424
  16 H :    0.120096
  17 H :    0.135400
  18 H :    0.168365
  19 H :    0.180442
  20 H :    0.125768

  Mayer bond orders larger than 0.1
B(  0-C ,  1-C ) :   0.9231 B(  0-C ,  9-H ) :   0.9417 B(  0-C , 10-H ) :   0.9395
B(  0-C , 11-H ) :   0.9391 B(  1-C ,  2-C ) :   0.9217 B(  1-C , 12-H ) :   0.9312
B(  1-C , 13-H ) :   0.9326 B(  2-C ,  3-C ) :   0.9090 B(  2-C , 14-H ) :   0.9266
B(  2-C , 15-H ) :   0.9311 B(  3-C ,  4-N ) :   0.9018 B(  3-C , 16-H ) :   0.9453
B(  3-C , 17-H ) :   0.9277 B(  4-N ,  5-C ) :   1.8080 B(  5-C ,  6-N ) :   1.1042
B(  5-C ,  7-C ) :   0.8988 B(  6-N , 18-H ) :   0.8725 B(  6-N , 19-H ) :   0.8472
B(  7-C ,  8-O ) :   1.9172 B(  7-C , 20-H ) :   0.9325

MP2 TOTAL ENERGY:     -419.717647714 Eh
FINAL SINGLE POINT ENERGY      -419.717647714208

DIPOLE MOMENT
-------------
                                X             Y             Z
Electronic contribution:    -10.91406     -12.94394      -2.28365
Nuclear contribution   :     11.66775      13.69987       1.84667
                        -----------------------------------------
Total Dipole Moment    :      0.75369       0.75593      -0.43699
                        -----------------------------------------
Magnitude (a.u.)       :      1.15344
Magnitude (Debye)      :      2.93182

                             ****ORCA TERMINATED NORMALLY****
TOTAL RUN TIME: 0 days 0 hours 16 minutes 45 seconds 580 msec
