                         Program Version 3.0.3 - RELEASE   -
|  1> ! RI-MP2 RIJK def2-TZVP def2-TZVP/C def2-TZVP/JK TIGHTSCF
|  2> % maxcore 2000
|  3> % mp2 density relaxed end
|  4> *xyz 0 1
|  5>  C        0.0257350654     1.5501059377    -0.1259629318
|  6>  C        1.5838590609     1.5781074295     0.1233919767
|  7>  C        1.5228572664     0.1183065814     0.6146574192
|  8>  O        1.6008814083    -0.2929046776     1.9754667686
|  9>  C        0.9171622573    -1.4865211774     1.4689245970
| 10>  C       -0.5135270245    -0.9134684838     1.1936575217
| 11>  C        0.0285325313     0.0208195233     0.1085801415
| 12>  C        0.5305989366    -0.9719876339    -0.9824805080
| 13>  C        1.6240640045    -1.3074646362     0.0480763774
| 14>  H       -0.5241258315     2.0951728333     0.6460037231
| 15>  H       -0.3175099194     1.8967731096    -1.1043596794
| 16>  H        2.1898407370     1.7275506192    -0.7736935409
| 17>  H        1.9257986826     2.2770822623     0.8895251581
| 18>  H        1.0562856580    -2.3672178801     2.0951721829
| 19>  H       -1.2439213125    -1.6488140150     0.8437664990
| 20>  H       -0.8886188676    -0.4182579427     2.0913214406
| 21>  H       -0.1578343577    -1.7558086398    -1.3118698426
| 22>  H        0.9536380332    -0.4697661859    -1.8570665940
| 23>  H        2.5368901518    -1.8765049540    -0.1385861591
| 24> *
| 25>
| 26>                          ****END OF INPUT****

CARTESIAN COORDINATES (ANGSTROEM)
---------------------------------
  C      0.025735    1.550106   -0.125963
  C      1.583859    1.578107    0.123392
  C      1.522857    0.118307    0.614657
  O      1.600881   -0.292905    1.975467
  C      0.917162   -1.486521    1.468925
  C     -0.513527   -0.913468    1.193658
  C      0.028533    0.020820    0.108580
  C      0.530599   -0.971988   -0.982481
  C      1.624064   -1.307465    0.048076
  H     -0.524126    2.095173    0.646004
  H     -0.317510    1.896773   -1.104360
  H      2.189841    1.727551   -0.773694
  H      1.925799    2.277082    0.889525
  H      1.056286   -2.367218    2.095172
  H     -1.243921   -1.648814    0.843766
  H     -0.888619   -0.418258    2.091321
  H     -0.157834   -1.755809   -1.311870
  H      0.953638   -0.469766   -1.857067
  H      2.536890   -1.876505   -0.138586

 Total Charge           Charge          ....    0
 Multiplicity           Mult            ....    1
 Number of Electrons    NEL             ....   66
 Basis Dimension        Dim             ....  339

ORBITAL ENERGIES
----------------

  NO   OCC          E(Eh)            E(eV)
   0   2.0000     -20.546930      -559.1104
   1   2.0000     -11.291021      -307.2443
   2   2.0000     -11.275087      -306.8107
   3   2.0000     -11.240693      -305.8748
   4   2.0000     -11.234409      -305.7038
   5   2.0000     -11.232829      -305.6608
   6   2.0000     -11.228706      -305.5486
   7   2.0000     -11.227444      -305.5143
   8   2.0000     -11.226767      -305.4959
   9   2.0000      -1.393804       -37.9273
  10   2.0000      -1.167812       -31.7778
  11   2.0000      -1.057789       -28.7839
  12   2.0000      -0.980235       -26.6736
  13   2.0000      -0.905772       -24.6473
  14   2.0000      -0.868613       -23.6362
  15   2.0000      -0.844283       -22.9741
  16   2.0000      -0.760369       -20.6907
  17   2.0000      -0.684846       -18.6356
  18   2.0000      -0.665652       -18.1133
  19   2.0000      -0.646438       -17.5905
  20   2.0000      -0.640299       -17.4234
  21   2.0000      -0.607712       -16.5367
  22   2.0000      -0.580784       -15.8039
  23   2.0000      -0.558652       -15.2017
  24   2.0000      -0.533794       -14.5253
  25   2.0000      -0.515230       -14.0201
  26   2.0000      -0.499578       -13.5942
  27   2.0000      -0.474439       -12.9101
  28   2.0000      -0.459726       -12.5098
  29   2.0000      -0.441169       -12.0048
  30   2.0000      -0.426285       -11.5998
  31   2.0000      -0.411279       -11.1915
  32   2.0000      -0.348727        -9.4894
  33   0.0000       0.142230         3.8703
  34   0.0000       0.158775         4.3205
  35   0.0000       0.164730         4.4825
  36   0.0000       0.177586         4.8324
  37   0.0000       0.179076         4.8729

MULLIKEN ATOMIC CHARGES
-----------------------
   0 C :   -0.272630
   1 C :   -0.234230
   2 C :    0.043761
   3 O :   -0.314584
   4 C :    0.078544
   5 C :   -0.296777
   6 C :    0.168962
   7 C :   -0.244891
   8 C :   -0.156546
   9 H :    0.120930
  10 H :    0.120847
  11 H :    0.133891
  12 H :    0.131958
  13 H :    0.129730
  14 H :    0.119531
  15 H :    0.118718
  16 H :    0.117831
  17 H :    0.115698
  18 H :    0.119257
Sum of atomic charges:    0.0000000

LOEWDIN ATOMIC CHARGES
----------------------
   0 C :   -0.199398
   1 C :   -0.192024
   2 C :   -0.252313
   3 O :    0.185694
   4 C :   -0.192705
   5 C :   -0.196612
   6 C :   -0.173944
   7 C :   -0.181523
   8 C :   -0.144059
   9 H :    0.137700
  10 H :    0.127780
  11 H :    0.137428
  12 H :    0.140361
  13 H :    0.128013
  14 H :    0.134965
  15 H :    0.141677
  16 H :    0.126869
  17 H :    0.141847
  18 H :    0.130245

  Mayer bond orders larger than 0.1
B(  0-C ,  1-C ) :   0.9834 B(  0-C ,  6-C ) :   0.8995 B(  0-C ,  9-H ) :   0.9087
B(  0-C , 10-H ) :   0.9197 B(  1-C ,  2-C ) :   0.9019 B(  1-C , 11-H ) :   0.9219
B(  1-C , 12-H ) :   0.9133 B(  2-C ,  3-O ) :   1.0488 B(  2-C ,  6-C ) :   0.7601
B(  2-C ,  8-C ) :   0.9666 B(  3-O ,  4-C ) :   0.8560 B(  4-C ,  5-C ) :   0.9209
B(  4-C ,  8-C ) :   0.8716 B(  4-C , 13-H ) :   0.9108 B(  5-C ,  6-C ) :   0.9307
B(  5-C , 14-H ) :   0.9195 B(  5-C , 15-H ) :   0.9129 B(  6-C ,  7-C ) :   0.9190
B(  7-C ,  8-C ) :   0.9358 B(  7-C , 16-H ) :   0.9159 B(  7-C , 17-H ) :   0.9080
B(  8-C , 18-H ) :   0.8912

MP2 TOTAL ENERGY:     -385.137997777 Eh
FINAL SINGLE POINT ENERGY      -385.137997777460

DIPOLE MOMENT
-------------
                                X             Y             Z
Electronic contribution:      2.19148      -1.31616       2.91807
Nuclear contribution   :     -2.47024       1.19609      -3.47619
                        -----------------------------------------
Total Dipole Moment    :     -0.27876      -0.12007      -0.55813
                        -----------------------------------------
Magnitude (a.u.)       :      0.63532
Magnitude (Debye)      :      1.61485

                             ****ORCA TERMINATED NORMALLY****
TOTAL RUN TIME: 0 days 0 hours 22 minutes 20 seconds 929 msec
