                         Program Version 3.0.3 - RELEASE   -
|  1> ! RI-MP2 RIJK def2-TZVP def2-TZVP/C def2-TZVP/JK TIGHTSCF
|  2> % maxcore 2000
|  3> % mp2 density relaxed end
|  4> *xyz 0 1
|  5>  C       -0.0222872917     1.4009337116    -0.4879506514
|  6>  C       -0.0924905721     0.0055362046     0.1527821537
|  7>  O        0.2928388231     0.0370224730     1.5035770263
|  8>  C       -1.4992229216    -0.5618708652     0.0446054631
|  9>  O       -2.2221085746    -0.7473257196     0.9908596117
| 10>  O       -1.8462661282    -0.8249690564    -1.2364711618
| 11>  C       -3.1741360012    -1.3267567796    -1.4303609294
| 12>  C       -4.1460634900    -0.2367352019    -1.5600329195
| 13>  N       -4.9174269471     0.6142778598    -1.6772929741
| 14>  H        0.9889478652     1.7936442175    -0.3607962223
| 15>  H       -0.2579199547     1.3585787345    -1.5543569487
| 16>  H       -0.7209477280     2.0828810447     0.0057570170
| 17>  H        0.5781625928    -0.6707199075    -0.3960139834
| 18>  H       -0.5085478931    -0.1153441557     2.0239455317
| 19>  H       -3.1449039802    -1.9055213993    -2.3555778593
| 20>  H       -3.4602135486    -1.9711115605    -0.5954150837
| 21> *
| 22>
| 23>                          ****END OF INPUT****

CARTESIAN COORDINATES (ANGSTROEM)
---------------------------------
  C     -0.022287    1.400934   -0.487951
  C     -0.092491    0.005536    0.152782
  O      0.292839    0.037022    1.503577
  C     -1.499223   -0.561871    0.044605
  O     -2.222109   -0.747326    0.990860
  O     -1.846266   -0.824969   -1.236471
  C     -3.174136   -1.326757   -1.430361
  C     -4.146063   -0.236735   -1.560033
  N     -4.917427    0.614278   -1.677293
  H      0.988948    1.793644   -0.360796
  H     -0.257920    1.358579   -1.554357
  H     -0.720948    2.082881    0.005757
  H      0.578163   -0.670720   -0.396014
  H     -0.508548   -0.115344    2.023946
  H     -3.144904   -1.905521   -2.355578
  H     -3.460214   -1.971112   -0.595415

 Total Charge           Charge          ....    0
 Multiplicity           Mult            ....    1
 Number of Electrons    NEL             ....   68
 Basis Dimension        Dim             ....  321

ORBITAL ENERGIES
----------------

  NO   OCC          E(Eh)            E(eV)
   0   2.0000     -20.650553      -561.9301
   1   2.0000     -20.584357      -560.1288
   2   2.0000     -20.569009      -559.7112
   3   2.0000     -15.594635      -424.3516
   4   2.0000     -11.413310      -310.5719
   5   2.0000     -11.366125      -309.2880
   6   2.0000     -11.317951      -307.9771
   7   2.0000     -11.292824      -307.2934
   8   2.0000     -11.238386      -305.8120
   9   2.0000      -1.506630       -40.9975
  10   2.0000      -1.411185       -38.4003
  11   2.0000      -1.376948       -37.4687
  12   2.0000      -1.238937       -33.7132
  13   2.0000      -1.082185       -29.4478
  14   2.0000      -1.029846       -28.0235
  15   2.0000      -0.910062       -24.7641
  16   2.0000      -0.827085       -22.5061
  17   2.0000      -0.776195       -21.1213
  18   2.0000      -0.758105       -20.6291
  19   2.0000      -0.728523       -19.8241
  20   2.0000      -0.679422       -18.4880
  21   2.0000      -0.667843       -18.1729
  22   2.0000      -0.637168       -17.3382
  23   2.0000      -0.602076       -16.3833
  24   2.0000      -0.595199       -16.1962
  25   2.0000      -0.578372       -15.7383
  26   2.0000      -0.569136       -15.4870
  27   2.0000      -0.551026       -14.9942
  28   2.0000      -0.541958       -14.7474
  29   2.0000      -0.515813       -14.0360
  30   2.0000      -0.494992       -13.4694
  31   2.0000      -0.481176       -13.0935
  32   2.0000      -0.475951       -12.9513
  33   2.0000      -0.461737       -12.5645
  34   0.0000       0.118125         3.2143
  35   0.0000       0.132556         3.6070
  36   0.0000       0.139243         3.7890
  37   0.0000       0.155586         4.2337
  38   0.0000       0.167801         4.5661

MULLIKEN ATOMIC CHARGES
-----------------------
   0 C :   -0.368520
   1 C :    0.093037
   2 O :   -0.472668
   3 C :    0.305702
   4 O :   -0.340300
   5 O :   -0.247493
   6 C :    0.037519
   7 C :   -0.176948
   8 N :   -0.049050
   9 H :    0.147448
  10 H :    0.136960
  11 H :    0.128945
  12 H :    0.110401
  13 H :    0.338510
  14 H :    0.177143
  15 H :    0.179316
Sum of atomic charges:   -0.0000000

LOEWDIN ATOMIC CHARGES
----------------------
   0 C :   -0.282208
   1 C :   -0.350622
   2 O :   -0.002219
   3 C :   -0.450769
   4 O :    0.132786
   5 O :    0.268926
   6 C :   -0.261574
   7 C :   -0.183528
   8 N :    0.083346
   9 H :    0.131612
  10 H :    0.128507
  11 H :    0.129134
  12 H :    0.153860
  13 H :    0.184708
  14 H :    0.158145
  15 H :    0.159896

  Mayer bond orders larger than 0.1
B(  0-C ,  1-C ) :   0.8810 B(  0-C ,  9-H ) :   0.9317 B(  0-C , 10-H ) :   0.9231
B(  0-C , 11-H ) :   0.9245 B(  1-C ,  2-O ) :   1.0535 B(  1-C ,  3-C ) :   0.9523
B(  1-C , 12-H ) :   0.9188 B(  2-O , 13-H ) :   0.8115 B(  3-C ,  4-O ) :   1.8716
B(  3-C ,  5-O ) :   1.0939 B(  5-O ,  6-C ) :   0.8674 B(  6-C ,  7-C ) :   0.9159
B(  6-C , 14-H ) :   0.9080 B(  6-C , 15-H ) :   0.9209 B(  7-C ,  8-N ) :   2.8298

MP2 TOTAL ENERGY:     -474.311177984 Eh
FINAL SINGLE POINT ENERGY      -474.311177984309

DIPOLE MOMENT
-------------
                                X             Y             Z
Electronic contribution:     -5.75622      -2.71010       0.01753
Nuclear contribution   :      6.25746       1.74852      -0.66404
                        -----------------------------------------
Total Dipole Moment    :      0.50124      -0.96157      -0.64651
                        -----------------------------------------
Magnitude (a.u.)       :      1.26247
Magnitude (Debye)      :      3.20895

                             ****ORCA TERMINATED NORMALLY****
TOTAL RUN TIME: 0 days 0 hours 15 minutes 50 seconds 49 msec
