                         Program Version 3.0.3 - RELEASE   -
|  1> ! RI-MP2 RIJK def2-TZVP def2-TZVP/C def2-TZVP/JK TIGHTSCF
|  2> % maxcore 2000
|  3> % mp2 density relaxed end
|  4> *xyz 0 1
|  5>  C       -0.2177626993     1.5128513342    -0.7242937327
|  6>  C       -0.2417009981     0.1202052396    -0.1284440456
|  7>  C       -1.6248990965    -0.4052638237     0.2690171649
|  8>  C       -2.1603113448     0.3649485258     1.4613216496
|  9>  O       -2.6960423574     1.4510234875     1.3562807235
| 10>  C       -1.9585505545    -0.2377785531     2.8386903703
| 11>  O       -2.4192634213     0.6120016639     3.8460167575
| 12>  C        0.7980259361    -0.8563362954    -0.5451210728
| 13>  N        0.8231818149    -0.2782984243     0.8114253734
| 14>  H        0.8070975648     1.8130735722    -0.9651360406
| 15>  H       -0.8055902192     1.5513297190    -1.6478492675
| 16>  H       -0.6455103444     2.2466456423    -0.0352411260
| 17>  H       -2.3203507645    -0.2849545559    -0.5676019404
| 18>  H       -1.5472970836    -1.4675890323     0.5169827132
| 19>  H       -2.4796190690    -1.2114279798     2.8596546282
| 20>  H       -0.8842021754    -0.4623523997     2.9434293633
| 21>  H       -2.7902120308     1.3761226898     3.3758880765
| 22>  H        0.5707196813    -1.9182829349    -0.5867518871
| 23>  H        1.5428996194    -0.5269722865    -1.2651640593
| 24>  H        1.5314762621     0.4489988113     0.8699692413
| 25> *
| 26>
| 27>                          ****END OF INPUT****

CARTESIAN COORDINATES (ANGSTROEM)
---------------------------------
  C     -0.217763    1.512851   -0.724294
  C     -0.241701    0.120205   -0.128444
  C     -1.624899   -0.405264    0.269017
  C     -2.160311    0.364949    1.461322
  O     -2.696042    1.451023    1.356281
  C     -1.958551   -0.237779    2.838690
  O     -2.419263    0.612002    3.846017
  C      0.798026   -0.856336   -0.545121
  N      0.823182   -0.278298    0.811425
  H      0.807098    1.813074   -0.965136
  H     -0.805590    1.551330   -1.647849
  H     -0.645510    2.246646   -0.035241
  H     -2.320351   -0.284955   -0.567602
  H     -1.547297   -1.467589    0.516983
  H     -2.479619   -1.211428    2.859655
  H     -0.884202   -0.462352    2.943429
  H     -2.790212    1.376123    3.375888
  H      0.570720   -1.918283   -0.586752
  H      1.542900   -0.526972   -1.265164
  H      1.531476    0.448999    0.869969

 Total Charge           Charge          ....    0
 Multiplicity           Mult            ....    1
 Number of Electrons    NEL             ....   70
 Basis Dimension        Dim             ....  345

ORBITAL ENERGIES
----------------

  NO   OCC          E(Eh)            E(eV)
   0   2.0000     -20.559426      -559.4504
   1   2.0000     -20.548836      -559.1623
   2   2.0000     -15.570093      -423.6838
   3   2.0000     -11.339928      -308.5751
   4   2.0000     -11.288560      -307.1773
   5   2.0000     -11.283114      -307.0291
   6   2.0000     -11.267891      -306.6149
   7   2.0000     -11.251087      -306.1576
   8   2.0000     -11.232058      -305.6398
   9   2.0000      -1.410493       -38.3815
  10   2.0000      -1.353697       -36.8360
  11   2.0000      -1.279901       -34.8279
  12   2.0000      -1.059969       -28.8432
  13   2.0000      -0.996002       -27.1026
  14   2.0000      -0.945634       -25.7320
  15   2.0000      -0.897298       -24.4167
  16   2.0000      -0.795756       -21.6536
  17   2.0000      -0.758354       -20.6359
  18   2.0000      -0.706660       -19.2292
  19   2.0000      -0.683070       -18.5873
  20   2.0000      -0.662942       -18.0396
  21   2.0000      -0.657552       -17.8929
  22   2.0000      -0.631337       -17.1796
  23   2.0000      -0.603114       -16.4116
  24   2.0000      -0.589541       -16.0422
  25   2.0000      -0.571377       -15.5480
  26   2.0000      -0.556451       -15.1418
  27   2.0000      -0.537046       -14.6138
  28   2.0000      -0.521878       -14.2010
  29   2.0000      -0.508804       -13.8453
  30   2.0000      -0.482642       -13.1333
  31   2.0000      -0.473254       -12.8779
  32   2.0000      -0.446119       -12.1395
  33   2.0000      -0.432272       -11.7627
  34   2.0000      -0.393912       -10.7189
  35   0.0000       0.125734         3.4214
  36   0.0000       0.129520         3.5244
  37   0.0000       0.157771         4.2932
  38   0.0000       0.164285         4.4704
  39   0.0000       0.171104         4.6560

MULLIKEN ATOMIC CHARGES
-----------------------
   0 C :   -0.403562
   1 C :    0.071615
   2 C :   -0.154708
   3 C :    0.182083
   4 O :   -0.333124
   5 C :   -0.053574
   6 O :   -0.489534
   7 C :   -0.189827
   8 N :   -0.393113
   9 H :    0.121030
  10 H :    0.136599
  11 H :    0.165013
  12 H :    0.134038
  13 H :    0.134806
  14 H :    0.109944
  15 H :    0.153683
  16 H :    0.332883
  17 H :    0.121616
  18 H :    0.131625
  19 H :    0.222507
Sum of atomic charges:    0.0000000

LOEWDIN ATOMIC CHARGES
----------------------
   0 C :   -0.268714
   1 C :   -0.328107
   2 C :   -0.185468
   3 C :   -0.320815
   4 O :    0.133992
   5 C :   -0.339484
   6 O :   -0.036287
   7 C :   -0.243534
   8 N :    0.002730
   9 H :    0.126845
  10 H :    0.133322
  11 H :    0.134347
  12 H :    0.156820
  13 H :    0.156005
  14 H :    0.136132
  15 H :    0.143671
  16 H :    0.180744
  17 H :    0.125926
  18 H :    0.124507
  19 H :    0.167370

  Mayer bond orders larger than 0.1
B(  0-C ,  1-C ) :   0.9643 B(  0-C ,  9-H ) :   0.9225 B(  0-C , 10-H ) :   0.9314
B(  0-C , 11-H ) :   0.9259 B(  1-C ,  2-C ) :   0.8720 B(  1-C ,  7-C ) :   0.9322
B(  1-C ,  8-N ) :   0.8647 B(  2-C ,  3-C ) :   0.8870 B(  2-C , 12-H ) :   0.9136
B(  2-C , 13-H ) :   0.9217 B(  3-C ,  4-O ) :   1.8872 B(  3-C ,  5-C ) :   0.9630
B(  5-C ,  6-O ) :   0.9981 B(  5-C , 14-H ) :   0.8926 B(  5-C , 15-H ) :   0.9087
B(  6-O , 16-H ) :   0.8065 B(  7-C ,  8-N ) :   0.9399 B(  7-C , 17-H ) :   0.9081
B(  7-C , 18-H ) :   0.9240 B(  8-N , 19-H ) :   0.8676

MP2 TOTAL ENERGY:     -439.558533322 Eh
FINAL SINGLE POINT ENERGY      -439.558533322342

DIPOLE MOMENT
-------------
                                X             Y             Z
Electronic contribution:     -4.07192       1.05838       4.49069
Nuclear contribution   :      4.75155      -1.44344      -5.84247
                        -----------------------------------------
Total Dipole Moment    :      0.67963      -0.38506      -1.35178
                        -----------------------------------------
Magnitude (a.u.)       :      1.56124
Magnitude (Debye)      :      3.96836

                             ****ORCA TERMINATED NORMALLY****
TOTAL RUN TIME: 0 days 0 hours 16 minutes 53 seconds 703 msec
