                         Program Version 3.0.3 - RELEASE   -
|  1> ! RI-MP2 RIJK def2-TZVP def2-TZVP/C def2-TZVP/JK TIGHTSCF
|  2> % maxcore 2000
|  3> % mp2 density relaxed end
|  4> *xyz 0 1
|  5>  C        0.1749128096     1.4154036339     0.0209568201
|  6>  C        0.0541056327    -0.0727745690    -0.0931687353
|  7>  C        0.7289822651    -1.0501588139    -1.0940428545
|  8>  C        0.0549728137    -1.8670982441     0.0288654542
|  9>  O        0.6280009052    -0.9089552128     1.0008446578
| 10>  C       -1.2341670209    -0.9845921357    -0.0514590295
| 11>  C       -2.0616848598    -0.9004398144     1.2292918854
| 12>  C       -2.1541196070    -1.0682604543    -1.2682909463
| 13>  H        1.2258171852     1.7109543558     0.0963913254
| 14>  H       -0.2574225762     1.8990368087    -0.8609637415
| 15>  H       -0.3518472497     1.7801902554     0.9081655238
| 16>  H        0.3630511866    -1.1198177900    -2.1186479052
| 17>  H        1.8183471800    -1.0471672526    -1.0422187379
| 18>  H        0.1511139603    -2.9284232849     0.2639104603
| 19>  H       -1.4216590825    -0.8443794482     2.1093544941
| 20>  H       -2.7134001662    -0.0189126227     1.2104344915
| 21>  H       -2.7126205482    -1.7773925813     1.3232569843
| 22>  H       -2.8016579562    -1.9491189477    -1.1908889317
| 23>  H       -2.8118444674    -0.1921227472    -1.3037865492
| 24>  H       -1.6309768843    -1.1270371150    -2.2236377059
| 25> *
| 26>
| 27>                          ****END OF INPUT****

CARTESIAN COORDINATES (ANGSTROEM)
---------------------------------
  C      0.174913    1.415404    0.020957
  C      0.054106   -0.072775   -0.093169
  C      0.728982   -1.050159   -1.094043
  C      0.054973   -1.867098    0.028865
  O      0.628001   -0.908955    1.000845
  C     -1.234167   -0.984592   -0.051459
  C     -2.061685   -0.900440    1.229292
  C     -2.154120   -1.068260   -1.268291
  H      1.225817    1.710954    0.096391
  H     -0.257423    1.899037   -0.860964
  H     -0.351847    1.780190    0.908166
  H      0.363051   -1.119818   -2.118648
  H      1.818347   -1.047167   -1.042219
  H      0.151114   -2.928423    0.263910
  H     -1.421659   -0.844379    2.109354
  H     -2.713400   -0.018913    1.210434
  H     -2.712621   -1.777393    1.323257
  H     -2.801658   -1.949119   -1.190889
  H     -2.811844   -0.192123   -1.303787
  H     -1.630977   -1.127037   -2.223638

 Total Charge           Charge          ....    0
 Multiplicity           Mult            ....    1
 Number of Electrons    NEL             ....   62
 Basis Dimension        Dim             ....  320

ORBITAL ENERGIES
----------------

  NO   OCC          E(Eh)            E(eV)
   0   2.0000     -20.536859      -558.8363
   1   2.0000     -11.297330      -307.4160
   2   2.0000     -11.290382      -307.2269
   3   2.0000     -11.244663      -305.9828
   4   2.0000     -11.227992      -305.5292
   5   2.0000     -11.222685      -305.3848
   6   2.0000     -11.219299      -305.2927
   7   2.0000     -11.206376      -304.9410
   8   2.0000      -1.385850       -37.7109
   9   2.0000      -1.091098       -29.6903
  10   2.0000      -1.011057       -27.5123
  11   2.0000      -0.992562       -27.0090
  12   2.0000      -0.929775       -25.3005
  13   2.0000      -0.850923       -23.1548
  14   2.0000      -0.827661       -22.5218
  15   2.0000      -0.690030       -18.7767
  16   2.0000      -0.649941       -17.6858
  17   2.0000      -0.644080       -17.5263
  18   2.0000      -0.609575       -16.5874
  19   2.0000      -0.602195       -16.3866
  20   2.0000      -0.581709       -15.8291
  21   2.0000      -0.560701       -15.2574
  22   2.0000      -0.542666       -14.7667
  23   2.0000      -0.530898       -14.4465
  24   2.0000      -0.518471       -14.1083
  25   2.0000      -0.504535       -13.7291
  26   2.0000      -0.479805       -13.0561
  27   2.0000      -0.450917       -12.2701
  28   2.0000      -0.446096       -12.1389
  29   2.0000      -0.416107       -11.3228
  30   2.0000      -0.398285       -10.8379
  31   0.0000       0.131313         3.5732
  32   0.0000       0.162288         4.4161
  33   0.0000       0.171317         4.6618
  34   0.0000       0.180432         4.9098
  35   0.0000       0.192846         5.2476

MULLIKEN ATOMIC CHARGES
-----------------------
   0 C :   -0.432416
   1 C :    0.061247
   2 C :   -0.146857
   3 C :   -0.059298
   4 O :   -0.322017
   5 C :    0.170766
   6 C :   -0.470454
   7 C :   -0.404877
   8 H :    0.146756
   9 H :    0.139000
  10 H :    0.147987
  11 H :    0.108586
  12 H :    0.115310
  13 H :    0.130701
  14 H :    0.165766
  15 H :    0.125768
  16 H :    0.129123
  17 H :    0.135030
  18 H :    0.132507
  19 H :    0.127373
Sum of atomic charges:    0.0000000

LOEWDIN ATOMIC CHARGES
----------------------
   0 C :   -0.270989
   1 C :   -0.258724
   2 C :   -0.183198
   3 C :   -0.195554
   4 O :    0.141046
   5 C :   -0.235928
   6 C :   -0.275578
   7 C :   -0.271989
   8 H :    0.135482
   9 H :    0.134733
  10 H :    0.134916
  11 H :    0.122993
  12 H :    0.133927
  13 H :    0.123030
  14 H :    0.133729
  15 H :    0.125198
  16 H :    0.126215
  17 H :    0.129502
  18 H :    0.129064
  19 H :    0.122126

  Mayer bond orders larger than 0.1
B(  0-C ,  1-C ) :   0.8213 B(  0-C ,  8-H ) :   0.9380 B(  0-C ,  9-H ) :   0.9380
B(  0-C , 10-H ) :   0.9429 B(  1-C ,  2-C ) :   0.8798 B(  1-C ,  4-O ) :   0.9054
B(  1-C ,  5-C ) :   0.8710 B(  2-C ,  3-C ) :   0.9148 B(  2-C , 11-H ) :   0.9188
B(  2-C , 12-H ) :   0.9217 B(  3-C ,  4-O ) :   0.9081 B(  3-C ,  5-C ) :   0.9281
B(  3-C , 13-H ) :   0.8866 B(  5-C ,  6-C ) :   0.8940 B(  5-C ,  7-C ) :   0.9213
B(  6-C , 14-H ) :   0.9347 B(  6-C , 15-H ) :   0.9355 B(  6-C , 16-H ) :   0.9348
B(  7-C , 17-H ) :   0.9352 B(  7-C , 18-H ) :   0.9337 B(  7-C , 19-H ) :   0.9305

MP2 TOTAL ENERGY:     -348.345576139 Eh
FINAL SINGLE POINT ENERGY      -348.345576139268

DIPOLE MOMENT
-------------
                                X             Y             Z
Electronic contribution:      4.56309      -2.11105       1.82830
Nuclear contribution   :     -4.97009       2.21513      -2.47952
                        -----------------------------------------
Total Dipole Moment    :     -0.40700       0.10408      -0.65123
                        -----------------------------------------
Magnitude (a.u.)       :      0.77497
Magnitude (Debye)      :      1.96981

                             ****ORCA TERMINATED NORMALLY****
TOTAL RUN TIME: 0 days 0 hours 14 minutes 30 seconds 33 msec
