                         Program Version 3.0.3 - RELEASE   -
|  1> ! RI-MP2 RIJK def2-TZVP def2-TZVP/C def2-TZVP/JK TIGHTSCF
|  2> % maxcore 2000
|  3> % mp2 density relaxed end
|  4> *xyz 0 1
|  5>  C        0.5284989936     1.5815309640    -0.4297564608
|  6>  O        0.4977194373     0.1738069551    -0.2959049262
|  7>  C        0.9237628568    -0.5126300075    -1.4079823303
|  8>  C        0.3599675104    -0.4768376630    -2.8739555019
|  9>  C        1.4894395493    -1.5511409651    -2.8597756793
| 10>  C        2.3501984649    -0.5373062849    -2.0549928138
| 11>  C        0.8957430433    -2.0607715001    -1.4938851495
| 12>  C        1.7286360688    -2.9125725363    -0.5440709873
| 13>  O       -0.4243604354    -2.5729800272    -1.5313034703
| 14>  H        1.5490742991     1.9517630500    -0.6028373472
| 15>  H       -0.1121283563     1.9228085123    -1.2546304149
| 16>  H        0.1541342268     1.9993877112     0.5071956394
| 17>  H       -0.6574825660    -0.8302251728    -3.0189782845
| 18>  H        0.5799383439     0.4231559179    -3.4527992153
| 19>  H        1.8198442937    -2.1575988185    -3.7008677572
| 20>  H        2.6355089843     0.3620265213    -2.6047823041
| 21>  H        3.1834284404    -0.9129351857    -1.4618123948
| 22>  H        2.7618915132    -2.5812802533    -0.4397666440
| 23>  H        1.2639900708    -2.9103811539     0.4461214726
| 24>  H        1.7550323883    -3.9507042303    -0.9000678607
| 25>  H       -0.3677591272    -3.5256412330    -1.6536512798
| 26> *
| 27>
| 28>                          ****END OF INPUT****

CARTESIAN COORDINATES (ANGSTROEM)
---------------------------------
  C      0.528499    1.581531   -0.429756
  O      0.497719    0.173807   -0.295905
  C      0.923763   -0.512630   -1.407982
  C      0.359968   -0.476838   -2.873956
  C      1.489440   -1.551141   -2.859776
  C      2.350198   -0.537306   -2.054993
  C      0.895743   -2.060772   -1.493885
  C      1.728636   -2.912573   -0.544071
  O     -0.424360   -2.572980   -1.531303
  H      1.549074    1.951763   -0.602837
  H     -0.112128    1.922809   -1.254630
  H      0.154134    1.999388    0.507196
  H     -0.657483   -0.830225   -3.018978
  H      0.579938    0.423156   -3.452799
  H      1.819844   -2.157599   -3.700868
  H      2.635509    0.362027   -2.604782
  H      3.183428   -0.912935   -1.461812
  H      2.761892   -2.581280   -0.439767
  H      1.263990   -2.910381    0.446121
  H      1.755032   -3.950704   -0.900068
  H     -0.367759   -3.525641   -1.653651

 Total Charge           Charge          ....    0
 Multiplicity           Mult            ....    1
 Number of Electrons    NEL             ....   70
 Basis Dimension        Dim             ....  351

ORBITAL ENERGIES
----------------

  NO   OCC          E(Eh)            E(eV)
   0   2.0000     -20.557882      -559.4084
   1   2.0000     -20.550478      -559.2069
   2   2.0000     -11.293262      -307.3053
   3   2.0000     -11.289576      -307.2050
   4   2.0000     -11.270250      -306.6791
   5   2.0000     -11.240258      -305.8630
   6   2.0000     -11.226361      -305.4848
   7   2.0000     -11.220586      -305.3277
   8   2.0000     -11.217527      -305.2444
   9   2.0000      -1.387140       -37.7460
  10   2.0000      -1.361674       -37.0530
  11   2.0000      -1.193224       -32.4693
  12   2.0000      -0.992258       -27.0007
  13   2.0000      -0.944980       -25.7142
  14   2.0000      -0.903515       -24.5859
  15   2.0000      -0.852326       -23.1930
  16   2.0000      -0.826216       -22.4825
  17   2.0000      -0.726701       -19.7745
  18   2.0000      -0.695275       -18.9194
  19   2.0000      -0.656924       -17.8758
  20   2.0000      -0.652267       -17.7491
  21   2.0000      -0.635558       -17.2944
  22   2.0000      -0.625612       -17.0238
  23   2.0000      -0.591968       -16.1083
  24   2.0000      -0.559640       -15.2286
  25   2.0000      -0.539407       -14.6780
  26   2.0000      -0.529674       -14.4132
  27   2.0000      -0.522571       -14.2199
  28   2.0000      -0.509442       -13.8626
  29   2.0000      -0.485841       -13.2204
  30   2.0000      -0.465446       -12.6654
  31   2.0000      -0.450679       -12.2636
  32   2.0000      -0.431880       -11.7521
  33   2.0000      -0.405221       -11.0266
  34   2.0000      -0.394733       -10.7412
  35   0.0000       0.135461         3.6861
  36   0.0000       0.145112         3.9487
  37   0.0000       0.170585         4.6419
  38   0.0000       0.174196         4.7401
  39   0.0000       0.196766         5.3543

MULLIKEN ATOMIC CHARGES
-----------------------
   0 C :   -0.227728
   1 O :   -0.306076
   2 C :    0.130361
   3 C :   -0.234845
   4 C :   -0.149041
   5 C :   -0.268050
   6 C :    0.230420
   7 C :   -0.437743
   8 O :   -0.470147
   9 H :    0.118144
  10 H :    0.123311
  11 H :    0.144038
  12 H :    0.137215
  13 H :    0.116665
  14 H :    0.146134
  15 H :    0.117268
  16 H :    0.115908
  17 H :    0.122891
  18 H :    0.156568
  19 H :    0.120105
  20 H :    0.314600
Sum of atomic charges:   -0.0000000

LOEWDIN ATOMIC CHARGES
----------------------
   0 C :   -0.338563
   1 O :    0.197589
   2 C :   -0.298881
   3 C :   -0.180706
   4 C :   -0.153792
   5 C :   -0.184417
   6 C :   -0.310117
   7 C :   -0.277513
   8 O :    0.018817
   9 H :    0.103759
  10 H :    0.105832
  11 H :    0.114304
  12 H :    0.133501
  13 H :    0.127357
  14 H :    0.127482
  15 H :    0.130638
  16 H :    0.123646
  17 H :    0.126409
  18 H :    0.134719
  19 H :    0.123934
  20 H :    0.176002

  Mayer bond orders larger than 0.1
B(  0-C ,  1-O ) :   0.8908 B(  0-C ,  9-H ) :   0.9346 B(  0-C , 10-H ) :   0.9366
B(  0-C , 11-H ) :   0.9407 B(  1-O ,  2-C ) :   0.9926 B(  2-C ,  3-C ) :   0.9161
B(  2-C ,  5-C ) :   0.8904 B(  2-C ,  6-C ) :   0.8671 B(  3-C ,  4-C ) :   0.9322
B(  3-C , 12-H ) :   0.9109 B(  3-C , 13-H ) :   0.9298 B(  4-C ,  5-C ) :   0.9039
B(  4-C ,  6-C ) :   0.8588 B(  4-C , 14-H ) :   0.8816 B(  5-C , 15-H ) :   0.9165
B(  5-C , 16-H ) :   0.9348 B(  6-C ,  7-C ) :   0.9520 B(  6-C ,  8-O ) :   1.0542
B(  7-C , 17-H ) :   0.9276 B(  7-C , 18-H ) :   0.9440 B(  7-C , 19-H ) :   0.9234
B(  8-O , 20-H ) :   0.8399

MP2 TOTAL ENERGY:     -423.469275683 Eh
FINAL SINGLE POINT ENERGY      -423.469275682967

DIPOLE MOMENT
-------------
                                X             Y             Z
Electronic contribution:     -2.95720      -1.60774       0.18876
Nuclear contribution   :      3.51526       1.51637      -0.51967
                        -----------------------------------------
Total Dipole Moment    :      0.55806      -0.09137      -0.33091
                        -----------------------------------------
Magnitude (a.u.)       :      0.65520
Magnitude (Debye)      :      1.66538

                             ****ORCA TERMINATED NORMALLY****
TOTAL RUN TIME: 0 days 0 hours 18 minutes 25 seconds 438 msec
