                         Program Version 3.0.3 - RELEASE   -
|  1> ! RI-MP2 RIJK def2-TZVP def2-TZVP/C def2-TZVP/JK TIGHTSCF
|  2> % maxcore 2000
|  3> % mp2 density relaxed end
|  4> *xyz 0 1
|  5>  N       -0.0516213118    -1.1626009194    -0.1348851982
|  6>  C       -0.0222996411    -0.0103292542    -0.0498252239
|  7>  C        0.0053783364     1.4461444434     0.0391985986
|  8>  C       -0.4925953545     2.0209872762     1.4056959043
|  9>  C        0.7514173692     2.8074785889     1.7869478917
| 10>  C        1.3912479946     3.4981409677     0.5524297773
| 11>  C        2.7428701283     3.1847955544     1.2074427728
| 12>  N        1.9654541021     1.8937611555     1.4870408180
| 13>  C        1.4239044144     2.0342082320     0.0479255736
| 14>  H       -0.5689587481     1.8462044818    -0.8027874307
| 15>  H       -1.3784823694     2.6504008971     1.2929462389
| 16>  H       -0.7140797788     1.2331469779     2.1284541907
| 17>  H        0.7772670353     3.2947140212     2.7628750629
| 18>  H        1.0611689055     4.3972865088     0.0192462223
| 19>  H        3.6121464980     3.0390824586     0.5606360534
| 20>  H        3.0159529937     3.7319628565     2.1136380134
| 21>  H        2.1095024062     1.7249273737    -0.7416934252
| 22> *
| 23>
| 24>                          ****END OF INPUT****

CARTESIAN COORDINATES (ANGSTROEM)
---------------------------------
  N     -0.051621   -1.162601   -0.134885
  C     -0.022300   -0.010329   -0.049825
  C      0.005378    1.446144    0.039199
  C     -0.492595    2.020987    1.405696
  C      0.751417    2.807479    1.786948
  C      1.391248    3.498141    0.552430
  C      2.742870    3.184796    1.207443
  N      1.965454    1.893761    1.487041
  C      1.423904    2.034208    0.047926
  H     -0.568959    1.846204   -0.802787
  H     -1.378482    2.650401    1.292946
  H     -0.714080    1.233147    2.128454
  H      0.777267    3.294714    2.762875
  H      1.061169    4.397287    0.019246
  H      3.612146    3.039082    0.560636
  H      3.015953    3.731963    2.113638
  H      2.109502    1.724927   -0.741693

 Total Charge           Charge          ....    0
 Multiplicity           Mult            ....    1
 Number of Electrons    NEL             ....   64
 Basis Dimension        Dim             ....  327

ORBITAL ENERGIES
----------------

  NO   OCC          E(Eh)            E(eV)
   0   2.0000     -15.582343      -424.0171
   1   2.0000     -15.564183      -423.5230
   2   2.0000     -11.291320      -307.2524
   3   2.0000     -11.287747      -307.1552
   4   2.0000     -11.284402      -307.0642
   5   2.0000     -11.273279      -306.7615
   6   2.0000     -11.267993      -306.6177
   7   2.0000     -11.265979      -306.5629
   8   2.0000     -11.254079      -306.2391
   9   2.0000      -1.325880       -36.0790
  10   2.0000      -1.213608       -33.0240
  11   2.0000      -1.102089       -29.9894
  12   2.0000      -0.992304       -27.0020
  13   2.0000      -0.947510       -25.7831
  14   2.0000      -0.911218       -24.7955
  15   2.0000      -0.843481       -22.9523
  16   2.0000      -0.754522       -20.5316
  17   2.0000      -0.715682       -19.4747
  18   2.0000      -0.685005       -18.6399
  19   2.0000      -0.663205       -18.0467
  20   2.0000      -0.618042       -16.8178
  21   2.0000      -0.590051       -16.0561
  22   2.0000      -0.557244       -15.1634
  23   2.0000      -0.542073       -14.7506
  24   2.0000      -0.526669       -14.3314
  25   2.0000      -0.508866       -13.8470
  26   2.0000      -0.497089       -13.5265
  27   2.0000      -0.480425       -13.0730
  28   2.0000      -0.468376       -12.7452
  29   2.0000      -0.450536       -12.2597
  30   2.0000      -0.439353       -11.9554
  31   2.0000      -0.389489       -10.5985
  32   0.0000       0.124949         3.4000
  33   0.0000       0.143543         3.9060
  34   0.0000       0.149721         4.0741
  35   0.0000       0.158316         4.3080
  36   0.0000       0.175688         4.7807

MULLIKEN ATOMIC CHARGES
-----------------------
   0 N :   -0.049803
   1 C :   -0.234099
   2 C :    0.050735
   3 C :   -0.232670
   4 C :   -0.074937
   5 C :   -0.062600
   6 C :   -0.166258
   7 N :   -0.199995
   8 C :   -0.082985
   9 H :    0.142495
  10 H :    0.130751
  11 H :    0.147987
  12 H :    0.127857
  13 H :    0.115941
  14 H :    0.124506
  15 H :    0.123468
  16 H :    0.139607
Sum of atomic charges:   -0.0000000

LOEWDIN ATOMIC CHARGES
----------------------
   0 N :    0.063300
   1 C :   -0.168598
   2 C :   -0.204254
   3 C :   -0.184474
   4 C :   -0.202253
   5 C :   -0.170911
   6 C :   -0.225757
   7 N :    0.137571
   8 C :   -0.174739
   9 H :    0.176752
  10 H :    0.142321
  11 H :    0.151593
  12 H :    0.140333
  13 H :    0.122569
  14 H :    0.125739
  15 H :    0.125502
  16 H :    0.145305

  Mayer bond orders larger than 0.1
B(  0-N ,  1-C ) :   2.8790 B(  1-C ,  2-C ) :   0.9392 B(  2-C ,  3-C ) :   0.9456
B(  2-C ,  8-C ) :   0.8861 B(  2-C ,  9-H ) :   0.9011 B(  3-C ,  4-C ) :   0.9625
B(  3-C , 10-H ) :   0.9196 B(  3-C , 11-H ) :   0.9136 B(  4-C ,  5-C ) :   0.9132
B(  4-C ,  7-N ) :   0.9173 B(  4-C , 12-H ) :   0.9128 B(  5-C ,  6-C ) :   0.9326
B(  5-C ,  8-C ) :   0.9127 B(  5-C , 13-H ) :   0.9102 B(  6-C ,  7-N ) :   0.9060
B(  6-C , 14-H ) :   0.9276 B(  6-C , 15-H ) :   0.9283 B(  7-N ,  8-C ) :   0.9549
B(  8-C , 16-H ) :   0.9072

MP2 TOTAL ENERGY:     -380.152883762 Eh
FINAL SINGLE POINT ENERGY      -380.152883761560

DIPOLE MOMENT
-------------
                                X             Y             Z
Electronic contribution:     -1.02141      -5.12318      -1.56686
Nuclear contribution   :      0.90191       7.28755       1.49103
                        -----------------------------------------
Total Dipole Moment    :     -0.11950       2.16437      -0.07582
                        -----------------------------------------
Magnitude (a.u.)       :      2.16899
Magnitude (Debye)      :      5.51314

                             ****ORCA TERMINATED NORMALLY****
TOTAL RUN TIME: 0 days 0 hours 19 minutes 16 seconds 17 msec
