                         Program Version 3.0.3 - RELEASE   -
|  1> ! RI-MP2 RIJK def2-TZVP def2-TZVP/C def2-TZVP/JK TIGHTSCF
|  2> % maxcore 2000
|  3> % mp2 density relaxed end
|  4> *xyz 0 1
|  5>  C       -0.1000313396     1.5242431686    -0.0269891257
|  6>  C        0.1143989117     0.0347638731    -0.0030278302
|  7>  C        0.4267621448    -0.6814446688    -1.3191216701
|  8>  N        1.1852023164    -1.8451153457    -0.8942602707
|  9>  C        1.4600747394    -1.9207602306     0.4434413681
| 10>  O        2.1318547963    -2.7631339911     0.9993465348
| 11>  C        0.7767867595    -0.7281048150     1.0905006723
| 12>  C        1.3541939023    -0.2013559290     2.3718908137
| 13>  N       -0.6985456807    -0.8352595135     0.8732338567
| 14>  H        0.7493395747     2.0400218031    -0.4874561683
| 15>  H       -0.9970778827     1.7795090863    -0.6032023111
| 16>  H       -0.2288376993     1.9238995873     0.9831697822
| 17>  H       -0.4958785640    -0.9628948034    -1.8409352041
| 18>  H        1.0188967436    -0.0370055203    -1.9833848752
| 19>  H        1.4535857389    -2.5908169359    -1.5152360833
| 20>  H        2.3911807249     0.1200693004     2.2325282222
| 21>  H        0.7802163338     0.6469516457     2.7563644510
| 22>  H        1.3568731719    -0.9930389636     3.1270165252
| 23>  H       -1.1554350318    -0.2500480178     1.5732040925
| 24> *
| 25>
| 26>                          ****END OF INPUT****

CARTESIAN COORDINATES (ANGSTROEM)
---------------------------------
  C     -0.100031    1.524243   -0.026989
  C      0.114399    0.034764   -0.003028
  C      0.426762   -0.681445   -1.319122
  N      1.185202   -1.845115   -0.894260
  C      1.460075   -1.920760    0.443441
  O      2.131855   -2.763134    0.999347
  C      0.776787   -0.728105    1.090501
  C      1.354194   -0.201356    2.371891
  N     -0.698546   -0.835260    0.873234
  H      0.749340    2.040022   -0.487456
  H     -0.997078    1.779509   -0.603202
  H     -0.228838    1.923900    0.983170
  H     -0.495879   -0.962895   -1.840935
  H      1.018897   -0.037006   -1.983385
  H      1.453586   -2.590817   -1.515236
  H      2.391181    0.120069    2.232528
  H      0.780216    0.646952    2.756364
  H      1.356873   -0.993039    3.127017
  H     -1.155435   -0.250048    1.573204

 Total Charge           Charge          ....    0
 Multiplicity           Mult            ....    1
 Number of Electrons    NEL             ....   68
 Basis Dimension        Dim             ....  339

ORBITAL ENERGIES
----------------

  NO   OCC          E(Eh)            E(eV)
   0   2.0000     -20.513934      -558.2125
   1   2.0000     -15.578222      -423.9050
   2   2.0000     -15.570683      -423.6998
   3   2.0000     -11.342350      -308.6410
   4   2.0000     -11.284086      -307.0556
   5   2.0000     -11.277563      -306.8781
   6   2.0000     -11.277361      -306.8726
   7   2.0000     -11.243944      -305.9633
   8   2.0000     -11.232038      -305.6393
   9   2.0000      -1.379406       -37.5356
  10   2.0000      -1.298140       -35.3242
  11   2.0000      -1.218402       -33.1544
  12   2.0000      -1.031058       -28.0565
  13   2.0000      -1.007121       -27.4052
  14   2.0000      -0.949599       -25.8399
  15   2.0000      -0.912734       -24.8367
  16   2.0000      -0.781716       -21.2716
  17   2.0000      -0.752760       -20.4836
  18   2.0000      -0.688146       -18.7254
  19   2.0000      -0.677320       -18.4308
  20   2.0000      -0.640399       -17.4261
  21   2.0000      -0.622023       -16.9261
  22   2.0000      -0.609414       -16.5830
  23   2.0000      -0.588989       -16.0272
  24   2.0000      -0.584874       -15.9152
  25   2.0000      -0.568557       -15.4712
  26   2.0000      -0.550125       -14.9697
  27   2.0000      -0.537556       -14.6276
  28   2.0000      -0.521039       -14.1782
  29   2.0000      -0.485205       -13.2031
  30   2.0000      -0.466132       -12.6841
  31   2.0000      -0.427362       -11.6291
  32   2.0000      -0.390397       -10.6232
  33   2.0000      -0.375571       -10.2198
  34   0.0000       0.120751         3.2858
  35   0.0000       0.146982         3.9996
  36   0.0000       0.159853         4.3498
  37   0.0000       0.165535         4.5044
  38   0.0000       0.182677         4.9709

MULLIKEN ATOMIC CHARGES
-----------------------
   0 C :   -0.385649
   1 C :    0.035326
   2 C :   -0.047462
   3 N :   -0.324255
   4 C :    0.177985
   5 O :   -0.342003
   6 C :    0.118095
   7 C :   -0.371111
   8 N :   -0.382692
   9 H :    0.140185
  10 H :    0.147773
  11 H :    0.129101
  12 H :    0.121641
  13 H :    0.109341
  14 H :    0.237116
  15 H :    0.141201
  16 H :    0.120204
  17 H :    0.162423
  18 H :    0.212778
Sum of atomic charges:    0.0000000

LOEWDIN ATOMIC CHARGES
----------------------
   0 C :   -0.269571
   1 C :   -0.286592
   2 C :   -0.221080
   3 N :    0.130109
   4 C :   -0.411361
   5 O :    0.089841
   6 C :   -0.243215
   7 C :   -0.263481
   8 N :    0.053494
   9 H :    0.133733
  10 H :    0.133027
  11 H :    0.129676
  12 H :    0.136124
  13 H :    0.131942
  14 H :    0.183084
  15 H :    0.137370
  16 H :    0.125230
  17 H :    0.141662
  18 H :    0.170012

  Mayer bond orders larger than 0.1
B(  0-C ,  1-C ) :   0.9097 B(  0-C ,  9-H ) :   0.9256 B(  0-C , 10-H ) :   0.9385
B(  0-C , 11-H ) :   0.9316 B(  1-C ,  2-C ) :   0.9340 B(  1-C ,  6-C ) :   0.8787
B(  1-C ,  8-N ) :   0.9665 B(  2-C ,  3-N ) :   0.9131 B(  2-C , 12-H ) :   0.9111
B(  2-C , 13-H ) :   0.9278 B(  3-N ,  4-C ) :   1.2241 B(  3-N , 14-H ) :   0.8677
B(  4-C ,  5-O ) :   2.0159 B(  4-C ,  6-C ) :   0.8753 B(  6-C ,  7-C ) :   0.9184
B(  6-C ,  8-N ) :   0.8607 B(  7-C , 15-H ) :   0.9204 B(  7-C , 16-H ) :   0.9335
B(  7-C , 17-H ) :   0.9354 B(  8-N , 18-H ) :   0.8663

MP2 TOTAL ENERGY:     -418.534539711 Eh
FINAL SINGLE POINT ENERGY      -418.534539711084

DIPOLE MOMENT
-------------
                                X             Y             Z
Electronic contribution:      1.95783      -7.70963      -0.92770
Nuclear contribution   :     -2.42356       9.25428       0.21542
                        -----------------------------------------
Total Dipole Moment    :     -0.46573       1.54465      -0.71228
                        -----------------------------------------
Magnitude (a.u.)       :      1.76358
Magnitude (Debye)      :      4.48265

                             ****ORCA TERMINATED NORMALLY****
TOTAL RUN TIME: 0 days 0 hours 19 minutes 56 seconds 885 msec
