                         Program Version 3.0.3 - RELEASE   -
|  1> ! RI-MP2 RIJK def2-TZVP def2-TZVP/C def2-TZVP/JK TIGHTSCF
|  2> % maxcore 2000
|  3> % mp2 density relaxed end
|  4> *xyz 0 1
|  5>  C        0.1141812250     1.5190047968     0.6415792728
|  6>  C        0.1689774102     0.0586845403     0.2415446186
|  7>  C        0.5137224960    -0.4052060312    -1.1363644301
|  8>  C        0.8500835592     0.5291746295    -2.2852912646
|  9>  O        1.4357744029    -0.1546394198    -3.3747935857
| 10>  N        1.4192548344    -0.6822588720    -0.0029530693
| 11>  C        2.6952061744     0.0179575295     0.1008103184
| 12>  C        3.6187935060    -0.4627736823    -0.9324712432
| 13>  N        4.3084912306    -0.8218871286    -1.7877792877
| 14>  H        0.4093093540     1.6485849770     1.6887506841
| 15>  H        0.7382379918     2.1710857078     0.0278516565
| 16>  H       -0.9157637228     1.8777604478     0.5470374749
| 17>  H       -0.5468696640    -0.5493037351     0.7935261633
| 18>  H        0.0301562456    -1.3112449968    -1.4985733237
| 19>  H       -0.0839577150     0.9557760619    -2.6692959376
| 20>  H        1.4706068610     1.3756430612    -1.9580249839
| 21>  H        2.3141446345    -0.4569301599    -3.1128702724
| 22>  H        2.6520138612     1.1133306967     0.0123525138
| 23>  H        3.1258997452    -0.1994368231     1.0851838157
| 24> *
| 25>
| 26>                          ****END OF INPUT****

CARTESIAN COORDINATES (ANGSTROEM)
---------------------------------
  C      0.114181    1.519005    0.641579
  C      0.168977    0.058685    0.241545
  C      0.513722   -0.405206   -1.136364
  C      0.850084    0.529175   -2.285291
  O      1.435774   -0.154639   -3.374794
  N      1.419255   -0.682259   -0.002953
  C      2.695206    0.017958    0.100810
  C      3.618794   -0.462774   -0.932471
  N      4.308491   -0.821887   -1.787779
  H      0.409309    1.648585    1.688751
  H      0.738238    2.171086    0.027852
  H     -0.915764    1.877760    0.547037
  H     -0.546870   -0.549304    0.793526
  H      0.030156   -1.311245   -1.498573
  H     -0.083958    0.955776   -2.669296
  H      1.470607    1.375643   -1.958025
  H      2.314145   -0.456930   -3.112870
  H      2.652014    1.113331    0.012353
  H      3.125900   -0.199437    1.085184

 Total Charge           Charge          ....    0
 Multiplicity           Mult            ....    1
 Number of Electrons    NEL             ....   68
 Basis Dimension        Dim             ....  339

ORBITAL ENERGIES
----------------

  NO   OCC          E(Eh)            E(eV)
   0   2.0000     -20.555128      -559.3335
   1   2.0000     -15.585653      -424.1072
   2   2.0000     -15.584804      -424.0841
   3   2.0000     -11.320755      -308.0534
   4   2.0000     -11.291900      -307.2682
   5   2.0000     -11.288710      -307.1814
   6   2.0000     -11.284952      -307.0792
   7   2.0000     -11.274208      -306.7868
   8   2.0000     -11.247587      -306.0624
   9   2.0000      -1.364020       -37.1169
  10   2.0000      -1.297572       -35.3087
  11   2.0000      -1.232810       -33.5465
  12   2.0000      -1.071429       -29.1551
  13   2.0000      -1.006892       -27.3989
  14   2.0000      -0.971551       -26.4373
  15   2.0000      -0.840297       -22.8656
  16   2.0000      -0.799099       -21.7446
  17   2.0000      -0.727761       -19.8034
  18   2.0000      -0.711934       -19.3727
  19   2.0000      -0.687592       -18.7103
  20   2.0000      -0.650838       -17.7102
  21   2.0000      -0.637354       -17.3433
  22   2.0000      -0.607788       -16.5388
  23   2.0000      -0.597614       -16.2619
  24   2.0000      -0.573041       -15.5932
  25   2.0000      -0.569145       -15.4872
  26   2.0000      -0.553081       -15.0501
  27   2.0000      -0.518789       -14.1170
  28   2.0000      -0.503962       -13.7135
  29   2.0000      -0.481914       -13.1135
  30   2.0000      -0.475150       -12.9295
  31   2.0000      -0.462997       -12.5988
  32   2.0000      -0.442144       -12.0313
  33   2.0000      -0.390328       -10.6214
  34   0.0000       0.115198         3.1347
  35   0.0000       0.144170         3.9231
  36   0.0000       0.153481         4.1764
  37   0.0000       0.158162         4.3038
  38   0.0000       0.171804         4.6750

MULLIKEN ATOMIC CHARGES
-----------------------
   0 C :   -0.403596
   1 C :   -0.038014
   2 C :   -0.113682
   3 C :   -0.035954
   4 O :   -0.462850
   5 N :   -0.216537
   6 C :   -0.064522
   7 C :   -0.151959
   8 N :   -0.082055
   9 H :    0.146539
  10 H :    0.126034
  11 H :    0.152247
  12 H :    0.127781
  13 H :    0.131461
  14 H :    0.127145
  15 H :    0.107936
  16 H :    0.327728
  17 H :    0.155852
  18 H :    0.166444
Sum of atomic charges:    0.0000000

LOEWDIN ATOMIC CHARGES
----------------------
   0 C :   -0.297276
   1 C :   -0.250460
   2 C :   -0.238532
   3 C :   -0.337629
   4 O :   -0.032552
   5 N :    0.130047
   6 C :   -0.278713
   7 C :   -0.184679
   8 N :    0.058813
   9 H :    0.130209
  10 H :    0.121902
  11 H :    0.136675
  12 H :    0.146792
  13 H :    0.150779
  14 H :    0.139065
  15 H :    0.119291
  16 H :    0.174984
  17 H :    0.149380
  18 H :    0.161904

  Mayer bond orders larger than 0.1
B(  0-C ,  1-C ) :   0.9036 B(  0-C ,  9-H ) :   0.9336 B(  0-C , 10-H ) :   0.9386
B(  0-C , 11-H ) :   0.9285 B(  1-C ,  2-C ) :   0.8975 B(  1-C ,  5-N ) :   0.8856
B(  1-C , 12-H ) :   0.9154 B(  2-C ,  3-C ) :   0.9249 B(  2-C ,  5-N ) :   0.8785
B(  2-C , 13-H ) :   0.9234 B(  3-C ,  4-O ) :   0.9318 B(  3-C , 14-H ) :   0.9196
B(  3-C , 15-H ) :   0.9290 B(  4-O , 16-H ) :   0.8296 B(  5-N ,  6-C ) :   0.8903
B(  6-C ,  7-C ) :   0.9164 B(  6-C , 17-H ) :   0.9168 B(  6-C , 18-H ) :   0.8949
B(  7-C ,  8-N ) :   2.7906

MP2 TOTAL ENERGY:     -418.474493152 Eh
FINAL SINGLE POINT ENERGY      -418.474493152411

DIPOLE MOMENT
-------------
                                X             Y             Z
Electronic contribution:      5.97898      -5.25609      -3.01327
Nuclear contribution   :     -6.83863       6.33697       4.46778
                        -----------------------------------------
Total Dipole Moment    :     -0.85964       1.08088       1.45451
                        -----------------------------------------
Magnitude (a.u.)       :      2.00571
Magnitude (Debye)      :      5.09811

                             ****ORCA TERMINATED NORMALLY****
TOTAL RUN TIME: 0 days 0 hours 18 minutes 17 seconds 292 msec
