                         Program Version 3.0.3 - RELEASE   -
|  1> ! RI-MP2 RIJK def2-TZVP def2-TZVP/C def2-TZVP/JK TIGHTSCF
|  2> % maxcore 2000
|  3> % mp2 density relaxed end
|  4> *xyz 0 1
|  5>  N        0.0216866232     1.3612023527     0.1436477259
|  6>  C       -0.0359361369    -0.0062788449     0.0380473105
|  7>  N       -1.1328642370    -0.7397932550     0.0488987435
|  8>  C       -0.6356911464    -2.0134410718     0.0000220444
|  9>  N        0.6830254150    -2.1175442699    -0.0480409649
| 10>  N        1.0553500345    -0.8111163907    -0.0195309003
| 11>  C       -1.4749291170    -3.1674805528    -0.0085390673
| 12>  N       -2.1639915713    -4.0955187328    -0.0158646126
| 13>  H        0.7507913105     1.8195693539    -0.3835161628
| 14>  H       -0.8823591028     1.7920357327     0.0099518980
| 15>  H        2.0338156783    -0.5745319614    -0.0004610743
| 16> *
| 17>
| 18>                          ****END OF INPUT****

CARTESIAN COORDINATES (ANGSTROEM)
---------------------------------
  N      0.021687    1.361202    0.143648
  C     -0.035936   -0.006279    0.038047
  N     -1.132864   -0.739793    0.048899
  C     -0.635691   -2.013441    0.000022
  N      0.683025   -2.117544   -0.048041
  N      1.055350   -0.811116   -0.019531
  C     -1.474929   -3.167481   -0.008539
  N     -2.163992   -4.095519   -0.015865
  H      0.750791    1.819569   -0.383516
  H     -0.882359    1.792036    0.009952
  H      2.033816   -0.574532   -0.000461

 Total Charge           Charge          ....    0
 Multiplicity           Mult            ....    1
 Number of Electrons    NEL             ....   56
 Basis Dimension        Dim             ....  266

ORBITAL ENERGIES
----------------

  NO   OCC          E(Eh)            E(eV)
   0   2.0000     -15.671508      -426.4434
   1   2.0000     -15.628185      -425.2645
   2   2.0000     -15.618485      -425.0006
   3   2.0000     -15.583361      -424.0448
   4   2.0000     -15.579062      -423.9278
   5   2.0000     -11.386005      -309.8289
   6   2.0000     -11.344336      -308.6951
   7   2.0000     -11.282423      -307.0103
   8   2.0000      -1.445742       -39.3406
   9   2.0000      -1.277791       -34.7704
  10   2.0000      -1.234201       -33.5843
  11   2.0000      -1.212682       -32.9987
  12   2.0000      -1.125260       -30.6199
  13   2.0000      -0.931689       -25.3525
  14   2.0000      -0.878365       -23.9015
  15   2.0000      -0.807448       -21.9718
  16   2.0000      -0.724141       -19.7049
  17   2.0000      -0.696583       -18.9550
  18   2.0000      -0.688847       -18.7445
  19   2.0000      -0.667173       -18.1547
  20   2.0000      -0.567595       -15.4450
  21   2.0000      -0.539780       -14.6882
  22   2.0000      -0.537918       -14.6375
  23   2.0000      -0.503144       -13.6912
  24   2.0000      -0.481673       -13.1070
  25   2.0000      -0.475312       -12.9339
  26   2.0000      -0.433672       -11.8008
  27   2.0000      -0.366604        -9.9758
  28   0.0000       0.093127         2.5341
  29   0.0000       0.101653         2.7661
  30   0.0000       0.134659         3.6643
  31   0.0000       0.167579         4.5601
  32   0.0000       0.178204         4.8492

MULLIKEN ATOMIC CHARGES
-----------------------
   0 N :   -0.514613
   1 C :    0.331021
   2 N :   -0.321590
   3 C :    0.290071
   4 N :   -0.205986
   5 N :   -0.150719
   6 C :   -0.197809
   7 N :   -0.046124
   8 H :    0.261700
   9 H :    0.284222
  10 H :    0.269826
Sum of atomic charges:   -0.0000000

LOEWDIN ATOMIC CHARGES
----------------------
   0 N :   -0.051481
   1 C :   -0.423393
   2 N :    0.125760
   3 C :   -0.363336
   4 N :    0.069606
   5 N :    0.137558
   6 C :   -0.139942
   7 N :    0.087609
   8 H :    0.175148
   9 H :    0.188366
  10 H :    0.194105

  Mayer bond orders larger than 0.1
B(  0-N ,  1-C ) :   1.0857 B(  0-N ,  8-H ) :   0.8686 B(  0-N ,  9-H ) :   0.8618
B(  1-C ,  2-N ) :   1.4855 B(  1-C ,  5-N ) :   1.2094 B(  2-N ,  3-C ) :   1.2760
B(  3-C ,  4-N ) :   1.5341 B(  3-C ,  6-C ) :   0.9157 B(  4-N ,  5-N ) :   1.0359
B(  5-N , 10-H ) :   0.8590 B(  6-C ,  7-N ) :   2.8548

MP2 TOTAL ENERGY:     -389.151493691 Eh
FINAL SINGLE POINT ENERGY      -389.151493690802

DIPOLE MOMENT
-------------
                                X             Y             Z
Electronic contribution:     -1.22986      -4.13619       0.02770
Nuclear contribution   :      2.95870       6.69386      -0.38953
                        -----------------------------------------
Total Dipole Moment    :      1.72884       2.55767      -0.36184
                        -----------------------------------------
Magnitude (a.u.)       :      3.10830
Magnitude (Debye)      :      7.90066

                             ****ORCA TERMINATED NORMALLY****
TOTAL RUN TIME: 0 days 0 hours 8 minutes 32 seconds 560 msec
