                         Program Version 3.0.3 - RELEASE   -
|  1> ! RI-MP2 RIJK def2-TZVP def2-TZVP/C def2-TZVP/JK TIGHTSCF
|  2> % maxcore 2000
|  3> % mp2 density relaxed end
|  4> *xyz 0 1
|  5>  C        0.1621892841     1.6028374391    -0.0869236293
|  6>  C        0.0382061160     0.0754655914     0.0312761265
|  7>  C        0.5316783599    -0.5805008827    -1.2784610913
|  8>  C        0.6450562620    -2.0952128256    -1.1980635685
|  9>  N        2.0096778664    -2.6265873535    -0.9842703047
| 10>  C        1.0034378049    -2.6867816380     0.1113099277
| 11>  C        1.1778932663    -1.7716390297     1.2629474524
| 12>  C        0.7391653579    -0.5076178860     1.2590748686
| 13>  C        0.8663873775     0.3553313004     2.4870412591
| 14>  H        1.2109854777     1.9092867359    -0.1695490637
| 15>  H       -0.3550432230     1.9521172757    -0.9866304288
| 16>  H       -0.2756342534     2.1236114330     0.7686420073
| 17>  H       -1.0345210100    -0.1517161715     0.1431402449
| 18>  H       -0.1382183225    -0.2923053870    -2.0966295403
| 19>  H        1.5218981398    -0.1779060015    -1.5181445580
| 20>  H       -0.0138850563    -2.6675912056    -1.8460813152
| 21>  H        2.0833708881    -3.5473721557    -1.4131344771
| 22>  H        0.6117899285    -3.6736900862     0.3519682531
| 23>  H        1.6595563637    -2.1728711380     2.1522729493
| 24>  H        1.3196302518    -0.2019105853     3.3110049234
| 25>  H        1.4778966107     1.2460589488     2.3032729853
| 26>  H       -0.1145315802     0.7163446521     2.8232285693
| 27> *
| 28>
| 29>                          ****END OF INPUT****

CARTESIAN COORDINATES (ANGSTROEM)
---------------------------------
  C      0.162189    1.602837   -0.086924
  C      0.038206    0.075466    0.031276
  C      0.531678   -0.580501   -1.278461
  C      0.645056   -2.095213   -1.198064
  N      2.009678   -2.626587   -0.984270
  C      1.003438   -2.686782    0.111310
  C      1.177893   -1.771639    1.262947
  C      0.739165   -0.507618    1.259075
  C      0.866387    0.355331    2.487041
  H      1.210985    1.909287   -0.169549
  H     -0.355043    1.952117   -0.986630
  H     -0.275634    2.123611    0.768642
  H     -1.034521   -0.151716    0.143140
  H     -0.138218   -0.292305   -2.096630
  H      1.521898   -0.177906   -1.518145
  H     -0.013885   -2.667591   -1.846081
  H      2.083371   -3.547372   -1.413134
  H      0.611790   -3.673690    0.351968
  H      1.659556   -2.172871    2.152273
  H      1.319630   -0.201911    3.311005
  H      1.477897    1.246059    2.303273
  H     -0.114532    0.716345    2.823229

 Total Charge           Charge          ....    0
 Multiplicity           Mult            ....    1
 Number of Electrons    NEL             ....   68
 Basis Dimension        Dim             ....  357

ORBITAL ENERGIES
----------------

  NO   OCC          E(Eh)            E(eV)
   0   2.0000     -15.550058      -423.1386
   1   2.0000     -11.253003      -306.2098
   2   2.0000     -11.251503      -306.1690
   3   2.0000     -11.232159      -305.6426
   4   2.0000     -11.231490      -305.6244
   5   2.0000     -11.217572      -305.2456
   6   2.0000     -11.217272      -305.2375
   7   2.0000     -11.213738      -305.1413
   8   2.0000     -11.211205      -305.0724
   9   2.0000      -1.254784       -34.1444
  10   2.0000      -1.108389       -30.1608
  11   2.0000      -1.029376       -28.0107
  12   2.0000      -0.969039       -26.3689
  13   2.0000      -0.940054       -25.5802
  14   2.0000      -0.868316       -23.6281
  15   2.0000      -0.812831       -22.1182
  16   2.0000      -0.793574       -21.5942
  17   2.0000      -0.710265       -19.3273
  18   2.0000      -0.671621       -18.2757
  19   2.0000      -0.631856       -17.1937
  20   2.0000      -0.611732       -16.6461
  21   2.0000      -0.603629       -16.4256
  22   2.0000      -0.563126       -15.3234
  23   2.0000      -0.549485       -14.9523
  24   2.0000      -0.539677       -14.6854
  25   2.0000      -0.534443       -14.5429
  26   2.0000      -0.522283       -14.2120
  27   2.0000      -0.500213       -13.6115
  28   2.0000      -0.480050       -13.0628
  29   2.0000      -0.466442       -12.6925
  30   2.0000      -0.451455       -12.2847
  31   2.0000      -0.436091       -11.8666
  32   2.0000      -0.381242       -10.3741
  33   2.0000      -0.330164        -8.9842
  34   0.0000       0.131174         3.5694
  35   0.0000       0.138856         3.7785
  36   0.0000       0.155738         4.2379
  37   0.0000       0.170793         4.6475
  38   0.0000       0.186687         5.0800

MULLIKEN ATOMIC CHARGES
-----------------------
   0 C :   -0.430293
   1 C :    0.022483
   2 C :   -0.267448
   3 C :   -0.010963
   4 N :   -0.396982
   5 C :   -0.019739
   6 C :   -0.226046
   7 C :    0.030438
   8 C :   -0.437384
   9 H :    0.136612
  10 H :    0.132890
  11 H :    0.137988
  12 H :    0.095575
  13 H :    0.116137
  14 H :    0.124429
  15 H :    0.126379
  16 H :    0.211541
  17 H :    0.122552
  18 H :    0.114925
  19 H :    0.133593
  20 H :    0.144236
  21 H :    0.139075
Sum of atomic charges:   -0.0000000

LOEWDIN ATOMIC CHARGES
----------------------
   0 C :   -0.290558
   1 C :   -0.229847
   2 C :   -0.215921
   3 C :   -0.246916
   4 N :   -0.001636
   5 C :   -0.245535
   6 C :   -0.135941
   7 C :   -0.155051
   8 C :   -0.271662
   9 H :    0.125456
  10 H :    0.124715
  11 H :    0.122300
  12 H :    0.160481
  13 H :    0.139371
  14 H :    0.150721
  15 H :    0.134254
  16 H :    0.163248
  17 H :    0.139858
  18 H :    0.144299
  19 H :    0.128512
  20 H :    0.130001
  21 H :    0.129852

  Mayer bond orders larger than 0.1
B(  0-C ,  1-C ) :   0.8919 B(  0-C ,  9-H ) :   0.9394 B(  0-C , 10-H ) :   0.9373
B(  0-C , 11-H ) :   0.9380 B(  1-C ,  2-C ) :   0.9526 B(  1-C ,  7-C ) :   0.9087
B(  1-C , 12-H ) :   0.9098 B(  2-C ,  3-C ) :   0.9132 B(  2-C , 13-H ) :   0.9324
B(  2-C , 14-H ) :   0.9142 B(  3-C ,  4-N ) :   0.9317 B(  3-C ,  5-C ) :   0.9333
B(  3-C , 15-H ) :   0.9247 B(  4-N ,  5-C ) :   0.9236 B(  4-N , 16-H ) :   0.8684
B(  5-C ,  6-C ) :   0.9537 B(  5-C , 17-H ) :   0.9217 B(  6-C ,  7-C ) :   1.7617
B(  6-C , 18-H ) :   0.9239 B(  7-C ,  8-C ) :   0.8798 B(  8-C , 19-H ) :   0.9418
B(  8-C , 20-H ) :   0.9294 B(  8-C , 21-H ) :   0.9352

MP2 TOTAL ENERGY:     -366.542287168 Eh
FINAL SINGLE POINT ENERGY      -366.542287168022

DIPOLE MOMENT
-------------
                                X             Y             Z
Electronic contribution:      1.62994      -6.34258      -1.49947
Nuclear contribution   :     -2.25236       6.16098       1.48643
                        -----------------------------------------
Total Dipole Moment    :     -0.62242      -0.18160      -0.01304
                        -----------------------------------------
Magnitude (a.u.)       :      0.64850
Magnitude (Debye)      :      1.64837

                             ****ORCA TERMINATED NORMALLY****
TOTAL RUN TIME: 0 days 0 hours 21 minutes 20 seconds 495 msec
