                         Program Version 3.0.3 - RELEASE   -
|  1> ! RI-MP2 RIJK def2-TZVP def2-TZVP/C def2-TZVP/JK TIGHTSCF
|  2> % maxcore 2000
|  3> % mp2 density relaxed end
|  4> *xyz 0 1
|  5>  C       -0.0495025048     1.5165840544     0.0218701649
|  6>  C       -0.0080332579    -0.0131013434    -0.0130658920
|  7>  C        0.7154649021    -0.5605396360    -1.2470555923
|  8>  C        0.8006961997    -2.0897503593    -1.2671249042
|  9>  C        1.4621750689    -2.5686406918    -2.5851040125
| 10>  C        1.4570439649    -4.0185798829    -2.7599132468
| 11>  N        1.4376114730    -5.1657370570    -2.9012655044
| 12>  O        1.5667367567    -2.5034875500    -0.1515241207
| 13>  C        1.1193997896    -3.6777127328     0.5057309980
| 14>  H        0.9610579650     1.9396721667     0.0339761733
| 15>  H       -0.5669148960     1.9231443806    -0.8545014511
| 16>  H       -0.5714214175     1.8784369091     0.9129380265
| 17>  H        0.4934276653    -0.3947196030     0.8821886608
| 18>  H       -1.0323323909    -0.4087274471     0.0107152731
| 19>  H        0.2080870961    -0.2199903685    -2.1589375264
| 20>  H        1.7370700159    -0.1593345491    -1.2843168731
| 21>  H       -0.2135706724    -2.5125728613    -1.2072465054
| 22>  H        0.9478492048    -2.1195146115    -3.4420834146
| 23>  H        2.4984133053    -2.2140077976    -2.6008035197
| 24>  H        1.7763942639    -3.8219286077     1.3667915632
| 25>  H        0.0860783603    -3.5657621085     0.8650428227
| 26>  H        1.1769465481    -4.5635932633    -0.1370016092
| 27> *
| 28>
| 29>                          ****END OF INPUT****

CARTESIAN COORDINATES (ANGSTROEM)
---------------------------------
  C     -0.049503    1.516584    0.021870
  C     -0.008033   -0.013101   -0.013066
  C      0.715465   -0.560540   -1.247056
  C      0.800696   -2.089750   -1.267125
  C      1.462175   -2.568641   -2.585104
  C      1.457044   -4.018580   -2.759913
  N      1.437611   -5.165737   -2.901266
  O      1.566737   -2.503488   -0.151524
  C      1.119400   -3.677713    0.505731
  H      0.961058    1.939672    0.033976
  H     -0.566915    1.923144   -0.854501
  H     -0.571421    1.878437    0.912938
  H      0.493428   -0.394720    0.882189
  H     -1.032332   -0.408727    0.010715
  H      0.208087   -0.219990   -2.158938
  H      1.737070   -0.159335   -1.284317
  H     -0.213571   -2.512573   -1.207247
  H      0.947849   -2.119515   -3.442083
  H      2.498413   -2.214008   -2.600804
  H      1.776394   -3.821929    1.366792
  H      0.086078   -3.565762    0.865043
  H      1.176947   -4.563593   -0.137002

 Total Charge           Charge          ....    0
 Multiplicity           Mult            ....    1
 Number of Electrons    NEL             ....   70
 Basis Dimension        Dim             ....  357

ORBITAL ENERGIES
----------------

  NO   OCC          E(Eh)            E(eV)
   0   2.0000     -20.565606      -559.6186
   1   2.0000     -15.568405      -423.6378
   2   2.0000     -11.307210      -307.6848
   3   2.0000     -11.280269      -306.9517
   4   2.0000     -11.274868      -306.8048
   5   2.0000     -11.274122      -306.7845
   6   2.0000     -11.234927      -305.7179
   7   2.0000     -11.227531      -305.5167
   8   2.0000     -11.220127      -305.3152
   9   2.0000      -1.387229       -37.7484
  10   2.0000      -1.218745       -33.1637
  11   2.0000      -1.101177       -29.9646
  12   2.0000      -1.051911       -28.6239
  13   2.0000      -0.972518       -26.4636
  14   2.0000      -0.925437       -25.1824
  15   2.0000      -0.846159       -23.0251
  16   2.0000      -0.804858       -21.9013
  17   2.0000      -0.706377       -19.2215
  18   2.0000      -0.691994       -18.8301
  19   2.0000      -0.667637       -18.1673
  20   2.0000      -0.632766       -17.2184
  21   2.0000      -0.625653       -17.0249
  22   2.0000      -0.602327       -16.3901
  23   2.0000      -0.582601       -15.8534
  24   2.0000      -0.578799       -15.7499
  25   2.0000      -0.555361       -15.1121
  26   2.0000      -0.541572       -14.7369
  27   2.0000      -0.527064       -14.3421
  28   2.0000      -0.498574       -13.5669
  29   2.0000      -0.486331       -13.2337
  30   2.0000      -0.482532       -13.1304
  31   2.0000      -0.477292       -12.9878
  32   2.0000      -0.473417       -12.8823
  33   2.0000      -0.457621       -12.4525
  34   2.0000      -0.419066       -11.4034
  35   0.0000       0.124777         3.3954
  36   0.0000       0.140436         3.8215
  37   0.0000       0.145448         3.9578
  38   0.0000       0.163060         4.4371
  39   0.0000       0.174447         4.7469

MULLIKEN ATOMIC CHARGES
-----------------------
   0 C :   -0.386314
   1 C :   -0.203932
   2 C :   -0.209927
   3 C :    0.062062
   4 C :   -0.108487
   5 C :   -0.191083
   6 N :   -0.061696
   7 O :   -0.326358
   8 C :   -0.231892
   9 H :    0.126130
  10 H :    0.121022
  11 H :    0.136747
  12 H :    0.130714
  13 H :    0.101500
  14 H :    0.111665
  15 H :    0.115575
  16 H :    0.096911
  17 H :    0.155685
  18 H :    0.156428
  19 H :    0.139810
  20 H :    0.118064
  21 H :    0.147377
Sum of atomic charges:    0.0000000

LOEWDIN ATOMIC CHARGES
----------------------
   0 C :   -0.319669
   1 C :   -0.292748
   2 C :   -0.249153
   3 C :   -0.315716
   4 C :   -0.227109
   5 C :   -0.196343
   6 N :    0.052590
   7 O :    0.161235
   8 C :   -0.348743
   9 H :    0.121470
  10 H :    0.119687
  11 H :    0.121912
  12 H :    0.140497
  13 H :    0.134402
  14 H :    0.141815
  15 H :    0.145218
  16 H :    0.145263
  17 H :    0.167170
  18 H :    0.169053
  19 H :    0.115202
  20 H :    0.103000
  21 H :    0.110968

  Mayer bond orders larger than 0.1
B(  0-C ,  1-C ) :   0.9184 B(  0-C ,  9-H ) :   0.9401 B(  0-C , 10-H ) :   0.9383
B(  0-C , 11-H ) :   0.9435 B(  1-C ,  2-C ) :   0.9302 B(  1-C , 12-H ) :   0.9357
B(  1-C , 13-H ) :   0.9300 B(  2-C ,  3-C ) :   0.9214 B(  2-C , 14-H ) :   0.9301
B(  2-C , 15-H ) :   0.9154 B(  3-C ,  4-C ) :   0.9102 B(  3-C ,  7-O ) :   0.8865
B(  3-C , 16-H ) :   0.9239 B(  4-C ,  5-C ) :   0.9352 B(  4-C , 17-H ) :   0.9108
B(  4-C , 18-H ) :   0.8962 B(  5-C ,  6-N ) :   2.8728 B(  7-O ,  8-C ) :   0.8925
B(  8-C , 19-H ) :   0.9388 B(  8-C , 20-H ) :   0.9352 B(  8-C , 21-H ) :   0.9289

MP2 TOTAL ENERGY:     -403.669269711 Eh
FINAL SINGLE POINT ENERGY      -403.669269710844

DIPOLE MOMENT
-------------
                                X             Y             Z
Electronic contribution:      3.92237     -10.63873      -5.90748
Nuclear contribution   :     -4.34174      11.91728       6.18598
                        -----------------------------------------
Total Dipole Moment    :     -0.41937       1.27856       0.27850
                        -----------------------------------------
Magnitude (a.u.)       :      1.37409
Magnitude (Debye)      :      3.49267

                             ****ORCA TERMINATED NORMALLY****
TOTAL RUN TIME: 0 days 0 hours 17 minutes 17 seconds 138 msec
