                         Program Version 3.0.3 - RELEASE   -
|  1> ! RI-MP2 RIJK def2-TZVP def2-TZVP/C def2-TZVP/JK TIGHTSCF
|  2> % maxcore 2000
|  3> % mp2 density relaxed end
|  4> *xyz 0 1
|  5>  C       -0.0638442363     1.6955081387    -0.5044099491
|  6>  C        0.1005039953     0.2039985709    -0.1850011047
|  7>  C       -1.2376590359    -0.5091218270    -0.1519817288
|  8>  C       -1.8042097257    -1.2805669671    -1.3012886352
|  9>  O       -0.7889481556    -2.0124196526    -1.9951769339
| 10>  C       -0.6116190488    -2.8988618619    -0.8321188968
| 11>  C       -1.2796814455    -4.2378221199    -1.1374458736
| 12>  C        0.8479308167    -3.0932665014    -0.4471170463
| 13>  C       -1.5312128481    -1.9967483000     0.0045417234
| 14>  H        0.9065758903     2.1993909482    -0.5480953973
| 15>  H       -0.5590870437     1.8370906791    -1.4707698100
| 16>  H       -0.6685050458     2.2023243063     0.2562211220
| 17>  H        0.7313681110    -0.2593168019    -0.9477066364
| 18>  H        0.6158630027     0.0891043611     0.7769194520
| 19>  H       -2.0154082897     0.0593436895     0.3605388616
| 20>  H       -2.7188599955    -1.0579755180    -1.8400388246
| 21>  H       -0.7496685635    -4.7471892397    -1.9481012394
| 22>  H       -1.2647297088    -4.8872956649    -0.2550049706
| 23>  H       -2.3192294411    -4.0911536648    -1.4416911848
| 24>  H        1.3950001316    -3.5516135041    -1.2780802038
| 25>  H        1.3387596490    -2.1563883395    -0.1868128679
| 26>  H        0.9188398367    -3.7674817084     0.4129853022
| 27>  H       -2.2238368793    -2.3667005827     0.7505306322
| 28> *
| 29>
| 30>                          ****END OF INPUT****

CARTESIAN COORDINATES (ANGSTROEM)
---------------------------------
  C     -0.063844    1.695508   -0.504410
  C      0.100504    0.203999   -0.185001
  C     -1.237659   -0.509122   -0.151982
  C     -1.804210   -1.280567   -1.301289
  O     -0.788948   -2.012420   -1.995177
  C     -0.611619   -2.898862   -0.832119
  C     -1.279681   -4.237822   -1.137446
  C      0.847931   -3.093267   -0.447117
  C     -1.531213   -1.996748    0.004542
  H      0.906576    2.199391   -0.548095
  H     -0.559087    1.837091   -1.470770
  H     -0.668505    2.202324    0.256221
  H      0.731368   -0.259317   -0.947707
  H      0.615863    0.089104    0.776919
  H     -2.015408    0.059344    0.360539
  H     -2.718860   -1.057976   -1.840039
  H     -0.749669   -4.747189   -1.948101
  H     -1.264730   -4.887296   -0.255005
  H     -2.319229   -4.091154   -1.441691
  H      1.395000   -3.551614   -1.278080
  H      1.338760   -2.156388   -0.186813
  H      0.918840   -3.767482    0.412985
  H     -2.223837   -2.366701    0.750531

 Total Charge           Charge          ....    0
 Multiplicity           Mult            ....    1
 Number of Electrons    NEL             ....   70
 Basis Dimension        Dim             ....  363

ORBITAL ENERGIES
----------------

  NO   OCC          E(Eh)            E(eV)
   0   2.0000     -20.545418      -559.0692
   1   2.0000     -11.292161      -307.2753
   2   2.0000     -11.279979      -306.9438
   3   2.0000     -11.235492      -305.7333
   4   2.0000     -11.231564      -305.6264
   5   2.0000     -11.218154      -305.2615
   6   2.0000     -11.213758      -305.1419
   7   2.0000     -11.212474      -305.1069
   8   2.0000     -11.211076      -305.0689
   9   2.0000      -1.383704       -37.6525
  10   2.0000      -1.120271       -30.4841
  11   2.0000      -1.049818       -28.5670
  12   2.0000      -1.020151       -27.7597
  13   2.0000      -0.938637       -25.5416
  14   2.0000      -0.873077       -23.7576
  15   2.0000      -0.842421       -22.9234
  16   2.0000      -0.770169       -20.9574
  17   2.0000      -0.717756       -19.5311
  18   2.0000      -0.694153       -18.8889
  19   2.0000      -0.641325       -17.4513
  20   2.0000      -0.629786       -17.1374
  21   2.0000      -0.601985       -16.3808
  22   2.0000      -0.587310       -15.9815
  23   2.0000      -0.565555       -15.3895
  24   2.0000      -0.545138       -14.8340
  25   2.0000      -0.534993       -14.5579
  26   2.0000      -0.532868       -14.5001
  27   2.0000      -0.520479       -14.1630
  28   2.0000      -0.502850       -13.6832
  29   2.0000      -0.493260       -13.4223
  30   2.0000      -0.482943       -13.1415
  31   2.0000      -0.462099       -12.5744
  32   2.0000      -0.451753       -12.2928
  33   2.0000      -0.390396       -10.6232
  34   2.0000      -0.370629       -10.0853
  35   0.0000       0.137445         3.7401
  36   0.0000       0.148720         4.0469
  37   0.0000       0.160782         4.3751
  38   0.0000       0.177977         4.8430
  39   0.0000       0.190095         5.1727

MULLIKEN ATOMIC CHARGES
-----------------------
   0 C :   -0.410817
   1 C :   -0.208521
   2 C :   -0.108703
   3 C :    0.033283
   4 O :   -0.352239
   5 C :    0.240854
   6 C :   -0.428825
   7 C :   -0.388054
   8 C :   -0.192298
   9 H :    0.133864
  10 H :    0.133870
  11 H :    0.121266
  12 H :    0.137357
  13 H :    0.113215
  14 H :    0.107717
  15 H :    0.131296
  16 H :    0.137995
  17 H :    0.123150
  18 H :    0.139761
  19 H :    0.134226
  20 H :    0.137860
  21 H :    0.129776
  22 H :    0.133963
Sum of atomic charges:    0.0000000

LOEWDIN ATOMIC CHARGES
----------------------
   0 C :   -0.314633
   1 C :   -0.277997
   2 C :   -0.196024
   3 C :   -0.230056
   4 O :    0.179960
   5 C :   -0.331982
   6 C :   -0.265011
   7 C :   -0.267309
   8 C :   -0.146211
   9 H :    0.120669
  10 H :    0.123336
  11 H :    0.118927
  12 H :    0.143737
  13 H :    0.136103
  14 H :    0.163173
  15 H :    0.128558
  16 H :    0.129419
  17 H :    0.126914
  18 H :    0.130419
  19 H :    0.131359
  20 H :    0.126108
  21 H :    0.131088
  22 H :    0.139455

  Mayer bond orders larger than 0.1
B(  0-C ,  1-C ) :   0.9114 B(  0-C ,  9-H ) :   0.9420 B(  0-C , 10-H ) :   0.9411
B(  0-C , 11-H ) :   0.9419 B(  1-C ,  2-C ) :   0.8815 B(  1-C , 12-H ) :   0.9311
B(  1-C , 13-H ) :   0.9356 B(  2-C ,  3-C ) :   0.8907 B(  2-C ,  8-C ) :   0.8642
B(  2-C , 14-H ) :   0.9238 B(  3-C ,  4-O ) :   0.9573 B(  3-C ,  8-C ) :   0.8961
B(  3-C , 15-H ) :   0.9217 B(  4-O ,  5-C ) :   0.8563 B(  5-C ,  6-C ) :   0.9049
B(  5-C ,  7-C ) :   0.9275 B(  5-C ,  8-C ) :   0.8817 B(  6-C , 16-H ) :   0.9371
B(  6-C , 17-H ) :   0.9329 B(  6-C , 18-H ) :   0.9372 B(  7-C , 19-H ) :   0.9300
B(  7-C , 20-H ) :   0.9357 B(  7-C , 21-H ) :   0.9320 B(  8-C , 22-H ) :   0.9204

MP2 TOTAL ENERGY:     -387.580808827 Eh
FINAL SINGLE POINT ENERGY      -387.580808826579

DIPOLE MOMENT
-------------
                                X             Y             Z
Electronic contribution:     -3.00262      -1.50346      -2.28812
Nuclear contribution   :      2.77698       1.41126       2.86552
                        -----------------------------------------
Total Dipole Moment    :     -0.22564      -0.09220       0.57740
                        -----------------------------------------
Magnitude (a.u.)       :      0.62674
Magnitude (Debye)      :      1.59306

                             ****ORCA TERMINATED NORMALLY****
TOTAL RUN TIME: 0 days 0 hours 32 minutes 36 seconds 321 msec
