                         Program Version 3.0.3 - RELEASE   -
|  1> ! RI-MP2 RIJK def2-TZVP def2-TZVP/C def2-TZVP/JK TIGHTSCF
|  2> % maxcore 2000
|  3> % mp2 density relaxed end
|  4> *xyz 0 1
|  5>  C       -0.0398456305     1.4511756824    -0.0077198398
|  6>  C       -0.0079326440    -0.0373627154     0.0027045957
|  7>  N       -0.0037409851    -0.7581549353    -1.0943499071
|  8>  N        0.0290326637    -2.0416347200    -0.6104490427
|  9>  C        0.0445883802    -3.1639961278    -1.4500768815
| 10>  O        0.0314090154    -3.1245191668    -2.6456830740
| 11>  C        0.0424875611    -2.0119245255     0.7702714621
| 12>  C        0.0774127201    -3.2139804119     1.6535577318
| 13>  N        0.0198386813    -0.7700241714     1.1765384364
| 14>  H        0.8403665458     1.8553203179     0.5020635476
| 15>  H       -0.0629498147     1.8207445852    -1.0335595758
| 16>  H       -0.9206973194     1.8176651437     0.5286143923
| 17>  H        0.0707851540    -4.0955782095    -0.8583816046
| 18>  H        0.9737286604    -3.8188677546     1.4826855945
| 19>  H        0.0807004927    -2.8719091720     2.6887935357
| 20>  H       -0.7954041610    -3.8569026191     1.5008762696
| 21> *
| 22>
| 23>                          ****END OF INPUT****

CARTESIAN COORDINATES (ANGSTROEM)
---------------------------------
  C     -0.039846    1.451176   -0.007720
  C     -0.007933   -0.037363    0.002705
  N     -0.003741   -0.758155   -1.094350
  N      0.029033   -2.041635   -0.610449
  C      0.044588   -3.163996   -1.450077
  O      0.031409   -3.124519   -2.645683
  C      0.042488   -2.011925    0.770271
  C      0.077413   -3.213980    1.653558
  N      0.019839   -0.770024    1.176538
  H      0.840367    1.855320    0.502064
  H     -0.062950    1.820745   -1.033560
  H     -0.920697    1.817665    0.528614
  H      0.070785   -4.095578   -0.858382
  H      0.973729   -3.818868    1.482686
  H      0.080700   -2.871909    2.688794
  H     -0.795404   -3.856903    1.500876

 Total Charge           Charge          ....    0
 Multiplicity           Mult            ....    1
 Number of Electrons    NEL             ....   66
 Basis Dimension        Dim             ....  321

ORBITAL ENERGIES
----------------

  NO   OCC          E(Eh)            E(eV)
   0   2.0000     -20.567108      -559.6595
   1   2.0000     -15.664290      -426.2470
   2   2.0000     -15.597082      -424.4182
   3   2.0000     -15.569741      -423.6742
   4   2.0000     -11.384874      -309.7982
   5   2.0000     -11.348262      -308.8019
   6   2.0000     -11.309260      -307.7406
   7   2.0000     -11.268782      -306.6392
   8   2.0000     -11.234892      -305.7169
   9   2.0000      -1.443618       -39.2829
  10   2.0000      -1.399932       -38.0941
  11   2.0000      -1.220316       -33.2065
  12   2.0000      -1.162061       -31.6213
  13   2.0000      -1.021866       -27.8064
  14   2.0000      -1.005700       -27.3665
  15   2.0000      -0.891893       -24.2696
  16   2.0000      -0.829116       -22.5614
  17   2.0000      -0.786478       -21.4012
  18   2.0000      -0.724021       -19.7016
  19   2.0000      -0.679523       -18.4907
  20   2.0000      -0.663380       -18.0515
  21   2.0000      -0.635998       -17.3064
  22   2.0000      -0.605218       -16.4688
  23   2.0000      -0.601307       -16.3624
  24   2.0000      -0.586002       -15.9459
  25   2.0000      -0.572075       -15.5669
  26   2.0000      -0.549691       -14.9579
  27   2.0000      -0.537595       -14.6287
  28   2.0000      -0.508832       -13.8460
  29   2.0000      -0.474902       -12.9227
  30   2.0000      -0.449624       -12.2349
  31   2.0000      -0.424303       -11.5459
  32   2.0000      -0.377756       -10.2793
  33   0.0000       0.085830         2.3355
  34   0.0000       0.117430         3.1954
  35   0.0000       0.149856         4.0778
  36   0.0000       0.179109         4.8738
  37   0.0000       0.183623         4.9966

MULLIKEN ATOMIC CHARGES
-----------------------
   0 C :   -0.424827
   1 C :    0.216620
   2 N :   -0.231064
   3 N :    0.074267
   4 C :    0.122472
   5 O :   -0.235443
   6 C :    0.186786
   7 C :   -0.479842
   8 N :   -0.300155
   9 H :    0.147460
  10 H :    0.159036
  11 H :    0.147555
  12 H :    0.115553
  13 H :    0.161842
  14 H :    0.177889
  15 H :    0.161849
Sum of atomic charges:   -0.0000000

LOEWDIN ATOMIC CHARGES
----------------------
   0 C :   -0.267709
   1 C :   -0.353942
   2 N :    0.097017
   3 N :    0.198793
   4 C :   -0.346274
   5 O :    0.156204
   6 C :   -0.307146
   7 C :   -0.270692
   8 N :    0.133104
   9 H :    0.137836
  10 H :    0.138244
  11 H :    0.137826
  12 H :    0.123982
  13 H :    0.137291
  14 H :    0.148172
  15 H :    0.137293

  Mayer bond orders larger than 0.1
B(  0-C ,  1-C ) :   0.8700 B(  0-C ,  9-H ) :   0.9297 B(  0-C , 10-H ) :   0.9528
B(  0-C , 11-H ) :   0.9300 B(  1-C ,  2-N ) :   1.6043 B(  1-C ,  8-N ) :   1.1750
B(  2-N ,  3-N ) :   0.9454 B(  3-N ,  4-C ) :   0.9369 B(  3-N ,  6-C ) :   1.1663
B(  4-C ,  5-O ) :   2.0268 B(  4-C , 12-H ) :   0.9243 B(  6-C ,  7-C ) :   0.8248
B(  6-C ,  8-N ) :   1.6264 B(  7-C , 13-H ) :   0.9364 B(  7-C , 14-H ) :   0.9393
B(  7-C , 15-H ) :   0.9364

MP2 TOTAL ENERGY:     -433.395338107 Eh
FINAL SINGLE POINT ENERGY      -433.395338106633

DIPOLE MOMENT
-------------
                                X             Y             Z
Electronic contribution:     -0.00747      -2.11624      -5.09189
Nuclear contribution   :      0.03204       1.52796       6.22460
                        -----------------------------------------
Total Dipole Moment    :      0.02457      -0.58828       1.13271
                        -----------------------------------------
Magnitude (a.u.)       :      1.27660
Magnitude (Debye)      :      3.24486

                             ****ORCA TERMINATED NORMALLY****
TOTAL RUN TIME: 0 days 0 hours 15 minutes 59 seconds 92 msec
