                         Program Version 3.0.3 - RELEASE   -
|  1> ! RI-MP2 RIJK def2-TZVP def2-TZVP/C def2-TZVP/JK TIGHTSCF
|  2> % maxcore 2000
|  3> % mp2 density relaxed end
|  4> *xyz 0 1
|  5>  C       -0.1415934991     1.5191179270     0.0510987611
|  6>  C        0.1059346687     0.0358789547    -0.0225289889
|  7>  O       -0.7262094405    -0.7999589976     0.8115915386
|  8>  C        0.6608561442    -0.7291177156     1.1279649114
|  9>  C        1.4440602313    -2.0203135898     0.9693930200
| 10>  C        1.7468452950    -2.3857272060    -0.4941273158
| 11>  C        0.5730989918    -2.0472055612    -1.4354316252
| 12>  C        0.3216992673    -0.5510082380    -1.3992178653
| 13>  O        0.3260719310     0.1539899469    -2.3832092129
| 14>  H        0.7099156676     2.0693775309    -0.3584125125
| 15>  H       -1.0205058878     1.7884079583    -0.5407508661
| 16>  H       -0.3040929583     1.8257187437     1.0869898057
| 17>  H        0.8698651678    -0.1493324631     2.0285763733
| 18>  H        2.3780430150    -1.9455698126     1.5364546542
| 19>  H        0.8527606985    -2.8132034523     1.4440076807
| 20>  H        2.6328453618    -1.8336912342    -0.8309788767
| 21>  H        1.9952470456    -3.4486525079    -0.5727524498
| 22>  H        0.7886096879    -2.3304228778    -2.4677869844
| 23>  H       -0.3316731879    -2.5699779055    -1.1055095674
| 24> *
| 25>
| 26>                          ****END OF INPUT****

CARTESIAN COORDINATES (ANGSTROEM)
---------------------------------
  C     -0.141593    1.519118    0.051099
  C      0.105935    0.035879   -0.022529
  O     -0.726209   -0.799959    0.811592
  C      0.660856   -0.729118    1.127965
  C      1.444060   -2.020314    0.969393
  C      1.746845   -2.385727   -0.494127
  C      0.573099   -2.047206   -1.435432
  C      0.321699   -0.551008   -1.399218
  O      0.326072    0.153990   -2.383209
  H      0.709916    2.069378   -0.358413
  H     -1.020506    1.788408   -0.540751
  H     -0.304093    1.825719    1.086990
  H      0.869865   -0.149332    2.028576
  H      2.378043   -1.945570    1.536455
  H      0.852761   -2.813203    1.444008
  H      2.632845   -1.833691   -0.830979
  H      1.995247   -3.448653   -0.572752
  H      0.788610   -2.330423   -2.467787
  H     -0.331673   -2.569978   -1.105510

 Total Charge           Charge          ....    0
 Multiplicity           Mult            ....    1
 Number of Electrons    NEL             ....   68
 Basis Dimension        Dim             ....  339

ORBITAL ENERGIES
----------------

  NO   OCC          E(Eh)            E(eV)
   0   2.0000     -20.581083      -560.0397
   1   2.0000     -20.551396      -559.2319
   2   2.0000     -11.332411      -308.3706
   3   2.0000     -11.303465      -307.5829
   4   2.0000     -11.302737      -307.5631
   5   2.0000     -11.245477      -306.0050
   6   2.0000     -11.244283      -305.9725
   7   2.0000     -11.238228      -305.8077
   8   2.0000     -11.225737      -305.4678
   9   2.0000      -1.429359       -38.8948
  10   2.0000      -1.391279       -37.8586
  11   2.0000      -1.101465       -29.9724
  12   2.0000      -1.028395       -27.9841
  13   2.0000      -1.002783       -27.2871
  14   2.0000      -0.918508       -24.9939
  15   2.0000      -0.854570       -23.2540
  16   2.0000      -0.826836       -22.4993
  17   2.0000      -0.714254       -19.4358
  18   2.0000      -0.695694       -18.9308
  19   2.0000      -0.675079       -18.3698
  20   2.0000      -0.648083       -17.6352
  21   2.0000      -0.608635       -16.5618
  22   2.0000      -0.598537       -16.2870
  23   2.0000      -0.588124       -16.0037
  24   2.0000      -0.581114       -15.8129
  25   2.0000      -0.558319       -15.1926
  26   2.0000      -0.548095       -14.9144
  27   2.0000      -0.534098       -14.5335
  28   2.0000      -0.514662       -14.0047
  29   2.0000      -0.497949       -13.5499
  30   2.0000      -0.482944       -13.1416
  31   2.0000      -0.456810       -12.4304
  32   2.0000      -0.428635       -11.6637
  33   2.0000      -0.407342       -11.0843
  34   0.0000       0.122424         3.3313
  35   0.0000       0.139992         3.8094
  36   0.0000       0.155778         4.2389
  37   0.0000       0.163763         4.4562
  38   0.0000       0.171264         4.6603

MULLIKEN ATOMIC CHARGES
-----------------------
   0 C :   -0.395828
   1 C :    0.148156
   2 O :   -0.328841
   3 C :    0.010857
   4 C :   -0.206418
   5 C :   -0.256239
   6 C :   -0.185151
   7 C :    0.145717
   8 O :   -0.278237
   9 H :    0.140114
  10 H :    0.146016
  11 H :    0.139699
  12 H :    0.123312
  13 H :    0.125719
  14 H :    0.126077
  15 H :    0.130267
  16 H :    0.133769
  17 H :    0.141285
  18 H :    0.139725
Sum of atomic charges:    0.0000000

LOEWDIN ATOMIC CHARGES
----------------------
   0 C :   -0.260337
   1 C :   -0.282976
   2 O :    0.195200
   3 C :   -0.237593
   4 C :   -0.245876
   5 C :   -0.248470
   6 C :   -0.220770
   7 C :   -0.287921
   8 O :    0.161672
   9 H :    0.137225
  10 H :    0.137052
  11 H :    0.131917
  12 H :    0.141006
  13 H :    0.144752
  14 H :    0.149800
  15 H :    0.142528
  16 H :    0.139573
  17 H :    0.147136
  18 H :    0.156081

  Mayer bond orders larger than 0.1
B(  0-C ,  1-C ) :   0.8964 B(  0-C ,  9-H ) :   0.9251 B(  0-C , 10-H ) :   0.9313
B(  0-C , 11-H ) :   0.9407 B(  1-C ,  2-O ) :   0.8646 B(  1-C ,  3-C ) :   0.9305
B(  1-C ,  7-C ) :   0.9133 B(  2-O ,  3-C ) :   0.8772 B(  3-C ,  4-C ) :   0.9053
B(  3-C , 12-H ) :   0.9144 B(  4-C ,  5-C ) :   0.9453 B(  4-C , 13-H ) :   0.9257
B(  4-C , 14-H ) :   0.9177 B(  5-C ,  6-C ) :   0.8834 B(  5-C , 15-H ) :   0.9333
B(  5-C , 16-H ) :   0.9327 B(  6-C ,  7-C ) :   0.9436 B(  6-C , 17-H ) :   0.9232
B(  6-C , 18-H ) :   0.9070 B(  7-C ,  8-O ) :   2.0180

MP2 TOTAL ENERGY:     -422.342920239 Eh
FINAL SINGLE POINT ENERGY      -422.342920239379

DIPOLE MOMENT
-------------
                                X             Y             Z
Electronic contribution:     -2.92841       1.37479      -2.33735
Nuclear contribution   :      3.64712      -1.82084       3.12007
                        -----------------------------------------
Total Dipole Moment    :      0.71871      -0.44604       0.78272
                        -----------------------------------------
Magnitude (a.u.)       :      1.15245
Magnitude (Debye)      :      2.92931

                             ****ORCA TERMINATED NORMALLY****
TOTAL RUN TIME: 0 days 0 hours 20 minutes 18 seconds 913 msec
