                         Program Version 3.0.3 - RELEASE   -
|  1> ! RI-MP2 RIJK def2-TZVP def2-TZVP/C def2-TZVP/JK TIGHTSCF
|  2> % maxcore 2000
|  3> % mp2 density relaxed end
|  4> *xyz 0 1
|  5>  C        0.0232578547     1.5304896474    -0.0516285471
|  6>  C       -0.1350423052     0.0404442949     0.2481374087
|  7>  C       -1.5578142948    -0.4588345153     0.0915567865
|  8>  O       -2.5030336610     0.2950746378    -0.0213113417
|  9>  C       -1.8134659084    -1.9703087978     0.0602071722
| 10>  C       -1.2884115760    -2.6816480627     1.3154827348
| 11>  O       -3.1849096248    -2.2150345959    -0.0970582390
| 12>  H        1.0553914369     1.8490150456     0.1167995644
| 13>  H       -0.2399937603     1.7516895381    -1.0896130966
| 14>  H       -0.6346300316     2.1254187384     0.5856180432
| 15>  H        0.5215894336    -0.5718540051    -0.3829932707
| 16>  H        0.1733793179    -0.1811308195     1.2795150224
| 17>  H       -1.2584872380    -2.3577427238    -0.8139673123
| 18>  H       -1.7448975375    -2.2580324493     2.2153464459
| 19>  H       -1.5615329594    -3.7382366962     1.2619450313
| 20>  H       -0.1999451757    -2.6107616913     1.3987938861
| 21>  H       -3.5919033005    -1.3359073153    -0.1684291381
| 22> *
| 23>
| 24>                          ****END OF INPUT****

CARTESIAN COORDINATES (ANGSTROEM)
---------------------------------
  C      0.023258    1.530490   -0.051629
  C     -0.135042    0.040444    0.248137
  C     -1.557814   -0.458835    0.091557
  O     -2.503034    0.295075   -0.021311
  C     -1.813466   -1.970309    0.060207
  C     -1.288412   -2.681648    1.315483
  O     -3.184910   -2.215035   -0.097058
  H      1.055391    1.849015    0.116800
  H     -0.239994    1.751690   -1.089613
  H     -0.634630    2.125419    0.585618
  H      0.521589   -0.571854   -0.382993
  H      0.173379   -0.181131    1.279515
  H     -1.258487   -2.357743   -0.813967
  H     -1.744898   -2.258032    2.215346
  H     -1.561533   -3.738237    1.261945
  H     -0.199945   -2.610762    1.398794
  H     -3.591903   -1.335907   -0.168429

 Total Charge           Charge          ....    0
 Multiplicity           Mult            ....    1
 Number of Electrons    NEL             ....   56
 Basis Dimension        Dim             ....  277

ORBITAL ENERGIES
----------------

  NO   OCC          E(Eh)            E(eV)
   0   2.0000     -20.561960      -559.5194
   1   2.0000     -20.549485      -559.1799
   2   2.0000     -11.340155      -308.5813
   3   2.0000     -11.296193      -307.3850
   4   2.0000     -11.251989      -306.1822
   5   2.0000     -11.230944      -305.6095
   6   2.0000     -11.227026      -305.5029
   7   2.0000      -1.414198       -38.4823
   8   2.0000      -1.356069       -36.9005
   9   2.0000      -1.075767       -29.2731
  10   2.0000      -1.026680       -27.9374
  11   2.0000      -0.917859       -24.9762
  12   2.0000      -0.856894       -23.3173
  13   2.0000      -0.754586       -20.5333
  14   2.0000      -0.716393       -19.4940
  15   2.0000      -0.671733       -18.2788
  16   2.0000      -0.645375       -17.5616
  17   2.0000      -0.628113       -17.0918
  18   2.0000      -0.585633       -15.9359
  19   2.0000      -0.571631       -15.5549
  20   2.0000      -0.554095       -15.0777
  21   2.0000      -0.543548       -14.7907
  22   2.0000      -0.529451       -14.4071
  23   2.0000      -0.525893       -14.3103
  24   2.0000      -0.513476       -13.9724
  25   2.0000      -0.499438       -13.5904
  26   2.0000      -0.445550       -12.1240
  27   2.0000      -0.423180       -11.5153
  28   0.0000       0.120251         3.2722
  29   0.0000       0.129004         3.5104
  30   0.0000       0.158251         4.3062
  31   0.0000       0.168727         4.5913
  32   0.0000       0.189463         5.1556

MULLIKEN ATOMIC CHARGES
-----------------------
   0 C :   -0.367414
   1 C :   -0.250313
   2 C :    0.192267
   3 O :   -0.329265
   4 C :    0.092185
   5 C :   -0.381107
   6 O :   -0.481169
   7 H :    0.136175
   8 H :    0.132117
   9 H :    0.141861
  10 H :    0.137608
  11 H :    0.143874
  12 H :    0.096439
  13 H :    0.127766
  14 H :    0.149784
  15 H :    0.124822
  16 H :    0.334371
Sum of atomic charges:    0.0000000

LOEWDIN ATOMIC CHARGES
----------------------
   0 C :   -0.307433
   1 C :   -0.265470
   2 C :   -0.303118
   3 O :    0.143370
   4 C :   -0.364452
   5 C :   -0.288590
   6 O :   -0.010097
   7 H :    0.122753
   8 H :    0.126793
   9 H :    0.128887
  10 H :    0.150913
  11 H :    0.156702
  12 H :    0.147616
  13 H :    0.126862
  14 H :    0.131335
  15 H :    0.122754
  16 H :    0.181177

  Mayer bond orders larger than 0.1
B(  0-C ,  1-C ) :   0.9299 B(  0-C ,  7-H ) :   0.9391 B(  0-C ,  8-H ) :   0.9383
B(  0-C ,  9-H ) :   0.9328 B(  1-C ,  2-C ) :   0.9165 B(  1-C , 10-H ) :   0.9183
B(  1-C , 11-H ) :   0.9033 B(  2-C ,  3-O ) :   1.8765 B(  2-C ,  4-C ) :   0.9395
B(  4-C ,  5-C ) :   0.8667 B(  4-C ,  6-O ) :   1.0745 B(  4-C , 12-H ) :   0.9232
B(  5-C , 13-H ) :   0.9301 B(  5-C , 14-H ) :   0.9323 B(  5-C , 15-H ) :   0.9234
B(  6-O , 16-H ) :   0.7997

MP2 TOTAL ENERGY:     -346.317787942 Eh
FINAL SINGLE POINT ENERGY      -346.317787941900

DIPOLE MOMENT
-------------
                                X             Y             Z
Electronic contribution:     -6.06833      -0.44671      -1.87085
Nuclear contribution   :      7.25883       0.52612       2.05316
                        -----------------------------------------
Total Dipole Moment    :      1.19051       0.07941       0.18231
                        -----------------------------------------
Magnitude (a.u.)       :      1.20700
Magnitude (Debye)      :      3.06795

                             ****ORCA TERMINATED NORMALLY****
TOTAL RUN TIME: 0 days 0 hours 8 minutes 24 seconds 289 msec
