                         Program Version 3.0.3 - RELEASE   -
|  1> ! RI-MP2 RIJK def2-TZVP def2-TZVP/C def2-TZVP/JK TIGHTSCF
|  2> % maxcore 2000
|  3> % mp2 density relaxed end
|  4> *xyz 0 1
|  5>  C       -0.1199238831     1.4861338153     0.2097080540
|  6>  C       -0.0291025669     0.0113803340     0.0058408094
|  7>  C        0.0174991416    -0.7567747461    -1.1294494778
|  8>  N        0.1211853398    -2.0950851360    -0.8261175988
|  9>  C        0.1370723956    -2.1452005714     0.4818653101
| 10>  N        0.0540162078    -0.9007855727     1.0505561951
| 11>  C       -0.0062419576    -0.6041329879     2.4618664841
| 12>  C       -1.4209704616    -0.2683088265     2.9369875139
| 13>  O       -1.6515246992     0.4323405365     3.8838578250
| 14>  H        0.7538678448     1.8892685564     0.7367802751
| 15>  H       -0.1739327431     1.9819954599    -0.7620446816
| 16>  H       -1.0083867441     1.7832568240     0.7801734671
| 17>  H       -0.0139100881    -0.4118499431    -2.1524909391
| 18>  H        0.2146203609    -3.0376114321     1.0868144577
| 19>  H        0.3258227841    -1.4903935061     3.0161081142
| 20>  H        0.6622885079     0.2182128394     2.7317789941
| 21>  H       -2.2264229488    -0.7443922634     2.3338418276
| 22> *
| 23>
| 24>                          ****END OF INPUT****

CARTESIAN COORDINATES (ANGSTROEM)
---------------------------------
  C     -0.119924    1.486134    0.209708
  C     -0.029103    0.011380    0.005841
  C      0.017499   -0.756775   -1.129449
  N      0.121185   -2.095085   -0.826118
  C      0.137072   -2.145201    0.481865
  N      0.054016   -0.900786    1.050556
  C     -0.006242   -0.604133    2.461866
  C     -1.420970   -0.268309    2.936988
  O     -1.651525    0.432341    3.883858
  H      0.753868    1.889269    0.736780
  H     -0.173933    1.981995   -0.762045
  H     -1.008387    1.783257    0.780173
  H     -0.013910   -0.411850   -2.152491
  H      0.214620   -3.037611    1.086814
  H      0.325823   -1.490394    3.016108
  H      0.662289    0.218213    2.731779
  H     -2.226423   -0.744392    2.333842

 Total Charge           Charge          ....    0
 Multiplicity           Mult            ....    1
 Number of Electrons    NEL             ....   66
 Basis Dimension        Dim             ....  327

ORBITAL ENERGIES
----------------

  NO   OCC          E(Eh)            E(eV)
   0   2.0000     -20.581494      -560.0509
   1   2.0000     -15.630280      -425.3215
   2   2.0000     -15.549318      -423.1185
   3   2.0000     -11.354997      -308.9852
   4   2.0000     -11.308971      -307.7327
   5   2.0000     -11.299300      -307.4696
   6   2.0000     -11.271928      -306.7248
   7   2.0000     -11.247690      -306.0652
   8   2.0000     -11.243002      -305.9376
   9   2.0000      -1.421952       -38.6933
  10   2.0000      -1.354005       -36.8444
  11   2.0000      -1.198724       -32.6189
  12   2.0000      -1.065246       -28.9868
  13   2.0000      -1.012917       -27.5629
  14   2.0000      -0.947101       -25.7719
  15   2.0000      -0.841672       -22.9031
  16   2.0000      -0.817115       -22.2348
  17   2.0000      -0.777969       -21.1696
  18   2.0000      -0.724576       -19.7167
  19   2.0000      -0.679479       -18.4896
  20   2.0000      -0.674632       -18.3577
  21   2.0000      -0.632483       -17.2107
  22   2.0000      -0.616538       -16.7768
  23   2.0000      -0.606302       -16.4983
  24   2.0000      -0.573594       -15.6083
  25   2.0000      -0.571286       -15.5455
  26   2.0000      -0.562679       -15.3113
  27   2.0000      -0.557124       -15.1601
  28   2.0000      -0.528807       -14.3896
  29   2.0000      -0.456943       -12.4341
  30   2.0000      -0.438488       -11.9319
  31   2.0000      -0.392516       -10.6809
  32   2.0000      -0.319307        -8.6888
  33   0.0000       0.104479         2.8430
  34   0.0000       0.125850         3.4245
  35   0.0000       0.143373         3.9014
  36   0.0000       0.151984         4.1357
  37   0.0000       0.164536         4.4772

MULLIKEN ATOMIC CHARGES
-----------------------
   0 C :   -0.410082
   1 C :    0.046075
   2 C :   -0.144764
   3 N :   -0.277924
   4 C :   -0.015954
   5 N :   -0.050121
   6 C :   -0.136938
   7 C :    0.067013
   8 O :   -0.243097
   9 H :    0.148375
  10 H :    0.156810
  11 H :    0.151885
  12 H :    0.133440
  13 H :    0.147574
  14 H :    0.164286
  15 H :    0.153075
  16 H :    0.110348
Sum of atomic charges:    0.0000000

LOEWDIN ATOMIC CHARGES
----------------------
   0 C :   -0.274570
   1 C :   -0.244056
   2 C :   -0.239404
   3 N :    0.088340
   4 C :   -0.307466
   5 N :    0.254775
   6 C :   -0.240822
   7 C :   -0.290410
   8 O :    0.150316
   9 H :    0.132559
  10 H :    0.142230
  11 H :    0.132108
  12 H :    0.134598
  13 H :    0.131909
  14 H :    0.160211
  15 H :    0.151881
  16 H :    0.117802

  Mayer bond orders larger than 0.1
B(  0-C ,  1-C ) :   0.8631 B(  0-C ,  9-H ) :   0.9337 B(  0-C , 10-H ) :   0.9446
B(  0-C , 11-H ) :   0.9273 B(  1-C ,  2-C ) :   1.5101 B(  1-C ,  5-N ) :   1.1008
B(  2-C ,  3-N ) :   1.2971 B(  2-C , 12-H ) :   0.9420 B(  3-N ,  4-C ) :   1.5804
B(  4-C ,  5-N ) :   1.1388 B(  4-C , 13-H ) :   0.9207 B(  5-N ,  6-C ) :   0.8554
B(  6-C ,  7-C ) :   0.8444 B(  6-C , 14-H ) :   0.9059 B(  6-C , 15-H ) :   0.9041
B(  7-C ,  8-O ) :   2.0099 B(  7-C , 16-H ) :   0.9380

MP2 TOTAL ENERGY:     -417.338428410 Eh
FINAL SINGLE POINT ENERGY      -417.338428409791

DIPOLE MOMENT
-------------
                                X             Y             Z
Electronic contribution:     -0.93902      -3.48981       1.25067
Nuclear contribution   :      1.18076       3.94038      -0.70544
                        -----------------------------------------
Total Dipole Moment    :      0.24173       0.45056       0.54523
                        -----------------------------------------
Magnitude (a.u.)       :      0.74748
Magnitude (Debye)      :      1.89993

                             ****ORCA TERMINATED NORMALLY****
TOTAL RUN TIME: 0 days 0 hours 15 minutes 58 seconds 707 msec
