                         Program Version 3.0.3 - RELEASE   -
|  1> ! RI-MP2 RIJK def2-TZVP def2-TZVP/C def2-TZVP/JK TIGHTSCF
|  2> % maxcore 2000
|  3> % mp2 density relaxed end
|  4> *xyz 0 1
|  5>  C       -0.0548959219     1.5441513005     0.0002419511
|  6>  C        1.4537880954     1.9004754372     0.0620563407
|  7>  C        2.1399450545     0.6335496009     0.6302424876
|  8>  N        3.4562628777     0.3712972844     0.0478063243
|  9>  C        3.7023580670    -0.8126545082    -0.3257968617
| 10>  O        2.9477166394    -1.9380052272    -0.2569252861
| 11>  C        1.6581424344    -1.8463513845     0.3937259772
| 12>  C        1.1400603001    -0.4551251750     0.3227073786
| 13>  C       -0.0439700624     0.0309582580    -0.0397562664
| 14>  H       -0.5959756713     1.9081876592     0.8850150686
| 15>  H       -0.5575592404     1.9846147290    -0.8677196144
| 16>  H        1.8403166503     2.0662855175    -0.9477256241
| 17>  H        1.6639745383     2.7970253787     0.6493423751
| 18>  H        2.2825359626     0.7347844973     1.7178241905
| 19>  H        4.6552641260    -1.0565453374    -0.7934428887
| 20>  H        1.0117507158    -2.5708245753    -0.1076549241
| 21>  H        1.7976529822    -2.1708670427     1.4347637630
| 22>  H       -0.9099377777    -0.5607898023    -0.3195417513
| 23> *
| 24>
| 25>                          ****END OF INPUT****

CARTESIAN COORDINATES (ANGSTROEM)
---------------------------------
  C     -0.054896    1.544151    0.000242
  C      1.453788    1.900475    0.062056
  C      2.139945    0.633550    0.630242
  N      3.456263    0.371297    0.047806
  C      3.702358   -0.812655   -0.325797
  O      2.947717   -1.938005   -0.256925
  C      1.658142   -1.846351    0.393726
  C      1.140060   -0.455125    0.322707
  C     -0.043970    0.030958   -0.039756
  H     -0.595976    1.908188    0.885015
  H     -0.557559    1.984615   -0.867720
  H      1.840317    2.066286   -0.947726
  H      1.663975    2.797025    0.649342
  H      2.282536    0.734784    1.717824
  H      4.655264   -1.056545   -0.793443
  H      1.011751   -2.570825   -0.107655
  H      1.797653   -2.170867    1.434764
  H     -0.909938   -0.560790   -0.319542

 Total Charge           Charge          ....    0
 Multiplicity           Mult            ....    1
 Number of Electrons    NEL             ....   66
 Basis Dimension        Dim             ....  333

ORBITAL ENERGIES
----------------

  NO   OCC          E(Eh)            E(eV)
   0   2.0000     -20.594583      -560.4071
   1   2.0000     -15.541229      -422.8983
   2   2.0000     -11.329288      -308.2856
   3   2.0000     -11.299642      -307.4789
   4   2.0000     -11.259255      -306.3799
   5   2.0000     -11.235815      -305.7421
   6   2.0000     -11.232977      -305.6648
   7   2.0000     -11.230201      -305.5893
   8   2.0000     -11.220629      -305.3288
   9   2.0000      -1.422731       -38.7145
  10   2.0000      -1.219153       -33.1748
  11   2.0000      -1.135829       -30.9075
  12   2.0000      -1.021714       -27.8022
  13   2.0000      -0.970045       -26.3963
  14   2.0000      -0.913348       -24.8535
  15   2.0000      -0.830192       -22.5907
  16   2.0000      -0.784995       -21.3608
  17   2.0000      -0.725400       -19.7391
  18   2.0000      -0.704674       -19.1751
  19   2.0000      -0.671425       -18.2704
  20   2.0000      -0.645578       -17.5671
  21   2.0000      -0.623792       -16.9742
  22   2.0000      -0.610095       -16.6015
  23   2.0000      -0.572913       -15.5898
  24   2.0000      -0.549987       -14.9659
  25   2.0000      -0.525471       -14.2988
  26   2.0000      -0.512949       -13.9581
  27   2.0000      -0.497992       -13.5510
  28   2.0000      -0.492643       -13.4055
  29   2.0000      -0.482032       -13.1167
  30   2.0000      -0.406151       -11.0519
  31   2.0000      -0.383489       -10.4353
  32   2.0000      -0.351315        -9.5598
  33   0.0000       0.134792         3.6679
  34   0.0000       0.145691         3.9644
  35   0.0000       0.158249         4.3062
  36   0.0000       0.164393         4.4734
  37   0.0000       0.184714         5.0263

MULLIKEN ATOMIC CHARGES
-----------------------
   0 C :   -0.178208
   1 C :   -0.239107
   2 C :    0.091352
   3 N :   -0.285458
   4 C :    0.084340
   5 O :   -0.258608
   6 C :   -0.035470
   7 C :   -0.115176
   8 C :   -0.180054
   9 H :    0.117836
  10 H :    0.124552
  11 H :    0.120312
  12 H :    0.125074
  13 H :    0.106433
  14 H :    0.136903
  15 H :    0.130823
  16 H :    0.122123
  17 H :    0.132335
Sum of atomic charges:   -0.0000000

LOEWDIN ATOMIC CHARGES
----------------------
   0 C :   -0.237627
   1 C :   -0.207804
   2 C :   -0.238995
   3 N :    0.088395
   4 C :   -0.358041
   5 O :    0.217197
   6 C :   -0.231593
   7 C :   -0.167572
   8 C :   -0.120711
   9 H :    0.139952
  10 H :    0.136879
  11 H :    0.144098
  12 H :    0.132952
  13 H :    0.154269
  14 H :    0.134046
  15 H :    0.138884
  16 H :    0.137342
  17 H :    0.138328

  Mayer bond orders larger than 0.1
B(  0-C ,  1-C ) :   0.9438 B(  0-C ,  8-C ) :   0.9331 B(  0-C ,  9-H ) :   0.9107
B(  0-C , 10-H ) :   0.9310 B(  1-C ,  2-C ) :   0.9108 B(  1-C , 11-H ) :   0.9289
B(  1-C , 12-H ) :   0.9333 B(  2-C ,  3-N ) :   0.9247 B(  2-C ,  7-C ) :   0.9118
B(  2-C , 13-H ) :   0.9227 B(  3-N ,  4-C ) :   1.8339 B(  4-C ,  5-O ) :   1.0681
B(  4-C , 14-H ) :   0.9240 B(  5-O ,  6-C ) :   0.8722 B(  6-C ,  7-C ) :   0.9537
B(  6-C , 15-H ) :   0.9309 B(  6-C , 16-H ) :   0.9231 B(  7-C ,  8-C ) :   1.7105
B(  8-C , 17-H ) :   0.9166

MP2 TOTAL ENERGY:     -401.273072899 Eh
FINAL SINGLE POINT ENERGY      -401.273072898769

DIPOLE MOMENT
-------------
                                X             Y             Z
Electronic contribution:      4.20160      -3.89026      -0.56223
Nuclear contribution   :     -5.03518       3.64682       0.80607
                        -----------------------------------------
Total Dipole Moment    :     -0.83359      -0.24344       0.24385
                        -----------------------------------------
Magnitude (a.u.)       :      0.90199
Magnitude (Debye)      :      2.29269

                             ****ORCA TERMINATED NORMALLY****
TOTAL RUN TIME: 0 days 0 hours 17 minutes 51 seconds 578 msec
