                         Program Version 3.0.3 - RELEASE   -
|  1> ! RI-MP2 RIJK def2-TZVP def2-TZVP/C def2-TZVP/JK TIGHTSCF
|  2> % maxcore 2000
|  3> % mp2 density relaxed end
|  4> *xyz 0 1
|  5>  O        0.2901149381     0.0064758314     0.3628214922
|  6>  C        0.1580624857     1.1548718572     0.0447478172
|  7>  C        1.3483467358     2.1141466918    -0.1270112224
|  8>  C        1.1833846223     2.9207601619    -1.3371855686
|  9>  N        1.0149873421     3.5527979436    -2.2899733483
| 10>  C        1.4567315250     2.9914563952     1.1220354259
| 11>  C        2.0744927143     2.4112044382     2.3678949881
| 12>  C        2.8079888316     3.4709001464     1.5853533235
| 13>  H       -0.8384735465     1.6219421445    -0.1038415148
| 14>  H        2.2459843034     1.4942438964    -0.2208050052
| 15>  H        0.6226690092     3.6741126380     1.2509880832
| 16>  H        1.6366399648     2.6794949440     3.3222728988
| 17>  H        2.4430535168     1.3922834022     2.3194308783
| 18>  H        3.6768686363     3.1698938717     1.0101350474
| 19>  H        2.8732114013     4.4707899075     1.9982823848
| 20> *
| 21>
| 22>                          ****END OF INPUT****

CARTESIAN COORDINATES (ANGSTROEM)
---------------------------------
  O      0.290115    0.006476    0.362821
  C      0.158062    1.154872    0.044748
  C      1.348347    2.114147   -0.127011
  C      1.183385    2.920760   -1.337186
  N      1.014987    3.552798   -2.289973
  C      1.456732    2.991456    1.122035
  C      2.074493    2.411204    2.367895
  C      2.807989    3.470900    1.585353
  H     -0.838474    1.621942   -0.103842
  H      2.245984    1.494244   -0.220805
  H      0.622669    3.674113    1.250988
  H      1.636640    2.679495    3.322273
  H      2.443054    1.392283    2.319431
  H      3.676869    3.169894    1.010135
  H      2.873211    4.470790    1.998282

 Total Charge           Charge          ....    0
 Multiplicity           Mult            ....    1
 Number of Electrons    NEL             ....   58
 Basis Dimension        Dim             ....  290

ORBITAL ENERGIES
----------------

  NO   OCC          E(Eh)            E(eV)
   0   2.0000     -20.586360      -560.1833
   1   2.0000     -15.587081      -424.1460
   2   2.0000     -11.363267      -309.2102
   3   2.0000     -11.309757      -307.7541
   4   2.0000     -11.288299      -307.1702
   5   2.0000     -11.276115      -306.8387
   6   2.0000     -11.255586      -306.2801
   7   2.0000     -11.254250      -306.2437
   8   2.0000      -1.427301       -38.8388
   9   2.0000      -1.236831       -33.6559
  10   2.0000      -1.184289       -32.2262
  11   2.0000      -1.074808       -29.2470
  12   2.0000      -0.860333       -23.4109
  13   2.0000      -0.848158       -23.0796
  14   2.0000      -0.830875       -22.6092
  15   2.0000      -0.753852       -20.5134
  16   2.0000      -0.701017       -19.0757
  17   2.0000      -0.678877       -18.4732
  18   2.0000      -0.659757       -17.9529
  19   2.0000      -0.629880       -17.1399
  20   2.0000      -0.574614       -15.6360
  21   2.0000      -0.571040       -15.5388
  22   2.0000      -0.542505       -14.7623
  23   2.0000      -0.537315       -14.6211
  24   2.0000      -0.499570       -13.5940
  25   2.0000      -0.477658       -12.9977
  26   2.0000      -0.468087       -12.7373
  27   2.0000      -0.448556       -12.2058
  28   2.0000      -0.426919       -11.6171
  29   0.0000       0.103175         2.8075
  30   0.0000       0.129779         3.5315
  31   0.0000       0.133904         3.6437
  32   0.0000       0.153804         4.1852
  33   0.0000       0.156706         4.2642

MULLIKEN ATOMIC CHARGES
-----------------------
   0 O :   -0.238716
   1 C :    0.109831
   2 C :    0.075537
   3 C :   -0.210860
   4 N :   -0.046090
   5 C :   -0.140192
   6 C :   -0.249910
   7 C :   -0.260613
   8 H :    0.101888
   9 H :    0.137092
  10 H :    0.144598
  11 H :    0.143692
  12 H :    0.148586
  13 H :    0.141495
  14 H :    0.143662
Sum of atomic charges:   -0.0000000

LOEWDIN ATOMIC CHARGES
----------------------
   0 O :    0.160662
   1 C :   -0.244485
   2 C :   -0.223101
   3 C :   -0.164867
   4 N :    0.074264
   5 C :   -0.194665
   6 C :   -0.213360
   7 C :   -0.211528
   8 H :    0.122732
   9 H :    0.185950
  10 H :    0.156601
  11 H :    0.136578
  12 H :    0.140268
  13 H :    0.137899
  14 H :    0.137052

  Mayer bond orders larger than 0.1
B(  0-O ,  1-C ) :   2.0000 B(  1-C ,  2-C ) :   0.8246 B(  1-C ,  8-H ) :   0.9252
B(  2-C ,  3-C ) :   0.9133 B(  2-C ,  5-C ) :   0.8937 B(  2-C ,  9-H ) :   0.8882
B(  3-C ,  4-N ) :   2.8604 B(  5-C ,  6-C ) :   0.8868 B(  5-C ,  7-C ) :   0.8987
B(  5-C , 10-H ) :   0.9095 B(  6-C ,  7-C ) :   0.9021 B(  6-C , 11-H ) :   0.9303
B(  6-C , 12-H ) :   0.9232 B(  7-C , 13-H ) :   0.9234 B(  7-C , 14-H ) :   0.9293

MP2 TOTAL ENERGY:     -362.040502933 Eh
FINAL SINGLE POINT ENERGY      -362.040502933470

DIPOLE MOMENT
-------------
                                X             Y             Z
Electronic contribution:     -3.13958      -2.11904      -6.11886
Nuclear contribution   :      3.43197       2.32077       7.32965
                        -----------------------------------------
Total Dipole Moment    :      0.29239       0.20173       1.21079
                        -----------------------------------------
Magnitude (a.u.)       :      1.26183
Magnitude (Debye)      :      3.20731

                             ****ORCA TERMINATED NORMALLY****
TOTAL RUN TIME: 0 days 0 hours 10 minutes 48 seconds 831 msec
