                         Program Version 3.0.3 - RELEASE   -
|  1> ! RI-MP2 RIJK def2-TZVP def2-TZVP/C def2-TZVP/JK TIGHTSCF
|  2> % maxcore 2000
|  3> % mp2 density relaxed end
|  4> *xyz 0 1
|  5>  C       -0.0096852028     1.3949519488     0.0859628723
|  6>  C       -0.3436375309     0.0601442357    -0.5514878560
|  7>  O       -1.3585114728    -0.1457584767    -1.1843096861
|  8>  N        0.6175837664    -0.9159769473    -0.3445425670
|  9>  C        0.6304659815    -2.2009140372    -0.8937743566
| 10>  N        1.7381404769    -2.8187803239    -0.9768758615
| 11>  C       -0.6927640946    -2.8637399966    -1.2655653565
| 12>  O       -0.6882787122    -3.8651020784    -1.9348119952
| 13>  H        0.9004393030     1.8146456067    -0.3560041509
| 14>  H       -0.8390757372     2.0801440067    -0.0831579015
| 15>  H        0.1625706180     1.2840013266     1.1611476034
| 16>  H        1.5082140864    -0.6382049152     0.0460593716
| 17>  H        1.5583426522    -3.7473900377    -1.3674586597
| 18>  H       -1.6120111340    -2.4163734214    -0.8624887663
| 19> *
| 20>
| 21>                          ****END OF INPUT****

CARTESIAN COORDINATES (ANGSTROEM)
---------------------------------
  C     -0.009685    1.394952    0.085963
  C     -0.343638    0.060144   -0.551488
  O     -1.358511   -0.145758   -1.184310
  N      0.617584   -0.915977   -0.344543
  C      0.630466   -2.200914   -0.893774
  N      1.738140   -2.818780   -0.976876
  C     -0.692764   -2.863740   -1.265565
  O     -0.688279   -3.865102   -1.934812
  H      0.900439    1.814646   -0.356004
  H     -0.839076    2.080144   -0.083158
  H      0.162571    1.284001    1.161148
  H      1.508214   -0.638205    0.046059
  H      1.558343   -3.747390   -1.367459
  H     -1.612011   -2.416373   -0.862489

 Total Charge           Charge          ....    0
 Multiplicity           Mult            ....    1
 Number of Electrons    NEL             ....   60
 Basis Dimension        Dim             ....  284

ORBITAL ENERGIES
----------------

  NO   OCC          E(Eh)            E(eV)
   0   2.0000     -20.581502      -560.0511
   1   2.0000     -20.554339      -559.3120
   2   2.0000     -15.624144      -425.1546
   3   2.0000     -15.568683      -423.6454
   4   2.0000     -11.387703      -309.8752
   5   2.0000     -11.354253      -308.9649
   6   2.0000     -11.345438      -308.7251
   7   2.0000     -11.261585      -306.4433
   8   2.0000      -1.424779       -38.7702
   9   2.0000      -1.417691       -38.5773
  10   2.0000      -1.300996       -35.4019
  11   2.0000      -1.198177       -32.6041
  12   2.0000      -1.036265       -28.1982
  13   2.0000      -0.935929       -25.4679
  14   2.0000      -0.861629       -23.4461
  15   2.0000      -0.778715       -21.1899
  16   2.0000      -0.722596       -19.6628
  17   2.0000      -0.716052       -19.4848
  18   2.0000      -0.673981       -18.3400
  19   2.0000      -0.660960       -17.9856
  20   2.0000      -0.646278       -17.5861
  21   2.0000      -0.618992       -16.8436
  22   2.0000      -0.585954       -15.9446
  23   2.0000      -0.582908       -15.8617
  24   2.0000      -0.550944       -14.9920
  25   2.0000      -0.503898       -13.7117
  26   2.0000      -0.497234       -13.5304
  27   2.0000      -0.456742       -12.4286
  28   2.0000      -0.438311       -11.9271
  29   2.0000      -0.402427       -10.9506
  30   0.0000       0.067293         1.8311
  31   0.0000       0.113360         3.0847
  32   0.0000       0.145873         3.9694
  33   0.0000       0.170097         4.6286
  34   0.0000       0.175966         4.7883

MULLIKEN ATOMIC CHARGES
-----------------------
   0 C :   -0.440733
   1 C :    0.334638
   2 O :   -0.354600
   3 N :   -0.302307
   4 C :    0.146948
   5 N :   -0.351402
   6 C :    0.119947
   7 O :   -0.264960
   8 H :    0.156305
   9 H :    0.165358
  10 H :    0.154917
  11 H :    0.254721
  12 H :    0.244837
  13 H :    0.136330
Sum of atomic charges:    0.0000000

LOEWDIN ATOMIC CHARGES
----------------------
   0 C :   -0.273331
   1 C :   -0.446205
   2 O :    0.111516
   3 N :    0.150876
   4 C :   -0.352945
   5 N :   -0.016205
   6 C :   -0.253580
   7 O :    0.151341
   8 H :    0.138721
   9 H :    0.140668
  10 H :    0.136802
  11 H :    0.205333
  12 H :    0.178343
  13 H :    0.128666

  Mayer bond orders larger than 0.1
B(  0-C ,  1-C ) :   0.9144 B(  0-C ,  8-H ) :   0.9138 B(  0-C ,  9-H ) :   0.9382
B(  0-C , 10-H ) :   0.9190 B(  1-C ,  2-O ) :   1.8984 B(  1-C ,  3-N ) :   1.0666
B(  3-N ,  4-C ) :   0.9860 B(  3-N , 11-H ) :   0.8524 B(  4-C ,  5-N ) :   1.9227
B(  4-C ,  6-C ) :   0.8909 B(  5-N , 12-H ) :   0.8472 B(  6-C ,  7-O ) :   1.9236
B(  6-C , 13-H ) :   0.9176

MP2 TOTAL ENERGY:     -415.230299789 Eh
FINAL SINGLE POINT ENERGY      -415.230299789372

DIPOLE MOMENT
-------------
                                X             Y             Z
Electronic contribution:     -1.27534      -5.39351      -2.60549
Nuclear contribution   :      1.70897       6.42064       3.61411
                        -----------------------------------------
Total Dipole Moment    :      0.43362       1.02713       1.00863
                        -----------------------------------------
Magnitude (a.u.)       :      1.50344
Magnitude (Debye)      :      3.82145

                             ****ORCA TERMINATED NORMALLY****
TOTAL RUN TIME: 0 days 0 hours 9 minutes 28 seconds 871 msec
