                         Program Version 3.0.3 - RELEASE   -
|  1> ! RI-MP2 RIJK def2-TZVP def2-TZVP/C def2-TZVP/JK TIGHTSCF
|  2> % maxcore 2000
|  3> % mp2 density relaxed end
|  4> *xyz 0 1
|  5>  C        0.0062125496     1.4846951321    -0.1885566302
|  6>  O        1.3926950266     1.5857297301     0.1863058059
|  7>  C        1.4654611670     0.1879856687     0.5240632604
|  8>  C        0.0211849637    -0.0491938562     0.0198120670
|  9>  N       -0.9370985394    -0.6258774653     0.9327571109
| 10>  C       -1.2341040719    -0.2537391564     2.2180990261
| 11>  N       -2.1636738394    -1.0213810143     2.7247715766
| 12>  N       -2.5080591594    -1.9424370704     1.7539898918
| 13>  C       -1.7706984872    -1.6885223898     0.7061115294
| 14>  H       -0.6568166221     2.0253399792     0.4980615333
| 15>  H       -0.1746927863     1.8295100839    -1.2123485123
| 16>  H        2.2581465447    -0.3323461935    -0.0242783801
| 17>  H        1.5993735383     0.0204567147     1.5998655480
| 18>  H       -0.0299654762    -0.6171835951    -0.9089810414
| 19>  H       -0.7514129987     0.5676185790     2.7242539836
| 20>  H       -1.7900420006    -2.2249412723    -0.2303659250
| 21> *
| 22>
| 23>                          ****END OF INPUT****

CARTESIAN COORDINATES (ANGSTROEM)
---------------------------------
  C      0.006213    1.484695   -0.188557
  O      1.392695    1.585730    0.186306
  C      1.465461    0.187986    0.524063
  C      0.021185   -0.049194    0.019812
  N     -0.937099   -0.625877    0.932757
  C     -1.234104   -0.253739    2.218099
  N     -2.163674   -1.021381    2.724772
  N     -2.508059   -1.942437    1.753990
  C     -1.770698   -1.688522    0.706112
  H     -0.656817    2.025340    0.498062
  H     -0.174693    1.829510   -1.212349
  H      2.258147   -0.332346   -0.024278
  H      1.599374    0.020457    1.599866
  H     -0.029965   -0.617184   -0.908981
  H     -0.751413    0.567619    2.724254
  H     -1.790042   -2.224941   -0.230366

 Total Charge           Charge          ....    0
 Multiplicity           Mult            ....    1
 Number of Electrons    NEL             ....   66
 Basis Dimension        Dim             ....  321

ORBITAL ENERGIES
----------------

  NO   OCC          E(Eh)            E(eV)
   0   2.0000     -20.578315      -559.9644
   1   2.0000     -15.644490      -425.7082
   2   2.0000     -15.585005      -424.0896
   3   2.0000     -15.583227      -424.0412
   4   2.0000     -11.317042      -307.9524
   5   2.0000     -11.310836      -307.7835
   6   2.0000     -11.310805      -307.7827
   7   2.0000     -11.309221      -307.7396
   8   2.0000     -11.307964      -307.7053
   9   2.0000      -1.415036       -38.5051
  10   2.0000      -1.399478       -38.0817
  11   2.0000      -1.242536       -33.8111
  12   2.0000      -1.098140       -29.8819
  13   2.0000      -1.041442       -28.3391
  14   2.0000      -0.969290       -26.3757
  15   2.0000      -0.871448       -23.7133
  16   2.0000      -0.848710       -23.0946
  17   2.0000      -0.800263       -21.7763
  18   2.0000      -0.750351       -20.4181
  19   2.0000      -0.714603       -19.4453
  20   2.0000      -0.666694       -18.1417
  21   2.0000      -0.663572       -18.0567
  22   2.0000      -0.631608       -17.1869
  23   2.0000      -0.612915       -16.6783
  24   2.0000      -0.607169       -16.5219
  25   2.0000      -0.595556       -16.2059
  26   2.0000      -0.521697       -14.1961
  27   2.0000      -0.510336       -13.8870
  28   2.0000      -0.482838       -13.1387
  29   2.0000      -0.447229       -12.1697
  30   2.0000      -0.433359       -11.7923
  31   2.0000      -0.411252       -11.1907
  32   2.0000      -0.370150       -10.0723
  33   0.0000       0.122807         3.3417
  34   0.0000       0.134877         3.6702
  35   0.0000       0.137422         3.7394
  36   0.0000       0.155389         4.2284
  37   0.0000       0.158344         4.3087

MULLIKEN ATOMIC CHARGES
-----------------------
   0 C :   -0.028109
   1 O :   -0.315300
   2 C :   -0.028109
   3 C :   -0.092150
   4 N :   -0.051507
   5 C :   -0.040320
   6 N :   -0.171967
   7 N :   -0.180857
   8 C :   -0.023508
   9 H :    0.119066
  10 H :    0.115974
  11 H :    0.115974
  12 H :    0.119066
  13 H :    0.133844
  14 H :    0.170576
  15 H :    0.157327
Sum of atomic charges:    0.0000000

LOEWDIN ATOMIC CHARGES
----------------------
   0 C :   -0.244736
   1 O :    0.120276
   2 C :   -0.244736
   3 C :   -0.225488
   4 N :    0.245513
   5 C :   -0.309961
   6 N :    0.024190
   7 N :    0.021712
   8 C :   -0.311287
   9 H :    0.124363
  10 H :    0.122558
  11 H :    0.122558
  12 H :    0.124363
  13 H :    0.154515
  14 H :    0.139322
  15 H :    0.136836

  Mayer bond orders larger than 0.1
B(  0-C ,  1-O ) :   0.9647 B(  0-C ,  3-C ) :   0.9523 B(  0-C ,  9-H ) :   0.8970
B(  0-C , 10-H ) :   0.9186 B(  1-O ,  2-C ) :   0.9647 B(  2-C ,  3-C ) :   0.9523
B(  2-C , 11-H ) :   0.9186 B(  2-C , 12-H ) :   0.8970 B(  3-C ,  4-N ) :   0.9082
B(  3-C , 13-H ) :   0.9168 B(  4-N ,  5-C ) :   1.1162 B(  4-N ,  8-C ) :   1.1321
B(  5-C ,  6-N ) :   1.6378 B(  5-C , 14-H ) :   0.9189 B(  6-N ,  7-N ) :   1.0627
B(  7-N ,  8-C ) :   1.6298 B(  8-C , 15-H ) :   0.9201

MP2 TOTAL ENERGY:     -433.322128796 Eh
FINAL SINGLE POINT ENERGY      -433.322128796426

DIPOLE MOMENT
-------------
                                X             Y             Z
Electronic contribution:     -3.14638      -2.15503       2.52154
Nuclear contribution   :      4.31754       2.64182      -4.03398
                        -----------------------------------------
Total Dipole Moment    :      1.17117       0.48679      -1.51244
                        -----------------------------------------
Magnitude (a.u.)       :      1.97385
Magnitude (Debye)      :      5.01712

                             ****ORCA TERMINATED NORMALLY****
TOTAL RUN TIME: 0 days 0 hours 15 minutes 23 seconds 699 msec
