                         Program Version 3.0.3 - RELEASE   -
|  1> ! RI-MP2 RIJK def2-TZVP def2-TZVP/C def2-TZVP/JK TIGHTSCF
|  2> % maxcore 2000
|  3> % mp2 density relaxed end
|  4> *xyz 0 1
|  5>  C       -0.2274958624     1.5374818056    -0.0387816379
|  6>  C        0.0841891254     0.0315705308     0.0230454102
|  7>  C        0.7939877994    -0.4776758775    -1.1971985623
|  8>  C        2.0452183847    -0.9399952416    -1.2848272396
|  9>  C        2.4114642720    -1.4030821629    -2.6727085630
| 10>  C        1.2358825860    -0.8795208344    -3.5387070174
| 11>  C        0.8688842416    -1.7506669470    -4.7370325618
| 12>  C        0.0775504584    -0.6400165252    -2.5273503390
| 13>  O       -0.8867834193    -1.6967668846    -2.4531868171
| 14>  H        0.6925552194     2.1245219485    -0.1227043248
| 15>  H       -0.8586475300     1.7797626707    -0.8994648382
| 16>  H       -0.7569764800     1.8612134590     0.8625497062
| 17>  H        0.6862690541    -0.1801689252     0.9139480188
| 18>  H       -0.8578805301    -0.5205359258     0.1364509746
| 19>  H        2.7351567814    -1.0025015993    -0.4480248102
| 20>  H        3.3777184166    -1.0104105701    -3.0106192588
| 21>  H        2.5016255926    -2.4988950846    -2.7161325249
| 22>  H        1.5262082935     0.1143398188    -3.9016826718
| 23>  H        0.5335538001    -2.7419488936    -4.4181889641
| 24>  H        0.0561004060    -1.3046497184    -5.3188300648
| 25>  H        1.7292239811    -1.8800000593    -5.4020927874
| 26>  H       -0.5181416532     0.2326531238    -2.8150685298
| 27>  H       -0.4557840274    -2.4469449178    -2.0281668371
| 28> *
| 29>
| 30>                          ****END OF INPUT****

CARTESIAN COORDINATES (ANGSTROEM)
---------------------------------
  C     -0.227496    1.537482   -0.038782
  C      0.084189    0.031571    0.023045
  C      0.793988   -0.477676   -1.197199
  C      2.045218   -0.939995   -1.284827
  C      2.411464   -1.403082   -2.672709
  C      1.235883   -0.879521   -3.538707
  C      0.868884   -1.750667   -4.737033
  C      0.077550   -0.640017   -2.527350
  O     -0.886783   -1.696767   -2.453187
  H      0.692555    2.124522   -0.122704
  H     -0.858648    1.779763   -0.899465
  H     -0.756976    1.861213    0.862550
  H      0.686269   -0.180169    0.913948
  H     -0.857881   -0.520536    0.136451
  H      2.735157   -1.002502   -0.448025
  H      3.377718   -1.010411   -3.010619
  H      2.501626   -2.498895   -2.716133
  H      1.526208    0.114340   -3.901683
  H      0.533554   -2.741949   -4.418189
  H      0.056100   -1.304650   -5.318830
  H      1.729224   -1.880000   -5.402093
  H     -0.518142    0.232653   -2.815069
  H     -0.455784   -2.446945   -2.028167

 Total Charge           Charge          ....    0
 Multiplicity           Mult            ....    1
 Number of Electrons    NEL             ....   70
 Basis Dimension        Dim             ....  363

ORBITAL ENERGIES
----------------

  NO   OCC          E(Eh)            E(eV)
   0   2.0000     -20.549266      -559.1739
   1   2.0000     -11.274895      -306.8055
   2   2.0000     -11.226059      -305.4766
   3   2.0000     -11.225371      -305.4579
   4   2.0000     -11.225138      -305.4515
   5   2.0000     -11.224247      -305.4273
   6   2.0000     -11.223704      -305.4125
   7   2.0000     -11.215565      -305.1910
   8   2.0000     -11.209076      -305.0145
   9   2.0000      -1.353968       -36.8433
  10   2.0000      -1.133921       -30.8556
  11   2.0000      -1.051154       -28.6034
  12   2.0000      -0.995555       -27.0904
  13   2.0000      -0.939979       -25.5781
  14   2.0000      -0.899173       -24.4677
  15   2.0000      -0.838232       -22.8094
  16   2.0000      -0.772298       -21.0153
  17   2.0000      -0.732380       -19.9291
  18   2.0000      -0.667921       -18.1750
  19   2.0000      -0.638991       -17.3878
  20   2.0000      -0.615856       -16.7583
  21   2.0000      -0.606574       -16.5057
  22   2.0000      -0.588481       -16.0134
  23   2.0000      -0.568501       -15.4697
  24   2.0000      -0.560839       -15.2612
  25   2.0000      -0.550253       -14.9732
  26   2.0000      -0.525123       -14.2893
  27   2.0000      -0.516730       -14.0609
  28   2.0000      -0.498120       -13.5545
  29   2.0000      -0.484728       -13.1901
  30   2.0000      -0.474559       -12.9134
  31   2.0000      -0.470026       -12.7901
  32   2.0000      -0.454700       -12.3730
  33   2.0000      -0.417385       -11.3576
  34   2.0000      -0.346002        -9.4152
  35   0.0000       0.128167         3.4876
  36   0.0000       0.142240         3.8705
  37   0.0000       0.155295         4.2258
  38   0.0000       0.167325         4.5532
  39   0.0000       0.173650         4.7253

MULLIKEN ATOMIC CHARGES
-----------------------
   0 C :   -0.397019
   1 C :   -0.230351
   2 C :   -0.040662
   3 C :   -0.187043
   4 C :   -0.179243
   5 C :   -0.086093
   6 C :   -0.360001
   7 C :    0.085039
   8 O :   -0.463617
   9 H :    0.126755
  10 H :    0.127565
  11 H :    0.132023
  12 H :    0.116754
  13 H :    0.123578
  14 H :    0.123491
  15 H :    0.123645
  16 H :    0.112498
  17 H :    0.090540
  18 H :    0.109188
  19 H :    0.129718
  20 H :    0.130947
  21 H :    0.101542
  22 H :    0.310746
Sum of atomic charges:   -0.0000000

LOEWDIN ATOMIC CHARGES
----------------------
   0 C :   -0.309192
   1 C :   -0.254981
   2 C :   -0.163997
   3 C :   -0.128967
   4 C :   -0.225210
   5 C :   -0.243834
   6 C :   -0.297581
   7 C :   -0.268330
   8 O :   -0.018926
   9 H :    0.121293
  10 H :    0.120544
  11 H :    0.120790
  12 H :    0.141566
  13 H :    0.146735
  14 H :    0.137297
  15 H :    0.138544
  16 H :    0.140269
  17 H :    0.156729
  18 H :    0.120769
  19 H :    0.126221
  20 H :    0.122731
  21 H :    0.142774
  22 H :    0.174755

  Mayer bond orders larger than 0.1
B(  0-C ,  1-C ) :   0.9130 B(  0-C ,  9-H ) :   0.9382 B(  0-C , 10-H ) :   0.9399
B(  0-C , 11-H ) :   0.9374 B(  1-C ,  2-C ) :   0.9105 B(  1-C , 12-H ) :   0.9444
B(  1-C , 13-H ) :   0.9220 B(  2-C ,  3-C ) :   1.7017 B(  2-C ,  7-C ) :   0.9611
B(  3-C ,  4-C ) :   0.9487 B(  3-C , 14-H ) :   0.9276 B(  4-C ,  5-C ) :   0.9448
B(  4-C , 15-H ) :   0.9258 B(  4-C , 16-H ) :   0.9026 B(  5-C ,  6-C ) :   0.9392
B(  5-C ,  7-C ) :   0.9173 B(  5-C , 17-H ) :   0.9206 B(  6-C , 18-H ) :   0.9234
B(  6-C , 19-H ) :   0.9385 B(  6-C , 20-H ) :   0.9420 B(  7-C ,  8-O ) :   0.9006
B(  7-C , 21-H ) :   0.9241 B(  8-O , 22-H ) :   0.8420

MP2 TOTAL ENERGY:     -387.636047189 Eh
FINAL SINGLE POINT ENERGY      -387.636047189463

DIPOLE MOMENT
-------------
                                X             Y             Z
Electronic contribution:     -0.43209      -2.22864       0.49518
Nuclear contribution   :      0.99949       2.23593      -0.25746
                        -----------------------------------------
Total Dipole Moment    :      0.56740       0.00729       0.23772
                        -----------------------------------------
Magnitude (a.u.)       :      0.61523
Magnitude (Debye)      :      1.56378

                             ****ORCA TERMINATED NORMALLY****
TOTAL RUN TIME: 0 days 0 hours 24 minutes 56 seconds 85 msec
