                         Program Version 3.0.3 - RELEASE   -
|  1> ! RI-MP2 RIJK def2-TZVP def2-TZVP/C def2-TZVP/JK TIGHTSCF
|  2> % maxcore 2000
|  3> % mp2 density relaxed end
|  4> *xyz 0 1
|  5>  C       -0.0375371039     1.4835596405    -0.0141315136
|  6>  C        1.4891022054     1.8674339097    -0.0265714782
|  7>  C        2.0259284555     0.4543591633    -0.0048025762
|  8>  C        3.3779229321    -0.2236709218     0.0013699799
|  9>  C        3.0643284539    -1.5266356172     0.0246046948
| 10>  C        1.5341752904    -1.5788110904     0.0314614646
| 11>  C        1.0751609945    -0.3929664913     0.9245295854
| 12>  N       -0.0677094299    -0.0095560425     0.0112096663
| 13>  C        1.0680429939    -0.4237441121    -0.8975352892
| 14>  H       -0.5595313229     1.8701998955     0.8659321188
| 15>  H       -0.5664249257     1.8403196957    -0.9026595308
| 16>  H        1.7758027210     2.4258234796    -0.9228751944
| 17>  H        1.7827134356     2.4557248744     0.8481080481
| 18>  H        4.3529533519     0.2423712445    -0.0103135328
| 19>  H        3.7270103870    -2.3812445089     0.0364529994
| 20>  H        1.0120977479    -2.5339646362     0.0496351765
| 21>  H        0.9916539119    -0.3467884944     2.0154614754
| 22>  H        0.9760110614    -0.4144271083    -1.9887189739
| 23> *
| 24>
| 25>                          ****END OF INPUT****

CARTESIAN COORDINATES (ANGSTROEM)
---------------------------------
  C     -0.037537    1.483560   -0.014132
  C      1.489102    1.867434   -0.026571
  C      2.025928    0.454359   -0.004803
  C      3.377923   -0.223671    0.001370
  C      3.064328   -1.526636    0.024605
  C      1.534175   -1.578811    0.031461
  C      1.075161   -0.392966    0.924530
  N     -0.067709   -0.009556    0.011210
  C      1.068043   -0.423744   -0.897535
  H     -0.559531    1.870200    0.865932
  H     -0.566425    1.840320   -0.902660
  H      1.775803    2.425823   -0.922875
  H      1.782713    2.455725    0.848108
  H      4.352953    0.242371   -0.010314
  H      3.727010   -2.381245    0.036453
  H      1.012098   -2.533965    0.049635
  H      0.991654   -0.346788    2.015461
  H      0.976011   -0.414427   -1.988719

 Total Charge           Charge          ....    0
 Multiplicity           Mult            ....    1
 Number of Electrons    NEL             ....   64
 Basis Dimension        Dim             ....  333

ORBITAL ENERGIES
----------------

  NO   OCC          E(Eh)            E(eV)
   0   2.0000     -15.551948      -423.1900
   1   2.0000     -11.266419      -306.5749
   2   2.0000     -11.266338      -306.5726
   3   2.0000     -11.245782      -306.0133
   4   2.0000     -11.245520      -306.0062
   5   2.0000     -11.241027      -305.8839
   6   2.0000     -11.232576      -305.6539
   7   2.0000     -11.230905      -305.6084
   8   2.0000     -11.226901      -305.4995
   9   2.0000      -1.307572       -35.5808
  10   2.0000      -1.122561       -30.5464
  11   2.0000      -1.032788       -28.1036
  12   2.0000      -0.961222       -26.1562
  13   2.0000      -0.897103       -24.4114
  14   2.0000      -0.874531       -23.7972
  15   2.0000      -0.799486       -21.7551
  16   2.0000      -0.743754       -20.2386
  17   2.0000      -0.701738       -19.0953
  18   2.0000      -0.680360       -18.5135
  19   2.0000      -0.654756       -17.8168
  20   2.0000      -0.625393       -17.0178
  21   2.0000      -0.587364       -15.9830
  22   2.0000      -0.564591       -15.3633
  23   2.0000      -0.537848       -14.6356
  24   2.0000      -0.490829       -13.3561
  25   2.0000      -0.485402       -13.2084
  26   2.0000      -0.478073       -13.0090
  27   2.0000      -0.452292       -12.3075
  28   2.0000      -0.449883       -12.2419
  29   2.0000      -0.433344       -11.7919
  30   2.0000      -0.369965       -10.0673
  31   2.0000      -0.330152        -8.9839
  32   0.0000       0.129357         3.5200
  33   0.0000       0.143235         3.8976
  34   0.0000       0.169166         4.6032
  35   0.0000       0.170143         4.6298
  36   0.0000       0.181551         4.9403

MULLIKEN ATOMIC CHARGES
-----------------------
   0 C :   -0.160609
   1 C :   -0.247486
   2 C :    0.102912
   3 C :   -0.263490
   4 C :   -0.195974
   5 C :   -0.104480
   6 C :   -0.007458
   7 N :   -0.240402
   8 C :   -0.007459
   9 H :    0.121843
  10 H :    0.121843
  11 H :    0.120295
  12 H :    0.120294
  13 H :    0.136347
  14 H :    0.133933
  15 H :    0.134006
  16 H :    0.117943
  17 H :    0.117943
Sum of atomic charges:    0.0000000

LOEWDIN ATOMIC CHARGES
----------------------
   0 C :   -0.259466
   1 C :   -0.226017
   2 C :   -0.178593
   3 C :   -0.116431
   4 C :   -0.123605
   5 C :   -0.147028
   6 C :   -0.126309
   7 N :    0.113397
   8 C :   -0.126310
   9 H :    0.127904
  10 H :    0.127905
  11 H :    0.135953
  12 H :    0.135953
  13 H :    0.136417
  14 H :    0.134011
  15 H :    0.138691
  16 H :    0.126764
  17 H :    0.126764

  Mayer bond orders larger than 0.1
B(  0-C ,  1-C ) :   0.9432 B(  0-C ,  7-N ) :   0.9451 B(  0-C ,  9-H ) :   0.9335
B(  0-C , 10-H ) :   0.9335 B(  1-C ,  2-C ) :   0.9086 B(  1-C , 11-H ) :   0.9216
B(  1-C , 12-H ) :   0.9216 B(  2-C ,  3-C ) :   0.8924 B(  2-C ,  6-C ) :   0.9062
B(  2-C ,  8-C ) :   0.9062 B(  3-C ,  4-C ) :   1.7597 B(  3-C , 13-H ) :   0.9274
B(  4-C ,  5-C ) :   0.9640 B(  4-C , 14-H ) :   0.9295 B(  5-C ,  6-C ) :   0.8838
B(  5-C ,  8-C ) :   0.8838 B(  5-C , 15-H ) :   0.8976 B(  6-C ,  7-N ) :   0.8935
B(  6-C , 16-H ) :   0.8795 B(  7-N ,  8-C ) :   0.8935 B(  8-C , 17-H ) :   0.8795

MP2 TOTAL ENERGY:     -364.078051927 Eh
FINAL SINGLE POINT ENERGY      -364.078051927471

DIPOLE MOMENT
-------------
                                X             Y             Z
Electronic contribution:      0.34514      -2.74447       0.04501
Nuclear contribution   :      0.18149       3.03646      -0.05200
                        -----------------------------------------
Total Dipole Moment    :      0.52663       0.29199      -0.00699
                        -----------------------------------------
Magnitude (a.u.)       :      0.60220
Magnitude (Debye)      :      1.53068

                             ****ORCA TERMINATED NORMALLY****
TOTAL RUN TIME: 0 days 0 hours 20 minutes 4 seconds 86 msec
