                         Program Version 3.0.3 - RELEASE   -
|  1> ! RI-MP2 RIJK def2-TZVP def2-TZVP/C def2-TZVP/JK TIGHTSCF
|  2> % maxcore 2000
|  3> % mp2 density relaxed end
|  4> *xyz 0 1
|  5>  C       -0.0384421404     1.5082439057    -0.1015961354
|  6>  C       -0.0140767706    -0.0031564331    -0.0081956007
|  7>  C       -1.1859210875    -0.7173735817    -0.6505168850
|  8>  N        1.3219122998    -0.5940876268    -0.1152558034
|  9>  C        0.6523024803    -0.6287786441     1.1890306656
| 10>  C        1.1484318331    -0.0149275967     2.5102377167
| 11>  C        0.5183690079    -1.2195543666     3.2830801370
| 12>  C        0.1883213794    -1.8613360981     1.9208067829
| 13>  O       -0.2002123112    -2.9420840203     1.5668013062
| 14>  H        0.8646531395     1.9424911212     0.3320600565
| 15>  H       -0.0933485669     1.8200503034    -1.1506424037
| 16>  H       -0.9124650099     1.9182127502     0.4159524315
| 17>  H       -1.1810855277    -0.5473465297    -1.7335946659
| 18>  H       -1.1490274616    -1.7927453793    -0.4618265821
| 19>  H       -2.1364425042    -0.3354398002    -0.2628436750
| 20>  H        1.2689170816    -1.5243605812    -0.5312788930
| 21>  H        2.2374097921     0.0269645855     2.5783681541
| 22>  H        0.7372731145     0.9656719177     2.7569566569
| 23>  H        1.1931773017    -1.8082919765     3.9093351485
| 24>  H       -0.3746748799    -0.9766972196     3.8662842681
| 25> *
| 26>
| 27>                          ****END OF INPUT****

CARTESIAN COORDINATES (ANGSTROEM)
---------------------------------
  C     -0.038442    1.508244   -0.101596
  C     -0.014077   -0.003156   -0.008196
  C     -1.185921   -0.717374   -0.650517
  N      1.321912   -0.594088   -0.115256
  C      0.652302   -0.628779    1.189031
  C      1.148432   -0.014928    2.510238
  C      0.518369   -1.219554    3.283080
  C      0.188321   -1.861336    1.920807
  O     -0.200212   -2.942084    1.566801
  H      0.864653    1.942491    0.332060
  H     -0.093349    1.820050   -1.150642
  H     -0.912465    1.918213    0.415952
  H     -1.181086   -0.547347   -1.733595
  H     -1.149027   -1.792745   -0.461827
  H     -2.136443   -0.335440   -0.262844
  H      1.268917   -1.524361   -0.531279
  H      2.237410    0.026965    2.578368
  H      0.737273    0.965672    2.756957
  H      1.193177   -1.808292    3.909335
  H     -0.374675   -0.976697    3.866284

 Total Charge           Charge          ....    0
 Multiplicity           Mult            ....    1
 Number of Electrons    NEL             ....   68
 Basis Dimension        Dim             ....  345

ORBITAL ENERGIES
----------------

  NO   OCC          E(Eh)            E(eV)
   0   2.0000     -20.555123      -559.3333
   1   2.0000     -15.568834      -423.6495
   2   2.0000     -11.334103      -308.4166
   3   2.0000     -11.283886      -307.0502
   4   2.0000     -11.270536      -306.6869
   5   2.0000     -11.244389      -305.9754
   6   2.0000     -11.240818      -305.8782
   7   2.0000     -11.225291      -305.4557
   8   2.0000     -11.224870      -305.4443
   9   2.0000      -1.396792       -38.0086
  10   2.0000      -1.281675       -34.8762
  11   2.0000      -1.118547       -30.4372
  12   2.0000      -1.024612       -27.8811
  13   2.0000      -0.952303       -25.9135
  14   2.0000      -0.894789       -24.3484
  15   2.0000      -0.867919       -23.6173
  16   2.0000      -0.803226       -21.8569
  17   2.0000      -0.696036       -18.9401
  18   2.0000      -0.676040       -18.3960
  19   2.0000      -0.663731       -18.0610
  20   2.0000      -0.644960       -17.5502
  21   2.0000      -0.612570       -16.6689
  22   2.0000      -0.596426       -16.2296
  23   2.0000      -0.574459       -15.6318
  24   2.0000      -0.554556       -15.0902
  25   2.0000      -0.541425       -14.7329
  26   2.0000      -0.530533       -14.4365
  27   2.0000      -0.526277       -14.3207
  28   2.0000      -0.513099       -13.9621
  29   2.0000      -0.502168       -13.6647
  30   2.0000      -0.469125       -12.7655
  31   2.0000      -0.455333       -12.3902
  32   2.0000      -0.398927       -10.8554
  33   2.0000      -0.384520       -10.4633
  34   0.0000       0.114727         3.1219
  35   0.0000       0.129187         3.5153
  36   0.0000       0.152990         4.1631
  37   0.0000       0.164360         4.4725
  38   0.0000       0.178812         4.8657

MULLIKEN ATOMIC CHARGES
-----------------------
   0 C :   -0.413386
   1 C :    0.103596
   2 C :   -0.393187
   3 N :   -0.376518
   4 C :    0.029443
   5 C :   -0.216202
   6 C :   -0.204746
   7 C :    0.140065
   8 O :   -0.273558
   9 H :    0.148147
  10 H :    0.135392
  11 H :    0.129254
  12 H :    0.138344
  13 H :    0.161773
  14 H :    0.130310
  15 H :    0.229380
  16 H :    0.127701
  17 H :    0.129245
  18 H :    0.138375
  19 H :    0.136573
Sum of atomic charges:    0.0000000

LOEWDIN ATOMIC CHARGES
----------------------
   0 C :   -0.261406
   1 C :   -0.306053
   2 C :   -0.268298
   3 N :    0.066221
   4 C :   -0.226307
   5 C :   -0.189535
   6 C :   -0.198661
   7 C :   -0.293994
   8 O :    0.150951
   9 H :    0.133530
  10 H :    0.131547
  11 H :    0.128360
  12 H :    0.130361
  13 H :    0.135574
  14 H :    0.131835
  15 H :    0.177643
  16 H :    0.138794
  17 H :    0.133080
  18 H :    0.141939
  19 H :    0.144421

  Mayer bond orders larger than 0.1
B(  0-C ,  1-C ) :   0.8840 B(  0-C ,  9-H ) :   0.9388 B(  0-C , 10-H ) :   0.9307
B(  0-C , 11-H ) :   0.9370 B(  1-C ,  2-C ) :   0.9259 B(  1-C ,  3-N ) :   0.9802
B(  1-C ,  4-C ) :   0.8542 B(  2-C , 12-H ) :   0.9316 B(  2-C , 13-H ) :   0.9224
B(  2-C , 14-H ) :   0.9261 B(  3-N ,  4-C ) :   0.8861 B(  3-N , 15-H ) :   0.8652
B(  4-C ,  5-C ) :   0.8833 B(  4-C ,  6-C ) :  -0.1267 B(  4-C ,  7-C ) :   0.8419
B(  5-C ,  6-C ) :   0.9718 B(  5-C , 16-H ) :   0.9057 B(  5-C , 17-H ) :   0.9235
B(  6-C ,  7-C ) :   0.9453 B(  6-C , 18-H ) :   0.9071 B(  6-C , 19-H ) :   0.8988
B(  7-C ,  8-O ) :   1.9913

MP2 TOTAL ENERGY:     -402.448185124 Eh
FINAL SINGLE POINT ENERGY      -402.448185124477

DIPOLE MOMENT
-------------
                                X             Y             Z
Electronic contribution:      1.90437      -6.41817       1.89576
Nuclear contribution   :     -2.13131       7.17680      -1.68569
                        -----------------------------------------
Total Dipole Moment    :     -0.22694       0.75863       0.21006
                        -----------------------------------------
Magnitude (a.u.)       :      0.81923
Magnitude (Debye)      :      2.08232

                             ****ORCA TERMINATED NORMALLY****
TOTAL RUN TIME: 0 days 0 hours 21 minutes 35 seconds 19 msec
