                         Program Version 3.0.3 - RELEASE   -
|  1> ! RI-MP2 RIJK def2-TZVP def2-TZVP/C def2-TZVP/JK TIGHTSCF
|  2> % maxcore 2000
|  3> % mp2 density relaxed end
|  4> *xyz 0 1
|  5>  C       -0.1209650506     1.5131155129    -0.0484176566
|  6>  C       -0.0472844465     0.0209390011    -0.0312309152
|  7>  C        0.0547001838    -0.8425466044    -1.0910096773
|  8>  N        0.0830995117    -2.1063016218    -0.5366885812
|  9>  C       -0.0065266484    -1.9636451170     0.8184161587
| 10>  C        0.0424205506    -3.1139342510     1.7707973200
| 11>  C        1.4297746628    -3.2790082102     2.4198845437
| 12>  O        1.4818991668    -4.3790643537     3.3107121329
| 13>  N       -0.0831890797    -0.6917199459     1.1503978126
| 14>  H        0.7092727340     1.9560080771     0.5125746218
| 15>  H       -0.0845050214     1.8978332356    -1.0713726071
| 16>  H       -1.0469476689     1.8676343775     0.4172679152
| 17>  H        0.1000873065    -0.6846373893    -2.1558449651
| 18>  H        0.1426764475    -2.9750664217    -1.0405416275
| 19>  H       -0.6992663736    -2.9435690011     2.5594698243
| 20>  H       -0.2261800298    -4.0492557299     1.2672928763
| 21>  H        2.1787604406    -3.4825818634     1.6471626012
| 22>  H        1.7112889353    -2.3361153417     2.9088064929
| 23>  H        0.9344053594    -4.1667182929     4.0733347604
| 24> *
| 25>
| 26>                          ****END OF INPUT****

CARTESIAN COORDINATES (ANGSTROEM)
---------------------------------
  C     -0.120965    1.513116   -0.048418
  C     -0.047284    0.020939   -0.031231
  C      0.054700   -0.842547   -1.091010
  N      0.083100   -2.106302   -0.536689
  C     -0.006527   -1.963645    0.818416
  C      0.042421   -3.113934    1.770797
  C      1.429775   -3.279008    2.419885
  O      1.481899   -4.379064    3.310712
  N     -0.083189   -0.691720    1.150398
  H      0.709273    1.956008    0.512575
  H     -0.084505    1.897833   -1.071373
  H     -1.046948    1.867634    0.417268
  H      0.100087   -0.684637   -2.155845
  H      0.142676   -2.975066   -1.040542
  H     -0.699266   -2.943569    2.559470
  H     -0.226180   -4.049256    1.267293
  H      2.178760   -3.482582    1.647163
  H      1.711289   -2.336115    2.908806
  H      0.934405   -4.166718    4.073335

 Total Charge           Charge          ....    0
 Multiplicity           Mult            ....    1
 Number of Electrons    NEL             ....   68
 Basis Dimension        Dim             ....  339

ORBITAL ENERGIES
----------------

  NO   OCC          E(Eh)            E(eV)
   0   2.0000     -20.560228      -559.4722
   1   2.0000     -15.612177      -424.8289
   2   2.0000     -15.533296      -422.6825
   3   2.0000     -11.297924      -307.4321
   4   2.0000     -11.281531      -306.9861
   5   2.0000     -11.247692      -306.0653
   6   2.0000     -11.244241      -305.9714
   7   2.0000     -11.241923      -305.9083
   8   2.0000     -11.215048      -305.1770
   9   2.0000      -1.364877       -37.1402
  10   2.0000      -1.335565       -36.3426
  11   2.0000      -1.162402       -31.6306
  12   2.0000      -1.069640       -29.1064
  13   2.0000      -1.001872       -27.2623
  14   2.0000      -0.930709       -25.3259
  15   2.0000      -0.866972       -23.5915
  16   2.0000      -0.801776       -21.8174
  17   2.0000      -0.771643       -20.9975
  18   2.0000      -0.709639       -19.3103
  19   2.0000      -0.697479       -18.9794
  20   2.0000      -0.635698       -17.2982
  21   2.0000      -0.616199       -16.7676
  22   2.0000      -0.606611       -16.5067
  23   2.0000      -0.596949       -16.2438
  24   2.0000      -0.570430       -15.5222
  25   2.0000      -0.546459       -14.8699
  26   2.0000      -0.541174       -14.7261
  27   2.0000      -0.536429       -14.5970
  28   2.0000      -0.519984       -14.1495
  29   2.0000      -0.489366       -13.3163
  30   2.0000      -0.453340       -12.3360
  31   2.0000      -0.428109       -11.6494
  32   2.0000      -0.389904       -10.6098
  33   2.0000      -0.304456        -8.2847
  34   0.0000       0.121950         3.3184
  35   0.0000       0.140380         3.8199
  36   0.0000       0.157065         4.2740
  37   0.0000       0.169240         4.6053
  38   0.0000       0.180843         4.9210

MULLIKEN ATOMIC CHARGES
-----------------------
   0 C :   -0.419005
   1 C :    0.090982
   2 C :   -0.114762
   3 N :   -0.278723
   4 C :    0.207647
   5 C :   -0.258817
   6 C :   -0.037394
   7 O :   -0.469578
   8 N :   -0.315012
   9 H :    0.140577
  10 H :    0.127036
  11 H :    0.141050
  12 H :    0.145591
  13 H :    0.246907
  14 H :    0.126108
  15 H :    0.117521
  16 H :    0.106009
  17 H :    0.127009
  18 H :    0.316852
Sum of atomic charges:    0.0000000

LOEWDIN ATOMIC CHARGES
----------------------
   0 C :   -0.276798
   1 C :   -0.289664
   2 C :   -0.225127
   3 N :    0.194249
   4 C :   -0.324215
   5 C :   -0.249937
   6 C :   -0.341689
   7 O :   -0.049865
   8 N :    0.128110
   9 H :    0.131418
  10 H :    0.127941
  11 H :    0.131578
  12 H :    0.134544
  13 H :    0.193483
  14 H :    0.149505
  15 H :    0.142634
  16 H :    0.127006
  17 H :    0.122398
  18 H :    0.174427

  Mayer bond orders larger than 0.1
B(  0-C ,  1-C ) :   0.8799 B(  0-C ,  9-H ) :   0.9365 B(  0-C , 10-H ) :   0.9527
B(  0-C , 11-H ) :   0.9368 B(  1-C ,  2-C ) :   1.5297 B(  1-C ,  8-N ) :   1.2532
B(  2-C ,  3-N ) :   1.1199 B(  2-C , 12-H ) :   0.9036 B(  3-N ,  4-C ) :   1.1577
B(  3-N , 13-H ) :   0.8664 B(  4-C ,  5-C ) :   0.8634 B(  4-C ,  8-N ) :   1.5391
B(  5-C ,  6-C ) :   0.9039 B(  5-C , 14-H ) :   0.9296 B(  5-C , 15-H ) :   0.9381
B(  6-C ,  7-O ) :   0.9388 B(  6-C , 16-H ) :   0.9235 B(  6-C , 17-H ) :   0.9416
B(  7-O , 18-H ) :   0.8470

MP2 TOTAL ENERGY:     -418.548562336 Eh
FINAL SINGLE POINT ENERGY      -418.548562335982

DIPOLE MOMENT
-------------
                                X             Y             Z
Electronic contribution:     -0.50001      -2.40429      -0.73183
Nuclear contribution   :      0.25308       2.05885      -0.10729
                        -----------------------------------------
Total Dipole Moment    :     -0.24693      -0.34544      -0.83912
                        -----------------------------------------
Magnitude (a.u.)       :      0.94043
Magnitude (Debye)      :      2.39039

                             ****ORCA TERMINATED NORMALLY****
TOTAL RUN TIME: 0 days 0 hours 16 minutes 33 seconds 875 msec
