                         Program Version 3.0.3 - RELEASE   -
|  1> ! RI-MP2 RIJK def2-TZVP def2-TZVP/C def2-TZVP/JK TIGHTSCF
|  2> % maxcore 2000
|  3> % mp2 density relaxed end
|  4> *xyz 0 1
|  5>  N        0.1765383840     1.4466830770     0.3058287312
|  6>  C       -0.0418332103     0.0282189139     0.0689278893
|  7>  C       -1.4944128890    -0.4450006886     0.0652396447
|  8>  C       -2.5408389034     0.4482872892    -0.6640451284
|  9>  C       -2.8094629719    -0.7091984981    -1.6708249876
| 10>  C       -1.5752721776    -1.4525979834    -1.1192479567
| 11>  O       -0.4024205323    -1.2193253179    -1.9221230726
| 12>  C        0.4344820121    -0.3252589953    -1.3468553881
| 13>  O        1.4097672475     0.1057767407    -1.8938226085
| 14>  H        0.2823840227     1.6346483298     1.2963850249
| 15>  H        1.0459949461     1.7119938206    -0.1505566762
| 16>  H        0.5422302608    -0.6259937476     0.7411325646
| 17>  H       -1.8313942695    -0.8361540713     1.0255857185
| 18>  H       -3.3927227317     0.7675646602    -0.0618193675
| 19>  H       -2.0830329367     1.3344398744    -1.1069686500
| 20>  H       -3.7346799465    -1.2527041392    -1.4622767545
| 21>  H       -2.7697252548    -0.4736476515    -2.7361329149
| 22>  H       -1.6455413694    -2.5262579630    -0.9357080181
| 23> *
| 24>
| 25>                          ****END OF INPUT****

CARTESIAN COORDINATES (ANGSTROEM)
---------------------------------
  N      0.176538    1.446683    0.305829
  C     -0.041833    0.028219    0.068928
  C     -1.494413   -0.445001    0.065240
  C     -2.540839    0.448287   -0.664045
  C     -2.809463   -0.709198   -1.670825
  C     -1.575272   -1.452598   -1.119248
  O     -0.402421   -1.219325   -1.922123
  C      0.434482   -0.325259   -1.346855
  O      1.409767    0.105777   -1.893823
  H      0.282384    1.634648    1.296385
  H      1.045995    1.711994   -0.150557
  H      0.542230   -0.625994    0.741133
  H     -1.831394   -0.836154    1.025586
  H     -3.392723    0.767565   -0.061819
  H     -2.083033    1.334440   -1.106969
  H     -3.734680   -1.252704   -1.462277
  H     -2.769725   -0.473648   -2.736133
  H     -1.645541   -2.526258   -0.935708

 Total Charge           Charge          ....    0
 Multiplicity           Mult            ....    1
 Number of Electrons    NEL             ....   68
 Basis Dimension        Dim             ....  333

ORBITAL ENERGIES
----------------

  NO   OCC          E(Eh)            E(eV)
   0   2.0000     -20.602613      -560.6256
   1   2.0000     -20.542628      -558.9933
   2   2.0000     -15.555021      -423.2736
   3   2.0000     -11.376981      -309.5834
   4   2.0000     -11.301618      -307.5326
   5   2.0000     -11.284470      -307.0660
   6   2.0000     -11.247790      -306.0679
   7   2.0000     -11.234987      -305.7195
   8   2.0000     -11.232453      -305.6506
   9   2.0000      -1.460830       -39.7512
  10   2.0000      -1.369678       -37.2708
  11   2.0000      -1.205569       -32.8052
  12   2.0000      -1.133423       -30.8420
  13   2.0000      -1.003577       -27.3087
  14   2.0000      -0.923743       -25.1363
  15   2.0000      -0.878999       -23.9188
  16   2.0000      -0.790924       -21.5221
  17   2.0000      -0.766238       -20.8504
  18   2.0000      -0.717518       -19.5247
  19   2.0000      -0.678347       -18.4588
  20   2.0000      -0.666655       -18.1406
  21   2.0000      -0.647662       -17.6238
  22   2.0000      -0.638519       -17.3750
  23   2.0000      -0.605377       -16.4731
  24   2.0000      -0.600326       -16.3357
  25   2.0000      -0.554522       -15.0893
  26   2.0000      -0.550249       -14.9730
  27   2.0000      -0.516462       -14.0536
  28   2.0000      -0.496808       -13.5188
  29   2.0000      -0.476412       -12.9638
  30   2.0000      -0.456307       -12.4168
  31   2.0000      -0.439158       -11.9501
  32   2.0000      -0.435377       -11.8472
  33   2.0000      -0.406576       -11.0635
  34   0.0000       0.116883         3.1805
  35   0.0000       0.144140         3.9223
  36   0.0000       0.152661         4.1541
  37   0.0000       0.175636         4.7793
  38   0.0000       0.178792         4.8652

MULLIKEN ATOMIC CHARGES
-----------------------
   0 N :   -0.563664
   1 C :   -0.036098
   2 C :    0.009449
   3 C :   -0.324961
   4 C :   -0.191480
   5 C :    0.021573
   6 O :   -0.218001
   7 C :    0.225994
   8 O :   -0.298811
   9 H :    0.229334
  10 H :    0.256010
  11 H :    0.116634
  12 H :    0.127673
  13 H :    0.122223
  14 H :    0.155832
  15 H :    0.120507
  16 H :    0.124231
  17 H :    0.123554
Sum of atomic charges:    0.0000000

LOEWDIN ATOMIC CHARGES
----------------------
   0 N :   -0.138884
   1 C :   -0.289746
   2 C :   -0.186019
   3 C :   -0.210402
   4 C :   -0.218805
   5 C :   -0.225566
   6 O :    0.286911
   7 C :   -0.450333
   8 O :    0.135978
   9 H :    0.155611
  10 H :    0.166884
  11 H :    0.153934
  12 H :    0.146425
  13 H :    0.128522
  14 H :    0.142353
  15 H :    0.137309
  16 H :    0.134619
  17 H :    0.131207

  Mayer bond orders larger than 0.1
B(  0-N ,  1-C ) :   1.0590 B(  0-N ,  9-H ) :   0.8872 B(  0-N , 10-H ) :   0.8694
B(  1-C ,  2-C ) :   0.9153 B(  1-C ,  7-C ) :   0.8893 B(  1-C , 11-H ) :   0.9015
B(  2-C ,  3-C ) :   0.9143 B(  2-C ,  5-C ) :   0.9248 B(  2-C , 12-H ) :   0.9031
B(  3-C ,  4-C ) :   0.9415 B(  3-C , 13-H ) :   0.9283 B(  3-C , 14-H ) :   0.9150
B(  4-C ,  5-C ) :   0.9280 B(  4-C , 15-H ) :   0.9171 B(  4-C , 16-H ) :   0.9119
B(  5-C ,  6-O ) :   0.8641 B(  5-C , 17-H ) :   0.9312 B(  6-O ,  7-C ) :   1.1389
B(  7-C ,  8-O ) :   2.0053

MP2 TOTAL ENERGY:     -438.395501745 Eh
FINAL SINGLE POINT ENERGY      -438.395501744724

DIPOLE MOMENT
-------------
                                X             Y             Z
Electronic contribution:      5.72601      -1.90439      -3.21861
Nuclear contribution   :     -6.62739       1.56329       4.51596
                        -----------------------------------------
Total Dipole Moment    :     -0.90138      -0.34110       1.29735
                        -----------------------------------------
Magnitude (a.u.)       :      1.61616
Magnitude (Debye)      :      4.10794

                             ****ORCA TERMINATED NORMALLY****
TOTAL RUN TIME: 0 days 0 hours 18 minutes 0 seconds 492 msec
