                         Program Version 3.0.3 - RELEASE   -
|  1> ! RI-MP2 RIJK def2-TZVP def2-TZVP/C def2-TZVP/JK TIGHTSCF
|  2> % maxcore 2000
|  3> % mp2 density relaxed end
|  4> *xyz 0 1
|  5>  C       -0.0196180665     1.0673338990     0.4552349499
|  6>  O       -0.1559565682     0.0035586684    -0.4719016431
|  7>  C       -1.3526383168    -0.6857495711    -0.3302202585
|  8>  C       -1.4336850610    -2.0444457640    -0.9630927542
|  9>  C       -1.4286524806    -1.9073176821     0.5498647329
| 10>  C       -0.2372665121    -2.3588755999     1.3580006277
| 11>  O       -2.6714975189    -2.0425104128     1.2163934336
| 12>  C       -3.2263055265    -3.2745239269     1.2195765889
| 13>  N       -4.2779979906    -3.4877932979     1.8838117547
| 14>  H        0.9354888143     1.5533165508     0.2447971294
| 15>  H       -0.8288203990     1.8029977915     0.3402017719
| 16>  H       -0.0217479576     0.7074698792     1.4929362618
| 17>  H       -2.2518103444    -0.0686241609    -0.3551508458
| 18>  H       -2.3577776583    -2.3137280837    -1.4613859481
| 19>  H       -0.5293271506    -2.4257635624    -1.4247112154
| 20>  H        0.6876083774    -2.0438049304     0.8701455673
| 21>  H       -0.2730356014    -1.9193010637     2.3595693085
| 22>  H       -0.2172346839    -3.4486519681     1.4677695332
| 23>  H       -2.6829117238    -3.9988684962     0.5996358675
| 24>  H       -4.5709124513    -4.4554107988     1.7638071477
| 25> *
| 26>
| 27>                          ****END OF INPUT****

CARTESIAN COORDINATES (ANGSTROEM)
---------------------------------
  C     -0.019618    1.067334    0.455235
  O     -0.155957    0.003559   -0.471902
  C     -1.352638   -0.685750   -0.330220
  C     -1.433685   -2.044446   -0.963093
  C     -1.428652   -1.907318    0.549865
  C     -0.237267   -2.358876    1.358001
  O     -2.671498   -2.042510    1.216393
  C     -3.226306   -3.274524    1.219577
  N     -4.277998   -3.487793    1.883812
  H      0.935489    1.553317    0.244797
  H     -0.828820    1.802998    0.340202
  H     -0.021748    0.707470    1.492936
  H     -2.251810   -0.068624   -0.355151
  H     -2.357778   -2.313728   -1.461386
  H     -0.529327   -2.425764   -1.424711
  H      0.687608   -2.043805    0.870146
  H     -0.273036   -1.919301    2.359569
  H     -0.217235   -3.448652    1.467770
  H     -2.682912   -3.998868    0.599636
  H     -4.570912   -4.455411    1.763807

 Total Charge           Charge          ....    0
 Multiplicity           Mult            ....    1
 Number of Electrons    NEL             ....   70
 Basis Dimension        Dim             ....  345

ORBITAL ENERGIES
----------------

  NO   OCC          E(Eh)            E(eV)
   0   2.0000     -20.593596      -560.3802
   1   2.0000     -20.571538      -559.7800
   2   2.0000     -15.539509      -422.8515
   3   2.0000     -11.336777      -308.4894
   4   2.0000     -11.304304      -307.6057
   5   2.0000     -11.291473      -307.2566
   6   2.0000     -11.278903      -306.9146
   7   2.0000     -11.238200      -305.8070
   8   2.0000     -11.230566      -305.5993
   9   2.0000      -1.432376       -38.9769
  10   2.0000      -1.393653       -37.9232
  11   2.0000      -1.202924       -32.7332
  12   2.0000      -1.138571       -30.9821
  13   2.0000      -0.989177       -26.9169
  14   2.0000      -0.937207       -25.5027
  15   2.0000      -0.871126       -23.7045
  16   2.0000      -0.814731       -22.1700
  17   2.0000      -0.780290       -21.2328
  18   2.0000      -0.732435       -19.9306
  19   2.0000      -0.689620       -18.7655
  20   2.0000      -0.665941       -18.1212
  21   2.0000      -0.646417       -17.5899
  22   2.0000      -0.636894       -17.3308
  23   2.0000      -0.614358       -16.7175
  24   2.0000      -0.597273       -16.2526
  25   2.0000      -0.573898       -15.6166
  26   2.0000      -0.564985       -15.3740
  27   2.0000      -0.547775       -14.9057
  28   2.0000      -0.532361       -14.4863
  29   2.0000      -0.511216       -13.9109
  30   2.0000      -0.475999       -12.9526
  31   2.0000      -0.443202       -12.0601
  32   2.0000      -0.434180       -11.8146
  33   2.0000      -0.397534       -10.8174
  34   2.0000      -0.391515       -10.6537
  35   0.0000       0.134929         3.6716
  36   0.0000       0.146702         3.9920
  37   0.0000       0.155424         4.2293
  38   0.0000       0.169774         4.6198
  39   0.0000       0.177922         4.8415

MULLIKEN ATOMIC CHARGES
-----------------------
   0 C :   -0.217804
   1 O :   -0.304750
   2 C :    0.033845
   3 C :   -0.299832
   4 C :    0.130404
   5 C :   -0.404225
   6 O :   -0.208591
   7 C :    0.051821
   8 N :   -0.337090
   9 H :    0.142905
  10 H :    0.122144
  11 H :    0.121822
  12 H :    0.112306
  13 H :    0.155650
  14 H :    0.141182
  15 H :    0.156425
  16 H :    0.146646
  17 H :    0.133530
  18 H :    0.098610
  19 H :    0.225001
Sum of atomic charges:    0.0000000

LOEWDIN ATOMIC CHARGES
----------------------
   0 C :   -0.340173
   1 O :    0.170978
   2 C :   -0.286716
   3 C :   -0.187792
   4 C :   -0.337193
   5 C :   -0.268332
   6 O :    0.288146
   7 C :   -0.392576
   8 N :   -0.081515
   9 H :    0.114540
  10 H :    0.105988
  11 H :    0.105373
  12 H :    0.143120
  13 H :    0.141122
  14 H :    0.145043
  15 H :    0.138778
  16 H :    0.133381
  17 H :    0.127748
  18 H :    0.112549
  19 H :    0.167528

  Mayer bond orders larger than 0.1
B(  0-C ,  1-O ) :   0.8856 B(  0-C ,  9-H ) :   0.9394 B(  0-C , 10-H ) :   0.9360
B(  0-C , 11-H ) :   0.9352 B(  1-O ,  2-C ) :   1.0040 B(  2-C ,  3-C ) :   0.9019
B(  2-C ,  4-C ) :   0.8680 B(  2-C , 12-H ) :   0.9328 B(  3-C ,  4-C ) :   0.8883
B(  3-C , 13-H ) :   0.9136 B(  3-C , 14-H ) :   0.9079 B(  4-C ,  5-C ) :   0.9272
B(  4-C ,  6-O ) :   0.9208 B(  5-C , 15-H ) :   0.9235 B(  5-C , 16-H ) :   0.9353
B(  5-C , 17-H ) :   0.9247 B(  6-O ,  7-C ) :   1.0267 B(  7-C ,  8-N ) :   1.9637
B(  7-C , 18-H ) :   0.9290 B(  8-N , 19-H ) :   0.8501

MP2 TOTAL ENERGY:     -439.525544191 Eh
FINAL SINGLE POINT ENERGY      -439.525544190616

DIPOLE MOMENT
-------------
                                X             Y             Z
Electronic contribution:     -4.59185      -1.43765      -0.27609
Nuclear contribution   :      5.39537       1.10421      -0.19720
                        -----------------------------------------
Total Dipole Moment    :      0.80352      -0.33344      -0.47329
                        -----------------------------------------
Magnitude (a.u.)       :      0.99037
Magnitude (Debye)      :      2.51731

                             ****ORCA TERMINATED NORMALLY****
TOTAL RUN TIME: 0 days 0 hours 27 minutes 27 seconds 860 msec
