                         Program Version 3.0.3 - RELEASE   -
|  1> ! RI-MP2 RIJK def2-TZVP def2-TZVP/C def2-TZVP/JK TIGHTSCF
|  2> % maxcore 2000
|  3> % mp2 density relaxed end
|  4> *xyz 0 1
|  5>  C       -0.1270307684     1.5757463004     0.0542722806
|  6>  C        0.0578340281     0.0643319061     0.0117114305
|  7>  O       -1.1894379403    -0.5943524346    -0.1393508300
|  8>  C        1.1516874644    -0.5181139717    -0.9559218755
|  9>  C        1.7945375954    -1.2457088879     0.2247126209
| 10>  C        2.1964037100    -0.2621811182     1.3035890185
| 11>  C        0.7574183838    -0.6127165525     1.2012346591
| 12>  C        2.2441259982    -2.6391553456     0.2313650531
| 13>  O        2.3030726118    -3.3475251540    -0.7465475542
| 14>  H        0.8160049880     2.0984668247     0.2382439926
| 15>  H       -0.5203931182     1.9379337429    -0.9037443403
| 16>  H       -0.8377104774     1.8475732343     0.8403715858
| 17>  H       -1.5825778205    -0.2992371301    -0.9680396895
| 18>  H        0.7128104861    -1.2124322195    -1.6736992197
| 19>  H        1.7912078895     0.2004148123    -1.4779922551
| 20>  H        2.7182490008    -0.6914846319     2.1538854785
| 21>  H        2.5679957836     0.7132588493     1.0013275024
| 22>  H        0.2176309488    -1.1137841460     1.9955901934
| 23>  H        2.5251568160    -3.0212976882     1.2414983689
| 24> *
| 25>
| 26>                          ****END OF INPUT****

CARTESIAN COORDINATES (ANGSTROEM)
---------------------------------
  C     -0.127031    1.575746    0.054272
  C      0.057834    0.064332    0.011711
  O     -1.189438   -0.594352   -0.139351
  C      1.151687   -0.518114   -0.955922
  C      1.794538   -1.245709    0.224713
  C      2.196404   -0.262181    1.303589
  C      0.757418   -0.612717    1.201235
  C      2.244126   -2.639155    0.231365
  O      2.303073   -3.347525   -0.746548
  H      0.816005    2.098467    0.238244
  H     -0.520393    1.937934   -0.903744
  H     -0.837710    1.847573    0.840372
  H     -1.582578   -0.299237   -0.968040
  H      0.712810   -1.212432   -1.673699
  H      1.791208    0.200415   -1.477992
  H      2.718249   -0.691485    2.153885
  H      2.567996    0.713259    1.001328
  H      0.217631   -1.113784    1.995590
  H      2.525157   -3.021298    1.241498

 Total Charge           Charge          ....    0
 Multiplicity           Mult            ....    1
 Number of Electrons    NEL             ....   68
 Basis Dimension        Dim             ....  339

ORBITAL ENERGIES
----------------

  NO   OCC          E(Eh)            E(eV)
   0   2.0000     -20.564418      -559.5863
   1   2.0000     -20.544761      -559.0514
   2   2.0000     -11.327801      -308.2451
   3   2.0000     -11.304648      -307.6151
   4   2.0000     -11.256789      -306.3128
   5   2.0000     -11.255911      -306.2889
   6   2.0000     -11.253531      -306.2242
   7   2.0000     -11.234041      -305.6938
   8   2.0000     -11.227710      -305.5215
   9   2.0000      -1.384183       -37.6655
  10   2.0000      -1.375978       -37.4423
  11   2.0000      -1.206961       -32.8431
  12   2.0000      -1.026104       -27.9217
  13   2.0000      -0.967523       -26.3276
  14   2.0000      -0.920297       -25.0425
  15   2.0000      -0.867292       -23.6002
  16   2.0000      -0.775981       -21.1155
  17   2.0000      -0.732676       -19.9371
  18   2.0000      -0.709659       -19.3108
  19   2.0000      -0.668843       -18.2002
  20   2.0000      -0.657792       -17.8994
  21   2.0000      -0.632406       -17.2086
  22   2.0000      -0.620966       -16.8973
  23   2.0000      -0.588664       -16.0184
  24   2.0000      -0.575046       -15.6478
  25   2.0000      -0.558113       -15.1870
  26   2.0000      -0.541524       -14.7356
  27   2.0000      -0.525765       -14.3068
  28   2.0000      -0.517300       -14.0764
  29   2.0000      -0.480110       -13.0645
  30   2.0000      -0.449441       -12.2299
  31   2.0000      -0.445431       -12.1208
  32   2.0000      -0.415010       -11.2930
  33   2.0000      -0.379634       -10.3304
  34   0.0000       0.124982         3.4009
  35   0.0000       0.128051         3.4844
  36   0.0000       0.149910         4.0793
  37   0.0000       0.162219         4.4142
  38   0.0000       0.180863         4.9215

MULLIKEN ATOMIC CHARGES
-----------------------
   0 C :   -0.424316
   1 C :    0.185769
   2 O :   -0.456197
   3 C :   -0.237315
   4 C :    0.098599
   5 C :   -0.296331
   6 C :   -0.089364
   7 C :    0.045439
   8 O :   -0.282715
   9 H :    0.118812
  10 H :    0.126953
  11 H :    0.145651
  12 H :    0.315396
  13 H :    0.126465
  14 H :    0.121781
  15 H :    0.147197
  16 H :    0.142575
  17 H :    0.147268
  18 H :    0.064333
Sum of atomic charges:   -0.0000000

LOEWDIN ATOMIC CHARGES
----------------------
   0 C :   -0.278304
   1 C :   -0.360243
   2 O :    0.017823
   3 C :   -0.148922
   4 C :   -0.191828
   5 C :   -0.168039
   6 C :   -0.104207
   7 C :   -0.281164
   8 O :    0.123017
   9 H :    0.126535
  10 H :    0.125590
  11 H :    0.130910
  12 H :    0.177600
  13 H :    0.148199
  14 H :    0.133677
  15 H :    0.147264
  16 H :    0.138098
  17 H :    0.147526
  18 H :    0.116468

  Mayer bond orders larger than 0.1
B(  0-C ,  1-C ) :   0.9392 B(  0-C ,  9-H ) :   0.9251 B(  0-C , 10-H ) :   0.9242
B(  0-C , 11-H ) :   0.9400 B(  1-C ,  2-O ) :   0.9864 B(  1-C ,  3-C ) :   0.9798
B(  1-C ,  6-C ) :   0.8903 B(  2-O , 12-H ) :   0.8405 B(  3-C ,  4-C ) :   0.8911
B(  3-C , 13-H ) :   0.9075 B(  3-C , 14-H ) :   0.9006 B(  4-C ,  5-C ) :   0.8404
B(  4-C ,  6-C ) :   0.7632 B(  4-C ,  7-C ) :   0.9150 B(  5-C ,  6-C ) :   0.8747
B(  5-C , 15-H ) :   0.9261 B(  5-C , 16-H ) :   0.9081 B(  6-C , 17-H ) :   0.9033
B(  7-C ,  8-O ) :   1.9953 B(  7-C , 18-H ) :   0.9604

MP2 TOTAL ENERGY:     -422.307213252 Eh
FINAL SINGLE POINT ENERGY      -422.307213252196

DIPOLE MOMENT
-------------
                                X             Y             Z
Electronic contribution:      1.20011      -6.97238      -0.91827
Nuclear contribution   :     -1.29195       8.30259       1.30069
                        -----------------------------------------
Total Dipole Moment    :     -0.09183       1.33021       0.38242
                        -----------------------------------------
Magnitude (a.u.)       :      1.38713
Magnitude (Debye)      :      3.52582

                             ****ORCA TERMINATED NORMALLY****
TOTAL RUN TIME: 0 days 0 hours 19 minutes 32 seconds 810 msec
