                         Program Version 3.0.3 - RELEASE   -
|  1> ! RI-MP2 RIJK def2-TZVP def2-TZVP/C def2-TZVP/JK TIGHTSCF
|  2> % maxcore 2000
|  3> % mp2 density relaxed end
|  4> *xyz 0 1
|  5>  C       -0.1031576623    -1.1543745407    -0.1381793572
|  6>  C       -0.0261869792     0.0432787356    -0.0623437511
|  7>  C        0.0640726132     1.4875668575     0.0318388300
|  8>  C       -0.0410920703     1.9971090425     1.4822092262
|  9>  C        1.4259616463     1.9780096196     1.6652985136
| 10>  C        1.5309899217     2.0364397632     0.0930670584
| 11>  C        1.2938950629     3.5437296161     0.2635140549
| 12>  N        0.7138097186     3.2876125996     1.6248270677
| 13>  H       -0.1732902226    -2.2114829133    -0.2085474186
| 14>  H       -0.5857860694     1.9629795067    -0.7131033752
| 15>  H       -0.8340390607     1.8111937280     2.1934994627
| 16>  H        2.0747623081     1.6533716967     2.4667838065
| 17>  H        2.2967328469     1.6110838732    -0.5510744352
| 18>  H        2.2153483334     4.1178797576     0.3869817582
| 19>  H        0.6298925233     4.0521384776    -0.4458857711
| 20> *
| 21>
| 22>                          ****END OF INPUT****

CARTESIAN COORDINATES (ANGSTROEM)
---------------------------------
  C     -0.103158   -1.154375   -0.138179
  C     -0.026187    0.043279   -0.062344
  C      0.064073    1.487567    0.031839
  C     -0.041092    1.997109    1.482209
  C      1.425962    1.978010    1.665299
  C      1.530990    2.036440    0.093067
  C      1.293895    3.543730    0.263514
  N      0.713810    3.287613    1.624827
  H     -0.173290   -2.211483   -0.208547
  H     -0.585786    1.962980   -0.713103
  H     -0.834039    1.811194    2.193499
  H      2.074762    1.653372    2.466784
  H      2.296733    1.611084   -0.551074
  H      2.215348    4.117880    0.386982
  H      0.629893    4.052138   -0.445886

 Total Charge           Charge          ....    0
 Multiplicity           Mult            ....    1
 Number of Electrons    NEL             ....   56
 Basis Dimension        Dim             ....  290

ORBITAL ENERGIES
----------------

  NO   OCC          E(Eh)            E(eV)
   0   2.0000     -15.568976      -423.6534
   1   2.0000     -11.271470      -306.7123
   2   2.0000     -11.269048      -306.6464
   3   2.0000     -11.268680      -306.6364
   4   2.0000     -11.262276      -306.4621
   5   2.0000     -11.257187      -306.3236
   6   2.0000     -11.237972      -305.8008
   7   2.0000     -11.225925      -305.4729
   8   2.0000      -1.325170       -36.0597
   9   2.0000      -1.083201       -29.4754
  10   2.0000      -1.002745       -27.2861
  11   2.0000      -0.991906       -26.9911
  12   2.0000      -0.894842       -24.3499
  13   2.0000      -0.796051       -21.6616
  14   2.0000      -0.764425       -20.8011
  15   2.0000      -0.718392       -19.5484
  16   2.0000      -0.704391       -19.1675
  17   2.0000      -0.654682       -17.8148
  18   2.0000      -0.624984       -17.0067
  19   2.0000      -0.601540       -16.3687
  20   2.0000      -0.552545       -15.0355
  21   2.0000      -0.510205       -13.8834
  22   2.0000      -0.478087       -13.0094
  23   2.0000      -0.451021       -12.2729
  24   2.0000      -0.430667       -11.7190
  25   2.0000      -0.401031       -10.9126
  26   2.0000      -0.388483       -10.5712
  27   2.0000      -0.364860        -9.9283
  28   0.0000       0.147693         4.0189
  29   0.0000       0.157885         4.2963
  30   0.0000       0.166645         4.5346
  31   0.0000       0.168154         4.5757
  32   0.0000       0.176721         4.8088

MULLIKEN ATOMIC CHARGES
-----------------------
   0 C :   -0.126601
   1 C :   -0.062336
   2 C :   -0.190745
   3 C :   -0.060930
   4 C :   -0.153200
   5 C :   -0.069622
   6 C :   -0.103320
   7 N :   -0.224650
   8 H :    0.191452
   9 H :    0.123075
  10 H :    0.144284
  11 H :    0.149921
  12 H :    0.146729
  13 H :    0.127454
  14 H :    0.108489
Sum of atomic charges:    0.0000000

LOEWDIN ATOMIC CHARGES
----------------------
   0 C :   -0.094308
   1 C :   -0.082863
   2 C :   -0.184981
   3 C :   -0.178845
   4 C :   -0.160073
   5 C :   -0.145787
   6 C :   -0.230142
   7 N :    0.125622
   8 H :    0.127161
   9 H :    0.158950
  10 H :    0.140353
  11 H :    0.131939
  12 H :    0.136808
  13 H :    0.134936
  14 H :    0.121229

  Mayer bond orders larger than 0.1
B(  0-C ,  1-C ) :   2.5735 B(  0-C ,  2-C ) :  -0.1306 B(  0-C ,  8-H ) :   0.8897
B(  1-C ,  2-C ) :   1.1869 B(  2-C ,  3-C ) :   0.8453 B(  2-C ,  5-C ) :   0.8691
B(  2-C ,  9-H ) :   0.9186 B(  3-C ,  4-C ) :   0.9125 B(  3-C ,  7-N ) :   0.9145
B(  3-C , 10-H ) :   0.9271 B(  4-C ,  5-C ) :   0.9090 B(  4-C ,  7-N ) :   0.8869
B(  4-C , 11-H ) :   0.8969 B(  5-C ,  6-C ) :   0.9329 B(  5-C , 12-H ) :   0.9130
B(  6-C ,  7-N ) :   0.9114 B(  6-C , 13-H ) :   0.9333 B(  6-C , 14-H ) :   0.9170

MP2 TOTAL ENERGY:     -324.818013910 Eh
FINAL SINGLE POINT ENERGY      -324.818013910260

DIPOLE MOMENT
-------------
                                X             Y             Z
Electronic contribution:     -0.91386      -1.34287       0.77530
Nuclear contribution   :      1.18856       1.05664      -1.18015
                        -----------------------------------------
Total Dipole Moment    :      0.27469      -0.28623      -0.40484
                        -----------------------------------------
Magnitude (a.u.)       :      0.56681
Magnitude (Debye)      :      1.44073

                             ****ORCA TERMINATED NORMALLY****
TOTAL RUN TIME: 0 days 0 hours 12 minutes 39 seconds 62 msec
