                         Program Version 3.0.3 - RELEASE   -
|  1> ! RI-MP2 RIJK def2-TZVP def2-TZVP/C def2-TZVP/JK TIGHTSCF
|  2> % maxcore 2000
|  3> % mp2 density relaxed end
|  4> *xyz 0 1
|  5>  O        0.3758319572     0.1498021923    -0.5072712349
|  6>  C        0.3703773043     1.3438974248    -0.4871095987
|  7>  O        0.8497119792     2.0592310378     0.5448693654
|  8>  C        0.8401245275     3.4948097719     0.4361050934
|  9>  C        2.2520966468     3.9964658901     0.2042379399
| 10>  C        2.9139815366     3.9790852067    -1.2141077809
| 11>  C        2.0288494370     5.2011957593    -1.6013513875
| 12>  C        2.5360785131     5.4907251590    -0.1565287551
| 13>  C        3.9338116291     5.0087831413    -0.6456404617
| 14>  H       -0.0326051858     1.9801976792    -1.3004625979
| 15>  H        0.1396379513     3.7986692714    -0.3486764289
| 16>  H        0.4541814180     3.8640447941     1.3913052196
| 17>  H        2.8962409351     3.5982545685     0.9957549583
| 18>  H        3.1369341321     3.1020889475    -1.8230962946
| 19>  H        2.4262901227     5.8486967133    -2.3870845299
| 20>  H        0.9596354604     5.0391929040    -1.7481486791
| 21>  H        2.3192131570     6.3655188231     0.4585828858
| 22>  H        4.6256945396     4.6466527169     0.1192859963
| 23>  H        4.4371215087     5.6468564589    -1.3760094095
| 24> *
| 25>
| 26>                          ****END OF INPUT****

CARTESIAN COORDINATES (ANGSTROEM)
---------------------------------
  O      0.375832    0.149802   -0.507271
  C      0.370377    1.343897   -0.487110
  O      0.849712    2.059231    0.544869
  C      0.840125    3.494810    0.436105
  C      2.252097    3.996466    0.204238
  C      2.913982    3.979085   -1.214108
  C      2.028849    5.201196   -1.601351
  C      2.536079    5.490725   -0.156529
  C      3.933812    5.008783   -0.645640
  H     -0.032605    1.980198   -1.300463
  H      0.139638    3.798669   -0.348676
  H      0.454181    3.864045    1.391305
  H      2.896241    3.598255    0.995755
  H      3.136934    3.102089   -1.823096
  H      2.426290    5.848697   -2.387085
  H      0.959635    5.039193   -1.748149
  H      2.319213    6.365519    0.458583
  H      4.625695    4.646653    0.119286
  H      4.437122    5.646856   -1.376009

 Total Charge           Charge          ....    0
 Multiplicity           Mult            ....    1
 Number of Electrons    NEL             ....   68
 Basis Dimension        Dim             ....  339

ORBITAL ENERGIES
----------------

  NO   OCC          E(Eh)            E(eV)
   0   2.0000     -20.606081      -560.7200
   1   2.0000     -20.547275      -559.1198
   2   2.0000     -11.381014      -309.6931
   3   2.0000     -11.304007      -307.5977
   4   2.0000     -11.259826      -306.3954
   5   2.0000     -11.257924      -306.3437
   6   2.0000     -11.251012      -306.1556
   7   2.0000     -11.242949      -305.9362
   8   2.0000     -11.241314      -305.8917
   9   2.0000      -1.459361       -39.7112
  10   2.0000      -1.369986       -37.2792
  11   2.0000      -1.225069       -33.3358
  12   2.0000      -1.019542       -27.7432
  13   2.0000      -0.921369       -25.0717
  14   2.0000      -0.881157       -23.9775
  15   2.0000      -0.869148       -23.6507
  16   2.0000      -0.841138       -22.8885
  17   2.0000      -0.745519       -20.2866
  18   2.0000      -0.722853       -19.6698
  19   2.0000      -0.689136       -18.7523
  20   2.0000      -0.681033       -18.5319
  21   2.0000      -0.658642       -17.9226
  22   2.0000      -0.636958       -17.3325
  23   2.0000      -0.598394       -16.2831
  24   2.0000      -0.585100       -15.9214
  25   2.0000      -0.534030       -14.5317
  26   2.0000      -0.518711       -14.1149
  27   2.0000      -0.488419       -13.2906
  28   2.0000      -0.472049       -12.8451
  29   2.0000      -0.468044       -12.7361
  30   2.0000      -0.459983       -12.5168
  31   2.0000      -0.454937       -12.3795
  32   2.0000      -0.447002       -12.1636
  33   2.0000      -0.439960       -11.9719
  34   0.0000       0.135970         3.6999
  35   0.0000       0.143309         3.8996
  36   0.0000       0.148917         4.0522
  37   0.0000       0.158156         4.3036
  38   0.0000       0.161819         4.4033

MULLIKEN ATOMIC CHARGES
-----------------------
   0 O :   -0.273019
   1 C :    0.200199
   2 O :   -0.205893
   3 C :   -0.120822
   4 C :   -0.077954
   5 C :   -0.147393
   6 C :   -0.228794
   7 C :   -0.131817
   8 C :   -0.197149
   9 H :    0.069658
  10 H :    0.122515
  11 H :    0.132814
  12 H :    0.112918
  13 H :    0.145485
  14 H :    0.116818
  15 H :    0.109220
  16 H :    0.137004
  17 H :    0.117627
  18 H :    0.118584
Sum of atomic charges:    0.0000000

LOEWDIN ATOMIC CHARGES
----------------------
   0 O :    0.117160
   1 C :   -0.458452
   2 O :    0.247224
   3 C :   -0.269554
   4 C :   -0.194155
   5 C :   -0.166096
   6 C :   -0.198096
   7 C :   -0.163583
   8 C :   -0.192473
   9 H :    0.100359
  10 H :    0.125623
  11 H :    0.136312
  12 H :    0.153481
  13 H :    0.127097
  14 H :    0.130178
  15 H :    0.120834
  16 H :    0.125160
  17 H :    0.129645
  18 H :    0.129336

  Mayer bond orders larger than 0.1
B(  0-O ,  1-C ) :   2.0195 B(  1-C ,  2-O ) :   1.0817 B(  1-C ,  9-H ) :   0.9143
B(  2-O ,  3-C ) :   0.8435 B(  3-C ,  4-C ) :   0.9381 B(  3-C , 10-H ) :   0.9484
B(  3-C , 11-H ) :   0.9284 B(  4-C ,  5-C ) :   0.8696 B(  4-C ,  7-C ) :   0.8710
B(  4-C , 12-H ) :   0.9226 B(  5-C ,  6-C ) :   0.8954 B(  5-C ,  8-C ) :   0.9047
B(  5-C , 13-H ) :   0.8937 B(  6-C ,  7-C ) :   0.8974 B(  6-C , 14-H ) :   0.9278
B(  6-C , 15-H ) :   0.9333 B(  7-C ,  8-C ) :   0.9017 B(  7-C , 16-H ) :   0.8951
B(  8-C , 17-H ) :   0.9300 B(  8-C , 18-H ) :   0.9283

MP2 TOTAL ENERGY:     -422.284641235 Eh
FINAL SINGLE POINT ENERGY      -422.284641235455

DIPOLE MOMENT
-------------
                                X             Y             Z
Electronic contribution:     -3.55013      -8.01637       1.91847
Nuclear contribution   :      3.66177       9.72186      -2.13397
                        -----------------------------------------
Total Dipole Moment    :      0.11164       1.70549      -0.21549
                        -----------------------------------------
Magnitude (a.u.)       :      1.72267
Magnitude (Debye)      :      4.37868

                             ****ORCA TERMINATED NORMALLY****
TOTAL RUN TIME: 0 days 0 hours 17 minutes 15 seconds 7 msec
