                         Program Version 3.0.3 - RELEASE   -
|  1> ! RI-MP2 RIJK def2-TZVP def2-TZVP/C def2-TZVP/JK TIGHTSCF
|  2> % maxcore 2000
|  3> % mp2 density relaxed end
|  4> *xyz 0 1
|  5>  C       -0.0768467751     1.5275746612    -0.0391019730
|  6>  C       -0.0697767346    -0.0084477505    -0.0675518183
|  7>  C        0.7469104468    -0.5498805499    -1.2152839713
|  8>  N        0.2757212106    -0.3181200671    -2.6167224914
|  9>  C        0.3941348621    -1.7728254239    -2.9319484575
| 10>  C        1.0767572168    -2.0216266996    -1.5775189239
| 11>  O        2.5024914703    -1.7096220057    -1.5831420680
| 12>  C        2.2835261493    -0.3999480755    -1.1977702799
| 13>  O        3.0989156874     0.4319734154    -0.9669147027
| 14>  H        0.9414732099     1.9144141666     0.0496778334
| 15>  H       -0.5116318802     1.9426947232    -0.9539869767
| 16>  H       -0.6641726587     1.8943285174     0.8071003158
| 17>  H        0.3422910297    -0.3940690858     0.8727587401
| 18>  H       -1.0943963663    -0.3956076587    -0.1441601171
| 19>  H       -0.6779748459     0.0239619356    -2.6497026076
| 20>  H       -0.5673837165    -2.2936423757    -3.0068487427
| 21>  H        0.9956587278    -1.9928682029    -3.8184027850
| 22>  H        0.8669512066    -2.9115480942    -0.9874692143
| 23> *
| 24>
| 25>                          ****END OF INPUT****

CARTESIAN COORDINATES (ANGSTROEM)
---------------------------------
  C     -0.076847    1.527575   -0.039102
  C     -0.069777   -0.008448   -0.067552
  C      0.746910   -0.549881   -1.215284
  N      0.275721   -0.318120   -2.616722
  C      0.394135   -1.772825   -2.931948
  C      1.076757   -2.021627   -1.577519
  O      2.502491   -1.709622   -1.583142
  C      2.283526   -0.399948   -1.197770
  O      3.098916    0.431973   -0.966915
  H      0.941473    1.914414    0.049678
  H     -0.511632    1.942695   -0.953987
  H     -0.664173    1.894329    0.807100
  H      0.342291   -0.394069    0.872759
  H     -1.094396   -0.395608   -0.144160
  H     -0.677975    0.023962   -2.649703
  H     -0.567384   -2.293642   -3.006849
  H      0.995659   -1.992868   -3.818403
  H      0.866951   -2.911548   -0.987469

 Total Charge           Charge          ....    0
 Multiplicity           Mult            ....    1
 Number of Electrons    NEL             ....   68
 Basis Dimension        Dim             ....  333

ORBITAL ENERGIES
----------------

  NO   OCC          E(Eh)            E(eV)
   0   2.0000     -20.600634      -560.5718
   1   2.0000     -20.552368      -559.2584
   2   2.0000     -15.570766      -423.7021
   3   2.0000     -11.378791      -309.6326
   4   2.0000     -11.310789      -307.7822
   5   2.0000     -11.297536      -307.4216
   6   2.0000     -11.277580      -306.8786
   7   2.0000     -11.252094      -306.1850
   8   2.0000     -11.227817      -305.5244
   9   2.0000      -1.463648       -39.8279
  10   2.0000      -1.380777       -37.5729
  11   2.0000      -1.250118       -34.0174
  12   2.0000      -1.071032       -29.1443
  13   2.0000      -0.986895       -26.8548
  14   2.0000      -0.962406       -26.1884
  15   2.0000      -0.865672       -23.5561
  16   2.0000      -0.843173       -22.9439
  17   2.0000      -0.731441       -19.9035
  18   2.0000      -0.712268       -19.3818
  19   2.0000      -0.690422       -18.7874
  20   2.0000      -0.676352       -18.4045
  21   2.0000      -0.635371       -17.2893
  22   2.0000      -0.613076       -16.6826
  23   2.0000      -0.606555       -16.5052
  24   2.0000      -0.583099       -15.8669
  25   2.0000      -0.563814       -15.3422
  26   2.0000      -0.550969       -14.9926
  27   2.0000      -0.532832       -14.4991
  28   2.0000      -0.519716       -14.1422
  29   2.0000      -0.509363       -13.8605
  30   2.0000      -0.474680       -12.9167
  31   2.0000      -0.451454       -12.2847
  32   2.0000      -0.437174       -11.8961
  33   2.0000      -0.393200       -10.6995
  34   0.0000       0.116879         3.1805
  35   0.0000       0.142943         3.8897
  36   0.0000       0.147669         4.0183
  37   0.0000       0.173279         4.7152
  38   0.0000       0.178808         4.8656

MULLIKEN ATOMIC CHARGES
-----------------------
   0 C :   -0.401969
   1 C :   -0.205206
   2 C :    0.076559
   3 N :   -0.358611
   4 C :   -0.130697
   5 C :    0.012850
   6 O :   -0.240640
   7 C :    0.258775
   8 O :   -0.259343
   9 H :    0.162934
  10 H :    0.125329
  11 H :    0.138446
  12 H :    0.124235
  13 H :    0.116446
  14 H :    0.209621
  15 H :    0.119995
  16 H :    0.121959
  17 H :    0.129316
Sum of atomic charges:   -0.0000000

LOEWDIN ATOMIC CHARGES
----------------------
   0 C :   -0.302146
   1 C :   -0.253273
   2 C :   -0.247701
   3 N :    0.019291
   4 C :   -0.243814
   5 C :   -0.202829
   6 O :    0.248503
   7 C :   -0.405054
   8 O :    0.163816
   9 H :    0.132874
  10 H :    0.122744
  11 H :    0.123163
  12 H :    0.150199
  13 H :    0.141249
  14 H :    0.163134
  15 H :    0.127632
  16 H :    0.130076
  17 H :    0.132136

  Mayer bond orders larger than 0.1
B(  0-C ,  1-C ) :   0.9330 B(  0-C ,  9-H ) :   0.9309 B(  0-C , 10-H ) :   0.9328
B(  0-C , 11-H ) :   0.9359 B(  1-C ,  2-C ) :   0.9089 B(  1-C , 12-H ) :   0.9153
B(  1-C , 13-H ) :   0.9239 B(  2-C ,  3-N ) :   1.0165 B(  2-C ,  5-C ) :   0.9196
B(  2-C ,  7-C ) :   0.8750 B(  3-N ,  4-C ) :   0.9779 B(  3-N , 14-H ) :   0.8714
B(  4-C ,  5-C ) :   0.9549 B(  4-C , 15-H ) :   0.9177 B(  4-C , 16-H ) :   0.8982
B(  5-C ,  6-O ) :   0.8894 B(  5-C , 17-H ) :   0.9208 B(  6-O ,  7-C ) :   1.0737
B(  7-C ,  8-O ) :   2.0453

MP2 TOTAL ENERGY:     -438.358505444 Eh
FINAL SINGLE POINT ENERGY      -438.358505443986

DIPOLE MOMENT
-------------
                                X             Y             Z
Electronic contribution:      8.08004      -3.01521      -1.96475
Nuclear contribution   :     -9.95891       2.29603       2.18050
                        -----------------------------------------
Total Dipole Moment    :     -1.87887      -0.71918       0.21575
                        -----------------------------------------
Magnitude (a.u.)       :      2.02334
Magnitude (Debye)      :      5.14292

                             ****ORCA TERMINATED NORMALLY****
TOTAL RUN TIME: 0 days 0 hours 18 minutes 9 seconds 935 msec
