                         Program Version 3.0.3 - RELEASE   -
|  1> ! RI-MP2 RIJK def2-TZVP def2-TZVP/C def2-TZVP/JK TIGHTSCF
|  2> % maxcore 2000
|  3> % mp2 density relaxed end
|  4> *xyz 0 1
|  5>  C        0.0784238402     1.4909598426     0.2593442144
|  6>  C       -0.0968428916    -0.0114387774     0.0154565818
|  7>  C        0.6397271601    -0.5093686176    -1.2208203140
|  8>  C        2.1947028027    -0.5421362030    -1.2051632664
|  9>  C        2.1532166609    -1.9044271639    -1.9524094040
| 10>  O        3.0681850554    -2.8406688147    -1.4125591531
| 11>  C        0.6536110855    -2.0339679757    -1.5150297680
| 12>  C        2.3067514598    -1.7863524261    -3.3997793455
| 13>  C        2.4304593733    -1.7316216194    -4.5951100323
| 14>  H        1.1340724323     1.7509639754     0.3935294462
| 15>  H       -0.3008333563     2.0757480344    -0.5861057805
| 16>  H       -0.4595055051     1.8143758402     1.1558220156
| 17>  H        0.2573126083    -0.5712345928     0.8916584223
| 18>  H       -1.1651909071    -0.2454250813    -0.0846256837
| 19>  H        0.2908053045     0.0367823640    -2.1044948701
| 20>  H        2.7487295440     0.2704096704    -1.6769763992
| 21>  H        2.5834084759    -0.7144740426    -0.1967683618
| 22>  H        3.1009812805    -3.6011029058    -2.0032442482
| 23>  H        0.6098243660    -2.6215293331    -0.5929744995
| 24>  H       -0.0555989102    -2.4327256195    -2.2428737382
| 25>  H        2.5461308208    -1.6709045139    -5.6491506559
| 26> *
| 27>
| 28>                          ****END OF INPUT****

CARTESIAN COORDINATES (ANGSTROEM)
---------------------------------
  C      0.078424    1.490960    0.259344
  C     -0.096843   -0.011439    0.015457
  C      0.639727   -0.509369   -1.220820
  C      2.194703   -0.542136   -1.205163
  C      2.153217   -1.904427   -1.952409
  O      3.068185   -2.840669   -1.412559
  C      0.653611   -2.033968   -1.515030
  C      2.306751   -1.786352   -3.399779
  C      2.430459   -1.731622   -4.595110
  H      1.134072    1.750964    0.393529
  H     -0.300833    2.075748   -0.586106
  H     -0.459506    1.814376    1.155822
  H      0.257313   -0.571235    0.891658
  H     -1.165191   -0.245425   -0.084626
  H      0.290805    0.036782   -2.104495
  H      2.748730    0.270410   -1.676976
  H      2.583408   -0.714474   -0.196768
  H      3.100981   -3.601103   -2.003244
  H      0.609824   -2.621529   -0.592974
  H     -0.055599   -2.432726   -2.242874
  H      2.546131   -1.670905   -5.649151

 Total Charge           Charge          ....    0
 Multiplicity           Mult            ....    1
 Number of Electrons    NEL             ....   68
 Basis Dimension        Dim             ....  351

ORBITAL ENERGIES
----------------

  NO   OCC          E(Eh)            E(eV)
   0   2.0000     -20.562871      -559.5442
   1   2.0000     -11.310863      -307.7842
   2   2.0000     -11.237167      -305.7789
   3   2.0000     -11.230868      -305.6075
   4   2.0000     -11.229395      -305.5674
   5   2.0000     -11.225446      -305.4599
   6   2.0000     -11.224615      -305.4373
   7   2.0000     -11.220721      -305.3314
   8   2.0000     -11.213802      -305.1431
   9   2.0000      -1.372803       -37.3559
  10   2.0000      -1.142016       -31.0758
  11   2.0000      -1.047059       -28.4919
  12   2.0000      -1.016786       -27.6682
  13   2.0000      -0.914227       -24.8774
  14   2.0000      -0.902588       -24.5607
  15   2.0000      -0.832995       -22.6670
  16   2.0000      -0.776556       -21.1312
  17   2.0000      -0.726111       -19.7585
  18   2.0000      -0.698660       -19.0115
  19   2.0000      -0.661042       -17.9879
  20   2.0000      -0.630853       -17.1664
  21   2.0000      -0.601178       -16.3589
  22   2.0000      -0.585309       -15.9271
  23   2.0000      -0.568467       -15.4688
  24   2.0000      -0.550515       -14.9803
  25   2.0000      -0.524588       -14.2748
  26   2.0000      -0.517411       -14.0795
  27   2.0000      -0.500495       -13.6192
  28   2.0000      -0.463651       -12.6166
  29   2.0000      -0.461672       -12.5627
  30   2.0000      -0.440157       -11.9773
  31   2.0000      -0.434458       -11.8222
  32   2.0000      -0.398882       -10.8541
  33   2.0000      -0.381721       -10.3872
  34   0.0000       0.134679         3.6648
  35   0.0000       0.141572         3.8524
  36   0.0000       0.160132         4.3574
  37   0.0000       0.162076         4.4103
  38   0.0000       0.167721         4.5639

MULLIKEN ATOMIC CHARGES
-----------------------
   0 C :   -0.392724
   1 C :   -0.230084
   2 C :   -0.058403
   3 C :   -0.266987
   4 C :    0.244797
   5 O :   -0.450320
   6 C :   -0.232815
   7 C :   -0.174527
   8 C :   -0.154770
   9 H :    0.128564
  10 H :    0.122764
  11 H :    0.134631
  12 H :    0.107269
  13 H :    0.112005
  14 H :    0.109972
  15 H :    0.135728
  16 H :    0.117303
  17 H :    0.320838
  18 H :    0.109410
  19 H :    0.124447
  20 H :    0.192902
Sum of atomic charges:    0.0000000

LOEWDIN ATOMIC CHARGES
----------------------
   0 C :   -0.316293
   1 C :   -0.282148
   2 C :   -0.232338
   3 C :   -0.162083
   4 C :   -0.348803
   5 O :    0.019235
   6 C :   -0.168314
   7 C :   -0.074449
   8 C :   -0.087351
   9 H :    0.121719
  10 H :    0.120942
  11 H :    0.120823
  12 H :    0.137105
  13 H :    0.138105
  14 H :    0.152888
  15 H :    0.131856
  16 H :    0.147758
  17 H :    0.180858
  18 H :    0.143260
  19 H :    0.129208
  20 H :    0.128022

  Mayer bond orders larger than 0.1
B(  0-C ,  1-C ) :   0.9228 B(  0-C ,  9-H ) :   0.9388 B(  0-C , 10-H ) :   0.9380
B(  0-C , 11-H ) :   0.9411 B(  1-C ,  2-C ) :   0.8764 B(  1-C , 12-H ) :   0.9334
B(  1-C , 13-H ) :   0.9379 B(  2-C ,  3-C ) :   0.9606 B(  2-C ,  6-C ) :   0.9678
B(  2-C , 14-H ) :   0.9166 B(  3-C ,  4-C ) :   0.8438 B(  3-C , 15-H ) :   0.9213
B(  3-C , 16-H ) :   0.9003 B(  4-C ,  5-O ) :   1.0221 B(  4-C ,  6-C ) :   0.8698
B(  4-C ,  7-C ) :   1.2179 B(  5-O , 17-H ) :   0.8361 B(  6-C , 18-H ) :   0.9020
B(  6-C , 19-H ) :   0.9173 B(  7-C ,  8-C ) :   2.5609 B(  8-C , 20-H ) :   0.8907

MP2 TOTAL ENERGY:     -386.368512478 Eh
FINAL SINGLE POINT ENERGY      -386.368512478436

DIPOLE MOMENT
-------------
                                X             Y             Z
Electronic contribution:      5.74913      -6.76998      -6.46026
Nuclear contribution   :     -6.14733       6.74363       6.12412
                        -----------------------------------------
Total Dipole Moment    :     -0.39821      -0.02635      -0.33614
                        -----------------------------------------
Magnitude (a.u.)       :      0.52178
Magnitude (Debye)      :      1.32625

                             ****ORCA TERMINATED NORMALLY****
TOTAL RUN TIME: 0 days 0 hours 32 minutes 17 seconds 772 msec
