                         Program Version 3.0.3 - RELEASE   -
|  1> ! RI-MP2 RIJK def2-TZVP def2-TZVP/C def2-TZVP/JK TIGHTSCF
|  2> % maxcore 2000
|  3> % mp2 density relaxed end
|  4> *xyz 0 1
|  5>  C       -0.0253991178     1.4548393277     0.1056724389
|  6>  N       -0.0075477964    -0.0030033720     0.0068970423
|  7>  C       -1.2448769678    -0.6809963185    -0.0130487440
|  8>  N       -2.3832785060    -0.1210227545     0.1055481873
|  9>  C       -1.1922884979    -2.1782865461    -0.2136877676
| 10>  C        0.0263483905    -2.8062762884     0.4581462561
| 11>  C        1.2803882556    -2.1399505930    -0.0988218266
| 12>  C        1.2489962278    -0.6222891768    -0.0351972831
| 13>  O        2.2734147015     0.0285930434    -0.0278746464
| 14>  H        1.0054593583     1.7982529490     0.0672191035
| 15>  H       -0.5889134467     1.8880271255    -0.7267482385
| 16>  H       -0.4810604693     1.7752530685     1.0485180834
| 17>  H       -2.3172126258     0.8896818161     0.2101066620
| 18>  H       -2.1368816436    -2.5824950794     0.1517202584
| 19>  H       -1.1523602710    -2.3781391237    -1.2936079155
| 20>  H       -0.0277415818    -2.6635941614     1.5439994667
| 21>  H        0.0533344145    -3.8850273002     0.2788760062
| 22>  H        2.1943367367    -2.4483957724     0.4132724219
| 23>  H        1.4092710990    -2.4094449038    -1.1559720251
| 24> *
| 25>
| 26>                          ****END OF INPUT****

CARTESIAN COORDINATES (ANGSTROEM)
---------------------------------
  C     -0.025399    1.454839    0.105672
  N     -0.007548   -0.003003    0.006897
  C     -1.244877   -0.680996   -0.013049
  N     -2.383279   -0.121023    0.105548
  C     -1.192288   -2.178287   -0.213688
  C      0.026348   -2.806276    0.458146
  C      1.280388   -2.139951   -0.098822
  C      1.248996   -0.622289   -0.035197
  O      2.273415    0.028593   -0.027875
  H      1.005459    1.798253    0.067219
  H     -0.588913    1.888027   -0.726748
  H     -0.481060    1.775253    1.048518
  H     -2.317213    0.889682    0.210107
  H     -2.136882   -2.582495    0.151720
  H     -1.152360   -2.378139   -1.293608
  H     -0.027742   -2.663594    1.543999
  H      0.053334   -3.885027    0.278876
  H      2.194337   -2.448396    0.413272
  H      1.409271   -2.409445   -1.155972

 Total Charge           Charge          ....    0
 Multiplicity           Mult            ....    1
 Number of Electrons    NEL             ....   68
 Basis Dimension        Dim             ....  339

ORBITAL ENERGIES
----------------

  NO   OCC          E(Eh)            E(eV)
   0   2.0000     -20.535615      -558.8025
   1   2.0000     -15.614861      -424.9020
   2   2.0000     -15.538019      -422.8110
   3   2.0000     -11.368049      -309.3403
   4   2.0000     -11.330089      -308.3074
   5   2.0000     -11.265969      -306.5626
   6   2.0000     -11.251875      -306.1791
   7   2.0000     -11.248463      -306.0862
   8   2.0000     -11.245701      -306.0111
   9   2.0000      -1.403831       -38.2002
  10   2.0000      -1.293699       -35.2033
  11   2.0000      -1.179237       -32.0887
  12   2.0000      -1.107905       -30.1476
  13   2.0000      -0.993302       -27.0291
  14   2.0000      -0.968273       -26.3481
  15   2.0000      -0.859256       -23.3816
  16   2.0000      -0.845345       -23.0030
  17   2.0000      -0.727895       -19.8070
  18   2.0000      -0.713371       -19.4118
  19   2.0000      -0.683829       -18.6079
  20   2.0000      -0.660467       -17.9722
  21   2.0000      -0.629598       -17.1322
  22   2.0000      -0.611544       -16.6409
  23   2.0000      -0.599679       -16.3181
  24   2.0000      -0.595790       -16.2123
  25   2.0000      -0.560544       -15.2532
  26   2.0000      -0.552581       -15.0365
  27   2.0000      -0.531397       -14.4600
  28   2.0000      -0.501983       -13.6597
  29   2.0000      -0.499182       -13.5834
  30   2.0000      -0.469559       -12.7774
  31   2.0000      -0.443512       -12.0686
  32   2.0000      -0.425631       -11.5820
  33   2.0000      -0.377108       -10.2616
  34   0.0000       0.120722         3.2850
  35   0.0000       0.139949         3.8082
  36   0.0000       0.142371         3.8741
  37   0.0000       0.161945         4.4068
  38   0.0000       0.172055         4.6818

MULLIKEN ATOMIC CHARGES
-----------------------
   0 C :   -0.393839
   1 N :   -0.066671
   2 C :    0.036237
   3 N :   -0.352594
   4 C :   -0.174562
   5 C :   -0.228242
   6 C :   -0.215133
   7 C :    0.189698
   8 O :   -0.343722
   9 H :    0.193928
  10 H :    0.154267
  11 H :    0.152734
  12 H :    0.214819
  13 H :    0.151610
  14 H :    0.129173
  15 H :    0.129649
  16 H :    0.132804
  17 H :    0.154297
  18 H :    0.135547
Sum of atomic charges:   -0.0000000

LOEWDIN ATOMIC CHARGES
----------------------
   0 C :   -0.284502
   1 N :    0.205148
   2 C :   -0.329067
   3 N :   -0.047916
   4 C :   -0.218100
   5 C :   -0.256924
   6 C :   -0.224917
   7 C :   -0.392976
   8 O :    0.106237
   9 H :    0.138373
  10 H :    0.121186
  11 H :    0.120276
  12 H :    0.155566
  13 H :    0.154974
  14 H :    0.154022
  15 H :    0.143947
  16 H :    0.141008
  17 H :    0.155446
  18 H :    0.158218

  Mayer bond orders larger than 0.1
B(  0-C ,  1-N ) :   0.8405 B(  0-C ,  9-H ) :   0.9143 B(  0-C , 10-H ) :   0.9289
B(  0-C , 11-H ) :   0.9280 B(  1-N ,  2-C ) :   1.0275 B(  1-N ,  7-C ) :   1.0775
B(  2-C ,  3-N ) :   2.0300 B(  2-C ,  4-C ) :   0.9217 B(  3-N , 12-H ) :   0.8726
B(  4-C ,  5-C ) :   0.8969 B(  4-C , 13-H ) :   0.9236 B(  4-C , 14-H ) :   0.9233
B(  5-C ,  6-C ) :   0.9006 B(  5-C , 15-H ) :   0.9304 B(  5-C , 16-H ) :   0.9298
B(  6-C ,  7-C ) :   0.9390 B(  6-C , 17-H ) :   0.9241 B(  6-C , 18-H ) :   0.9099
B(  7-C ,  8-O ) :   1.9265

MP2 TOTAL ENERGY:     -418.561323994 Eh
FINAL SINGLE POINT ENERGY      -418.561323993765

DIPOLE MOMENT
-------------
                                X             Y             Z
Electronic contribution:      1.96506       1.96016      -0.21775
Nuclear contribution   :     -2.04012      -2.30331       0.19791
                        -----------------------------------------
Total Dipole Moment    :     -0.07506      -0.34315      -0.01984
                        -----------------------------------------
Magnitude (a.u.)       :      0.35182
Magnitude (Debye)      :      0.89426

                             ****ORCA TERMINATED NORMALLY****
TOTAL RUN TIME: 0 days 0 hours 19 minutes 30 seconds 162 msec
