                         Program Version 3.0.3 - RELEASE   -
|  1> ! RI-MP2 RIJK def2-TZVP def2-TZVP/C def2-TZVP/JK TIGHTSCF
|  2> % maxcore 2000
|  3> % mp2 density relaxed end
|  4> *xyz 0 1
|  5>  C       -0.0128660241     1.4778416667    -0.0174765537
|  6>  N       -0.0068589811     0.0318354525     0.0797132025
|  7>  N       -0.0484668249    -0.7354968328    -1.0423840736
|  8>  N       -0.0351389623    -2.0164357925    -0.7333678893
|  9>  C        0.0168213487    -2.0635738810     0.6142433900
| 10>  C        0.0354936648    -0.8011888056     1.1458127853
| 11>  N        0.0877318268    -0.8923330789     2.5016479525
| 12>  N        0.1024562788    -2.1093377764     2.8250910210
| 13>  O        0.0552476778    -2.9553976619     1.5909788312
| 14>  H        0.8964071927     1.8913997146     0.4258594176
| 15>  H       -0.0544589324     1.7262844226    -1.0775641705
| 16>  H       -0.8862317997     1.8886579928     0.4951762068
| 17> *
| 18>
| 19>                          ****END OF INPUT****

CARTESIAN COORDINATES (ANGSTROEM)
---------------------------------
  C     -0.012866    1.477842   -0.017477
  N     -0.006859    0.031835    0.079713
  N     -0.048467   -0.735497   -1.042384
  N     -0.035139   -2.016436   -0.733368
  C      0.016821   -2.063574    0.614243
  C      0.035494   -0.801189    1.145813
  N      0.087732   -0.892333    2.501648
  N      0.102456   -2.109338    2.825091
  O      0.055248   -2.955398    1.590979
  H      0.896407    1.891400    0.425859
  H     -0.054459    1.726284   -1.077564
  H     -0.886232    1.888658    0.495176

 Total Charge           Charge          ....    0
 Multiplicity           Mult            ....    1
 Number of Electrons    NEL             ....   64
 Basis Dimension        Dim             ....  297

ORBITAL ENERGIES
----------------

  NO   OCC          E(Eh)            E(eV)
   0   2.0000     -20.670059      -562.4609
   1   2.0000     -15.728593      -427.9968
   2   2.0000     -15.699315      -427.2001
   3   2.0000     -15.688579      -426.9079
   4   2.0000     -15.682426      -426.7405
   5   2.0000     -15.631684      -425.3598
   6   2.0000     -11.344339      -308.6952
   7   2.0000     -11.324262      -308.1488
   8   2.0000     -11.310577      -307.7764
   9   2.0000      -1.534913       -41.7671
  10   2.0000      -1.462923       -39.8082
  11   2.0000      -1.356047       -36.8999
  12   2.0000      -1.253393       -34.1066
  13   2.0000      -1.127957       -30.6933
  14   2.0000      -1.026531       -27.9333
  15   2.0000      -0.960093       -26.1254
  16   2.0000      -0.874475       -23.7957
  17   2.0000      -0.853657       -23.2292
  18   2.0000      -0.754759       -20.5380
  19   2.0000      -0.733184       -19.9510
  20   2.0000      -0.729868       -19.8607
  21   2.0000      -0.669460       -18.2169
  22   2.0000      -0.614053       -16.7092
  23   2.0000      -0.609249       -16.5785
  24   2.0000      -0.594265       -16.1708
  25   2.0000      -0.593139       -16.1401
  26   2.0000      -0.559999       -15.2384
  27   2.0000      -0.545076       -14.8323
  28   2.0000      -0.495748       -13.4900
  29   2.0000      -0.472903       -12.8683
  30   2.0000      -0.425588       -11.5808
  31   2.0000      -0.368717       -10.0333
  32   0.0000       0.047964         1.3052
  33   0.0000       0.123380         3.3573
  34   0.0000       0.154501         4.2042
  35   0.0000       0.170016         4.6264
  36   0.0000       0.190847         5.1932

MULLIKEN ATOMIC CHARGES
-----------------------
   0 C :   -0.321232
   1 N :    0.087161
   2 N :   -0.125708
   3 N :   -0.158238
   4 C :    0.163889
   5 C :    0.038546
   6 N :   -0.093913
   7 N :    0.020114
   8 O :   -0.129481
   9 H :    0.166132
  10 H :    0.186583
  11 H :    0.166148
Sum of atomic charges:   -0.0000000

LOEWDIN ATOMIC CHARGES
----------------------
   0 C :   -0.259711
   1 N :    0.188027
   2 N :    0.000878
   3 N :    0.042943
   4 C :   -0.408161
   5 C :   -0.328364
   6 N :    0.061047
   7 N :    0.040544
   8 O :    0.259795
   9 H :    0.131477
  10 H :    0.140041
  11 H :    0.131485

  Mayer bond orders larger than 0.1
B(  0-C ,  1-N ) :   0.8435 B(  0-C ,  9-H ) :   0.9244 B(  0-C , 10-H ) :   0.9193
B(  0-C , 11-H ) :   0.9244 B(  1-N ,  2-N ) :   1.0024 B(  1-N ,  5-C ) :   1.1707
B(  2-N ,  3-N ) :   1.2292 B(  3-N ,  4-C ) :   1.3676 B(  4-C ,  5-C ) :   1.2495
B(  4-C ,  8-O ) :   1.1718 B(  5-C ,  6-N ) :   1.2408 B(  6-N ,  7-N ) :   1.4349
B(  7-N ,  8-O ) :   0.8000

MP2 TOTAL ENERGY:     -464.159594653 Eh
FINAL SINGLE POINT ENERGY      -464.159594653318

DIPOLE MOMENT
-------------
                                X             Y             Z
Electronic contribution:      0.09994      -6.56138       2.33893
Nuclear contribution   :     -0.10207       8.25462      -2.32050
                        -----------------------------------------
Total Dipole Moment    :     -0.00213       1.69324       0.01844
                        -----------------------------------------
Magnitude (a.u.)       :      1.69334
Magnitude (Debye)      :      4.30414

                             ****ORCA TERMINATED NORMALLY****
TOTAL RUN TIME: 0 days 0 hours 15 minutes 26 seconds 576 msec
