                         Program Version 3.0.3 - RELEASE   -
|  1> ! RI-MP2 RIJK def2-TZVP def2-TZVP/C def2-TZVP/JK TIGHTSCF
|  2> % maxcore 2000
|  3> % mp2 density relaxed end
|  4> *xyz 0 1
|  5>  C       -0.0263857188     1.6168958439    -0.6460802304
|  6>  C       -0.0285942750     0.1849168555    -0.1466065029
|  7>  C        1.2311869948    -0.6419406425    -0.2235102907
|  8>  C        0.7174291251    -0.1672355966     1.1140063650
|  9>  N       -1.2461092812    -0.5503946995    -0.3873500179
| 10>  C       -2.4110505903    -0.2924169384     0.2804845578
| 11>  N       -2.5013481646     0.5322662306     1.2558423543
| 12>  C       -3.5432123411    -1.0694353979    -0.2100048636
| 13>  N       -4.4672665305    -1.6614059514    -0.5747763281
| 14>  H        0.9319114353     2.0972559408    -0.4287262353
| 15>  H       -0.1857970574     1.6554900101    -1.7296169196
| 16>  H       -0.8166975838     2.1909665923    -0.1553939520
| 17>  H        1.1315607442    -1.6970839522    -0.4539782152
| 18>  H        2.1129426085    -0.1698041323    -0.6421451619
| 19>  H        1.2444689302     0.6333734645     1.6199079112
| 20>  H        0.2664687676    -0.8985531285     1.7726759532
| 21>  H       -1.3209025571    -1.0642161760    -1.2512660069
| 22>  H       -3.4437762558     0.5415440775     1.6374065129
| 23> *
| 24>
| 25>                          ****END OF INPUT****

CARTESIAN COORDINATES (ANGSTROEM)
---------------------------------
  C     -0.026386    1.616896   -0.646080
  C     -0.028594    0.184917   -0.146607
  C      1.231187   -0.641941   -0.223510
  C      0.717429   -0.167236    1.114006
  N     -1.246109   -0.550395   -0.387350
  C     -2.411051   -0.292417    0.280485
  N     -2.501348    0.532266    1.255842
  C     -3.543212   -1.069435   -0.210005
  N     -4.467267   -1.661406   -0.574776
  H      0.931911    2.097256   -0.428726
  H     -0.185797    1.655490   -1.729617
  H     -0.816698    2.190967   -0.155394
  H      1.131561   -1.697084   -0.453978
  H      2.112943   -0.169804   -0.642145
  H      1.244469    0.633373    1.619908
  H      0.266469   -0.898553    1.772676
  H     -1.320903   -1.064216   -1.251266
  H     -3.443776    0.541544    1.637407

 Total Charge           Charge          ....    0
 Multiplicity           Mult            ....    1
 Number of Electrons    NEL             ....   66
 Basis Dimension        Dim             ....  333

ORBITAL ENERGIES
----------------

  NO   OCC          E(Eh)            E(eV)
   0   2.0000     -15.603723      -424.5989
   1   2.0000     -15.602283      -424.5597
   2   2.0000     -15.559417      -423.3933
   3   2.0000     -11.370890      -309.4176
   4   2.0000     -11.297670      -307.4252
   5   2.0000     -11.286241      -307.1142
   6   2.0000     -11.238675      -305.8199
   7   2.0000     -11.234095      -305.6953
   8   2.0000     -11.224503      -305.4343
   9   2.0000      -1.313699       -35.7476
  10   2.0000      -1.241247       -33.7760
  11   2.0000      -1.201574       -32.6965
  12   2.0000      -1.131137       -30.7798
  13   2.0000      -0.978410       -26.6239
  14   2.0000      -0.920237       -25.0409
  15   2.0000      -0.844568       -22.9819
  16   2.0000      -0.787117       -21.4185
  17   2.0000      -0.780366       -21.2348
  18   2.0000      -0.687407       -18.7053
  19   2.0000      -0.663443       -18.0532
  20   2.0000      -0.650968       -17.7137
  21   2.0000      -0.594226       -16.1697
  22   2.0000      -0.589787       -16.0489
  23   2.0000      -0.575835       -15.6693
  24   2.0000      -0.554022       -15.0757
  25   2.0000      -0.548445       -14.9239
  26   2.0000      -0.525422       -14.2975
  27   2.0000      -0.507169       -13.8008
  28   2.0000      -0.483521       -13.1573
  29   2.0000      -0.458674       -12.4812
  30   2.0000      -0.433183       -11.7875
  31   2.0000      -0.419956       -11.4276
  32   2.0000      -0.377657       -10.2766
  33   0.0000       0.095965         2.6113
  34   0.0000       0.117668         3.2019
  35   0.0000       0.147841         4.0230
  36   0.0000       0.153033         4.1642
  37   0.0000       0.173878         4.7315

MULLIKEN ATOMIC CHARGES
-----------------------
   0 C :   -0.409152
   1 C :    0.218253
   2 C :   -0.303949
   3 C :   -0.256865
   4 N :   -0.363767
   5 C :    0.320817
   6 N :   -0.393217
   7 C :   -0.212998
   8 N :   -0.045708
   9 H :    0.125262
  10 H :    0.123663
  11 H :    0.164816
  12 H :    0.139117
  13 H :    0.136918
  14 H :    0.137704
  15 H :    0.139919
  16 H :    0.250267
  17 H :    0.228919
Sum of atomic charges:    0.0000000

LOEWDIN ATOMIC CHARGES
----------------------
   0 C :   -0.264347
   1 C :   -0.311845
   2 C :   -0.208573
   3 C :   -0.194077
   4 N :    0.164158
   5 C :   -0.386710
   6 N :   -0.038018
   7 C :   -0.151588
   8 N :    0.082978
   9 H :    0.130969
  10 H :    0.124890
  11 H :    0.134566
  12 H :    0.135022
  13 H :    0.135739
  14 H :    0.137225
  15 H :    0.140138
  16 H :    0.198260
  17 H :    0.171214

  Mayer bond orders larger than 0.1
B(  0-C ,  1-C ) :   0.9231 B(  0-C ,  9-H ) :   0.9251 B(  0-C , 10-H ) :   0.9321
B(  0-C , 11-H ) :   0.9334 B(  1-C ,  2-C ) :   0.8724 B(  1-C ,  3-C ) :   0.8744
B(  1-C ,  4-N ) :   0.7915 B(  2-C ,  3-C ) :   0.8979 B(  2-C , 12-H ) :   0.9239
B(  2-C , 13-H ) :   0.9288 B(  3-C , 14-H ) :   0.9303 B(  3-C , 15-H ) :   0.9279
B(  4-N ,  5-C ) :   1.1539 B(  4-N , 16-H ) :   0.8686 B(  5-C ,  6-N ) :   1.8774
B(  5-C ,  7-C ) :   0.8696 B(  6-N , 17-H ) :   0.8607 B(  7-C ,  8-N ) :   2.8300

MP2 TOTAL ENERGY:     -397.437050165 Eh
FINAL SINGLE POINT ENERGY      -397.437050164585

DIPOLE MOMENT
-------------
                                X             Y             Z
Electronic contribution:    -10.02768      -4.54117      -0.18499
Nuclear contribution   :     11.13971       4.76929      -0.09932
                        -----------------------------------------
Total Dipole Moment    :      1.11203       0.22812      -0.28431
                        -----------------------------------------
Magnitude (a.u.)       :      1.17025
Magnitude (Debye)      :      2.97454

                             ****ORCA TERMINATED NORMALLY****
TOTAL RUN TIME: 0 days 0 hours 17 minutes 38 seconds 474 msec
