                         Program Version 3.0.3 - RELEASE   -
|  1> ! RI-MP2 RIJK def2-TZVP def2-TZVP/C def2-TZVP/JK TIGHTSCF
|  2> % maxcore 2000
|  3> % mp2 density relaxed end
|  4> *xyz 0 1
|  5>  C       -0.1454569406     1.5574923943     0.0213933316
|  6>  C       -0.0054949576     0.0446338073     0.0013663209
|  7>  O       -1.2896481314    -0.4581155460    -0.2255242062
|  8>  C        1.1528733867    -0.5846614886    -0.8346311701
|  9>  C        2.1251675576    -0.2310495733     0.3046058726
| 10>  C        0.8731111172    -0.5975511375     1.1754101615
| 11>  C        0.7509195682    -2.0439145228     0.7863102998
| 12>  N        0.5333993326    -3.0659107475     1.4858848940
| 13>  O        0.9188607479    -2.0109467131    -0.5975940267
| 14>  H        0.7790807847     2.0791123208     0.2687890757
| 15>  H       -0.4951674622     1.9060225284    -0.9548881478
| 16>  H       -0.9036640614     1.8293034846     0.7611355627
| 17>  H       -1.2129357679    -1.3941482694    -0.4470934879
| 18>  H        1.3247605804    -0.4189691252    -1.8966179267
| 19>  H        2.9993179705    -0.8762201951     0.4020383778
| 20>  H        2.4125223967     0.8167386537     0.3525262611
| 21>  H        0.7611165734    -0.3491966978     2.2267457099
| 22>  H        0.5116310254    -3.9065108927     0.9045791478
| 23> *
| 24>
| 25>                          ****END OF INPUT****

CARTESIAN COORDINATES (ANGSTROEM)
---------------------------------
  C     -0.145457    1.557492    0.021393
  C     -0.005495    0.044634    0.001366
  O     -1.289648   -0.458116   -0.225524
  C      1.152873   -0.584661   -0.834631
  C      2.125168   -0.231050    0.304606
  C      0.873111   -0.597551    1.175410
  C      0.750920   -2.043915    0.786310
  N      0.533399   -3.065911    1.485885
  O      0.918861   -2.010947   -0.597594
  H      0.779081    2.079112    0.268789
  H     -0.495167    1.906023   -0.954888
  H     -0.903664    1.829303    0.761136
  H     -1.212936   -1.394148   -0.447093
  H      1.324761   -0.418969   -1.896618
  H      2.999318   -0.876220    0.402038
  H      2.412522    0.816739    0.352526
  H      0.761117   -0.349197    2.226746
  H      0.511631   -3.906511    0.904579

 Total Charge           Charge          ....    0
 Multiplicity           Mult            ....    1
 Number of Electrons    NEL             ....   68
 Basis Dimension        Dim             ....  333

ORBITAL ENERGIES
----------------

  NO   OCC          E(Eh)            E(eV)
   0   2.0000     -20.598703      -560.5192
   1   2.0000     -20.568423      -559.6952
   2   2.0000     -15.541313      -422.9006
   3   2.0000     -11.341139      -308.6081
   4   2.0000     -11.315550      -307.9118
   5   2.0000     -11.311213      -307.7938
   6   2.0000     -11.260751      -306.4206
   7   2.0000     -11.254412      -306.2481
   8   2.0000     -11.231892      -305.6353
   9   2.0000      -1.444186       -39.2983
  10   2.0000      -1.377742       -37.4903
  11   2.0000      -1.201764       -32.7017
  12   2.0000      -1.148563       -31.2540
  13   2.0000      -1.002097       -27.2684
  14   2.0000      -0.949896       -25.8480
  15   2.0000      -0.886230       -24.1156
  16   2.0000      -0.789734       -21.4897
  17   2.0000      -0.762486       -20.7483
  18   2.0000      -0.746145       -20.3036
  19   2.0000      -0.704076       -19.1589
  20   2.0000      -0.657785       -17.8992
  21   2.0000      -0.640496       -17.4288
  22   2.0000      -0.619036       -16.8448
  23   2.0000      -0.587833       -15.9958
  24   2.0000      -0.568594       -15.4722
  25   2.0000      -0.556236       -15.1360
  26   2.0000      -0.548537       -14.9265
  27   2.0000      -0.535331       -14.5671
  28   2.0000      -0.527571       -14.3559
  29   2.0000      -0.497569       -13.5395
  30   2.0000      -0.466388       -12.6911
  31   2.0000      -0.453416       -12.3381
  32   2.0000      -0.425690       -11.5836
  33   2.0000      -0.392508       -10.6807
  34   0.0000       0.133683         3.6377
  35   0.0000       0.160756         4.3744
  36   0.0000       0.163191         4.4407
  37   0.0000       0.170377         4.6362
  38   0.0000       0.177970         4.8428

MULLIKEN ATOMIC CHARGES
-----------------------
   0 C :   -0.418797
   1 C :    0.123698
   2 O :   -0.441908
   3 C :    0.098934
   4 C :   -0.305538
   5 C :    0.059980
   6 C :   -0.031053
   7 N :   -0.346533
   8 O :   -0.290042
   9 H :    0.128482
  10 H :    0.142267
  11 H :    0.150197
  12 H :    0.331706
  13 H :    0.143576
  14 H :    0.136812
  15 H :    0.139567
  16 H :    0.150986
  17 H :    0.227666
Sum of atomic charges:    0.0000000

LOEWDIN ATOMIC CHARGES
----------------------
   0 C :   -0.260072
   1 C :   -0.343525
   2 O :    0.040637
   3 C :   -0.208291
   4 C :   -0.185598
   5 C :   -0.133472
   6 C :   -0.393344
   7 N :   -0.044719
   8 O :    0.215202
   9 H :    0.126351
  10 H :    0.133577
  11 H :    0.137236
  12 H :    0.184377
  13 H :    0.134251
  14 H :    0.139144
  15 H :    0.138384
  16 H :    0.148163
  17 H :    0.171698

  Mayer bond orders larger than 0.1
B(  0-C ,  1-C ) :   0.9216 B(  0-C ,  9-H ) :   0.9386 B(  0-C , 10-H ) :   0.9340
B(  0-C , 11-H ) :   0.9343 B(  1-C ,  2-O ) :   1.0406 B(  1-C ,  3-C ) :   0.9098
B(  1-C ,  5-C ) :   0.8284 B(  2-O , 12-H ) :   0.8186 B(  3-C ,  4-C ) :   0.9376
B(  3-C ,  8-O ) :   0.8198 B(  3-C , 13-H ) :   0.9061 B(  4-C ,  5-C ) :   0.8969
B(  4-C , 14-H ) :   0.8999 B(  4-C , 15-H ) :   0.9361 B(  5-C ,  6-C ) :   0.8703
B(  5-C , 16-H ) :   0.8908 B(  6-C ,  7-N ) :   2.1085 B(  6-C ,  8-O ) :   1.0435
B(  7-N , 17-H ) :   0.8484

MP2 TOTAL ENERGY:     -438.366457159 Eh
FINAL SINGLE POINT ENERGY      -438.366457159435

DIPOLE MOMENT
-------------
                                X             Y             Z
Electronic contribution:     -0.80912      -5.89655      -0.31608
Nuclear contribution   :      1.46893       6.65712      -0.27017
                        -----------------------------------------
Total Dipole Moment    :      0.65982       0.76057      -0.58624
                        -----------------------------------------
Magnitude (a.u.)       :      1.16512
Magnitude (Debye)      :      2.96151

                             ****ORCA TERMINATED NORMALLY****
TOTAL RUN TIME: 0 days 0 hours 19 minutes 36 seconds 598 msec
