                         Program Version 3.0.3 - RELEASE   -
|  1> ! RI-MP2 RIJK def2-TZVP def2-TZVP/C def2-TZVP/JK TIGHTSCF
|  2> % maxcore 2000
|  3> % mp2 density relaxed end
|  4> *xyz 0 1
|  5>  N        0.0024280277     1.2792677938    -0.1944781455
|  6>  C       -0.0317938056    -0.0815307075    -0.0254314894
|  7>  N       -1.1086020587    -0.7774869338    -0.0650898251
|  8>  C       -0.8016200631    -2.1736601385     0.2411262367
|  9>  C        0.7342366081    -2.3064452468     0.3651784697
| 10>  O        1.1885349352    -3.1547895578     1.3833928809
| 11>  C        1.5435605161    -2.5085025098    -0.9322868736
| 12>  O        1.9968276228    -1.1315599106    -0.9326630098
| 13>  C        1.2433625594    -0.8421762406     0.2687681380
| 14>  H        0.8568636773     1.6549786010    -0.5773537105
| 15>  H       -0.8368478291     1.6753855660    -0.5945689199
| 16>  H       -1.2864851364    -2.4712581372     1.1843975284
| 17>  H       -1.2142492962    -2.8318223780    -0.5332936434
| 18>  H        0.6383967011    -3.0192348556     2.1624446039
| 19>  H        2.3763209196    -3.2094205653    -0.8155332748
| 20>  H        0.9661115005    -2.7540996290    -1.8306237949
| 21>  H        1.8700993514    -0.4200988603     1.0614405591
| 22> *
| 23>
| 24>                          ****END OF INPUT****

CARTESIAN COORDINATES (ANGSTROEM)
---------------------------------
  N      0.002428    1.279268   -0.194478
  C     -0.031794   -0.081531   -0.025431
  N     -1.108602   -0.777487   -0.065090
  C     -0.801620   -2.173660    0.241126
  C      0.734237   -2.306445    0.365178
  O      1.188535   -3.154790    1.383393
  C      1.543561   -2.508503   -0.932287
  O      1.996828   -1.131560   -0.932663
  C      1.243363   -0.842176    0.268768
  H      0.856864    1.654979   -0.577354
  H     -0.836848    1.675386   -0.594569
  H     -1.286485   -2.471258    1.184398
  H     -1.214249   -2.831822   -0.533294
  H      0.638397   -3.019235    2.162445
  H      2.376321   -3.209421   -0.815533
  H      0.966112   -2.754100   -1.830624
  H      1.870099   -0.420099    1.061441

 Total Charge           Charge          ....    0
 Multiplicity           Mult            ....    1
 Number of Electrons    NEL             ....   68
 Basis Dimension        Dim             ....  327

ORBITAL ENERGIES
----------------

  NO   OCC          E(Eh)            E(eV)
   0   2.0000     -20.577115      -559.9318
   1   2.0000     -20.563196      -559.5530
   2   2.0000     -15.576707      -423.8637
   3   2.0000     -15.539301      -422.8459
   4   2.0000     -11.312985      -307.8420
   5   2.0000     -11.300290      -307.4965
   6   2.0000     -11.295633      -307.3698
   7   2.0000     -11.284363      -307.0631
   8   2.0000     -11.258422      -306.3572
   9   2.0000      -1.406258       -38.2662
  10   2.0000      -1.372814       -37.3562
  11   2.0000      -1.274802       -34.6891
  12   2.0000      -1.182114       -32.1669
  13   2.0000      -1.013934       -27.5906
  14   2.0000      -0.973170       -26.4813
  15   2.0000      -0.924546       -25.1582
  16   2.0000      -0.796362       -21.6701
  17   2.0000      -0.760903       -20.7052
  18   2.0000      -0.733317       -19.9546
  19   2.0000      -0.706730       -19.2311
  20   2.0000      -0.677487       -18.4354
  21   2.0000      -0.659453       -17.9446
  22   2.0000      -0.621987       -16.9251
  23   2.0000      -0.604658       -16.4536
  24   2.0000      -0.586977       -15.9725
  25   2.0000      -0.574139       -15.6231
  26   2.0000      -0.566661       -15.4196
  27   2.0000      -0.543280       -14.7834
  28   2.0000      -0.508241       -13.8299
  29   2.0000      -0.478988       -13.0339
  30   2.0000      -0.443905       -12.0793
  31   2.0000      -0.434177       -11.8146
  32   2.0000      -0.398863       -10.8536
  33   2.0000      -0.362655        -9.8684
  34   0.0000       0.127147         3.4599
  35   0.0000       0.136377         3.7110
  36   0.0000       0.156812         4.2671
  37   0.0000       0.175214         4.7678
  38   0.0000       0.189050         5.1443

MULLIKEN ATOMIC CHARGES
-----------------------
   0 N :   -0.512928
   1 C :    0.122777
   2 N :   -0.256344
   3 C :   -0.136568
   4 C :    0.146947
   5 O :   -0.455039
   6 C :   -0.044687
   7 O :   -0.339020
   8 C :    0.074550
   9 H :    0.263727
  10 H :    0.256785
  11 H :    0.100180
  12 H :    0.123043
  13 H :    0.320902
  14 H :    0.114967
  15 H :    0.101567
  16 H :    0.119141
Sum of atomic charges:   -0.0000000

LOEWDIN ATOMIC CHARGES
----------------------
   0 N :   -0.040852
   1 C :   -0.356579
   2 N :    0.085376
   3 C :   -0.254833
   4 C :   -0.343141
   5 O :    0.023731
   6 C :   -0.215917
   7 O :    0.131012
   8 C :   -0.212097
   9 H :    0.175456
  10 H :    0.174320
  11 H :    0.128979
  12 H :    0.134831
  13 H :    0.179574
  14 H :    0.127494
  15 H :    0.122652
  16 H :    0.139993

  Mayer bond orders larger than 0.1
B(  0-N ,  1-C ) :   1.1066 B(  0-N ,  9-H ) :   0.8709 B(  0-N , 10-H ) :   0.8677
B(  1-C ,  2-N ) :   1.7954 B(  1-C ,  8-C ) :   0.8941 B(  2-N ,  3-C ) :   0.9731
B(  3-C ,  4-C ) :   0.9722 B(  3-C , 11-H ) :   0.9193 B(  3-C , 12-H ) :   0.9100
B(  4-C ,  5-O ) :   1.0279 B(  4-C ,  6-C ) :   0.9593 B(  4-C ,  8-C ) :   0.9433
B(  5-O , 13-H ) :   0.8354 B(  6-C ,  7-O ) :   0.9455 B(  6-C , 14-H ) :   0.9081
B(  6-C , 15-H ) :   0.9067 B(  7-O ,  8-C ) :   0.9363 B(  8-C , 16-H ) :   0.8965

MP2 TOTAL ENERGY:     -454.404668100 Eh
FINAL SINGLE POINT ENERGY      -454.404668099861

DIPOLE MOMENT
-------------
                                X             Y             Z
Electronic contribution:      0.94092       1.03352       0.31731
Nuclear contribution   :     -0.98725      -0.83596      -0.09686
                        -----------------------------------------
Total Dipole Moment    :     -0.04633       0.19756       0.22045
                        -----------------------------------------
Magnitude (a.u.)       :      0.29963
Magnitude (Debye)      :      0.76159

                             ****ORCA TERMINATED NORMALLY****
TOTAL RUN TIME: 0 days 0 hours 16 minutes 1 seconds 797 msec
