                         Program Version 3.0.3 - RELEASE   -
|  1> ! RI-MP2 RIJK def2-TZVP def2-TZVP/C def2-TZVP/JK TIGHTSCF
|  2> % maxcore 2000
|  3> % mp2 density relaxed end
|  4> *xyz 0 1
|  5>  C        0.0454371396     1.5238334877    -0.0223705863
|  6>  C        0.0427966552     0.0184525653     0.0167418428
|  7>  C        0.0805215826    -0.7250487488    -1.1634028941
|  8>  N        0.0816746711    -2.0554674795    -1.2359735047
|  9>  C        0.0436090267    -2.7390913158    -0.0851943338
| 10>  C        0.0457356778    -4.2423117908    -0.1926724194
| 11>  C        0.0040097012    -2.0906080541     1.1499245314
| 12>  C        0.0028961717    -0.6991036751     1.2229750645
| 13>  C       -0.0397418076     0.0064217051     2.5530679470
| 14>  H        0.9086748066     1.9439194223     0.5077419928
| 15>  H        0.0793011000     1.8870108801    -1.0529621946
| 16>  H       -0.8496722893     1.9455170421     0.4505278778
| 17>  H        0.1120340494    -0.1991484286    -2.1171762065
| 18>  H        0.9422478410    -4.5860551579    -0.7187183546
| 19>  H        0.0133899976    -4.7197596633     0.7898632984
| 20>  H       -0.8153761932    -4.5844620559    -0.7758011340
| 21>  H       -0.0262543354    -2.6766572582     2.0636890804
| 22>  H        0.8356437237     0.6517882857     2.6914538929
| 23>  H       -0.9210991510     0.6533841720     2.6342923241
| 24>  H       -0.0672917478    -0.7073687325     3.3798292058
| 25> *
| 26>
| 27>                          ****END OF INPUT****

CARTESIAN COORDINATES (ANGSTROEM)
---------------------------------
  C      0.045437    1.523833   -0.022371
  C      0.042797    0.018453    0.016742
  C      0.080522   -0.725049   -1.163403
  N      0.081675   -2.055467   -1.235974
  C      0.043609   -2.739091   -0.085194
  C      0.045736   -4.242312   -0.192672
  C      0.004010   -2.090608    1.149925
  C      0.002896   -0.699104    1.222975
  C     -0.039742    0.006422    2.553068
  H      0.908675    1.943919    0.507742
  H      0.079301    1.887011   -1.052962
  H     -0.849672    1.945517    0.450528
  H      0.112034   -0.199148   -2.117176
  H      0.942248   -4.586055   -0.718718
  H      0.013390   -4.719760    0.789863
  H     -0.815376   -4.584462   -0.775801
  H     -0.026254   -2.676657    2.063689
  H      0.835644    0.651788    2.691454
  H     -0.921099    0.653384    2.634292
  H     -0.067292   -0.707369    3.379829

 Total Charge           Charge          ....    0
 Multiplicity           Mult            ....    1
 Number of Electrons    NEL             ....   66
 Basis Dimension        Dim             ....  345

ORBITAL ENERGIES
----------------

  NO   OCC          E(Eh)            E(eV)
   0   2.0000     -15.546996      -423.0553
   1   2.0000     -11.269572      -306.6606
   2   2.0000     -11.260696      -306.4191
   3   2.0000     -11.255461      -306.2767
   4   2.0000     -11.233227      -305.6716
   5   2.0000     -11.233165      -305.6700
   6   2.0000     -11.227897      -305.5266
   7   2.0000     -11.224648      -305.4382
   8   2.0000     -11.217429      -305.2418
   9   2.0000      -1.249282       -33.9947
  10   2.0000      -1.110279       -30.2122
  11   2.0000      -1.057059       -28.7640
  12   2.0000      -0.992173       -26.9984
  13   2.0000      -0.954615       -25.9764
  14   2.0000      -0.906630       -24.6706
  15   2.0000      -0.834561       -22.7096
  16   2.0000      -0.782770       -21.3003
  17   2.0000      -0.684045       -18.6138
  18   2.0000      -0.657320       -17.8866
  19   2.0000      -0.621812       -16.9204
  20   2.0000      -0.602065       -16.3830
  21   2.0000      -0.573296       -15.6002
  22   2.0000      -0.566845       -15.4246
  23   2.0000      -0.558220       -15.1899
  24   2.0000      -0.555535       -15.1169
  25   2.0000      -0.550414       -14.9775
  26   2.0000      -0.535881       -14.5821
  27   2.0000      -0.527126       -14.3438
  28   2.0000      -0.498002       -13.5513
  29   2.0000      -0.490967       -13.3599
  30   2.0000      -0.403760       -10.9869
  31   2.0000      -0.360415        -9.8074
  32   2.0000      -0.322205        -8.7677
  33   0.0000       0.113013         3.0752
  34   0.0000       0.130945         3.5632
  35   0.0000       0.133841         3.6420
  36   0.0000       0.154927         4.2158
  37   0.0000       0.167013         4.5447

MULLIKEN ATOMIC CHARGES
-----------------------
   0 C :   -0.412289
   1 C :    0.106603
   2 C :   -0.109021
   3 N :   -0.255454
   4 C :    0.212504
   5 C :   -0.422928
   6 C :   -0.227320
   7 C :    0.043552
   8 C :   -0.429916
   9 H :    0.142804
  10 H :    0.141596
  11 H :    0.142804
  12 H :    0.112229
  13 H :    0.141626
  14 H :    0.126888
  15 H :    0.141624
  16 H :    0.116262
  17 H :    0.143991
  18 H :    0.143991
  19 H :    0.140455
Sum of atomic charges:   -0.0000000

LOEWDIN ATOMIC CHARGES
----------------------
   0 C :   -0.261774
   1 C :   -0.149595
   2 C :   -0.197723
   3 N :    0.154709
   4 C :   -0.248591
   5 C :   -0.270265
   6 C :   -0.101551
   7 C :   -0.139283
   8 C :   -0.258765
   9 H :    0.131882
  10 H :    0.131866
  11 H :    0.131882
  12 H :    0.139099
  13 H :    0.133371
  14 H :    0.124121
  15 H :    0.133371
  16 H :    0.150405
  17 H :    0.133477
  18 H :    0.133477
  19 H :    0.129889

  Mayer bond orders larger than 0.1
B(  0-C ,  1-C ) :   0.8786 B(  0-C ,  9-H ) :   0.9347 B(  0-C , 10-H ) :   0.9389
B(  0-C , 11-H ) :   0.9347 B(  1-C ,  2-C ) :   1.3019 B(  1-C ,  7-C ) :   1.2897
B(  2-C ,  3-N ) :   1.4502 B(  2-C , 12-H ) :   0.9574 B(  3-N ,  4-C ) :   1.3195
B(  4-C ,  5-C ) :   0.8673 B(  4-C ,  6-C ) :   1.3526 B(  5-C , 13-H ) :   0.9297
B(  5-C , 14-H ) :   0.9554 B(  5-C , 15-H ) :   0.9297 B(  6-C ,  7-C ) :   1.3562
B(  6-C , 16-H ) :   0.9111 B(  7-C ,  8-C ) :   0.8806 B(  8-C , 17-H ) :   0.9343
B(  8-C , 18-H ) :   0.9343 B(  8-C , 19-H ) :   0.9457

MP2 TOTAL ENERGY:     -365.417801735 Eh
FINAL SINGLE POINT ENERGY      -365.417801735079

DIPOLE MOMENT
-------------
                                X             Y             Z
Electronic contribution:      0.11970      -2.22779      -3.74050
Nuclear contribution   :     -0.14722       2.74182       4.60061
                        -----------------------------------------
Total Dipole Moment    :     -0.02752       0.51404       0.86012
                        -----------------------------------------
Magnitude (a.u.)       :      1.00239
Magnitude (Debye)      :      2.54788

                             ****ORCA TERMINATED NORMALLY****
TOTAL RUN TIME: 0 days 0 hours 19 minutes 46 seconds 964 msec
