                         Program Version 3.0.3 - RELEASE   -
|  1> ! RI-MP2 RIJK def2-TZVP def2-TZVP/C def2-TZVP/JK TIGHTSCF
|  2> % maxcore 2000
|  3> % mp2 density relaxed end
|  4> *xyz 0 1
|  5>  C       -0.0875458008     1.5722865744    -0.0697793126
|  6>  C        0.0621271184     0.0531182153     0.0285419255
|  7>  C        0.7134653580    -0.5736366536    -1.2313965852
|  8>  C        1.5043617931    -1.7817659641    -0.7070833435
|  9>  C        2.0736935869    -1.2427578988     0.6097484037
| 10>  C        0.9000146113    -0.4756464271     1.2359430654
| 11>  C        1.2287957338     0.4087920600     2.4639663409
| 12>  C        0.4614167711    -0.6520232866     3.2714821070
| 13>  O        0.0836977705    -1.3556689906     2.0744495048
| 14>  H        0.8883548545     2.0699227618    -0.1155350603
| 15>  H       -0.6353003140     1.8421544254    -0.9789646345
| 16>  H       -0.6388334688     1.9893534610     0.7788775805
| 17>  H       -0.9317003755    -0.3858334645     0.1690554660
| 18>  H       -0.0251990223    -0.8322753846    -1.9955182264
| 19>  H        1.4062396109     0.1474243618    -1.6855683795
| 20>  H        0.8290034060    -2.6202273377    -0.5005962875
| 21>  H        2.2703418007    -2.1344378075    -1.4032294929
| 22>  H        2.4590949784    -2.0074580567     1.2893920296
| 23>  H        2.8880583376    -0.5358663563     0.3982949991
| 24>  H        2.2919849056     0.5124880841     2.6907333652
| 25>  H        0.7690672702     1.3976849404     2.4602654530
| 26>  H        1.0804244988    -1.2688993783     3.9364008428
| 27>  H       -0.4128321344    -0.3014348779     3.8330168490
| 28> *
| 29>
| 30>                          ****END OF INPUT****

CARTESIAN COORDINATES (ANGSTROEM)
---------------------------------
  C     -0.087546    1.572287   -0.069779
  C      0.062127    0.053118    0.028542
  C      0.713465   -0.573637   -1.231397
  C      1.504362   -1.781766   -0.707083
  C      2.073694   -1.242758    0.609748
  C      0.900015   -0.475646    1.235943
  C      1.228796    0.408792    2.463966
  C      0.461417   -0.652023    3.271482
  O      0.083698   -1.355669    2.074450
  H      0.888355    2.069923   -0.115535
  H     -0.635300    1.842154   -0.978965
  H     -0.638833    1.989353    0.778878
  H     -0.931700   -0.385833    0.169055
  H     -0.025199   -0.832275   -1.995518
  H      1.406240    0.147424   -1.685568
  H      0.829003   -2.620227   -0.500596
  H      2.270342   -2.134438   -1.403229
  H      2.459095   -2.007458    1.289392
  H      2.888058   -0.535866    0.398295
  H      2.291985    0.512488    2.690733
  H      0.769067    1.397685    2.460265
  H      1.080424   -1.268899    3.936401
  H     -0.412832   -0.301435    3.833017

 Total Charge           Charge          ....    0
 Multiplicity           Mult            ....    1
 Number of Electrons    NEL             ....   70
 Basis Dimension        Dim             ....  363

ORBITAL ENERGIES
----------------

  NO   OCC          E(Eh)            E(eV)
   0   2.0000     -20.535403      -558.7967
   1   2.0000     -11.279527      -306.9315
   2   2.0000     -11.271422      -306.7110
   3   2.0000     -11.223383      -305.4038
   4   2.0000     -11.220528      -305.3261
   5   2.0000     -11.214768      -305.1694
   6   2.0000     -11.214268      -305.1558
   7   2.0000     -11.214002      -305.1485
   8   2.0000     -11.213056      -305.1228
   9   2.0000      -1.367177       -37.2028
  10   2.0000      -1.116920       -30.3929
  11   2.0000      -1.010260       -27.4906
  12   2.0000      -1.004077       -27.3223
  13   2.0000      -0.944918       -25.7125
  14   2.0000      -0.891833       -24.2680
  15   2.0000      -0.822369       -22.3778
  16   2.0000      -0.782362       -21.2892
  17   2.0000      -0.710726       -19.3398
  18   2.0000      -0.669298       -18.2125
  19   2.0000      -0.659662       -17.9503
  20   2.0000      -0.631237       -17.1768
  21   2.0000      -0.596898       -16.2424
  22   2.0000      -0.585951       -15.9445
  23   2.0000      -0.582898       -15.8615
  24   2.0000      -0.560525       -15.2527
  25   2.0000      -0.538184       -14.6447
  26   2.0000      -0.519963       -14.1489
  27   2.0000      -0.491432       -13.3725
  28   2.0000      -0.487109       -13.2549
  29   2.0000      -0.471828       -12.8391
  30   2.0000      -0.455974       -12.4077
  31   2.0000      -0.453769       -12.3477
  32   2.0000      -0.447521       -12.1777
  33   2.0000      -0.432836       -11.7781
  34   2.0000      -0.392207       -10.6725
  35   0.0000       0.133079         3.6213
  36   0.0000       0.152590         4.1522
  37   0.0000       0.161571         4.3966
  38   0.0000       0.164454         4.4750
  39   0.0000       0.186079         5.0635

MULLIKEN ATOMIC CHARGES
-----------------------
   0 C :   -0.440535
   1 C :   -0.070149
   2 C :   -0.234248
   3 C :   -0.214332
   4 C :   -0.268007
   5 C :    0.244041
   6 C :   -0.284519
   7 C :   -0.023609
   8 O :   -0.347343
   9 H :    0.128555
  10 H :    0.139847
  11 H :    0.132894
  12 H :    0.106810
  13 H :    0.120877
  14 H :    0.104195
  15 H :    0.116457
  16 H :    0.121304
  17 H :    0.123858
  18 H :    0.107537
  19 H :    0.124347
  20 H :    0.125080
  21 H :    0.089813
  22 H :    0.097127
Sum of atomic charges:   -0.0000000

LOEWDIN ATOMIC CHARGES
----------------------
   0 C :   -0.298483
   1 C :   -0.227062
   2 C :   -0.234847
   3 C :   -0.256546
   4 C :   -0.221047
   5 C :   -0.265014
   6 C :   -0.210581
   7 C :   -0.281165
   8 O :    0.143732
   9 H :    0.123118
  10 H :    0.126564
  11 H :    0.120704
  12 H :    0.160755
  13 H :    0.132876
  14 H :    0.137464
  15 H :    0.141632
  16 H :    0.131097
  17 H :    0.139949
  18 H :    0.142921
  19 H :    0.131719
  20 H :    0.132774
  21 H :    0.114734
  22 H :    0.114707

  Mayer bond orders larger than 0.1
B(  0-C ,  1-C ) :   0.8861 B(  0-C ,  9-H ) :   0.9337 B(  0-C , 10-H ) :   0.9382
B(  0-C , 11-H ) :   0.9441 B(  1-C ,  2-C ) :   0.9280 B(  1-C ,  5-C ) :   0.8888
B(  1-C , 12-H ) :   0.9284 B(  2-C ,  3-C ) :   0.9383 B(  2-C , 13-H ) :   0.9281
B(  2-C , 14-H ) :   0.9230 B(  3-C ,  4-C ) :   0.9505 B(  3-C , 15-H ) :   0.9242
B(  3-C , 16-H ) :   0.9308 B(  4-C ,  5-C ) :   0.9295 B(  4-C , 17-H ) :   0.9162
B(  4-C , 18-H ) :   0.9240 B(  5-C ,  6-C ) :   0.8660 B(  5-C ,  8-O ) :   0.9283
B(  6-C ,  7-C ) :   0.9959 B(  6-C , 19-H ) :   0.9221 B(  6-C , 20-H ) :   0.9243
B(  7-C ,  8-O ) :   0.9540 B(  7-C , 21-H ) :   0.9134 B(  7-C , 22-H ) :   0.9177

MP2 TOTAL ENERGY:     -387.619509441 Eh
FINAL SINGLE POINT ENERGY      -387.619509440506

DIPOLE MOMENT
-------------
                                X             Y             Z
Electronic contribution:     -1.11181      -3.31919       3.06724
Nuclear contribution   :      1.47780       3.83595      -3.04198
                        -----------------------------------------
Total Dipole Moment    :      0.36599       0.51676       0.02526
                        -----------------------------------------
Magnitude (a.u.)       :      0.63374
Magnitude (Debye)      :      1.61085

                             ****ORCA TERMINATED NORMALLY****
TOTAL RUN TIME: 0 days 0 hours 21 minutes 10 seconds 518 msec
