                         Program Version 3.0.3 - RELEASE   -
|  1> ! RI-MP2 RIJK def2-TZVP def2-TZVP/C def2-TZVP/JK TIGHTSCF
|  2> % maxcore 2000
|  3> % mp2 density relaxed end
|  4> *xyz 0 1
|  5>  C       -0.1313821288     1.4439513552     0.3377162305
|  6>  C       -0.0631812644    -0.0429098699    -0.0261746455
|  7>  C        0.7408647033    -0.4201606455    -1.2811707843
|  8>  C        0.3588686588     0.2834277599    -2.6079534503
|  9>  O        1.7252187419     0.6708820449    -2.8480739471
| 10>  C        2.1160558276     0.2537920477    -1.5209990198
| 11>  C        0.8237349242    -1.9575505945    -1.3809089990
| 12>  C        1.4197541135    -2.5240022277    -2.6724574979
| 13>  O        1.6065238333    -2.3612210258    -0.2545551783
| 14>  H        0.8524310089     1.8503086129     0.5908423442
| 15>  H       -0.5445035333     2.0552627785    -0.4708308378
| 16>  H       -0.7743651360     1.5839241600     1.2123406611
| 17>  H        0.3504605162    -0.6028466835     0.8182186318
| 18>  H       -1.0861341973    -0.4207444989    -0.1664111262
| 19>  H       -0.0475080165    -0.3360998874    -3.4152084794
| 20>  H       -0.2944330622     1.1566069236    -2.4813005192
| 21>  H        2.3308285393     1.1132878914    -0.8752791160
| 22>  H        2.9870888284    -0.4084724057    -1.5272548913
| 23>  H       -0.2033418022    -2.3495212183    -1.2772722981
| 24>  H        1.5115345775    -3.6129530465    -2.5820743804
| 25>  H        0.7802263209    -2.3294492787    -3.5370724058
| 26>  H        2.4121947125    -2.1159057905    -2.8770653153
| 27>  H        1.7138386643    -3.3163868212    -0.2926333758
| 28> *
| 29>
| 30>                          ****END OF INPUT****

CARTESIAN COORDINATES (ANGSTROEM)
---------------------------------
  C     -0.131382    1.443951    0.337716
  C     -0.063181   -0.042910   -0.026175
  C      0.740865   -0.420161   -1.281171
  C      0.358869    0.283428   -2.607953
  O      1.725219    0.670882   -2.848074
  C      2.116056    0.253792   -1.520999
  C      0.823735   -1.957551   -1.380909
  C      1.419754   -2.524002   -2.672457
  O      1.606524   -2.361221   -0.254555
  H      0.852431    1.850309    0.590842
  H     -0.544504    2.055263   -0.470831
  H     -0.774365    1.583924    1.212341
  H      0.350461   -0.602847    0.818219
  H     -1.086134   -0.420744   -0.166411
  H     -0.047508   -0.336100   -3.415208
  H     -0.294433    1.156607   -2.481301
  H      2.330829    1.113288   -0.875279
  H      2.987089   -0.408472   -1.527255
  H     -0.203342   -2.349521   -1.277272
  H      1.511535   -3.612953   -2.582074
  H      0.780226   -2.329449   -3.537072
  H      2.412195   -2.115906   -2.877065
  H      1.713839   -3.316387   -0.292633

 Total Charge           Charge          ....    0
 Multiplicity           Mult            ....    1
 Number of Electrons    NEL             ....   72
 Basis Dimension        Dim             ....  363

ORBITAL ENERGIES
----------------

  NO   OCC          E(Eh)            E(eV)
   0   2.0000     -20.558011      -559.4119
   1   2.0000     -20.541947      -558.9748
   2   2.0000     -11.286743      -307.1279
   3   2.0000     -11.272265      -306.7339
   4   2.0000     -11.267307      -306.5990
   5   2.0000     -11.237454      -305.7867
   6   2.0000     -11.220780      -305.3330
   7   2.0000     -11.220043      -305.3129
   8   2.0000     -11.213879      -305.1452
   9   2.0000      -1.374036       -37.3894
  10   2.0000      -1.362791       -37.0834
  11   2.0000      -1.085047       -29.5256
  12   2.0000      -1.015936       -27.6450
  13   2.0000      -0.957150       -26.0454
  14   2.0000      -0.929927       -25.3046
  15   2.0000      -0.868743       -23.6397
  16   2.0000      -0.828354       -22.5407
  17   2.0000      -0.725766       -19.7491
  18   2.0000      -0.703387       -19.1401
  19   2.0000      -0.677773       -18.4431
  20   2.0000      -0.642658       -17.4876
  21   2.0000      -0.623477       -16.9657
  22   2.0000      -0.613530       -16.6950
  23   2.0000      -0.581718       -15.8294
  24   2.0000      -0.570180       -15.5154
  25   2.0000      -0.562075       -15.2948
  26   2.0000      -0.547609       -14.9012
  27   2.0000      -0.545163       -14.8346
  28   2.0000      -0.522358       -14.2141
  29   2.0000      -0.507606       -13.8127
  30   2.0000      -0.502393       -13.6708
  31   2.0000      -0.461954       -12.5704
  32   2.0000      -0.457211       -12.4414
  33   2.0000      -0.437125       -11.8948
  34   2.0000      -0.425697       -11.5838
  35   2.0000      -0.406251       -11.0546
  36   0.0000       0.128864         3.5066
  37   0.0000       0.149284         4.0622
  38   0.0000       0.162723         4.4279
  39   0.0000       0.170623         4.6429
  40   0.0000       0.193082         5.2540

MULLIKEN ATOMIC CHARGES
-----------------------
   0 C :   -0.398103
   1 C :   -0.255857
   2 C :    0.178517
   3 C :   -0.058936
   4 O :   -0.339227
   5 C :   -0.072089
   6 C :   -0.004828
   7 C :   -0.392338
   8 O :   -0.467034
   9 H :    0.125475
  10 H :    0.122134
  11 H :    0.138063
  12 H :    0.145303
  13 H :    0.106535
  14 H :    0.092186
  15 H :    0.091690
  16 H :    0.091755
  17 H :    0.109463
  18 H :    0.081139
  19 H :    0.122298
  20 H :    0.123154
  21 H :    0.149587
  22 H :    0.311112
Sum of atomic charges:   -0.0000000

LOEWDIN ATOMIC CHARGES
----------------------
   0 C :   -0.316601
   1 C :   -0.254210
   2 C :   -0.249125
   3 C :   -0.233795
   4 O :    0.114097
   5 C :   -0.227452
   6 C :   -0.331097
   7 C :   -0.296249
   8 O :   -0.016721
   9 H :    0.119471
  10 H :    0.118269
  11 H :    0.123766
  12 H :    0.148921
  13 H :    0.141440
  14 H :    0.115776
  15 H :    0.117960
  16 H :    0.118497
  17 H :    0.119884
  18 H :    0.137806
  19 H :    0.120896
  20 H :    0.125774
  21 H :    0.130402
  22 H :    0.172290

  Mayer bond orders larger than 0.1
B(  0-C ,  1-C ) :   0.9225 B(  0-C ,  9-H ) :   0.9399 B(  0-C , 10-H ) :   0.9386
B(  0-C , 11-H ) :   0.9408 B(  1-C ,  2-C ) :   0.9066 B(  1-C , 12-H ) :   0.9328
B(  1-C , 13-H ) :   0.9251 B(  2-C ,  3-C ) :   0.9402 B(  2-C ,  5-C ) :   0.9430
B(  2-C ,  6-C ) :   0.8837 B(  3-C ,  4-O ) :   0.9456 B(  3-C , 14-H ) :   0.9155
B(  3-C , 15-H ) :   0.8983 B(  4-O ,  5-C ) :   0.9415 B(  5-C , 16-H ) :   0.9084
B(  5-C , 17-H ) :   0.9084 B(  6-C ,  7-C ) :   0.9399 B(  6-C ,  8-O ) :   0.9915
B(  6-C , 18-H ) :   0.9294 B(  7-C , 19-H ) :   0.9324 B(  7-C , 20-H ) :   0.9319
B(  7-C , 21-H ) :   0.9302 B(  8-O , 22-H ) :   0.8453

MP2 TOTAL ENERGY:     -424.703699671 Eh
FINAL SINGLE POINT ENERGY      -424.703699671241

DIPOLE MOMENT
-------------
                                X             Y             Z
Electronic contribution:      2.84696      -0.60460      -1.75487
Nuclear contribution   :     -3.38200      -0.15801       1.97181
                        -----------------------------------------
Total Dipole Moment    :     -0.53504      -0.76261       0.21694
                        -----------------------------------------
Magnitude (a.u.)       :      0.95650
Magnitude (Debye)      :      2.43124

                             ****ORCA TERMINATED NORMALLY****
TOTAL RUN TIME: 0 days 0 hours 19 minutes 48 seconds 568 msec
