                         Program Version 3.0.3 - RELEASE   -
|  1> ! RI-MP2 RIJK def2-TZVP def2-TZVP/C def2-TZVP/JK TIGHTSCF
|  2> % maxcore 2000
|  3> % mp2 density relaxed end
|  4> *xyz 0 1
|  5>  C       -0.0187042452     1.5897301522     0.1013330932
|  6>  C        1.5333889151     1.3431477226    -0.0392272894
|  7>  C        1.8389981710     0.6008096758     1.2653745468
|  8>  N        0.9028372609    -0.5405935195     1.0935680445
|  9>  C        1.4046376383    -1.2709776639    -0.1501796276
| 10>  C        0.1270749317    -2.0533240028    -0.5239463060
| 11>  C       -0.8609112511    -1.1577044375    -0.3908855857
| 12>  C       -0.0703815094     0.0685317509    -0.0035504730
| 13>  C        1.1975076656     0.0714785754    -0.9043346442
| 14>  H       -0.3857347086     2.0871334377     1.0038979645
| 15>  H       -0.4405634615     2.0619908018    -0.7898206256
| 16>  H        2.2007749555     2.1316039656    -0.3850723413
| 17>  H        2.8726498564     0.2506996218     1.3469467188
| 18>  H        1.5888432877     1.1672322788     2.1676147792
| 19>  H        2.3435894957    -1.8249240984    -0.0729216875
| 20>  H        0.0786378901    -3.1033405599    -0.7729314908
| 21>  H       -1.9285511199    -1.2671914716    -0.5057264690
| 22>  H        1.1258177375     0.1585675113    -1.9894433169
| 23> *
| 24>
| 25>                          ****END OF INPUT****

CARTESIAN COORDINATES (ANGSTROEM)
---------------------------------
  C     -0.018704    1.589730    0.101333
  C      1.533389    1.343148   -0.039227
  C      1.838998    0.600810    1.265375
  N      0.902837   -0.540594    1.093568
  C      1.404638   -1.270978   -0.150180
  C      0.127075   -2.053324   -0.523946
  C     -0.860911   -1.157704   -0.390886
  C     -0.070382    0.068532   -0.003550
  C      1.197508    0.071479   -0.904335
  H     -0.385735    2.087133    1.003898
  H     -0.440563    2.061991   -0.789821
  H      2.200775    2.131604   -0.385072
  H      2.872650    0.250700    1.346947
  H      1.588843    1.167232    2.167615
  H      2.343589   -1.824924   -0.072922
  H      0.078638   -3.103341   -0.772931
  H     -1.928551   -1.267191   -0.505726
  H      1.125818    0.158568   -1.989443

 Total Charge           Charge          ....    0
 Multiplicity           Mult            ....    1
 Number of Electrons    NEL             ....   64
 Basis Dimension        Dim             ....  333

ORBITAL ENERGIES
----------------

  NO   OCC          E(Eh)            E(eV)
   0   2.0000     -15.549380      -423.1202
   1   2.0000     -11.269532      -306.6596
   2   2.0000     -11.266299      -306.5716
   3   2.0000     -11.241444      -305.8952
   4   2.0000     -11.239291      -305.8367
   5   2.0000     -11.237278      -305.7819
   6   2.0000     -11.232350      -305.6478
   7   2.0000     -11.230413      -305.5951
   8   2.0000     -11.227846      -305.5252
   9   2.0000      -1.296471       -35.2788
  10   2.0000      -1.095566       -29.8119
  11   2.0000      -1.056098       -28.7379
  12   2.0000      -0.947090       -25.7716
  13   2.0000      -0.927585       -25.2409
  14   2.0000      -0.862559       -23.4714
  15   2.0000      -0.770537       -20.9674
  16   2.0000      -0.737981       -20.0815
  17   2.0000      -0.717768       -19.5315
  18   2.0000      -0.683609       -18.6019
  19   2.0000      -0.645861       -17.5748
  20   2.0000      -0.626737       -17.0544
  21   2.0000      -0.587333       -15.9821
  22   2.0000      -0.559451       -15.2234
  23   2.0000      -0.535307       -14.5665
  24   2.0000      -0.503692       -13.7062
  25   2.0000      -0.495286       -13.4774
  26   2.0000      -0.476413       -12.9639
  27   2.0000      -0.457304       -12.4439
  28   2.0000      -0.439501       -11.9594
  29   2.0000      -0.394640       -10.7387
  30   2.0000      -0.378275       -10.2934
  31   2.0000      -0.326972        -8.8974
  32   0.0000       0.134104         3.6492
  33   0.0000       0.150571         4.0972
  34   0.0000       0.160102         4.3566
  35   0.0000       0.172774         4.7014
  36   0.0000       0.176688         4.8079

MULLIKEN ATOMIC CHARGES
-----------------------
   0 C :   -0.214278
   1 C :   -0.102309
   2 C :   -0.164052
   3 N :   -0.189257
   4 C :   -0.030014
   5 C :   -0.172599
   6 C :   -0.277041
   7 C :    0.131781
   8 C :   -0.117826
   9 H :    0.125491
  10 H :    0.126821
  11 H :    0.131317
  12 H :    0.120843
  13 H :    0.118070
  14 H :    0.123301
  15 H :    0.137931
  16 H :    0.139630
  17 H :    0.112193
Sum of atomic charges:   -0.0000000

LOEWDIN ATOMIC CHARGES
----------------------
   0 C :   -0.179882
   1 C :   -0.193369
   2 C :   -0.257039
   3 N :    0.146546
   4 C :   -0.196486
   5 C :   -0.119449
   6 C :   -0.112444
   7 C :   -0.179482
   8 C :   -0.113887
   9 H :    0.129667
  10 H :    0.145571
  11 H :    0.131960
  12 H :    0.132090
  13 H :    0.130192
  14 H :    0.128172
  15 H :    0.133841
  16 H :    0.136732
  17 H :    0.137268

  Mayer bond orders larger than 0.1
B(  0-C ,  1-C ) :   0.9087 B(  0-C ,  7-C ) :   0.9023 B(  0-C ,  9-H ) :   0.9155
B(  0-C , 10-H ) :   0.9125 B(  1-C ,  2-C ) :   0.9383 B(  1-C ,  8-C ) :   0.8804
B(  1-C , 11-H ) :   0.9039 B(  2-C ,  3-N ) :   0.9400 B(  2-C , 12-H ) :   0.9331
B(  2-C , 13-H ) :   0.9250 B(  3-N ,  4-C ) :   0.9227 B(  3-N ,  7-C ) :   0.8371
B(  4-C ,  5-C ) :   0.9569 B(  4-C ,  8-C ) :   0.9144 B(  4-C , 14-H ) :   0.8951
B(  5-C ,  6-C ) :   1.7712 B(  5-C , 15-H ) :   0.9259 B(  6-C ,  7-C ) :   0.9334
B(  6-C , 16-H ) :   0.9303 B(  7-C ,  8-C ) :   0.8886 B(  8-C , 17-H ) :   0.9136

MP2 TOTAL ENERGY:     -364.066223597 Eh
FINAL SINGLE POINT ENERGY      -364.066223597484

DIPOLE MOMENT
-------------
                                X             Y             Z
Electronic contribution:     -1.01310      -2.25135       0.00144
Nuclear contribution   :      1.18297       2.66252      -0.52818
                        -----------------------------------------
Total Dipole Moment    :      0.16987       0.41116      -0.52674
                        -----------------------------------------
Magnitude (a.u.)       :      0.68947
Magnitude (Debye)      :      1.75250

                             ****ORCA TERMINATED NORMALLY****
TOTAL RUN TIME: 0 days 0 hours 20 minutes 27 seconds 911 msec
