                         Program Version 3.0.3 - RELEASE   -
|  1> ! RI-MP2 RIJK def2-TZVP def2-TZVP/C def2-TZVP/JK TIGHTSCF
|  2> % maxcore 2000
|  3> % mp2 density relaxed end
|  4> *xyz 0 1
|  5>  C        0.3308987602     1.5799544391     0.0701367884
|  6>  N        0.1187325192     0.1389776003     0.1063812312
|  7>  C        0.6498365962    -0.5153068149     1.2901375331
|  8>  C        0.0781704577    -1.9470593074     1.3879343659
|  9>  N       -1.3798679265    -1.8739010392     1.4863079802
| 10>  C        2.1216119302    -0.5669581001     1.2419705366
| 11>  N        3.2759285713    -0.6139181337     1.2261279296
| 12>  H        1.4013225707     1.7952654394    -0.0120766290
| 13>  H       -0.1606995238     1.9922864031    -0.8148876689
| 14>  H       -0.0520469603     2.1122939481     0.9594110819
| 15>  H       -0.8725311797    -0.0835545507     0.0875566865
| 16>  H        0.3907846695     0.0197684891     2.2272658586
| 17>  H        0.3372132231    -2.4735083215     0.4650235501
| 18>  H        0.5674710813    -2.4695362064     2.2219404115
| 19>  H       -1.7965404346    -2.7625164252     1.2334692420
| 20>  H       -1.6652124646    -1.6772710200     2.4405922925
| 21> *
| 22>
| 23>                          ****END OF INPUT****

CARTESIAN COORDINATES (ANGSTROEM)
---------------------------------
  C      0.330899    1.579954    0.070137
  N      0.118733    0.138978    0.106381
  C      0.649837   -0.515307    1.290138
  C      0.078170   -1.947059    1.387934
  N     -1.379868   -1.873901    1.486308
  C      2.121612   -0.566958    1.241971
  N      3.275929   -0.613918    1.226128
  H      1.401323    1.795265   -0.012077
  H     -0.160700    1.992286   -0.814888
  H     -0.052047    2.112294    0.959411
  H     -0.872531   -0.083555    0.087557
  H      0.390785    0.019768    2.227266
  H      0.337213   -2.473508    0.465024
  H      0.567471   -2.469536    2.221940
  H     -1.796540   -2.762516    1.233469
  H     -1.665212   -1.677271    2.440592

 Total Charge           Charge          ....    0
 Multiplicity           Mult            ....    1
 Number of Electrons    NEL             ....   54
 Basis Dimension        Dim             ....  271

ORBITAL ENERGIES
----------------

  NO   OCC          E(Eh)            E(eV)
   0   2.0000     -15.568003      -423.6269
   1   2.0000     -15.566513      -423.5863
   2   2.0000     -15.557558      -423.3427
   3   2.0000     -11.307643      -307.6966
   4   2.0000     -11.280088      -306.9468
   5   2.0000     -11.266744      -306.5837
   6   2.0000     -11.251342      -306.1646
   7   2.0000      -1.248589       -33.9758
   8   2.0000      -1.208110       -32.8743
   9   2.0000      -1.191481       -32.4218
  10   2.0000      -1.025848       -27.9147
  11   2.0000      -0.902565       -24.5600
  12   2.0000      -0.872171       -23.7330
  13   2.0000      -0.726749       -19.7758
  14   2.0000      -0.681097       -18.5336
  15   2.0000      -0.660516       -17.9736
  16   2.0000      -0.652730       -17.7617
  17   2.0000      -0.611614       -16.6428
  18   2.0000      -0.587410       -15.9842
  19   2.0000      -0.554287       -15.0829
  20   2.0000      -0.544150       -14.8071
  21   2.0000      -0.530366       -14.4320
  22   2.0000      -0.529133       -14.3984
  23   2.0000      -0.462518       -12.5858
  24   2.0000      -0.455036       -12.3821
  25   2.0000      -0.425665       -11.5829
  26   2.0000      -0.390419       -10.6238
  27   0.0000       0.113297         3.0830
  28   0.0000       0.144219         3.9244
  29   0.0000       0.156180         4.2499
  30   0.0000       0.163974         4.4620
  31   0.0000       0.185425         5.0457

MULLIKEN ATOMIC CHARGES
-----------------------
   0 C :   -0.310162
   1 N :   -0.345534
   2 C :    0.169707
   3 C :   -0.160242
   4 N :   -0.568416
   5 C :   -0.220385
   6 N :   -0.056260
   7 H :    0.150033
   8 H :    0.140345
   9 H :    0.107625
  10 H :    0.231415
  11 H :    0.107484
  12 H :    0.138881
  13 H :    0.130787
  14 H :    0.247786
  15 H :    0.236935
Sum of atomic charges:   -0.0000000

LOEWDIN ATOMIC CHARGES
----------------------
   0 C :   -0.344309
   1 N :   -0.016783
   2 C :   -0.312088
   3 C :   -0.299906
   4 N :   -0.178224
   5 C :   -0.166706
   6 N :    0.063013
   7 H :    0.121698
   8 H :    0.118503
   9 H :    0.100214
  10 H :    0.176110
  11 H :    0.154593
  12 H :    0.142508
  13 H :    0.127585
  14 H :    0.157988
  15 H :    0.155805

  Mayer bond orders larger than 0.1
B(  0-C ,  1-N ) :   0.9184 B(  0-C ,  7-H ) :   0.9365 B(  0-C ,  8-H ) :   0.9375
B(  0-C ,  9-H ) :   0.9288 B(  1-N ,  2-C ) :   0.9521 B(  1-N , 10-H ) :   0.8616
B(  2-C ,  3-C ) :   0.8609 B(  2-C ,  5-C ) :   0.8916 B(  2-C , 11-H ) :   0.9166
B(  3-C ,  4-N ) :   0.9711 B(  3-C , 12-H ) :   0.9315 B(  3-C , 13-H ) :   0.9448
B(  4-N , 14-H ) :   0.8900 B(  4-N , 15-H ) :   0.8884 B(  5-C ,  6-N ) :   2.8843

MP2 TOTAL ENERGY:     -321.408503117 Eh
FINAL SINGLE POINT ENERGY      -321.408503117180

DIPOLE MOMENT
-------------
                                X             Y             Z
Electronic contribution:      5.48632      -1.55255       0.53444
Nuclear contribution   :     -7.23392       1.25787       0.06228
                        -----------------------------------------
Total Dipole Moment    :     -1.74760      -0.29468       0.59672
                        -----------------------------------------
Magnitude (a.u.)       :      1.87003
Magnitude (Debye)      :      4.75324

                             ****ORCA TERMINATED NORMALLY****
TOTAL RUN TIME: 0 days 0 hours 8 minutes 24 seconds 853 msec
