                         Program Version 3.0.3 - RELEASE   -
|  1> ! RI-MP2 RIJK def2-TZVP def2-TZVP/C def2-TZVP/JK TIGHTSCF
|  2> % maxcore 2000
|  3> % mp2 density relaxed end
|  4> *xyz 0 1
|  5>  N        0.0995617741    -1.0843830755    -0.0837697206
|  6>  C        0.0416862493     0.0707442491    -0.0279045407
|  7>  C       -0.0397469054     1.4896144552     0.0413639829
|  8>  C       -1.1336477386     2.3522781541     0.6788704294
|  9>  C       -0.4540189639     3.5299752450    -0.0569875635
| 10>  N        0.8607692055     3.6306762640     0.6780851914
| 11>  C        1.2201474083     2.3902801391    -0.0366391447
| 12>  C        0.1724174810     2.5035745104    -1.0929734225
| 13>  H       -2.1120087127     2.1101318763     0.2592799720
| 14>  H       -1.1753882911     2.4188608271     1.7683093571
| 15>  H       -0.9800779766     4.4552339909    -0.2755391024
| 16>  H        1.3964125875     4.3814886459     0.2420307483
| 17>  H        2.2141646681     1.9632583202    -0.0559778536
| 18>  H        0.1468316446     2.3572572381    -2.1643610132
| 19> *
| 20>
| 21>                          ****END OF INPUT****

CARTESIAN COORDINATES (ANGSTROEM)
---------------------------------
  N      0.099562   -1.084383   -0.083770
  C      0.041686    0.070744   -0.027905
  C     -0.039747    1.489614    0.041364
  C     -1.133648    2.352278    0.678870
  C     -0.454019    3.529975   -0.056988
  N      0.860769    3.630676    0.678085
  C      1.220147    2.390280   -0.036639
  C      0.172417    2.503575   -1.092973
  H     -2.112009    2.110132    0.259280
  H     -1.175388    2.418861    1.768309
  H     -0.980078    4.455234   -0.275539
  H      1.396413    4.381489    0.242031
  H      2.214165    1.963258   -0.055978
  H      0.146832    2.357257   -2.164361

 Total Charge           Charge          ....    0
 Multiplicity           Mult            ....    1
 Number of Electrons    NEL             ....   56
 Basis Dimension        Dim             ....  284

ORBITAL ENERGIES
----------------

  NO   OCC          E(Eh)            E(eV)
   0   2.0000     -15.572794      -423.7573
   1   2.0000     -15.569332      -423.6631
   2   2.0000     -11.300564      -307.5040
   3   2.0000     -11.297626      -307.4240
   4   2.0000     -11.291169      -307.2483
   5   2.0000     -11.274990      -306.8081
   6   2.0000     -11.271696      -306.7184
   7   2.0000     -11.255631      -306.2813
   8   2.0000      -1.319374       -35.9020
   9   2.0000      -1.215806       -33.0838
  10   2.0000      -1.117178       -30.4000
  11   2.0000      -1.007443       -27.4139
  12   2.0000      -0.928563       -25.2675
  13   2.0000      -0.843152       -22.9433
  14   2.0000      -0.775374       -21.0990
  15   2.0000      -0.756837       -20.5946
  16   2.0000      -0.656977       -17.8773
  17   2.0000      -0.637675       -17.3520
  18   2.0000      -0.622739       -16.9456
  19   2.0000      -0.572155       -15.5691
  20   2.0000      -0.560648       -15.2560
  21   2.0000      -0.538236       -14.6461
  22   2.0000      -0.515467       -14.0266
  23   2.0000      -0.506945       -13.7947
  24   2.0000      -0.468472       -12.7478
  25   2.0000      -0.439712       -11.9652
  26   2.0000      -0.400053       -10.8860
  27   2.0000      -0.383458       -10.4344
  28   0.0000       0.129227         3.5164
  29   0.0000       0.139837         3.8052
  30   0.0000       0.147477         4.0131
  31   0.0000       0.159137         4.3303
  32   0.0000       0.174043         4.7360

MULLIKEN ATOMIC CHARGES
-----------------------
   0 N :   -0.045778
   1 C :   -0.268532
   2 C :    0.123826
   3 C :   -0.162057
   4 C :   -0.022501
   5 N :   -0.334114
   6 C :   -0.077029
   7 C :   -0.164495
   8 H :    0.135230
   9 H :    0.130213
  10 H :    0.152387
  11 H :    0.212498
  12 H :    0.156694
  13 H :    0.163659
Sum of atomic charges:   -0.0000000

LOEWDIN ATOMIC CHARGES
----------------------
   0 N :    0.068325
   1 C :   -0.160089
   2 C :   -0.180511
   3 C :   -0.155221
   4 C :   -0.183486
   5 N :    0.008963
   6 C :   -0.176480
   7 C :   -0.094056
   8 H :    0.147509
   9 H :    0.136574
  10 H :    0.131322
  11 H :    0.173025
  12 H :    0.144152
  13 H :    0.139973

  Mayer bond orders larger than 0.1
B(  0-N ,  1-C ) :   2.8871 B(  1-C ,  2-C ) :   0.8763 B(  2-C ,  3-C ) :   0.9227
B(  2-C ,  6-C ) :   0.8027 B(  2-C ,  7-C ) :   0.8018 B(  3-C ,  4-C ) :   0.9288
B(  3-C ,  8-H ) :   0.9316 B(  3-C ,  9-H ) :   0.9123 B(  4-C ,  5-N ) :   0.9302
B(  4-C ,  7-C ) :   0.9659 B(  4-C , 10-H ) :   0.9105 B(  5-N ,  6-C ) :   0.9508
B(  5-N , 11-H ) :   0.8707 B(  6-C ,  7-C ) :   0.9170 B(  6-C , 12-H ) :   0.9232
B(  7-C , 13-H ) :   0.8989

MP2 TOTAL ENERGY:     -340.916204952 Eh
FINAL SINGLE POINT ENERGY      -340.916204951745

DIPOLE MOMENT
-------------
                                X             Y             Z
Electronic contribution:      0.95510      -4.17316      -0.29559
Nuclear contribution   :     -1.03748       5.88943      -0.32378
                        -----------------------------------------
Total Dipole Moment    :     -0.08238       1.71626      -0.61937
                        -----------------------------------------
Magnitude (a.u.)       :      1.82646
Magnitude (Debye)      :      4.64250

                             ****ORCA TERMINATED NORMALLY****
TOTAL RUN TIME: 0 days 0 hours 11 minutes 34 seconds 773 msec
