                         Program Version 3.0.3 - RELEASE   -
|  1> ! RI-MP2 RIJK def2-TZVP def2-TZVP/C def2-TZVP/JK TIGHTSCF
|  2> % maxcore 2000
|  3> % mp2 density relaxed end
|  4> *xyz 0 1
|  5>  O        0.2248671368     1.1187459202    -0.6843117962
|  6>  C       -0.0360113835     0.1068807049     0.2620559277
|  7>  C       -1.3908857004    -0.5044900595     0.0621109797
|  8>  C       -2.2642131459    -0.4837764786    -0.9786345366
|  9>  C       -3.3527327140    -1.2678232708    -0.5008147712
| 10>  N       -3.1470451249    -1.7175045435     0.7234440343
| 11>  O       -1.9056404515    -1.2274962094     1.0748498879
| 12>  C       -4.5619216489    -1.5818744286    -1.1868710256
| 13>  N       -5.5284197047    -1.8118500478    -1.7778957289
| 14>  H       -0.3528450661     1.8657799138    -0.4944229070
| 15>  H        0.7364092293    -0.6570315000     0.1165597462
| 16>  H        0.0522912128     0.4549904012     1.3015134440
| 17>  H       -2.1538936188    -0.0044744019    -1.9351798144
| 18> *
| 19>
| 20>                          ****END OF INPUT****

CARTESIAN COORDINATES (ANGSTROEM)
---------------------------------
  O      0.224867    1.118746   -0.684312
  C     -0.036011    0.106881    0.262056
  C     -1.390886   -0.504490    0.062111
  C     -2.264213   -0.483776   -0.978635
  C     -3.352733   -1.267823   -0.500815
  N     -3.147045   -1.717505    0.723444
  O     -1.905640   -1.227496    1.074850
  C     -4.561922   -1.581874   -1.186871
  N     -5.528420   -1.811850   -1.777896
  H     -0.352845    1.865780   -0.494423
  H      0.736409   -0.657031    0.116560
  H      0.052291    0.454990    1.301513
  H     -2.153894   -0.004474   -1.935180

 Total Charge           Charge          ....    0
 Multiplicity           Mult            ....    1
 Number of Electrons    NEL             ....   64
 Basis Dimension        Dim             ....  303

ORBITAL ENERGIES
----------------

  NO   OCC          E(Eh)            E(eV)
   0   2.0000     -20.683949      -562.8389
   1   2.0000     -20.599506      -560.5410
   2   2.0000     -15.667590      -426.3368
   3   2.0000     -15.601811      -424.5469
   4   2.0000     -11.350265      -308.8564
   5   2.0000     -11.343148      -308.6628
   6   2.0000     -11.331269      -308.3395
   7   2.0000     -11.300357      -307.4983
   8   2.0000     -11.271805      -306.7214
   9   2.0000      -1.537032       -41.8248
  10   2.0000      -1.406808       -38.2812
  11   2.0000      -1.250890       -34.0384
  12   2.0000      -1.204161       -32.7669
  13   2.0000      -1.121586       -30.5199
  14   2.0000      -0.990148       -26.9433
  15   2.0000      -0.927216       -25.2308
  16   2.0000      -0.845853       -23.0168
  17   2.0000      -0.773714       -21.0538
  18   2.0000      -0.735102       -20.0031
  19   2.0000      -0.702776       -19.1235
  20   2.0000      -0.684962       -18.6388
  21   2.0000      -0.643963       -17.5231
  22   2.0000      -0.641246       -17.4492
  23   2.0000      -0.608847       -16.5676
  24   2.0000      -0.581999       -15.8370
  25   2.0000      -0.558570       -15.1995
  26   2.0000      -0.538438       -14.6516
  27   2.0000      -0.527551       -14.3554
  28   2.0000      -0.500657       -13.6236
  29   2.0000      -0.489286       -13.3141
  30   2.0000      -0.437047       -11.8927
  31   2.0000      -0.392414       -10.6781
  32   0.0000       0.066574         1.8116
  33   0.0000       0.111896         3.0448
  34   0.0000       0.137241         3.7345
  35   0.0000       0.151220         4.1149
  36   0.0000       0.155334         4.2269

MULLIKEN ATOMIC CHARGES
-----------------------
   0 O :   -0.459374
   1 C :   -0.045203
   2 C :    0.098495
   3 C :   -0.255321
   4 C :    0.286635
   5 N :   -0.111225
   6 O :   -0.087238
   7 C :   -0.196746
   8 N :   -0.033278
   9 H :    0.327615
  10 H :    0.148103
  11 H :    0.149152
  12 H :    0.178384
Sum of atomic charges:   -0.0000000

LOEWDIN ATOMIC CHARGES
----------------------
   0 O :   -0.020324
   1 C :   -0.307024
   2 C :   -0.268174
   3 C :   -0.115650
   4 C :   -0.277494
   5 N :    0.089274
   6 O :    0.313545
   7 C :   -0.137951
   8 N :    0.096694
   9 H :    0.182659
  10 H :    0.148317
  11 H :    0.135851
  12 H :    0.160278

  Mayer bond orders larger than 0.1
B(  0-O ,  1-C ) :   0.9354 B(  0-O ,  9-H ) :   0.8390 B(  1-C ,  2-C ) :   0.8506
B(  1-C , 10-H ) :   0.9103 B(  1-C , 11-H ) :   0.9613 B(  2-C ,  3-C ) :   1.5464
B(  2-C ,  5-N ) :   0.1056 B(  2-C ,  6-O ) :   1.1340 B(  3-C ,  4-C ) :   1.1666
B(  3-C , 12-H ) :   0.9154 B(  4-C ,  5-N ) :   1.5085 B(  4-C ,  7-C ) :   0.8906
B(  5-N ,  6-O ) :   0.9142 B(  7-C ,  8-N ) :   2.8410

MP2 TOTAL ENERGY:     -451.999877978 Eh
FINAL SINGLE POINT ENERGY      -451.999877978076

DIPOLE MOMENT
-------------
                                X             Y             Z
Electronic contribution:     -5.72407      -3.31195       0.10809
Nuclear contribution   :      7.16573       4.41860       0.20251
                        -----------------------------------------
Total Dipole Moment    :      1.44166       1.10665       0.31060
                        -----------------------------------------
Magnitude (a.u.)       :      1.84378
Magnitude (Debye)      :      4.68651

                             ****ORCA TERMINATED NORMALLY****
TOTAL RUN TIME: 0 days 0 hours 13 minutes 17 seconds 591 msec
