                         Program Version 3.0.3 - RELEASE   -
|  1> ! RI-MP2 RIJK def2-TZVP def2-TZVP/C def2-TZVP/JK TIGHTSCF
|  2> % maxcore 2000
|  3> % mp2 density relaxed end
|  4> *xyz 0 1
|  5>  C        0.4021167370     1.2737382090     0.2466049171
|  6>  C        0.2322902190    -0.2233292534    -0.0369042224
|  7>  C        0.6371480835    -0.7103581879    -1.4520568531
|  8>  C       -0.0795984783     0.0730432901    -2.5714041328
|  9>  C       -1.6117161127     0.0385966875    -2.5300053120
| 10>  C        2.1916490590    -0.6162605912    -1.6171574772
| 11>  C        2.6861357816    -2.0170610920    -1.3631976976
| 12>  C        1.6904566576    -2.8985385136    -1.3193469191
| 13>  C        0.3486891193    -2.2482061532    -1.5390931792
| 14>  H        1.4282491224     1.6154674069     0.0772970103
| 15>  H       -0.2556841277     1.8851303726    -0.3790273219
| 16>  H        0.1553800832     1.4930192753     1.2903620027
| 17>  H        0.8188861497    -0.7985610930     0.6909491481
| 18>  H       -0.8144672262    -0.4964550656     0.1434335412
| 19>  H        0.2577980546     1.1170061868    -2.5560030630
| 20>  H        0.2587298868    -0.3322846735    -3.5339370354
| 21>  H       -2.0323666279     0.5635563901    -3.3935079412
| 22>  H       -1.9927424004    -0.9878746294    -2.5514032011
| 23>  H       -2.0086362100     0.5190465981    -1.6303451058
| 24>  H        2.4674256603    -0.2838677608    -2.6283411475
| 25>  H        2.6378943777     0.1144594354    -0.9326405457
| 26>  H        3.7395982205    -2.2535302318    -1.2568978692
| 27>  H        1.8036564840    -3.9676891091    -1.1742494555
| 28>  H       -0.3994571788    -2.5679413802    -0.8031876290
| 29>  H       -0.0575010140    -2.5278715872    -2.5219871203
| 30> *
| 31>
| 32>                          ****END OF INPUT****

CARTESIAN COORDINATES (ANGSTROEM)
---------------------------------
  C      0.402117    1.273738    0.246605
  C      0.232290   -0.223329   -0.036904
  C      0.637148   -0.710358   -1.452057
  C     -0.079598    0.073043   -2.571404
  C     -1.611716    0.038597   -2.530005
  C      2.191649   -0.616261   -1.617157
  C      2.686136   -2.017061   -1.363198
  C      1.690457   -2.898539   -1.319347
  C      0.348689   -2.248206   -1.539093
  H      1.428249    1.615467    0.077297
  H     -0.255684    1.885130   -0.379027
  H      0.155380    1.493019    1.290362
  H      0.818886   -0.798561    0.690949
  H     -0.814467   -0.496455    0.143434
  H      0.257798    1.117006   -2.556003
  H      0.258730   -0.332285   -3.533937
  H     -2.032367    0.563556   -3.393508
  H     -1.992742   -0.987875   -2.551403
  H     -2.008636    0.519047   -1.630345
  H      2.467426   -0.283868   -2.628341
  H      2.637894    0.114459   -0.932641
  H      3.739598   -2.253530   -1.256898
  H      1.803656   -3.967689   -1.174249
  H     -0.399457   -2.567941   -0.803188
  H     -0.057501   -2.527872   -2.521987

 Total Charge           Charge          ....    0
 Multiplicity           Mult            ....    1
 Number of Electrons    NEL             ....   70
 Basis Dimension        Dim             ....  375

ORBITAL ENERGIES
----------------

  NO   OCC          E(Eh)            E(eV)
   0   2.0000     -11.230171      -305.5885
   1   2.0000     -11.217542      -305.2448
   2   2.0000     -11.216339      -305.2121
   3   2.0000     -11.215916      -305.2006
   4   2.0000     -11.215471      -305.1885
   5   2.0000     -11.214926      -305.1737
   6   2.0000     -11.213575      -305.1369
   7   2.0000     -11.209948      -305.0382
   8   2.0000     -11.209303      -305.0207
   9   2.0000      -1.140275       -31.0285
  10   2.0000      -1.051291       -28.6071
  11   2.0000      -1.006212       -27.3804
  12   2.0000      -0.954379       -25.9700
  13   2.0000      -0.938429       -25.5360
  14   2.0000      -0.844636       -22.9837
  15   2.0000      -0.836116       -22.7519
  16   2.0000      -0.725171       -19.7329
  17   2.0000      -0.721030       -19.6202
  18   2.0000      -0.662226       -18.0201
  19   2.0000      -0.627655       -17.0793
  20   2.0000      -0.619440       -16.8558
  21   2.0000      -0.575819       -15.6688
  22   2.0000      -0.566127       -15.4051
  23   2.0000      -0.556820       -15.1519
  24   2.0000      -0.539794       -14.6885
  25   2.0000      -0.525470       -14.2988
  26   2.0000      -0.520061       -14.1516
  27   2.0000      -0.506962       -13.7951
  28   2.0000      -0.492070       -13.3899
  29   2.0000      -0.485089       -13.1999
  30   2.0000      -0.482054       -13.1174
  31   2.0000      -0.437343       -11.9007
  32   2.0000      -0.436691       -11.8830
  33   2.0000      -0.431429       -11.7398
  34   2.0000      -0.338929        -9.2227
  35   0.0000       0.134102         3.6491
  36   0.0000       0.159771         4.3476
  37   0.0000       0.161986         4.4079
  38   0.0000       0.167643         4.5618
  39   0.0000       0.171322         4.6619

MULLIKEN ATOMIC CHARGES
-----------------------
   0 C :   -0.417561
   1 C :   -0.327592
   2 C :    0.259176
   3 C :   -0.292378
   4 C :   -0.416909
   5 C :   -0.204353
   6 C :   -0.192276
   7 C :   -0.192582
   8 C :   -0.220309
   9 H :    0.123604
  10 H :    0.130060
  11 H :    0.137379
  12 H :    0.136681
  13 H :    0.123331
  14 H :    0.127172
  15 H :    0.119139
  16 H :    0.136212
  17 H :    0.130515
  18 H :    0.130154
  19 H :    0.117305
  20 H :    0.113250
  21 H :    0.120738
  22 H :    0.120865
  23 H :    0.121980
  24 H :    0.116397
Sum of atomic charges:   -0.0000000

LOEWDIN ATOMIC CHARGES
----------------------
   0 C :   -0.317982
   1 C :   -0.253624
   2 C :   -0.240903
   3 C :   -0.260468
   4 C :   -0.315456
   5 C :   -0.199347
   6 C :   -0.165351
   7 C :   -0.165560
   8 C :   -0.201957
   9 H :    0.118255
  10 H :    0.119699
  11 H :    0.122623
  12 H :    0.146192
  13 H :    0.137924
  14 H :    0.139083
  15 H :    0.139781
  16 H :    0.121790
  17 H :    0.121624
  18 H :    0.120089
  19 H :    0.143139
  20 H :    0.138601
  21 H :    0.134427
  22 H :    0.134580
  23 H :    0.139942
  24 H :    0.142901

  Mayer bond orders larger than 0.1
B(  0-C ,  1-C ) :   0.9174 B(  0-C ,  9-H ) :   0.9384 B(  0-C , 10-H ) :   0.9388
B(  0-C , 11-H ) :   0.9410 B(  1-C ,  2-C ) :   0.8838 B(  1-C , 12-H ) :   0.9327
B(  1-C , 13-H ) :   0.9344 B(  2-C ,  3-C ) :   0.8763 B(  2-C ,  5-C ) :   0.8858
B(  2-C ,  8-C ) :   0.8832 B(  3-C ,  4-C ) :   0.9206 B(  3-C , 14-H ) :   0.9392
B(  3-C , 15-H ) :   0.9301 B(  4-C , 16-H ) :   0.9416 B(  4-C , 17-H ) :   0.9376
B(  4-C , 18-H ) :   0.9387 B(  5-C ,  6-C ) :   0.9536 B(  5-C , 19-H ) :   0.9091
B(  5-C , 20-H ) :   0.9176 B(  6-C ,  7-C ) :   1.8002 B(  6-C , 21-H ) :   0.9322
B(  7-C ,  8-C ) :   0.9538 B(  7-C , 22-H ) :   0.9317 B(  8-C , 23-H ) :   0.9183
B(  8-C , 24-H ) :   0.9106

MP2 TOTAL ENERGY:     -351.727168301 Eh
FINAL SINGLE POINT ENERGY      -351.727168301455

DIPOLE MOMENT
-------------
                                X             Y             Z
Electronic contribution:      4.47052      -4.93532      -0.43060
Nuclear contribution   :     -4.52579       4.99608       0.40688
                        -----------------------------------------
Total Dipole Moment    :     -0.05528       0.06076      -0.02372
                        -----------------------------------------
Magnitude (a.u.)       :      0.08550
Magnitude (Debye)      :      0.21732

                             ****ORCA TERMINATED NORMALLY****
TOTAL RUN TIME: 0 days 0 hours 20 minutes 32 seconds 533 msec
