                         Program Version 3.0.3 - RELEASE   -
|  1> ! RI-MP2 RIJK def2-TZVP def2-TZVP/C def2-TZVP/JK TIGHTSCF
|  2> % maxcore 2000
|  3> % mp2 density relaxed end
|  4> *xyz 0 1
|  5>  O        0.0490533370    -0.0746418296     0.0057560133
|  6>  C        0.0005614854     1.1307208257     0.0629359452
|  7>  C       -1.3170506544     1.8953952833     0.1327419305
|  8>  C       -1.3004513571     2.9930751706     1.2130135543
|  9>  C       -0.0837887595     3.9166834753     1.0476855068
| 10>  C        1.2048912330     3.1144119185     1.0782889590
| 11>  C        2.4605215539     3.7489509758     1.5434433323
| 12>  N        1.7804240384     2.7444666044     2.3863196356
| 13>  C        1.2551959936     2.0011069572     0.0385035646
| 14>  H       -1.4728043751     2.3649989958    -0.8500590236
| 15>  H       -2.1253213641     1.1767918381     0.2861440390
| 16>  H       -2.2285194384     3.5719368630     1.1676752408
| 17>  H       -1.2693267926     2.5239540360     2.2042537581
| 18>  H       -0.1590568401     4.4526070846     0.0910588590
| 19>  H       -0.0683673356     4.6795905818     1.8347467376
| 20>  H        3.4168690415     3.4300161367     1.1370890156
| 21>  H        2.4243089653     4.7937383581     1.8432205666
| 22>  H        1.2757972462     3.2123249824     3.1362972012
| 23>  H        2.1285366735     1.3635674191     0.1851580135
| 24>  H        1.3210877791     2.4520038932    -0.9630530992
| 25> *
| 26>
| 27>                          ****END OF INPUT****

CARTESIAN COORDINATES (ANGSTROEM)
---------------------------------
  O      0.049053   -0.074642    0.005756
  C      0.000561    1.130721    0.062936
  C     -1.317051    1.895395    0.132742
  C     -1.300451    2.993075    1.213014
  C     -0.083789    3.916683    1.047686
  C      1.204891    3.114412    1.078289
  C      2.460522    3.748951    1.543443
  N      1.780424    2.744467    2.386320
  C      1.255196    2.001107    0.038504
  H     -1.472804    2.364999   -0.850059
  H     -2.125321    1.176792    0.286144
  H     -2.228519    3.571937    1.167675
  H     -1.269327    2.523954    2.204254
  H     -0.159057    4.452607    0.091059
  H     -0.068367    4.679591    1.834747
  H      3.416869    3.430016    1.137089
  H      2.424309    4.793738    1.843221
  H      1.275797    3.212325    3.136297
  H      2.128537    1.363567    0.185158
  H      1.321088    2.452004   -0.963053

 Total Charge           Charge          ....    0
 Multiplicity           Mult            ....    1
 Number of Electrons    NEL             ....   68
 Basis Dimension        Dim             ....  345

ORBITAL ENERGIES
----------------

  NO   OCC          E(Eh)            E(eV)
   0   2.0000     -20.540200      -558.9273
   1   2.0000     -15.562649      -423.4812
   2   2.0000     -11.324911      -308.1665
   3   2.0000     -11.277823      -306.8852
   4   2.0000     -11.261207      -306.4330
   5   2.0000     -11.243778      -305.9587
   6   2.0000     -11.242333      -305.9194
   7   2.0000     -11.238152      -305.8057
   8   2.0000     -11.236609      -305.7637
   9   2.0000      -1.383675       -37.6517
  10   2.0000      -1.272652       -34.6306
  11   2.0000      -1.106217       -30.1017
  12   2.0000      -1.012640       -27.5553
  13   2.0000      -0.986234       -26.8368
  14   2.0000      -0.892168       -24.2771
  15   2.0000      -0.849877       -23.1263
  16   2.0000      -0.790408       -21.5081
  17   2.0000      -0.726832       -19.7781
  18   2.0000      -0.684661       -18.6306
  19   2.0000      -0.662747       -18.0343
  20   2.0000      -0.645859       -17.5747
  21   2.0000      -0.620409       -16.8822
  22   2.0000      -0.618617       -16.8334
  23   2.0000      -0.582916       -15.8620
  24   2.0000      -0.568129       -15.4596
  25   2.0000      -0.563591       -15.3361
  26   2.0000      -0.515784       -14.0352
  27   2.0000      -0.509281       -13.8582
  28   2.0000      -0.495139       -13.4734
  29   2.0000      -0.480407       -13.0725
  30   2.0000      -0.467814       -12.7299
  31   2.0000      -0.460886       -12.5414
  32   2.0000      -0.413680       -11.2568
  33   2.0000      -0.380317       -10.3489
  34   0.0000       0.115838         3.1521
  35   0.0000       0.134851         3.6695
  36   0.0000       0.152635         4.1534
  37   0.0000       0.166474         4.5300
  38   0.0000       0.171589         4.6692

MULLIKEN ATOMIC CHARGES
-----------------------
   0 O :   -0.264827
   1 C :    0.125408
   2 C :   -0.204919
   3 C :   -0.226239
   4 C :   -0.233217
   5 C :    0.100422
   6 C :   -0.207660
   7 N :   -0.374499
   8 C :   -0.199140
   9 H :    0.121235
  10 H :    0.140056
  11 H :    0.130966
  12 H :    0.126591
  13 H :    0.116808
  14 H :    0.122408
  15 H :    0.123971
  16 H :    0.128156
  17 H :    0.213952
  18 H :    0.134490
  19 H :    0.126038
Sum of atomic charges:    0.0000000

LOEWDIN ATOMIC CHARGES
----------------------
   0 O :    0.154476
   1 C :   -0.315827
   2 C :   -0.227217
   3 C :   -0.252073
   4 C :   -0.229492
   5 C :   -0.309734
   6 C :   -0.243536
   7 N :    0.004820
   8 C :   -0.181567
   9 H :    0.152707
  10 H :    0.146913
  11 H :    0.138435
  12 H :    0.142496
  13 H :    0.146453
  14 H :    0.142712
  15 H :    0.127612
  16 H :    0.122958
  17 H :    0.164781
  18 H :    0.157242
  19 H :    0.157840

  Mayer bond orders larger than 0.1
B(  0-O ,  1-C ) :   2.0716 B(  1-C ,  2-C ) :   0.9134 B(  1-C ,  8-C ) :   0.9356
B(  2-C ,  3-C ) :   0.8950 B(  2-C ,  8-C ) :  -0.1089 B(  2-C ,  9-H ) :   0.9056
B(  2-C , 10-H ) :   0.9157 B(  3-C ,  4-C ) :   0.9165 B(  3-C , 11-H ) :   0.9286
B(  3-C , 12-H ) :   0.9289 B(  4-C ,  5-C ) :   0.9414 B(  4-C , 13-H ) :   0.9243
B(  4-C , 14-H ) :   0.9145 B(  5-C ,  6-C ) :   0.9279 B(  5-C ,  7-N ) :   0.8748
B(  5-C ,  8-C ) :   0.8664 B(  6-C ,  7-N ) :   0.9505 B(  6-C , 15-H ) :   0.9137
B(  6-C , 16-H ) :   0.9151 B(  7-N , 17-H ) :   0.8689 B(  8-C , 18-H ) :   0.8888
B(  8-C , 19-H ) :   0.9091

MP2 TOTAL ENERGY:     -402.470824161 Eh
FINAL SINGLE POINT ENERGY      -402.470824161300

DIPOLE MOMENT
-------------
                                X             Y             Z
Electronic contribution:      1.19048      -5.64892      -0.84070
Nuclear contribution   :     -1.54440       7.36827       0.77869
                        -----------------------------------------
Total Dipole Moment    :     -0.35391       1.71936      -0.06201
                        -----------------------------------------
Magnitude (a.u.)       :      1.75650
Magnitude (Debye)      :      4.46467

                             ****ORCA TERMINATED NORMALLY****
TOTAL RUN TIME: 0 days 0 hours 24 minutes 16 seconds 954 msec
