                         Program Version 3.0.3 - RELEASE   -
|  1> ! RI-MP2 RIJK def2-TZVP def2-TZVP/C def2-TZVP/JK TIGHTSCF
|  2> % maxcore 2000
|  3> % mp2 density relaxed end
|  4> *xyz 0 1
|  5>  O        0.0189820865     1.3732921722    -0.0807694059
|  6>  C        0.0164216363    -0.0368201837     0.0302323073
|  7>  C       -1.3842905416    -0.5596706345     0.1504109803
|  8>  C       -2.5184930439    -0.1989811072     1.1423586538
|  9>  C       -3.1105900901    -1.0074139492    -0.0307931931
| 10>  O       -2.3038244112    -0.1992485967    -0.9680491009
| 11>  C       -1.9329717372    -2.0276104835     0.0850011439
| 12>  C       -1.5966221798    -2.8443565000    -1.0584789541
| 13>  C       -1.3048783488    -3.5569224498    -1.9816954766
| 14>  H       -0.6007129308     1.5941474012    -0.7864034718
| 15>  H        0.5003716857    -0.5220969292    -0.8313010988
| 16>  H        0.5889810508    -0.2928474862     0.9280144391
| 17>  H       -2.5007330910    -0.6535695770     2.1357648974
| 18>  H       -2.7898937875     0.8553886326     1.1547678677
| 19>  H       -4.1475705156    -1.2029161873    -0.3007706879
| 20>  H       -1.8854901496    -2.5863560839     1.0243920362
| 21>  H       -1.0534497321    -4.1745454778    -2.8081198065
| 22> *
| 23>
| 24>                          ****END OF INPUT****

CARTESIAN COORDINATES (ANGSTROEM)
---------------------------------
  O      0.018982    1.373292   -0.080769
  C      0.016422   -0.036820    0.030232
  C     -1.384291   -0.559671    0.150411
  C     -2.518493   -0.198981    1.142359
  C     -3.110590   -1.007414   -0.030793
  O     -2.303824   -0.199249   -0.968049
  C     -1.932972   -2.027610    0.085001
  C     -1.596622   -2.844356   -1.058479
  C     -1.304878   -3.556922   -1.981695
  H     -0.600713    1.594147   -0.786403
  H      0.500372   -0.522097   -0.831301
  H      0.588981   -0.292847    0.928014
  H     -2.500733   -0.653570    2.135765
  H     -2.789894    0.855389    1.154768
  H     -4.147571   -1.202916   -0.300771
  H     -1.885490   -2.586356    1.024392
  H     -1.053450   -4.174545   -2.808120

 Total Charge           Charge          ....    0
 Multiplicity           Mult            ....    1
 Number of Electrons    NEL             ....   66
 Basis Dimension        Dim             ....  327

ORBITAL ENERGIES
----------------

  NO   OCC          E(Eh)            E(eV)
   0   2.0000     -20.560768      -559.4869
   1   2.0000     -20.560123      -559.4694
   2   2.0000     -11.319933      -308.0310
   3   2.0000     -11.318630      -307.9956
   4   2.0000     -11.287272      -307.1423
   5   2.0000     -11.277777      -306.8839
   6   2.0000     -11.248928      -306.0989
   7   2.0000     -11.238722      -305.8212
   8   2.0000     -11.228286      -305.5372
   9   2.0000      -1.412862       -38.4459
  10   2.0000      -1.364529       -37.1307
  11   2.0000      -1.106255       -30.1027
  12   2.0000      -1.039258       -28.2796
  13   2.0000      -0.988202       -26.8904
  14   2.0000      -0.945341       -25.7240
  15   2.0000      -0.850203       -23.1352
  16   2.0000      -0.787823       -21.4378
  17   2.0000      -0.722402       -19.6575
  18   2.0000      -0.714334       -19.4380
  19   2.0000      -0.670065       -18.2334
  20   2.0000      -0.662028       -18.0147
  21   2.0000      -0.645659       -17.5693
  22   2.0000      -0.622786       -16.9469
  23   2.0000      -0.567206       -15.4345
  24   2.0000      -0.547388       -14.8952
  25   2.0000      -0.542607       -14.7651
  26   2.0000      -0.503542       -13.7021
  27   2.0000      -0.499671       -13.5967
  28   2.0000      -0.482593       -13.1320
  29   2.0000      -0.443484       -12.0678
  30   2.0000      -0.430830       -11.7235
  31   2.0000      -0.392154       -10.6711
  32   2.0000      -0.381399       -10.3784
  33   0.0000       0.139868         3.8060
  34   0.0000       0.151824         4.1313
  35   0.0000       0.159006         4.3268
  36   0.0000       0.161678         4.3995
  37   0.0000       0.175945         4.7877

MULLIKEN ATOMIC CHARGES
-----------------------
   0 O :   -0.465940
   1 C :    0.004605
   2 C :   -0.047997
   3 C :   -0.090178
   4 C :   -0.049069
   5 O :   -0.337792
   6 C :   -0.130523
   7 C :   -0.038413
   8 C :   -0.139387
   9 H :    0.330201
  10 H :    0.127936
  11 H :    0.114829
  12 H :    0.119396
  13 H :    0.126011
  14 H :    0.149689
  15 H :    0.133780
  16 H :    0.192852
Sum of atomic charges:    0.0000000

LOEWDIN ATOMIC CHARGES
----------------------
   0 O :   -0.033312
   1 C :   -0.309242
   2 C :   -0.254389
   3 C :   -0.171762
   4 C :   -0.192536
   5 O :    0.144130
   6 C :   -0.155575
   7 C :   -0.088759
   8 C :   -0.085859
   9 H :    0.182391
  10 H :    0.133881
  11 H :    0.139448
  12 H :    0.131840
  13 H :    0.138553
  14 H :    0.128784
  15 H :    0.164741
  16 H :    0.127668

  Mayer bond orders larger than 0.1
B(  0-O ,  1-C ) :   0.9339 B(  0-O ,  9-H ) :   0.8319 B(  1-C ,  2-C ) :   0.8837
B(  1-C , 10-H ) :   0.9395 B(  1-C , 11-H ) :   0.9168 B(  2-C ,  3-C ) :   0.8815
B(  2-C ,  5-O ) :   0.9024 B(  2-C ,  6-C ) :   0.7890 B(  3-C ,  4-C ) :   0.9282
B(  3-C , 12-H ) :   0.9246 B(  3-C , 13-H ) :   0.9139 B(  4-C ,  5-O ) :   0.9256
B(  4-C ,  6-C ) :   0.8872 B(  4-C , 14-H ) :   0.8930 B(  5-O ,  6-C ) :  -0.1832
B(  6-C ,  7-C ) :   1.1638 B(  6-C ,  8-C ) :  -0.1366 B(  6-C , 15-H ) :   0.9091
B(  7-C ,  8-C ) :   2.6136 B(  8-C , 16-H ) :   0.8802

MP2 TOTAL ENERGY:     -421.008907472 Eh
FINAL SINGLE POINT ENERGY      -421.008907471582

DIPOLE MOMENT
-------------
                                X             Y             Z
Electronic contribution:     -0.72639      -0.79782      -2.23766
Nuclear contribution   :      0.38454       0.21279       2.66821
                        -----------------------------------------
Total Dipole Moment    :     -0.34185      -0.58503       0.43055
                        -----------------------------------------
Magnitude (a.u.)       :      0.80280
Magnitude (Debye)      :      2.04056

                             ****ORCA TERMINATED NORMALLY****
TOTAL RUN TIME: 0 days 0 hours 16 minutes 40 seconds 849 msec
