                         Program Version 3.0.3 - RELEASE   -
|  1> ! RI-MP2 RIJK def2-TZVP def2-TZVP/C def2-TZVP/JK TIGHTSCF
|  2> % maxcore 2000
|  3> % mp2 density relaxed end
|  4> *xyz 0 1
|  5>  C       -0.2378060860     1.5216630335    -0.1166183831
|  6>  C        0.0042260380     0.0114951579     0.0390755316
|  7>  C        0.8515806887    -0.2729857102     1.2844194049
|  8>  C       -1.3283872636    -0.7521044505     0.1060373235
|  9>  N        0.7429668170    -0.4601327167    -1.1590910454
| 10>  C        1.9434772005    -1.0500386850    -1.3084359171
| 11>  N        2.1605926901    -1.2798241796    -2.5865914113
| 12>  N        1.0596575802    -0.8147904217    -3.2291510489
| 13>  N        0.2068663357    -0.3237257857    -2.3913265115
| 14>  H        0.7102935853     2.0647964258    -0.1693823830
| 15>  H       -0.8048410864     1.7271350901    -1.0264763264
| 16>  H       -0.8023808621     1.8949466180     0.7424057771
| 17>  H        0.3084682285     0.0738741734     2.1671040481
| 18>  H        1.0418421155    -1.3431562566     1.4094733390
| 19>  H        1.8087853364     0.2560464332     1.2529659832
| 20>  H       -1.9129101869    -0.5831033299    -0.8002500799
| 21>  H       -1.1564729794    -1.8272512905     0.2117471895
| 22>  H       -1.9071757808    -0.4084593313     0.9679651592
| 23>  H        2.6131408395    -1.2920094042    -0.5020691297
| 24> *
| 25>
| 26>                          ****END OF INPUT****

CARTESIAN COORDINATES (ANGSTROEM)
---------------------------------
  C     -0.237806    1.521663   -0.116618
  C      0.004226    0.011495    0.039076
  C      0.851581   -0.272986    1.284419
  C     -1.328387   -0.752104    0.106037
  N      0.742967   -0.460133   -1.159091
  C      1.943477   -1.050039   -1.308436
  N      2.160593   -1.279824   -2.586591
  N      1.059658   -0.814790   -3.229151
  N      0.206866   -0.323726   -2.391327
  H      0.710294    2.064796   -0.169382
  H     -0.804841    1.727135   -1.026476
  H     -0.802381    1.894947    0.742406
  H      0.308468    0.073874    2.167104
  H      1.041842   -1.343156    1.409473
  H      1.808785    0.256046    1.252966
  H     -1.912910   -0.583103   -0.800250
  H     -1.156473   -1.827251    0.211747
  H     -1.907176   -0.408459    0.967965
  H      2.613141   -1.292009   -0.502069

 Total Charge           Charge          ....    0
 Multiplicity           Mult            ....    1
 Number of Electrons    NEL             ....   68
 Basis Dimension        Dim             ....  339

ORBITAL ENERGIES
----------------

  NO   OCC          E(Eh)            E(eV)
   0   2.0000     -15.664609      -426.2557
   1   2.0000     -15.643645      -425.6852
   2   2.0000     -15.633300      -425.4037
   3   2.0000     -15.588817      -424.1933
   4   2.0000     -11.319027      -308.0064
   5   2.0000     -11.315655      -307.9146
   6   2.0000     -11.251267      -306.1625
   7   2.0000     -11.237818      -305.7966
   8   2.0000     -11.237805      -305.7962
   9   2.0000      -1.477189       -40.1964
  10   2.0000      -1.261879       -34.3375
  11   2.0000      -1.178834       -32.0777
  12   2.0000      -1.105137       -30.0723
  13   2.0000      -0.973666       -26.4948
  14   2.0000      -0.962229       -26.1836
  15   2.0000      -0.893087       -24.3021
  16   2.0000      -0.871401       -23.7120
  17   2.0000      -0.803382       -21.8611
  18   2.0000      -0.717833       -19.5332
  19   2.0000      -0.679432       -18.4883
  20   2.0000      -0.653836       -17.7918
  21   2.0000      -0.624005       -16.9800
  22   2.0000      -0.620762       -16.8918
  23   2.0000      -0.583234       -15.8706
  24   2.0000      -0.569785       -15.5046
  25   2.0000      -0.565482       -15.3875
  26   2.0000      -0.544265       -14.8102
  27   2.0000      -0.541372       -14.7315
  28   2.0000      -0.512066       -13.9340
  29   2.0000      -0.504817       -13.7368
  30   2.0000      -0.461397       -12.5552
  31   2.0000      -0.455046       -12.3824
  32   2.0000      -0.419796       -11.4232
  33   2.0000      -0.403360       -10.9760
  34   0.0000       0.113819         3.0972
  35   0.0000       0.133512         3.6330
  36   0.0000       0.152435         4.1480
  37   0.0000       0.164170         4.4673
  38   0.0000       0.171091         4.6556

MULLIKEN ATOMIC CHARGES
-----------------------
   0 C :   -0.404474
   1 C :    0.074525
   2 C :   -0.428934
   3 C :   -0.404473
   4 N :    0.102558
   5 C :   -0.050948
   6 N :   -0.167670
   7 N :   -0.115298
   8 N :   -0.129918
   9 H :    0.140172
  10 H :    0.171476
  11 H :    0.133640
  12 H :    0.152003
  13 H :    0.153886
  14 H :    0.153864
  15 H :    0.171479
  16 H :    0.140178
  17 H :    0.133643
  18 H :    0.174291
Sum of atomic charges:   -0.0000000

LOEWDIN ATOMIC CHARGES
----------------------
   0 C :   -0.259450
   1 C :   -0.344958
   2 C :   -0.264451
   3 C :   -0.259446
   4 N :    0.212611
   5 C :   -0.332620
   6 N :    0.001906
   7 N :   -0.061620
   8 N :   -0.028676
   9 H :    0.130357
  10 H :    0.136038
  11 H :    0.131521
  12 H :    0.137746
  13 H :    0.130630
  14 H :    0.130625
  15 H :    0.136038
  16 H :    0.130359
  17 H :    0.131524
  18 H :    0.141868

  Mayer bond orders larger than 0.1
B(  0-C ,  1-C ) :   0.9321 B(  0-C ,  9-H ) :   0.9263 B(  0-C , 10-H ) :   0.9246
B(  0-C , 11-H ) :   0.9295 B(  1-C ,  2-C ) :   0.9010 B(  1-C ,  3-C ) :   0.9321
B(  1-C ,  4-N ) :   0.8170 B(  2-C , 12-H ) :   0.9292 B(  2-C , 13-H ) :   0.9315
B(  2-C , 14-H ) :   0.9315 B(  3-C , 15-H ) :   0.9245 B(  3-C , 16-H ) :   0.9263
B(  3-C , 17-H ) :   0.9295 B(  4-N ,  5-C ) :   1.2188 B(  4-N ,  8-N ) :   1.0177
B(  5-C ,  6-N ) :   1.5309 B(  5-C , 18-H ) :   0.9200 B(  6-N ,  7-N ) :   1.0909
B(  7-N ,  8-N ) :   1.2949

MP2 TOTAL ENERGY:     -414.685423604 Eh
FINAL SINGLE POINT ENERGY      -414.685423604456

DIPOLE MOMENT
-------------
                                X             Y             Z
Electronic contribution:      5.11592      -3.52615     -10.95200
Nuclear contribution   :     -5.52208       3.96033      13.39398
                        -----------------------------------------
Total Dipole Moment    :     -0.40616       0.43417       2.44198
                        -----------------------------------------
Magnitude (a.u.)       :      2.51331
Magnitude (Debye)      :      6.38833

                             ****ORCA TERMINATED NORMALLY****
TOTAL RUN TIME: 0 days 0 hours 18 minutes 39 seconds 798 msec
