                         Program Version 3.0.3 - RELEASE   -
|  1> ! RI-MP2 RIJK def2-TZVP def2-TZVP/C def2-TZVP/JK TIGHTSCF
|  2> % maxcore 2000
|  3> % mp2 density relaxed end
|  4> *xyz 0 1
|  5>  C       -0.0868324639     1.5149011994    -0.2531488418
|  6>  O        1.2484384973     2.0314490767    -0.1514610853
|  7>  C        2.1577386027     0.9918703035     0.0722627846
|  8>  C        1.4602923212    -0.2870161051    -0.3847731508
|  9>  C        0.0083910348     0.0038447315     0.0227017239
| 10>  C       -0.2590079325    -0.3566893997     1.4916852283
| 11>  N        0.5634284317     0.2062082565     2.5409266827
| 12>  C        1.7150636550     0.7102844943     2.4619028814
| 13>  O        2.5803004307     0.9610501786     1.4390791895
| 14>  H       -0.7262122476     2.0365123729     0.4671684696
| 15>  H       -0.4609614873     1.7212924791    -1.2634937467
| 16>  H        3.0829709299     1.2197524349    -0.4607309863
| 17>  H        1.5580861568    -0.3744212654    -1.4713318443
| 18>  H        1.8827278829    -1.1817972058     0.0765698821
| 19>  H       -0.7090864664    -0.5481047436    -0.5917492877
| 20>  H       -1.2995033378    -0.0993410842     1.7295259878
| 21>  H       -0.1992549007    -1.4497316780     1.5966077347
| 22>  H        2.2069176032     1.0239940744     3.3834153882
| 23> *
| 24>
| 25>                          ****END OF INPUT****

CARTESIAN COORDINATES (ANGSTROEM)
---------------------------------
  C     -0.086832    1.514901   -0.253149
  O      1.248438    2.031449   -0.151461
  C      2.157739    0.991870    0.072263
  C      1.460292   -0.287016   -0.384773
  C      0.008391    0.003845    0.022702
  C     -0.259008   -0.356689    1.491685
  N      0.563428    0.206208    2.540927
  C      1.715064    0.710284    2.461903
  O      2.580300    0.961050    1.439079
  H     -0.726212    2.036512    0.467168
  H     -0.460961    1.721292   -1.263494
  H      3.082971    1.219752   -0.460731
  H      1.558086   -0.374421   -1.471332
  H      1.882728   -1.181797    0.076570
  H     -0.709086   -0.548105   -0.591749
  H     -1.299503   -0.099341    1.729526
  H     -0.199255   -1.449732    1.596608
  H      2.206918    1.023994    3.383415

 Total Charge           Charge          ....    0
 Multiplicity           Mult            ....    1
 Number of Electrons    NEL             ....   68
 Basis Dimension        Dim             ....  333

ORBITAL ENERGIES
----------------

  NO   OCC          E(Eh)            E(eV)
   0   2.0000     -20.588708      -560.2472
   1   2.0000     -20.566975      -559.6559
   2   2.0000     -15.543997      -422.9737
   3   2.0000     -11.346250      -308.7472
   4   2.0000     -11.331998      -308.3594
   5   2.0000     -11.283038      -307.0271
   6   2.0000     -11.261103      -306.4302
   7   2.0000     -11.244499      -305.9784
   8   2.0000     -11.239916      -305.8537
   9   2.0000      -1.441186       -39.2167
  10   2.0000      -1.372946       -37.3597
  11   2.0000      -1.217212       -33.1220
  12   2.0000      -1.092660       -29.7328
  13   2.0000      -1.009678       -27.4747
  14   2.0000      -0.961844       -26.1731
  15   2.0000      -0.869679       -23.6652
  16   2.0000      -0.814237       -22.1565
  17   2.0000      -0.751281       -20.4434
  18   2.0000      -0.727575       -19.7983
  19   2.0000      -0.694137       -18.8884
  20   2.0000      -0.659333       -17.9414
  21   2.0000      -0.653371       -17.7791
  22   2.0000      -0.624162       -16.9843
  23   2.0000      -0.606899       -16.5146
  24   2.0000      -0.574479       -15.6324
  25   2.0000      -0.573587       -15.6081
  26   2.0000      -0.552884       -15.0447
  27   2.0000      -0.521274       -14.1846
  28   2.0000      -0.501137       -13.6366
  29   2.0000      -0.487990       -13.2789
  30   2.0000      -0.463309       -12.6073
  31   2.0000      -0.448383       -12.2011
  32   2.0000      -0.394687       -10.7400
  33   2.0000      -0.392484       -10.6800
  34   0.0000       0.125264         3.4086
  35   0.0000       0.160900         4.3783
  36   0.0000       0.165306         4.4982
  37   0.0000       0.173258         4.7146
  38   0.0000       0.186278         5.0689

MULLIKEN ATOMIC CHARGES
-----------------------
   0 C :   -0.055785
   1 O :   -0.302733
   2 C :    0.194529
   3 C :   -0.272776
   4 C :   -0.081685
   5 C :   -0.167151
   6 N :   -0.272532
   7 C :    0.082699
   8 O :   -0.258286
   9 H :    0.117710
  10 H :    0.107747
  11 H :    0.115532
  12 H :    0.133113
  13 H :    0.140201
  14 H :    0.116763
  15 H :    0.137754
  16 H :    0.131682
  17 H :    0.133220
Sum of atomic charges:   -0.0000000

LOEWDIN ATOMIC CHARGES
----------------------
   0 C :   -0.261399
   1 O :    0.186502
   2 C :   -0.379024
   3 C :   -0.215610
   4 C :   -0.262236
   5 C :   -0.286615
   6 N :    0.082410
   7 C :   -0.363269
   8 O :    0.230904
   9 H :    0.130932
  10 H :    0.123697
  11 H :    0.140419
  12 H :    0.148345
  13 H :    0.148089
  14 H :    0.156533
  15 H :    0.141341
  16 H :    0.144195
  17 H :    0.134784

  Mayer bond orders larger than 0.1
B(  0-C ,  1-O ) :   0.9129 B(  0-C ,  4-C ) :   0.9296 B(  0-C ,  9-H ) :   0.9226
B(  0-C , 10-H ) :   0.9239 B(  1-O ,  2-C ) :   1.0171 B(  2-C ,  3-C ) :   0.9527
B(  2-C ,  8-O ) :   0.9001 B(  2-C , 11-H ) :   0.9332 B(  3-C ,  4-C ) :   0.8884
B(  3-C , 12-H ) :   0.9142 B(  3-C , 13-H ) :   0.9258 B(  4-C ,  5-C ) :   0.9176
B(  4-C , 14-H ) :   0.9130 B(  5-C ,  6-N ) :   0.9325 B(  5-C , 15-H ) :   0.9353
B(  5-C , 16-H ) :   0.9258 B(  6-N ,  7-C ) :   1.8562 B(  7-C ,  8-O ) :   1.0497
B(  7-C , 17-H ) :   0.9275

MP2 TOTAL ENERGY:     -438.382494855 Eh
FINAL SINGLE POINT ENERGY      -438.382494854558

DIPOLE MOMENT
-------------
                                X             Y             Z
Electronic contribution:      3.58382       2.72071       2.53080
Nuclear contribution   :     -3.90568      -3.35906      -3.42723
                        -----------------------------------------
Total Dipole Moment    :     -0.32186      -0.63834      -0.89643
                        -----------------------------------------
Magnitude (a.u.)       :      1.14659
Magnitude (Debye)      :      2.91440

                             ****ORCA TERMINATED NORMALLY****
TOTAL RUN TIME: 0 days 0 hours 19 minutes 30 seconds 114 msec
