                         Program Version 3.0.3 - RELEASE   -
|  1> ! RI-MP2 RIJK def2-TZVP def2-TZVP/C def2-TZVP/JK TIGHTSCF
|  2> % maxcore 2000
|  3> % mp2 density relaxed end
|  4> *xyz 0 1
|  5>  C       -0.6080968744     1.4586774489    -0.0438392379
|  6>  C       -0.0316754544     0.0448970383    -0.0026796886
|  7>  O       -1.0578059165    -0.9103195851    -0.3008915034
|  8>  C        1.1787421253    -0.1846195079    -0.9300101172
|  9>  C        1.7843932412    -1.4530118235    -0.3325516202
| 10>  O        1.6007669577    -1.3284892594     1.0776185257
| 11>  C        0.5341600301    -0.4061431520     1.3625252061
| 12>  C        1.1280937287     0.6881966457     2.2520409808
| 13>  O        1.7987464158     0.1136454137     3.3527670645
| 14>  H        0.1390761934     2.2169251464     0.2055702858
| 15>  H       -0.9799740518     1.6823339407    -1.0506383680
| 16>  H       -1.4480387631     1.5499738604     0.6507333127
| 17>  H       -1.4068266977    -0.7039513486    -1.1751078268
| 18>  H        0.8804955340    -0.2958975690    -1.9766922282
| 19>  H        1.8796150665     0.6541372953    -0.8599575257
| 20>  H        1.2572764395    -2.3426301411    -0.7012058439
| 21>  H        2.8537192689    -1.5693040914    -0.5318078200
| 22>  H       -0.2479141521    -0.9393215052     1.9148642835
| 23>  H        1.8086139327     1.3220042086     1.6575565340
| 24>  H        0.3372850682     1.3303791839     2.6536654045
| 25>  H        2.3329489383    -0.5995757187     2.9796564024
| 26> *
| 27>
| 28>                          ****END OF INPUT****

CARTESIAN COORDINATES (ANGSTROEM)
---------------------------------
  C     -0.608097    1.458677   -0.043839
  C     -0.031675    0.044897   -0.002680
  O     -1.057806   -0.910320   -0.300892
  C      1.178742   -0.184620   -0.930010
  C      1.784393   -1.453012   -0.332552
  O      1.600767   -1.328489    1.077619
  C      0.534160   -0.406143    1.362525
  C      1.128094    0.688197    2.252041
  O      1.798746    0.113645    3.352767
  H      0.139076    2.216925    0.205570
  H     -0.979974    1.682334   -1.050638
  H     -1.448039    1.549974    0.650733
  H     -1.406827   -0.703951   -1.175108
  H      0.880496   -0.295898   -1.976692
  H      1.879615    0.654137   -0.859958
  H      1.257276   -2.342630   -0.701206
  H      2.853719   -1.569304   -0.531808
  H     -0.247914   -0.939322    1.914864
  H      1.808614    1.322004    1.657557
  H      0.337285    1.330379    2.653665
  H      2.332949   -0.599576    2.979656

 Total Charge           Charge          ....    0
 Multiplicity           Mult            ....    1
 Number of Electrons    NEL             ....   72
 Basis Dimension        Dim             ....  351

ORBITAL ENERGIES
----------------

  NO   OCC          E(Eh)            E(eV)
   0   2.0000     -20.564692      -559.5937
   1   2.0000     -20.556197      -559.3626
   2   2.0000     -20.543880      -559.0274
   3   2.0000     -11.300779      -307.5098
   4   2.0000     -11.277853      -306.8860
   5   2.0000     -11.277735      -306.8828
   6   2.0000     -11.272103      -306.7295
   7   2.0000     -11.235428      -305.7315
   8   2.0000     -11.232725      -305.6580
   9   2.0000      -1.393098       -37.9081
  10   2.0000      -1.365775       -37.1646
  11   2.0000      -1.344936       -36.5976
  12   2.0000      -1.075726       -29.2720
  13   2.0000      -1.027939       -27.9716
  14   2.0000      -0.962945       -26.2031
  15   2.0000      -0.893950       -24.3256
  16   2.0000      -0.830440       -22.5974
  17   2.0000      -0.771948       -21.0058
  18   2.0000      -0.706858       -19.2346
  19   2.0000      -0.684112       -18.6156
  20   2.0000      -0.667358       -18.1597
  21   2.0000      -0.662413       -18.0252
  22   2.0000      -0.632662       -17.2156
  23   2.0000      -0.600345       -16.3362
  24   2.0000      -0.596803       -16.2398
  25   2.0000      -0.575209       -15.6522
  26   2.0000      -0.571256       -15.5447
  27   2.0000      -0.550999       -14.9935
  28   2.0000      -0.537025       -14.6132
  29   2.0000      -0.524890       -14.2830
  30   2.0000      -0.506640       -13.7864
  31   2.0000      -0.483237       -13.1495
  32   2.0000      -0.463439       -12.6108
  33   2.0000      -0.450683       -12.2637
  34   2.0000      -0.441538       -12.0149
  35   2.0000      -0.411771       -11.2049
  36   0.0000       0.119246         3.2448
  37   0.0000       0.151060         4.1106
  38   0.0000       0.155628         4.2348
  39   0.0000       0.178426         4.8552
  40   0.0000       0.185403         5.0451

MULLIKEN ATOMIC CHARGES
-----------------------
   0 C :   -0.428713
   1 C :    0.177090
   2 O :   -0.463301
   3 C :   -0.312910
   4 C :    0.006998
   5 O :   -0.357603
   6 C :    0.089753
   7 C :   -0.042992
   8 O :   -0.476304
   9 H :    0.133272
  10 H :    0.128722
  11 H :    0.157756
  12 H :    0.311141
  13 H :    0.124358
  14 H :    0.112556
  15 H :    0.094591
  16 H :    0.113165
  17 H :    0.104364
  18 H :    0.090427
  19 H :    0.107814
  20 H :    0.329817
Sum of atomic charges:   -0.0000000

LOEWDIN ATOMIC CHARGES
----------------------
   0 C :   -0.275077
   1 C :   -0.376892
   2 O :    0.010464
   3 C :   -0.230520
   4 C :   -0.298694
   5 O :    0.152083
   6 C :   -0.270999
   7 C :   -0.335104
   8 O :   -0.042078
   9 H :    0.129883
  10 H :    0.126124
  11 H :    0.132406
  12 H :    0.173809
  13 H :    0.138527
  14 H :    0.142736
  15 H :    0.124283
  16 H :    0.124210
  17 H :    0.151164
  18 H :    0.115494
  19 H :    0.129689
  20 H :    0.178492

  Mayer bond orders larger than 0.1
B(  0-C ,  1-C ) :   0.9199 B(  0-C ,  9-H ) :   0.9263 B(  0-C , 10-H ) :   0.9228
B(  0-C , 11-H ) :   0.9476 B(  1-C ,  2-O ) :   0.9291 B(  1-C ,  3-C ) :   0.9270
B(  1-C ,  6-C ) :   0.8715 B(  2-O , 12-H ) :   0.8420 B(  3-C ,  4-C ) :   0.9679
B(  3-C , 13-H ) :   0.9158 B(  3-C , 14-H ) :   0.9125 B(  4-C ,  5-O ) :   0.9378
B(  4-C , 15-H ) :   0.9238 B(  4-C , 16-H ) :   0.9245 B(  5-O ,  6-C ) :   0.8834
B(  6-C ,  7-C ) :   0.9210 B(  6-C , 17-H ) :   0.9006 B(  7-C ,  8-O ) :   0.9487
B(  7-C , 18-H ) :   0.9165 B(  7-C , 19-H ) :   0.9207 B(  8-O , 20-H ) :   0.8239

MP2 TOTAL ENERGY:     -460.644367144 Eh
FINAL SINGLE POINT ENERGY      -460.644367143857

DIPOLE MOMENT
-------------
                                X             Y             Z
Electronic contribution:      0.79636      -4.14150       3.20183
Nuclear contribution   :     -0.95355       4.68819      -4.74831
                        -----------------------------------------
Total Dipole Moment    :     -0.15719       0.54669      -1.54647
                        -----------------------------------------
Magnitude (a.u.)       :      1.64777
Magnitude (Debye)      :      4.18830

                             ****ORCA TERMINATED NORMALLY****
TOTAL RUN TIME: 0 days 0 hours 17 minutes 54 seconds 316 msec
