                         Program Version 3.0.3 - RELEASE   -
|  1> ! RI-MP2 RIJK def2-TZVP def2-TZVP/C def2-TZVP/JK TIGHTSCF
|  2> % maxcore 2000
|  3> % mp2 density relaxed end
|  4> *xyz 0 1
|  5>  O       -0.0449436496    -0.0098762093     0.3066348405
|  6>  C       -0.0709946299     1.1738280032     0.0543721052
|  7>  N       -1.2265195335     1.8436368378    -0.2704301872
|  8>  C       -1.4358543959     3.2788604440    -0.0978514267
|  9>  C       -0.1998681987     3.9082629831     0.5297030155
| 10>  C        0.3079721793     3.3154561452     1.8944321049
| 11>  C        1.5356070947     2.7498988916     1.1588735068
| 12>  C        1.0921369485     3.3937379028    -0.1237761860
| 13>  N        1.1249240469     1.9493081887     0.0098040819
| 14>  H       -2.0377839236     1.2443073495    -0.2501129091
| 15>  H       -1.6445644555     3.7581016829    -1.0649167325
| 16>  H       -2.3141401693     3.4428490928     0.5397256889
| 17>  H       -0.2936160370     4.9950523958     0.5518230044
| 18>  H        0.5756185586     4.1069355773     2.5976083983
| 19>  H       -0.3327762899     2.5892175344     2.4033307854
| 20>  H        2.5292437585     2.5985457606     1.5622325535
| 21>  H        1.6637358264     3.8500063097    -0.9236613538
| 22> *
| 23>
| 24>                          ****END OF INPUT****

CARTESIAN COORDINATES (ANGSTROEM)
---------------------------------
  O     -0.044944   -0.009876    0.306635
  C     -0.070995    1.173828    0.054372
  N     -1.226520    1.843637   -0.270430
  C     -1.435854    3.278860   -0.097851
  C     -0.199868    3.908263    0.529703
  C      0.307972    3.315456    1.894432
  C      1.535607    2.749899    1.158874
  C      1.092137    3.393738   -0.123776
  N      1.124924    1.949308    0.009804
  H     -2.037784    1.244307   -0.250113
  H     -1.644564    3.758102   -1.064917
  H     -2.314140    3.442849    0.539726
  H     -0.293616    4.995052    0.551823
  H      0.575619    4.106936    2.597608
  H     -0.332776    2.589218    2.403331
  H      2.529244    2.598546    1.562233
  H      1.663736    3.850006   -0.923661

 Total Charge           Charge          ....    0
 Multiplicity           Mult            ....    1
 Number of Electrons    NEL             ....   66
 Basis Dimension        Dim             ....  327

ORBITAL ENERGIES
----------------

  NO   OCC          E(Eh)            E(eV)
   0   2.0000     -20.510288      -558.1133
   1   2.0000     -15.581615      -423.9973
   2   2.0000     -15.579686      -423.9448
   3   2.0000     -11.369348      -309.3757
   4   2.0000     -11.283986      -307.0529
   5   2.0000     -11.282804      -307.0207
   6   2.0000     -11.277799      -306.8845
   7   2.0000     -11.259029      -306.3738
   8   2.0000     -11.248928      -306.0989
   9   2.0000      -1.394017       -37.9331
  10   2.0000      -1.311823       -35.6965
  11   2.0000      -1.225911       -33.3587
  12   2.0000      -1.089663       -29.6512
  13   2.0000      -0.975194       -26.5364
  14   2.0000      -0.926999       -25.2249
  15   2.0000      -0.893404       -24.3108
  16   2.0000      -0.766286       -20.8517
  17   2.0000      -0.734890       -19.9974
  18   2.0000      -0.726629       -19.7726
  19   2.0000      -0.696571       -18.9547
  20   2.0000      -0.663032       -18.0420
  21   2.0000      -0.645816       -17.5735
  22   2.0000      -0.612396       -16.6641
  23   2.0000      -0.600386       -16.3373
  24   2.0000      -0.575653       -15.6643
  25   2.0000      -0.540247       -14.7009
  26   2.0000      -0.494729       -13.4623
  27   2.0000      -0.487918       -13.2769
  28   2.0000      -0.473672       -12.8893
  29   2.0000      -0.464281       -12.6337
  30   2.0000      -0.416075       -11.3220
  31   2.0000      -0.406982       -11.0746
  32   2.0000      -0.388010       -10.5583
  33   0.0000       0.123468         3.3597
  34   0.0000       0.150977         4.1083
  35   0.0000       0.155696         4.2367
  36   0.0000       0.171811         4.6752
  37   0.0000       0.183248         4.9864

MULLIKEN ATOMIC CHARGES
-----------------------
   0 O :   -0.323893
   1 C :    0.234208
   2 N :   -0.319972
   3 C :   -0.143163
   4 C :   -0.060396
   5 C :   -0.240556
   6 C :   -0.093604
   7 C :   -0.064583
   8 N :   -0.173855
   9 H :    0.243636
  10 H :    0.122968
  11 H :    0.132586
  12 H :    0.128970
  13 H :    0.130663
  14 H :    0.133342
  15 H :    0.143917
  16 H :    0.149732
Sum of atomic charges:    0.0000000

LOEWDIN ATOMIC CHARGES
----------------------
   0 O :    0.090004
   1 C :   -0.522063
   2 N :    0.103477
   3 C :   -0.261313
   4 C :   -0.210149
   5 C :   -0.191083
   6 C :   -0.188901
   7 C :   -0.181252
   8 N :    0.198841
   9 H :    0.191356
  10 H :    0.134849
  11 H :    0.135739
  12 H :    0.153099
  13 H :    0.140435
  14 H :    0.135356
  15 H :    0.135718
  16 H :    0.135885

  Mayer bond orders larger than 0.1
B(  0-O ,  1-C ) :   2.0496 B(  1-C ,  2-N ) :   1.1649 B(  1-C ,  8-N ) :   0.9823
B(  2-N ,  3-C ) :   0.9112 B(  2-N ,  9-H ) :   0.8634 B(  3-C ,  4-C ) :   0.9186
B(  3-C , 10-H ) :   0.9237 B(  3-C , 11-H ) :   0.9290 B(  4-C ,  5-C ) :   0.9594
B(  4-C ,  7-C ) :   0.8830 B(  4-C , 12-H ) :   0.9155 B(  5-C ,  6-C ) :   0.9176
B(  5-C , 13-H ) :   0.9129 B(  5-C , 14-H ) :   0.9111 B(  6-C ,  7-C ) :   0.8357
B(  6-C ,  8-N ) :   0.9084 B(  6-C , 15-H ) :   0.9342 B(  7-C ,  8-N ) :   0.8875
B(  7-C , 16-H ) :   0.9129

MP2 TOTAL ENERGY:     -417.301847307 Eh
FINAL SINGLE POINT ENERGY      -417.301847306737

DIPOLE MOMENT
-------------
                                X             Y             Z
Electronic contribution:      1.72219      -5.20330      -1.93528
Nuclear contribution   :     -2.39304       7.13837       2.18804
                        -----------------------------------------
Total Dipole Moment    :     -0.67086       1.93506       0.25276
                        -----------------------------------------
Magnitude (a.u.)       :      2.06359
Magnitude (Debye)      :      5.24523

                             ****ORCA TERMINATED NORMALLY****
TOTAL RUN TIME: 0 days 0 hours 17 minutes 40 seconds 634 msec
