                         Program Version 3.0.3 - RELEASE   -
|  1> ! RI-MP2 RIJK def2-TZVP def2-TZVP/C def2-TZVP/JK TIGHTSCF
|  2> % maxcore 2000
|  3> % mp2 density relaxed end
|  4> *xyz 0 1
|  5>  C       -0.1474347410     1.5075254978     0.1171886644
|  6>  C        1.4057312430     1.4551794918     0.0283158896
|  7>  C        1.3016999732     0.1792935951     0.9182467358
|  8>  C       -0.0033781563    -0.0400505538     0.0953615838
|  9>  C        0.5821060701    -0.3135903312    -1.3162978487
| 10>  C       -0.2991107997    -0.0340334798    -2.5028185945
| 11>  C        0.0826488681     1.0461008092    -3.1845063027
| 12>  C        1.3069639111     1.7113086711    -2.5979122557
| 13>  C        1.6590086477     0.8391876954    -1.3645608995
| 14>  H       -0.4915709276     1.8764033899     1.0863124399
| 15>  H       -0.7076761137     1.9887178755    -0.6873787255
| 16>  H        2.0253414408     2.3072047381     0.3128598610
| 17>  H        2.0941604581    -0.5721240995     0.8373242636
| 18>  H        1.1064290849     0.4100187709     1.9684142649
| 19>  H       -0.8014228609    -0.6987344965     0.4408226890
| 20>  H        1.0137721528    -1.3210221311    -1.3561578836
| 21>  H       -1.1535441089    -0.6546499378    -2.7535360621
| 22>  H       -0.4156007916     1.4315616807    -4.0686522242
| 23>  H        2.1293330132     1.7500197751    -3.3235247945
| 24>  H        1.1031583754     2.7545817862    -2.3186537243
| 25>  H        2.6791326812     0.4531759332    -1.4351025167
| 26> *
| 27>
| 28>                          ****END OF INPUT****

CARTESIAN COORDINATES (ANGSTROEM)
---------------------------------
  C     -0.147435    1.507525    0.117189
  C      1.405731    1.455179    0.028316
  C      1.301700    0.179294    0.918247
  C     -0.003378   -0.040051    0.095362
  C      0.582106   -0.313590   -1.316298
  C     -0.299111   -0.034033   -2.502819
  C      0.082649    1.046101   -3.184506
  C      1.306964    1.711309   -2.597912
  C      1.659009    0.839188   -1.364561
  H     -0.491571    1.876403    1.086312
  H     -0.707676    1.988718   -0.687379
  H      2.025341    2.307205    0.312860
  H      2.094160   -0.572124    0.837324
  H      1.106429    0.410019    1.968414
  H     -0.801423   -0.698734    0.440823
  H      1.013772   -1.321022   -1.356158
  H     -1.153544   -0.654650   -2.753536
  H     -0.415601    1.431562   -4.068652
  H      2.129333    1.750020   -3.323525
  H      1.103158    2.754582   -2.318654
  H      2.679133    0.453176   -1.435103

 Total Charge           Charge          ....    0
 Multiplicity           Mult            ....    1
 Number of Electrons    NEL             ....   66
 Basis Dimension        Dim             ....  351

ORBITAL ENERGIES
----------------

  NO   OCC          E(Eh)            E(eV)
   0   2.0000     -11.226216      -305.4809
   1   2.0000     -11.225571      -305.4633
   2   2.0000     -11.222453      -305.3785
   3   2.0000     -11.220725      -305.3314
   4   2.0000     -11.219803      -305.3064
   5   2.0000     -11.218813      -305.2794
   6   2.0000     -11.217817      -305.2523
   7   2.0000     -11.215433      -305.1874
   8   2.0000     -11.213444      -305.1333
   9   2.0000      -1.188180       -32.3320
  10   2.0000      -1.092111       -29.7179
  11   2.0000      -0.976457       -26.5707
  12   2.0000      -0.941959       -25.6320
  13   2.0000      -0.890232       -24.2244
  14   2.0000      -0.878435       -23.9034
  15   2.0000      -0.752278       -20.4705
  16   2.0000      -0.729288       -19.8449
  17   2.0000      -0.713308       -19.4101
  18   2.0000      -0.675995       -18.3948
  19   2.0000      -0.651147       -17.7186
  20   2.0000      -0.637800       -17.3554
  21   2.0000      -0.569068       -15.4851
  22   2.0000      -0.553702       -15.0670
  23   2.0000      -0.522783       -14.2256
  24   2.0000      -0.513714       -13.9789
  25   2.0000      -0.496783       -13.5181
  26   2.0000      -0.477703       -12.9990
  27   2.0000      -0.466472       -12.6934
  28   2.0000      -0.435261       -11.8441
  29   2.0000      -0.433315       -11.7911
  30   2.0000      -0.428775       -11.6676
  31   2.0000      -0.427206       -11.6249
  32   2.0000      -0.339501        -9.2383
  33   0.0000       0.142646         3.8816
  34   0.0000       0.156232         4.2513
  35   0.0000       0.163408         4.4466
  36   0.0000       0.169379         4.6090
  37   0.0000       0.174034         4.7357

MULLIKEN ATOMIC CHARGES
-----------------------
   0 C :   -0.286482
   1 C :   -0.071023
   2 C :   -0.270658
   3 C :   -0.046557
   4 C :   -0.040784
   5 C :   -0.214083
   6 C :   -0.196301
   7 C :   -0.198481
   8 C :   -0.087873
   9 H :    0.117386
  10 H :    0.129219
  11 H :    0.119170
  12 H :    0.110253
  13 H :    0.118915
  14 H :    0.120896
  15 H :    0.106129
  16 H :    0.121859
  17 H :    0.120066
  18 H :    0.120895
  19 H :    0.121694
  20 H :    0.105760
Sum of atomic charges:   -0.0000000

LOEWDIN ATOMIC CHARGES
----------------------
   0 C :   -0.195736
   1 C :   -0.192843
   2 C :   -0.196699
   3 C :   -0.185300
   4 C :   -0.176821
   5 C :   -0.144732
   6 C :   -0.160476
   7 C :   -0.221860
   8 C :   -0.164742
   9 H :    0.136418
  10 H :    0.130711
  11 H :    0.131368
  12 H :    0.126168
  13 H :    0.134842
  14 H :    0.131252
  15 H :    0.149755
  16 H :    0.137511
  17 H :    0.134592
  18 H :    0.137917
  19 H :    0.142348
  20 H :    0.146327

  Mayer bond orders larger than 0.1
B(  0-C ,  1-C ) :   0.9199 B(  0-C ,  3-C ) :   0.9184 B(  0-C ,  9-H ) :   0.9266
B(  0-C , 10-H ) :   0.9161 B(  1-C ,  2-C ) :   0.9113 B(  1-C ,  8-C ) :   0.9193
B(  1-C , 11-H ) :   0.9155 B(  2-C ,  3-C ) :   0.9077 B(  2-C , 12-H ) :   0.9249
B(  2-C , 13-H ) :   0.9249 B(  3-C ,  4-C ) :   0.8885 B(  3-C , 14-H ) :   0.9158
B(  4-C ,  5-C ) :   0.9291 B(  4-C ,  8-C ) :   0.9541 B(  4-C , 15-H ) :   0.9162
B(  5-C ,  6-C ) :   1.7842 B(  5-C , 16-H ) :   0.9291 B(  6-C ,  7-C ) :   0.9600
B(  6-C , 17-H ) :   0.9324 B(  7-C ,  8-C ) :   0.9278 B(  7-C , 18-H ) :   0.9174
B(  7-C , 19-H ) :   0.9121 B(  8-C , 20-H ) :   0.9224

MP2 TOTAL ENERGY:     -349.315181994 Eh
FINAL SINGLE POINT ENERGY      -349.315181993669

DIPOLE MOMENT
-------------
                                X             Y             Z
Electronic contribution:     -0.56608      -1.03347      -1.45463
Nuclear contribution   :      0.61640       1.06083       1.50080
                        -----------------------------------------
Total Dipole Moment    :      0.05031       0.02736       0.04617
                        -----------------------------------------
Magnitude (a.u.)       :      0.07357
Magnitude (Debye)      :      0.18699

                             ****ORCA TERMINATED NORMALLY****
TOTAL RUN TIME: 0 days 0 hours 21 minutes 10 seconds 363 msec
