                         Program Version 3.0.3 - RELEASE   -
|  1> ! RI-MP2 RIJK def2-TZVP def2-TZVP/C def2-TZVP/JK TIGHTSCF
|  2> % maxcore 2000
|  3> % mp2 density relaxed end
|  4> *xyz 0 1
|  5>  C        0.0679049770     1.9193247160     0.7395159773
|  6>  C        0.0139155663     0.4288021855     0.4868616566
|  7>  C        1.2545740499    -0.3293063272     0.0635679148
|  8>  C        0.6727208158    -0.5424993309     1.4281664280
|  9>  C        1.3376691759    -0.2628806313     2.7550353172
| 10>  C        0.3386180528    -0.2837317838     3.8416494983
| 11>  N        0.8475493400    -1.5769052784     3.3436501184
| 12>  C        0.1617253139    -1.8682222579     2.0211909953
| 13>  C       -1.3211377593    -2.1914698821     2.0703583090
| 14>  H        1.0155976834     2.2064154221     1.2067698510
| 15>  H       -0.0257207694     2.4839890303    -0.1946351524
| 16>  H       -0.7386894393     2.2425371089     1.4070541213
| 17>  H       -0.9148463805     0.0794129429     0.0402461009
| 18>  H        1.1570768692    -1.1251516093    -0.6690715820
| 19>  H        2.1855171660     0.2267501996    -0.0072055899
| 20>  H        2.3614034697     0.0705727340     2.8955836355
| 21>  H        0.6784404198    -0.0721787660     4.8511738715
| 22>  H       -0.6848599406     0.0190760030     3.6377357398
| 23>  H        0.7007216774    -2.7142171294     1.5815376198
| 24>  H       -1.9178450594    -1.3676025161     2.4719663112
| 25>  H       -1.6965105515    -2.4123072329     1.0650671136
| 26>  H       -1.4933014471    -3.0748566071     2.6939398549
| 27> *
| 28>
| 29>                          ****END OF INPUT****

CARTESIAN COORDINATES (ANGSTROEM)
---------------------------------
  C      0.067905    1.919325    0.739516
  C      0.013916    0.428802    0.486862
  C      1.254574   -0.329306    0.063568
  C      0.672721   -0.542499    1.428166
  C      1.337669   -0.262881    2.755035
  C      0.338618   -0.283732    3.841649
  N      0.847549   -1.576905    3.343650
  C      0.161725   -1.868222    2.021191
  C     -1.321138   -2.191470    2.070358
  H      1.015598    2.206415    1.206770
  H     -0.025721    2.483989   -0.194635
  H     -0.738689    2.242537    1.407054
  H     -0.914846    0.079413    0.040246
  H      1.157077   -1.125152   -0.669072
  H      2.185517    0.226750   -0.007206
  H      2.361403    0.070573    2.895584
  H      0.678440   -0.072179    4.851174
  H     -0.684860    0.019076    3.637736
  H      0.700722   -2.714217    1.581538
  H     -1.917845   -1.367603    2.471966
  H     -1.696511   -2.412307    1.065067
  H     -1.493301   -3.074857    2.693940

 Total Charge           Charge          ....    0
 Multiplicity           Mult            ....    1
 Number of Electrons    NEL             ....   68
 Basis Dimension        Dim             ....  357

ORBITAL ENERGIES
----------------

  NO   OCC          E(Eh)            E(eV)
   0   2.0000     -15.554090      -423.2483
   1   2.0000     -11.257607      -306.3351
   2   2.0000     -11.257330      -306.3275
   3   2.0000     -11.250326      -306.1369
   4   2.0000     -11.236954      -305.7731
   5   2.0000     -11.232226      -305.6444
   6   2.0000     -11.224420      -305.4320
   7   2.0000     -11.220232      -305.3180
   8   2.0000     -11.215913      -305.2005
   9   2.0000      -1.285151       -34.9707
  10   2.0000      -1.142889       -31.0996
  11   2.0000      -1.023775       -27.8583
  12   2.0000      -0.966424       -26.2977
  13   2.0000      -0.908869       -24.7316
  14   2.0000      -0.877978       -23.8910
  15   2.0000      -0.806967       -21.9587
  16   2.0000      -0.785201       -21.3664
  17   2.0000      -0.715354       -19.4658
  18   2.0000      -0.676537       -18.4095
  19   2.0000      -0.651853       -17.7378
  20   2.0000      -0.610459       -16.6114
  21   2.0000      -0.591290       -16.0898
  22   2.0000      -0.576839       -15.6966
  23   2.0000      -0.570319       -15.5192
  24   2.0000      -0.550347       -14.9757
  25   2.0000      -0.542685       -14.7672
  26   2.0000      -0.520884       -14.1740
  27   2.0000      -0.500197       -13.6110
  28   2.0000      -0.482200       -13.1213
  29   2.0000      -0.459148       -12.4940
  30   2.0000      -0.431565       -11.7435
  31   2.0000      -0.416951       -11.3458
  32   2.0000      -0.396092       -10.7782
  33   2.0000      -0.348723        -9.4892
  34   0.0000       0.133573         3.6347
  35   0.0000       0.148586         4.0432
  36   0.0000       0.157758         4.2928
  37   0.0000       0.172789         4.7018
  38   0.0000       0.191966         5.2237

MULLIKEN ATOMIC CHARGES
-----------------------
   0 C :   -0.414279
   1 C :   -0.038717
   2 C :   -0.309916
   3 C :   -0.032657
   4 C :   -0.099502
   5 C :   -0.154273
   6 N :   -0.231305
   7 C :    0.057838
   8 C :   -0.417579
   9 H :    0.127504
  10 H :    0.136714
  11 H :    0.128429
  12 H :    0.116042
  13 H :    0.131498
  14 H :    0.124804
  15 H :    0.130884
  16 H :    0.127646
  17 H :    0.121299
  18 H :    0.098933
  19 H :    0.119632
  20 H :    0.130066
  21 H :    0.146939
Sum of atomic charges:    0.0000000

LOEWDIN ATOMIC CHARGES
----------------------
   0 C :   -0.291406
   1 C :   -0.214611
   2 C :   -0.185390
   3 C :   -0.194763
   4 C :   -0.179817
   5 C :   -0.248015
   6 N :    0.119622
   7 C :   -0.230588
   8 C :   -0.295570
   9 H :    0.128312
  10 H :    0.125627
  11 H :    0.124884
  12 H :    0.148951
  13 H :    0.134416
  14 H :    0.137265
  15 H :    0.134063
  16 H :    0.131805
  17 H :    0.124995
  18 H :    0.150184
  19 H :    0.121597
  20 H :    0.127625
  21 H :    0.130813

  Mayer bond orders larger than 0.1
B(  0-C ,  1-C ) :   0.8932 B(  0-C ,  9-H ) :   0.9354 B(  0-C , 10-H ) :   0.9390
B(  0-C , 11-H ) :   0.9408 B(  1-C ,  2-C ) :   0.9246 B(  1-C ,  3-C ) :   0.8292
B(  1-C , 12-H ) :   0.9208 B(  2-C ,  3-C ) :   0.8736 B(  2-C , 13-H ) :   0.9230
B(  2-C , 14-H ) :   0.9200 B(  3-C ,  4-C ) :   0.9444 B(  3-C ,  7-C ) :   0.9299
B(  4-C ,  5-C ) :   0.9426 B(  4-C ,  6-N ) :   0.9321 B(  4-C , 15-H ) :   0.8923
B(  5-C ,  6-N ) :   0.8742 B(  5-C , 16-H ) :   0.9303 B(  5-C , 17-H ) :   0.9064
B(  6-N ,  7-C ) :   0.9317 B(  7-C ,  8-C ) :   0.9274 B(  7-C , 18-H ) :   0.9109
B(  8-C , 19-H ) :   0.9275 B(  8-C , 20-H ) :   0.9356 B(  8-C , 21-H ) :   0.9375

MP2 TOTAL ENERGY:     -366.490726081 Eh
FINAL SINGLE POINT ENERGY      -366.490726081106

DIPOLE MOMENT
-------------
                                X             Y             Z
Electronic contribution:      3.33906      -2.57270       2.53908
Nuclear contribution   :     -3.65037       3.02045      -2.97958
                        -----------------------------------------
Total Dipole Moment    :     -0.31131       0.44774      -0.44050
                        -----------------------------------------
Magnitude (a.u.)       :      0.70102
Magnitude (Debye)      :      1.78185

                             ****ORCA TERMINATED NORMALLY****
TOTAL RUN TIME: 0 days 0 hours 22 minutes 8 seconds 375 msec
