                         Program Version 3.0.3 - RELEASE   -
|  1> ! RI-MP2 RIJK def2-TZVP def2-TZVP/C def2-TZVP/JK TIGHTSCF
|  2> % maxcore 2000
|  3> % mp2 density relaxed end
|  4> *xyz 0 1
|  5>  C        0.0863176861     1.4704475124    -0.1775755532
|  6>  N       -0.0102331945     0.0218757896    -0.2354887938
|  7>  C       -1.0646585794    -0.5655979223     0.0979295605
|  8>  N       -1.1511768374    -1.9555719219     0.0400476463
|  9>  N       -2.2068967251    -2.6951284526     0.3642971890
| 10>  N       -3.2710917804    -2.1464743833     0.7741453315
| 11>  C       -3.3408299876    -0.7342863378     0.8891797625
| 12>  O       -4.3104109544    -0.1623891456     1.2683054017
| 13>  O       -2.2177856721     0.0180609615     0.5400984786
| 14>  H        0.9173263381     1.7417803177     0.4818529996
| 15>  H        0.3342962638     1.8469537803    -1.1754810863
| 16>  H       -0.8233696642     1.9668376361     0.1739269843
| 17>  H       -0.3412588130    -2.4674150140    -0.2777385904
| 18> *
| 19>
| 20>                          ****END OF INPUT****

CARTESIAN COORDINATES (ANGSTROEM)
---------------------------------
  C      0.086318    1.470448   -0.177576
  N     -0.010233    0.021876   -0.235489
  C     -1.064659   -0.565598    0.097930
  N     -1.151177   -1.955572    0.040048
  N     -2.206897   -2.695128    0.364297
  N     -3.271092   -2.146474    0.774145
  C     -3.340830   -0.734286    0.889180
  O     -4.310411   -0.162389    1.268305
  O     -2.217786    0.018061    0.540098
  H      0.917326    1.741780    0.481853
  H      0.334296    1.846954   -1.175481
  H     -0.823370    1.966838    0.173927
  H     -0.341259   -2.467415   -0.277739

 Total Charge           Charge          ....    0
 Multiplicity           Mult            ....    1
 Number of Electrons    NEL             ....   66
 Basis Dimension        Dim             ....  303

ORBITAL ENERGIES
----------------

  NO   OCC          E(Eh)            E(eV)
   0   2.0000     -20.665163      -562.3277
   1   2.0000     -20.581205      -560.0431
   2   2.0000     -15.747948      -428.5235
   3   2.0000     -15.686251      -426.8446
   4   2.0000     -15.648624      -425.8207
   5   2.0000     -15.576911      -423.8693
   6   2.0000     -11.445102      -311.4371
   7   2.0000     -11.421522      -310.7954
   8   2.0000     -11.266886      -306.5875
   9   2.0000      -1.539758       -41.8989
  10   2.0000      -1.454864       -39.5889
  11   2.0000      -1.426380       -38.8138
  12   2.0000      -1.299874       -35.3714
  13   2.0000      -1.231898       -33.5217
  14   2.0000      -1.038969       -28.2718
  15   2.0000      -0.978700       -26.6318
  16   2.0000      -0.910857       -24.7857
  17   2.0000      -0.849294       -23.1105
  18   2.0000      -0.829723       -22.5779
  19   2.0000      -0.731562       -19.9068
  20   2.0000      -0.705560       -19.1993
  21   2.0000      -0.676529       -18.4093
  22   2.0000      -0.649215       -17.6660
  23   2.0000      -0.628309       -17.0972
  24   2.0000      -0.617058       -16.7910
  25   2.0000      -0.612601       -16.6697
  26   2.0000      -0.579740       -15.7755
  27   2.0000      -0.569757       -15.5039
  28   2.0000      -0.527346       -14.3498
  29   2.0000      -0.470486       -12.8026
  30   2.0000      -0.461444       -12.5565
  31   2.0000      -0.452651       -12.3173
  32   2.0000      -0.395563       -10.7638
  33   0.0000       0.042728         1.1627
  34   0.0000       0.122099         3.3225
  35   0.0000       0.145497         3.9592
  36   0.0000       0.158429         4.3111
  37   0.0000       0.176631         4.8064

MULLIKEN ATOMIC CHARGES
-----------------------
   0 C :   -0.284080
   1 N :   -0.258116
   2 C :    0.272166
   3 N :   -0.131241
   4 N :   -0.032530
   5 N :   -0.149669
   6 C :    0.279331
   7 O :   -0.218942
   8 O :   -0.205059
   9 H :    0.146856
  10 H :    0.146853
  11 H :    0.145136
  12 H :    0.289295
Sum of atomic charges:   -0.0000000

LOEWDIN ATOMIC CHARGES
----------------------
   0 C :   -0.319130
   1 N :    0.081929
   2 C :   -0.450965
   3 N :    0.096976
   4 N :    0.011161
   5 N :    0.027391
   6 C :   -0.521831
   7 O :    0.192840
   8 O :    0.310804
   9 H :    0.123927
  10 H :    0.123929
  11 H :    0.114916
  12 H :    0.208055

  Mayer bond orders larger than 0.1
B(  0-C ,  1-N ) :   0.8638 B(  0-C ,  9-H ) :   0.9309 B(  0-C , 10-H ) :   0.9309
B(  0-C , 11-H ) :   0.9313 B(  1-N ,  2-C ) :   1.9348 B(  2-C ,  3-N ) :   0.9902
B(  2-C ,  8-O ) :   1.0085 B(  3-N ,  4-N ) :   1.0514 B(  3-N ,  5-N ) :   0.1109
B(  3-N , 12-H ) :   0.8526 B(  4-N ,  5-N ) :   1.4403 B(  5-N ,  6-C ) :   1.0766
B(  6-C ,  7-O ) :   2.0701 B(  6-C ,  8-O ) :   0.9816

MP2 TOTAL ENERGY:     -485.269073234 Eh
FINAL SINGLE POINT ENERGY      -485.269073233572

DIPOLE MOMENT
-------------
                                X             Y             Z
Electronic contribution:     -5.90971      -5.41722       1.73588
Nuclear contribution   :      7.35073       5.59166      -2.23271
                        -----------------------------------------
Total Dipole Moment    :      1.44102       0.17444      -0.49683
                        -----------------------------------------
Magnitude (a.u.)       :      1.53422
Magnitude (Debye)      :      3.89967

                             ****ORCA TERMINATED NORMALLY****
TOTAL RUN TIME: 0 days 0 hours 13 minutes 44 seconds 415 msec
