                         Program Version 3.0.3 - RELEASE   -
|  1> ! RI-MP2 RIJK def2-TZVP def2-TZVP/C def2-TZVP/JK TIGHTSCF
|  2> % maxcore 2000
|  3> % mp2 density relaxed end
|  4> *xyz 0 1
|  5>  N       -0.0319275621    -1.0930900234     0.3966539953
|  6>  C       -0.0132308884     0.0452702251     0.2012717510
|  7>  C        0.0300318127     1.4834868715    -0.0713349257
|  8>  C        1.4390097793     2.0123124998    -0.1845381001
|  9>  C        2.6236164035     1.3831316129    -0.8987379758
| 10>  C        3.4536986413     2.2877831281     0.0318789966
| 11>  C        3.1652621164     3.7382464831    -0.4022103516
| 12>  C        1.7678583560     3.4435821638     0.1098670253
| 13>  N        2.2482413382     2.3524402592     1.0323870078
| 14>  H       -0.5251479286     1.6771439066    -0.9976654605
| 15>  H       -0.4944748423     2.0106286322     0.7334919966
| 16>  H        2.7184674582     0.3290455676    -0.6267733990
| 17>  H        2.7314354238     1.5034799046    -1.9816984889
| 18>  H        4.4310381142     1.9823396058     0.3978179514
| 19>  H        3.6699589264     4.4586454730     0.2460530479
| 20>  H        3.3140865345     4.0109404485    -1.4520037920
| 21>  H        1.0079333670     4.1492205714     0.4287960018
| 22> *
| 23>
| 24>                          ****END OF INPUT****

CARTESIAN COORDINATES (ANGSTROEM)
---------------------------------
  N     -0.031928   -1.093090    0.396654
  C     -0.013231    0.045270    0.201272
  C      0.030032    1.483487   -0.071335
  C      1.439010    2.012312   -0.184538
  C      2.623616    1.383132   -0.898738
  C      3.453699    2.287783    0.031879
  C      3.165262    3.738246   -0.402210
  C      1.767858    3.443582    0.109867
  N      2.248241    2.352440    1.032387
  H     -0.525148    1.677144   -0.997665
  H     -0.494475    2.010629    0.733492
  H      2.718467    0.329046   -0.626773
  H      2.731435    1.503480   -1.981698
  H      4.431038    1.982340    0.397818
  H      3.669959    4.458645    0.246053
  H      3.314087    4.010940   -1.452004
  H      1.007933    4.149221    0.428796

 Total Charge           Charge          ....    0
 Multiplicity           Mult            ....    1
 Number of Electrons    NEL             ....   64
 Basis Dimension        Dim             ....  327

ORBITAL ENERGIES
----------------

  NO   OCC          E(Eh)            E(eV)
   0   2.0000     -15.575028      -423.8181
   1   2.0000     -15.568961      -423.6530
   2   2.0000     -11.293229      -307.3044
   3   2.0000     -11.291492      -307.2571
   4   2.0000     -11.281943      -306.9973
   5   2.0000     -11.280412      -306.9556
   6   2.0000     -11.273832      -306.7766
   7   2.0000     -11.247285      -306.0542
   8   2.0000     -11.246054      -306.0207
   9   2.0000      -1.335870       -36.3509
  10   2.0000      -1.218516       -33.1575
  11   2.0000      -1.075684       -29.2709
  12   2.0000      -1.015908       -27.6443
  13   2.0000      -0.992878       -27.0176
  14   2.0000      -0.906549       -24.6685
  15   2.0000      -0.765855       -20.8400
  16   2.0000      -0.753492       -20.5036
  17   2.0000      -0.721359       -19.6292
  18   2.0000      -0.683646       -18.6029
  19   2.0000      -0.656384       -17.8611
  20   2.0000      -0.626017       -17.0348
  21   2.0000      -0.616542       -16.7770
  22   2.0000      -0.573794       -15.6137
  23   2.0000      -0.555884       -15.1264
  24   2.0000      -0.551855       -15.0167
  25   2.0000      -0.519276       -14.1302
  26   2.0000      -0.479043       -13.0354
  27   2.0000      -0.462185       -12.5767
  28   2.0000      -0.459186       -12.4951
  29   2.0000      -0.444698       -12.1008
  30   2.0000      -0.422811       -11.5053
  31   2.0000      -0.392178       -10.6717
  32   0.0000       0.125202         3.4069
  33   0.0000       0.143896         3.9156
  34   0.0000       0.155772         4.2388
  35   0.0000       0.163490         4.4488
  36   0.0000       0.175901         4.7865

MULLIKEN ATOMIC CHARGES
-----------------------
   0 N :   -0.058599
   1 C :   -0.189602
   2 C :   -0.122552
   3 C :    0.039908
   4 C :   -0.196205
   5 C :   -0.048382
   6 C :   -0.186517
   7 C :   -0.141764
   8 N :   -0.219654
   9 H :    0.162649
  10 H :    0.165151
  11 H :    0.145950
  12 H :    0.121615
  13 H :    0.144364
  14 H :    0.127085
  15 H :    0.118856
  16 H :    0.137697
Sum of atomic charges:    0.0000000

LOEWDIN ATOMIC CHARGES
----------------------
   0 N :    0.060500
   1 C :   -0.181841
   2 C :   -0.205366
   3 C :   -0.248817
   4 C :   -0.181550
   5 C :   -0.176930
   6 C :   -0.210904
   7 C :   -0.192705
   8 N :    0.163382
   9 H :    0.171548
  10 H :    0.176192
  11 H :    0.152119
  12 H :    0.131484
  13 H :    0.131116
  14 H :    0.144943
  15 H :    0.129551
  16 H :    0.137279

  Mayer bond orders larger than 0.1
B(  0-N ,  1-C ) :   2.8587 B(  1-C ,  2-C ) :   0.9347 B(  2-C ,  3-C ) :   0.8644
B(  2-C ,  9-H ) :   0.9136 B(  2-C , 10-H ) :   0.9045 B(  3-C ,  4-C ) :   0.9368
B(  3-C ,  7-C ) :   0.8874 B(  3-C ,  8-N ) :   0.8635 B(  4-C ,  5-C ) :   0.9372
B(  4-C , 11-H ) :   0.9112 B(  4-C , 12-H ) :   0.9120 B(  5-C ,  6-C ) :   0.9399
B(  5-C ,  8-N ) :   0.9127 B(  5-C , 13-H ) :   0.9074 B(  6-C ,  7-C ) :   0.9543
B(  6-C , 14-H ) :   0.9203 B(  6-C , 15-H ) :   0.9119 B(  7-C ,  8-N ) :   0.9130
B(  7-C , 16-H ) :   0.9086

MP2 TOTAL ENERGY:     -380.154766440 Eh
FINAL SINGLE POINT ENERGY      -380.154766439892

DIPOLE MOMENT
-------------
                                X             Y             Z
Electronic contribution:     -3.13959      -4.07229       2.22831
Nuclear contribution   :      3.45222       5.69719      -3.17816
                        -----------------------------------------
Total Dipole Moment    :      0.31264       1.62490      -0.94985
                        -----------------------------------------
Magnitude (a.u.)       :      1.90794
Magnitude (Debye)      :      4.84961

                             ****ORCA TERMINATED NORMALLY****
TOTAL RUN TIME: 0 days 0 hours 17 minutes 40 seconds 746 msec
