                         Program Version 3.0.3 - RELEASE   -
|  1> ! RI-MP2 RIJK def2-TZVP def2-TZVP/C def2-TZVP/JK TIGHTSCF
|  2> % maxcore 2000
|  3> % mp2 density relaxed end
|  4> *xyz 0 1
|  5>  C       -0.3234522021     1.4929176754     0.0492532081
|  6>  C        0.0087803254     0.0159589052     0.0923740644
|  7>  C        1.3148736895    -0.6155372791    -0.3377421553
|  8>  C        2.5845840511     0.2248201487    -0.4377679474
|  9>  C        2.7722888989     0.9100086445     0.9427268157
| 10>  C        1.8817461216     0.1325274367     1.9232196765
| 11>  C        2.4738929730    -0.4845264301     3.1687234993
| 12>  C        1.5407024569     0.6974864582     3.2794044036
| 13>  C        0.8902458930    -0.6700044714     1.1177382622
| 14>  H        0.5154176201     2.1329555412     0.3255035803
| 15>  H       -0.6435033669     1.7861643916    -0.9572666792
| 16>  H       -1.1469898071     1.7223566664     0.7348225105
| 17>  H       -0.8483172809    -0.5979897989    -0.1800591127
| 18>  H        1.2574802924    -1.4972112075    -0.9679277084
| 19>  H        3.4265910317    -0.4439694433    -0.6469793496
| 20>  H        2.5537180654     0.9548742840    -1.2542177187
| 21>  H        3.8207856867     0.9038320204     1.2568631468
| 22>  H        2.4733099185     1.9618385964     0.8985620199
| 23>  H        2.1087747546    -1.4563393585     3.4862631695
| 24>  H        3.5292104350    -0.3218336263     3.3642176972
| 25>  H        1.9647273586     1.6584261173     3.5545008308
| 26>  H        0.5429271509     0.5254721550     3.6697368684
| 27>  H        0.5205725737    -1.5880837161     1.5642314382
| 28> *
| 29>
| 30>                          ****END OF INPUT****

CARTESIAN COORDINATES (ANGSTROEM)
---------------------------------
  C     -0.323452    1.492918    0.049253
  C      0.008780    0.015959    0.092374
  C      1.314874   -0.615537   -0.337742
  C      2.584584    0.224820   -0.437768
  C      2.772289    0.910009    0.942727
  C      1.881746    0.132527    1.923220
  C      2.473893   -0.484526    3.168723
  C      1.540702    0.697486    3.279404
  C      0.890246   -0.670004    1.117738
  H      0.515418    2.132956    0.325504
  H     -0.643503    1.786164   -0.957267
  H     -1.146990    1.722357    0.734823
  H     -0.848317   -0.597990   -0.180059
  H      1.257480   -1.497211   -0.967928
  H      3.426591   -0.443969   -0.646979
  H      2.553718    0.954874   -1.254218
  H      3.820786    0.903832    1.256863
  H      2.473310    1.961839    0.898562
  H      2.108775   -1.456339    3.486263
  H      3.529210   -0.321834    3.364218
  H      1.964727    1.658426    3.554501
  H      0.542927    0.525472    3.669737
  H      0.520573   -1.588084    1.564231

 Total Charge           Charge          ....    0
 Multiplicity           Mult            ....    1
 Number of Electrons    NEL             ....   68
 Basis Dimension        Dim             ....  363

ORBITAL ENERGIES
----------------

  NO   OCC          E(Eh)            E(eV)
   0   2.0000     -11.230803      -305.6057
   1   2.0000     -11.223708      -305.4126
   2   2.0000     -11.219713      -305.3039
   3   2.0000     -11.219023      -305.2851
   4   2.0000     -11.217742      -305.2503
   5   2.0000     -11.217059      -305.2317
   6   2.0000     -11.216692      -305.2217
   7   2.0000     -11.215975      -305.2022
   8   2.0000     -11.210818      -305.0619
   9   2.0000      -1.178830       -32.0776
  10   2.0000      -1.114147       -30.3175
  11   2.0000      -1.015204       -27.6251
  12   2.0000      -0.957028       -26.0420
  13   2.0000      -0.895334       -24.3633
  14   2.0000      -0.819152       -22.2902
  15   2.0000      -0.808321       -21.9955
  16   2.0000      -0.745471       -20.2853
  17   2.0000      -0.709561       -19.3081
  18   2.0000      -0.678549       -18.4643
  19   2.0000      -0.633281       -17.2325
  20   2.0000      -0.624364       -16.9898
  21   2.0000      -0.591954       -16.1079
  22   2.0000      -0.564795       -15.3688
  23   2.0000      -0.550528       -14.9806
  24   2.0000      -0.530694       -14.4409
  25   2.0000      -0.522176       -14.2091
  26   2.0000      -0.509667       -13.8687
  27   2.0000      -0.499776       -13.5996
  28   2.0000      -0.474995       -12.9253
  29   2.0000      -0.452145       -12.3035
  30   2.0000      -0.431078       -11.7302
  31   2.0000      -0.414171       -11.2702
  32   2.0000      -0.379634       -10.3304
  33   2.0000      -0.355435        -9.6719
  34   0.0000       0.136574         3.7164
  35   0.0000       0.157859         4.2956
  36   0.0000       0.159984         4.3534
  37   0.0000       0.164677         4.4811
  38   0.0000       0.185890         5.0583

MULLIKEN ATOMIC CHARGES
-----------------------
   0 C :   -0.383634
   1 C :   -0.132569
   2 C :   -0.074491
   3 C :   -0.251460
   4 C :   -0.237395
   5 C :    0.046027
   6 C :   -0.311474
   7 C :   -0.290963
   8 C :   -0.059741
   9 H :    0.125567
  10 H :    0.130995
  11 H :    0.128900
  12 H :    0.108164
  13 H :    0.120549
  14 H :    0.114590
  15 H :    0.115758
  16 H :    0.114994
  17 H :    0.121419
  18 H :    0.124207
  19 H :    0.122326
  20 H :    0.123130
  21 H :    0.126093
  22 H :    0.119010
Sum of atomic charges:    0.0000000

LOEWDIN ATOMIC CHARGES
----------------------
   0 C :   -0.290212
   1 C :   -0.209320
   2 C :   -0.180447
   3 C :   -0.226836
   4 C :   -0.203324
   5 C :   -0.218967
   6 C :   -0.206964
   7 C :   -0.208790
   8 C :   -0.144977
   9 H :    0.125428
  10 H :    0.125577
  11 H :    0.126421
  12 H :    0.152328
  13 H :    0.141309
  14 H :    0.140102
  15 H :    0.135489
  16 H :    0.136524
  17 H :    0.132629
  18 H :    0.131085
  19 H :    0.130588
  20 H :    0.132130
  21 H :    0.133614
  22 H :    0.146612

  Mayer bond orders larger than 0.1
B(  0-C ,  1-C ) :   0.9065 B(  0-C ,  9-H ) :   0.9381 B(  0-C , 10-H ) :   0.9375
B(  0-C , 11-H ) :   0.9382 B(  1-C ,  2-C ) :   0.8858 B(  1-C ,  8-C ) :   0.8697
B(  1-C , 12-H ) :   0.9306 B(  2-C ,  3-C ) :   0.9484 B(  2-C ,  8-C ) :   0.8316
B(  2-C , 13-H ) :   0.9272 B(  3-C ,  4-C ) :   0.9618 B(  3-C , 14-H ) :   0.9247
B(  3-C , 15-H ) :   0.9339 B(  4-C ,  5-C ) :   0.8906 B(  4-C , 16-H ) :   0.9194
B(  4-C , 17-H ) :   0.9358 B(  5-C ,  6-C ) :   0.8525 B(  5-C ,  7-C ) :   0.8590
B(  5-C ,  8-C ) :   0.9102 B(  6-C ,  7-C ) :   0.9387 B(  6-C , 18-H ) :   0.9256
B(  6-C , 19-H ) :   0.9233 B(  7-C , 20-H ) :   0.9241 B(  7-C , 21-H ) :   0.9239
B(  8-C , 22-H ) :   0.9181

MP2 TOTAL ENERGY:     -350.494536637 Eh
FINAL SINGLE POINT ENERGY      -350.494536636709

DIPOLE MOMENT
-------------
                                X             Y             Z
Electronic contribution:      0.32330      -2.58848       0.26118
Nuclear contribution   :     -0.30787       2.56452      -0.32611
                        -----------------------------------------
Total Dipole Moment    :      0.01543      -0.02396      -0.06492
                        -----------------------------------------
Magnitude (a.u.)       :      0.07090
Magnitude (Debye)      :      0.18022

                             ****ORCA TERMINATED NORMALLY****
TOTAL RUN TIME: 0 days 0 hours 23 minutes 7 seconds 758 msec
