                         Program Version 3.0.3 - RELEASE   -
|  1> ! RI-MP2 RIJK def2-TZVP def2-TZVP/C def2-TZVP/JK TIGHTSCF
|  2> % maxcore 2000
|  3> % mp2 density relaxed end
|  4> *xyz 0 1
|  5>  C        0.0990943465     1.5644729697    -0.0335804428
|  6>  C        0.2305509064     0.0404965313    -0.0675268155
|  7>  C        0.5170707325    -0.5624536021     1.3225675046
|  8>  C        0.6163263839    -2.0541052311     1.3121538183
|  9>  N       -0.3748508975    -2.8977766573     1.5126241287
| 10>  C        0.1634977728    -4.1552161046     1.3603764232
| 11>  C        1.4966730973    -4.0768974217     1.0637340356
| 12>  N        1.7752536534    -2.7266648368     1.0338892578
| 13>  H        1.0165245850     2.0356921664     0.3374773862
| 14>  H       -0.1022417228     1.9679936044    -1.0306134629
| 15>  H       -0.7201998275     1.8756520467     0.6237238437
| 16>  H       -0.6890967861    -0.4098186654    -0.4572049964
| 17>  H        1.0312616810    -0.2486809383    -0.7603003610
| 18>  H        1.4402777305    -0.1261447227     1.7267381074
| 19>  H       -0.2906415896    -0.2910994093     2.0091532258
| 20>  H       -0.4390873012    -5.0430404303     1.4783338971
| 21>  H        2.2544580859    -4.8211690155     0.8844302465
| 22>  H        2.6734719794    -2.3117995234     0.8514391438
| 23> *
| 24>
| 25>                          ****END OF INPUT****

CARTESIAN COORDINATES (ANGSTROEM)
---------------------------------
  C      0.099094    1.564473   -0.033580
  C      0.230551    0.040497   -0.067527
  C      0.517071   -0.562454    1.322568
  C      0.616326   -2.054105    1.312154
  N     -0.374851   -2.897777    1.512624
  C      0.163498   -4.155216    1.360376
  C      1.496673   -4.076897    1.063734
  N      1.775254   -2.726665    1.033889
  H      1.016525    2.035692    0.337477
  H     -0.102242    1.967994   -1.030613
  H     -0.720200    1.875652    0.623724
  H     -0.689097   -0.409819   -0.457205
  H      1.031262   -0.248681   -0.760300
  H      1.440278   -0.126145    1.726738
  H     -0.290642   -0.291099    2.009153
  H     -0.439087   -5.043040    1.478334
  H      2.254458   -4.821169    0.884430
  H      2.673472   -2.311800    0.851439

 Total Charge           Charge          ....    0
 Multiplicity           Mult            ....    1
 Number of Electrons    NEL             ....   60
 Basis Dimension        Dim             ....  308

ORBITAL ENERGIES
----------------

  NO   OCC          E(Eh)            E(eV)
   0   2.0000     -15.610414      -424.7810
   1   2.0000     -15.531870      -422.6437
   2   2.0000     -11.292020      -307.2715
   3   2.0000     -11.251049      -306.1566
   4   2.0000     -11.236786      -305.7685
   5   2.0000     -11.234720      -305.7123
   6   2.0000     -11.228805      -305.5513
   7   2.0000     -11.218700      -305.2764
   8   2.0000      -1.332829       -36.2681
   9   2.0000      -1.157224       -31.4897
  10   2.0000      -1.080401       -29.3992
  11   2.0000      -1.007001       -27.4019
  12   2.0000      -0.930764       -25.3274
  13   2.0000      -0.825628       -22.4665
  14   2.0000      -0.807742       -21.9798
  15   2.0000      -0.789391       -21.4804
  16   2.0000      -0.711774       -19.3684
  17   2.0000      -0.639555       -17.4032
  18   2.0000      -0.604825       -16.4581
  19   2.0000      -0.600405       -16.3379
  20   2.0000      -0.597242       -16.2518
  21   2.0000      -0.577129       -15.7045
  22   2.0000      -0.552150       -15.0248
  23   2.0000      -0.533346       -14.5131
  24   2.0000      -0.497071       -13.5260
  25   2.0000      -0.487688       -13.2707
  26   2.0000      -0.479088       -13.0366
  27   2.0000      -0.427133       -11.6229
  28   2.0000      -0.393138       -10.6978
  29   2.0000      -0.307394        -8.3646
  30   0.0000       0.119263         3.2453
  31   0.0000       0.147456         4.0125
  32   0.0000       0.170204         4.6315
  33   0.0000       0.180270         4.9054
  34   0.0000       0.183164         4.9841

MULLIKEN ATOMIC CHARGES
-----------------------
   0 C :   -0.387295
   1 C :   -0.190921
   2 C :   -0.311172
   3 C :    0.274216
   4 N :   -0.298419
   5 C :   -0.105094
   6 C :   -0.090151
   7 N :   -0.283414
   8 H :    0.117943
   9 H :    0.135280
  10 H :    0.128027
  11 H :    0.130917
  12 H :    0.096804
  13 H :    0.119431
  14 H :    0.140477
  15 H :    0.131247
  16 H :    0.146967
  17 H :    0.245157
Sum of atomic charges:   -0.0000000

LOEWDIN ATOMIC CHARGES
----------------------
   0 C :   -0.320960
   1 C :   -0.287772
   2 C :   -0.239058
   3 C :   -0.323025
   4 N :    0.105523
   5 C :   -0.268078
   6 C :   -0.249462
   7 N :    0.192387
   8 H :    0.119052
   9 H :    0.121924
  10 H :    0.122267
  11 H :    0.141479
  12 H :    0.131102
  13 H :    0.141710
  14 H :    0.155606
  15 H :    0.131433
  16 H :    0.132873
  17 H :    0.192999

  Mayer bond orders larger than 0.1
B(  0-C ,  1-C ) :   0.9163 B(  0-C ,  8-H ) :   0.9377 B(  0-C ,  9-H ) :   0.9412
B(  0-C , 10-H ) :   0.9395 B(  1-C ,  2-C ) :   0.9159 B(  1-C , 11-H ) :   0.9356
B(  1-C , 12-H ) :   0.9303 B(  2-C ,  3-C ) :   0.8968 B(  2-C , 13-H ) :   0.9448
B(  2-C , 14-H ) :   0.9308 B(  3-C ,  4-N ) :   1.5638 B(  3-C ,  7-N ) :   1.1299
B(  4-N ,  5-C ) :   1.2708 B(  5-C ,  6-C ) :   1.5275 B(  5-C , 15-H ) :   0.9415
B(  6-C ,  7-N ) :   1.1139 B(  6-C , 16-H ) :   0.9109 B(  7-N , 17-H ) :   0.8672

MP2 TOTAL ENERGY:     -343.425910877 Eh
FINAL SINGLE POINT ENERGY      -343.425910876914

DIPOLE MOMENT
-------------
                                X             Y             Z
Electronic contribution:      0.92284      -9.53529       2.91875
Nuclear contribution   :      0.39895       9.86996      -3.27825
                        -----------------------------------------
Total Dipole Moment    :      1.32180       0.33467      -0.35950
                        -----------------------------------------
Magnitude (a.u.)       :      1.41010
Magnitude (Debye)      :      3.58420

                             ****ORCA TERMINATED NORMALLY****
TOTAL RUN TIME: 0 days 0 hours 12 minutes 30 seconds 651 msec
