                         Program Version 3.0.3 - RELEASE   -
|  1> ! RI-MP2 RIJK def2-TZVP def2-TZVP/C def2-TZVP/JK TIGHTSCF
|  2> % maxcore 2000
|  3> % mp2 density relaxed end
|  4> *xyz 0 1
|  5>  C       -1.4703968797    -0.8698893475     2.4039374802
|  6>  C       -0.6741041134    -0.9181646403     1.1170288253
|  7>  C       -0.5463470609     0.3073875524     0.2483765560
|  8>  C        0.6875449094    -0.2848058670     0.8958489185
|  9>  C        1.5080792296     0.5068266262     1.8825367665
| 10>  C        2.1567764829     1.7441778935     1.2925939961
| 11>  O        0.9855162022     0.6924610045     3.2092269193
| 12>  C        2.1488576311    -0.1328086402     3.0500392712
| 13>  C        2.0355958201    -1.5922232425     3.4065387775
| 14>  H       -1.3220081906     0.0690352347     2.9373047566
| 15>  H       -2.5373976225    -0.9853604325     2.1810173942
| 16>  H       -1.1871114021    -1.6791716256     3.0855624851
| 17>  H       -0.8003965905    -1.8506239177     0.5703230786
| 18>  H       -0.6687230688     0.2254292783    -0.8262430141
| 19>  H       -0.9225130731     1.2348985499     0.6702293403
| 20>  H        1.3282096600    -0.8387819185     0.2114373607
| 21>  H        1.3948583679     2.4434914459     0.9342741298
| 22>  H        2.7707927715     2.2547005370     2.0388744020
| 23>  H        2.7909829366     1.4787103406     0.4395405779
| 24>  H        3.0593303445     0.3459001459     3.4192336091
| 25>  H        1.1734054662    -2.0594765741     2.9294053888
| 26>  H        2.9399073810    -2.1246695201     3.0911518158
| 27>  H        1.9410064285    -1.7126158031     4.4910471149
| 28> *
| 29>
| 30>                          ****END OF INPUT****

CARTESIAN COORDINATES (ANGSTROEM)
---------------------------------
  C     -1.470397   -0.869889    2.403937
  C     -0.674104   -0.918165    1.117029
  C     -0.546347    0.307388    0.248377
  C      0.687545   -0.284806    0.895849
  C      1.508079    0.506827    1.882537
  C      2.156776    1.744178    1.292594
  O      0.985516    0.692461    3.209227
  C      2.148858   -0.132809    3.050039
  C      2.035596   -1.592223    3.406539
  H     -1.322008    0.069035    2.937305
  H     -2.537398   -0.985360    2.181017
  H     -1.187111   -1.679172    3.085562
  H     -0.800397   -1.850624    0.570323
  H     -0.668723    0.225429   -0.826243
  H     -0.922513    1.234899    0.670229
  H      1.328210   -0.838782    0.211437
  H      1.394858    2.443491    0.934274
  H      2.770793    2.254701    2.038874
  H      2.790983    1.478710    0.439541
  H      3.059330    0.345900    3.419234
  H      1.173405   -2.059477    2.929405
  H      2.939907   -2.124670    3.091152
  H      1.941006   -1.712616    4.491047

 Total Charge           Charge          ....    0
 Multiplicity           Mult            ....    1
 Number of Electrons    NEL             ....   70
 Basis Dimension        Dim             ....  363

ORBITAL ENERGIES
----------------

  NO   OCC          E(Eh)            E(eV)
   0   2.0000     -20.554094      -559.3053
   1   2.0000     -11.287403      -307.1458
   2   2.0000     -11.278454      -306.9023
   3   2.0000     -11.232508      -305.6521
   4   2.0000     -11.231679      -305.6295
   5   2.0000     -11.219846      -305.3075
   6   2.0000     -11.219633      -305.3017
   7   2.0000     -11.217689      -305.2488
   8   2.0000     -11.205119      -304.9068
   9   2.0000      -1.400543       -38.1107
  10   2.0000      -1.145019       -31.1575
  11   2.0000      -1.014667       -27.6105
  12   2.0000      -1.003877       -27.3169
  13   2.0000      -0.953132       -25.9360
  14   2.0000      -0.871003       -23.7012
  15   2.0000      -0.832580       -22.6557
  16   2.0000      -0.789162       -21.4742
  17   2.0000      -0.729914       -19.8620
  18   2.0000      -0.668496       -18.1907
  19   2.0000      -0.662696       -18.0329
  20   2.0000      -0.634251       -17.2588
  21   2.0000      -0.581935       -15.8353
  22   2.0000      -0.577351       -15.7105
  23   2.0000      -0.565564       -15.3898
  24   2.0000      -0.557094       -15.1593
  25   2.0000      -0.548652       -14.9296
  26   2.0000      -0.543991       -14.8027
  27   2.0000      -0.531783       -14.4705
  28   2.0000      -0.499953       -13.6044
  29   2.0000      -0.497239       -13.5306
  30   2.0000      -0.482090       -13.1183
  31   2.0000      -0.437129       -11.8949
  32   2.0000      -0.432267       -11.7626
  33   2.0000      -0.398483       -10.8433
  34   2.0000      -0.386879       -10.5275
  35   0.0000       0.135276         3.6810
  36   0.0000       0.153623         4.1803
  37   0.0000       0.161040         4.3821
  38   0.0000       0.170194         4.6312
  39   0.0000       0.193013         5.2522

MULLIKEN ATOMIC CHARGES
-----------------------
   0 C :   -0.395917
   1 C :   -0.053332
   2 C :   -0.291679
   3 C :   -0.141065
   4 C :    0.216937
   5 C :   -0.403376
   6 O :   -0.357175
   7 C :    0.001480
   8 C :   -0.385494
   9 H :    0.151398
  10 H :    0.129076
  11 H :    0.119441
  12 H :    0.112283
  13 H :    0.130467
  14 H :    0.131041
  15 H :    0.121962
  16 H :    0.133653
  17 H :    0.137242
  18 H :    0.129975
  19 H :    0.102606
  20 H :    0.143347
  21 H :    0.128842
  22 H :    0.138287
Sum of atomic charges:   -0.0000000

LOEWDIN ATOMIC CHARGES
----------------------
   0 C :   -0.299556
   1 C :   -0.229499
   2 C :   -0.203689
   3 C :   -0.176781
   4 C :   -0.312931
   5 C :   -0.261518
   6 O :    0.179328
   7 C :   -0.270185
   8 C :   -0.291164
   9 H :    0.130552
  10 H :    0.123709
  11 H :    0.120936
  12 H :    0.147624
  13 H :    0.128746
  14 H :    0.139092
  15 H :    0.157983
  16 H :    0.129233
  17 H :    0.129190
  18 H :    0.130704
  19 H :    0.136738
  20 H :    0.131526
  21 H :    0.130044
  22 H :    0.129918

  Mayer bond orders larger than 0.1
B(  0-C ,  1-C ) :   0.9090 B(  0-C ,  9-H ) :   0.9328 B(  0-C , 10-H ) :   0.9334
B(  0-C , 11-H ) :   0.9392 B(  1-C ,  2-C ) :   0.8941 B(  1-C ,  3-C ) :   0.8957
B(  1-C , 12-H ) :   0.9332 B(  2-C ,  3-C ) :   0.8719 B(  2-C , 13-H ) :   0.9286
B(  2-C , 14-H ) :   0.9264 B(  3-C ,  4-C ) :   0.9083 B(  3-C , 15-H ) :   0.9255
B(  4-C ,  5-C ) :   0.8794 B(  4-C ,  6-O ) :   0.8386 B(  4-C ,  7-C ) :   0.9633
B(  5-C , 16-H ) :   0.9375 B(  5-C , 17-H ) :   0.9388 B(  5-C , 18-H ) :   0.9367
B(  6-O ,  7-C ) :   0.9024 B(  7-C ,  8-C ) :   0.8786 B(  7-C , 19-H ) :   0.9203
B(  8-C , 20-H ) :   0.9417 B(  8-C , 21-H ) :   0.9262 B(  8-C , 22-H ) :   0.9372

MP2 TOTAL ENERGY:     -387.588628136 Eh
FINAL SINGLE POINT ENERGY      -387.588628136322

DIPOLE MOMENT
-------------
                                X             Y             Z
Electronic contribution:      1.06944       1.91045       0.95551
Nuclear contribution   :     -0.64602      -2.25774      -1.38854
                        -----------------------------------------
Total Dipole Moment    :      0.42342      -0.34729      -0.43303
                        -----------------------------------------
Magnitude (a.u.)       :      0.69815
Magnitude (Debye)      :      1.77455

                             ****ORCA TERMINATED NORMALLY****
TOTAL RUN TIME: 0 days 0 hours 20 minutes 38 seconds 820 msec
