                         Program Version 3.0.3 - RELEASE   -
|  1> ! RI-MP2 RIJK def2-TZVP def2-TZVP/C def2-TZVP/JK TIGHTSCF
|  2> % maxcore 2000
|  3> % mp2 density relaxed end
|  4> *xyz 0 1
|  5>  O        0.1841090178     1.3895054416     0.2155274800
|  6>  C        0.0597262981    -0.0211460647     0.0456620283
|  7>  C       -1.4113224101    -0.4492774367     0.1028924441
|  8>  N       -2.2008126162     0.1007448483    -0.9863224566
|  9>  C       -2.1700036920    -0.3202182710    -2.2883785094
| 10>  O       -2.9158741555     0.1334580481    -3.1329013612
| 11>  C       -1.1344383423    -1.4043134325    -2.6009982127
| 12>  C        0.3008179013    -1.0382911324    -2.2919818705
| 13>  C        0.7963867859    -0.4684852796    -1.1917128688
| 14>  H       -0.1787112631     1.7942161683    -0.5814110225
| 15>  H        0.5577478073    -0.4493088704     0.9254501558
| 16>  H       -1.4808869315    -1.5447430305     0.1246639205
| 17>  H       -1.8351798270    -0.0778824202     1.0385096684
| 18>  H       -2.9197649915     0.7773705027    -0.7804823999
| 19>  H       -1.4206172373    -2.3224190223    -2.0669711520
| 20>  H       -1.2448011172    -1.6170470336    -3.6646768691
| 21>  H        1.0025775120    -1.2726926404    -3.0889703911
| 22>  H        1.8617771313    -0.2509846547    -1.1628232631
| 23> *
| 24>
| 25>                          ****END OF INPUT****

CARTESIAN COORDINATES (ANGSTROEM)
---------------------------------
  O      0.184109    1.389505    0.215527
  C      0.059726   -0.021146    0.045662
  C     -1.411322   -0.449277    0.102892
  N     -2.200813    0.100745   -0.986322
  C     -2.170004   -0.320218   -2.288379
  O     -2.915874    0.133458   -3.132901
  C     -1.134438   -1.404313   -2.600998
  C      0.300818   -1.038291   -2.291982
  C      0.796387   -0.468485   -1.191713
  H     -0.178711    1.794216   -0.581411
  H      0.557748   -0.449309    0.925450
  H     -1.480887   -1.544743    0.124664
  H     -1.835180   -0.077882    1.038510
  H     -2.919765    0.777371   -0.780482
  H     -1.420617   -2.322419   -2.066971
  H     -1.244801   -1.617047   -3.664677
  H      1.002578   -1.272693   -3.088970
  H      1.861777   -0.250985   -1.162823

 Total Charge           Charge          ....    0
 Multiplicity           Mult            ....    1
 Number of Electrons    NEL             ....   68
 Basis Dimension        Dim             ....  333

ORBITAL ENERGIES
----------------

  NO   OCC          E(Eh)            E(eV)
   0   2.0000     -20.565702      -559.6212
   1   2.0000     -20.520820      -558.3999
   2   2.0000     -15.587925      -424.1690
   3   2.0000     -11.354600      -308.9744
   4   2.0000     -11.299601      -307.4778
   5   2.0000     -11.282808      -307.0208
   6   2.0000     -11.255620      -306.2810
   7   2.0000     -11.253152      -306.2138
   8   2.0000     -11.243611      -305.9542
   9   2.0000      -1.387241       -37.7487
  10   2.0000      -1.373124       -37.3646
  11   2.0000      -1.239873       -33.7386
  12   2.0000      -1.100736       -29.9526
  13   2.0000      -1.036038       -28.1920
  14   2.0000      -0.964744       -26.2520
  15   2.0000      -0.891443       -24.2574
  16   2.0000      -0.794833       -21.6285
  17   2.0000      -0.757943       -20.6247
  18   2.0000      -0.708442       -19.2777
  19   2.0000      -0.685616       -18.6566
  20   2.0000      -0.681138       -18.5347
  21   2.0000      -0.646962       -17.6047
  22   2.0000      -0.622188       -16.9306
  23   2.0000      -0.609512       -16.5857
  24   2.0000      -0.596349       -16.2275
  25   2.0000      -0.575882       -15.6705
  26   2.0000      -0.562635       -15.3101
  27   2.0000      -0.538567       -14.6552
  28   2.0000      -0.516635       -14.0584
  29   2.0000      -0.499936       -13.6039
  30   2.0000      -0.464933       -12.6515
  31   2.0000      -0.432233       -11.7616
  32   2.0000      -0.395931       -10.7738
  33   2.0000      -0.374839       -10.1999
  34   0.0000       0.123187         3.3521
  35   0.0000       0.124700         3.3933
  36   0.0000       0.153648         4.1810
  37   0.0000       0.158421         4.3108
  38   0.0000       0.161984         4.4078

MULLIKEN ATOMIC CHARGES
-----------------------
   0 O :   -0.472430
   1 C :    0.211024
   2 C :   -0.189409
   3 N :   -0.324836
   4 C :    0.199705
   5 O :   -0.339113
   6 C :   -0.181166
   7 C :   -0.151786
   8 C :   -0.273429
   9 H :    0.318542
  10 H :    0.105072
  11 H :    0.133836
  12 H :    0.151516
  13 H :    0.248571
  14 H :    0.139642
  15 H :    0.156603
  16 H :    0.137054
  17 H :    0.130605
Sum of atomic charges:    0.0000000

LOEWDIN ATOMIC CHARGES
----------------------
   0 O :   -0.016706
   1 C :   -0.343005
   2 C :   -0.265365
   3 N :    0.108436
   4 C :   -0.452897
   5 O :    0.086663
   6 C :   -0.215738
   7 C :   -0.158030
   8 C :   -0.166317
   9 H :    0.176677
  10 H :    0.154081
  11 H :    0.139895
  12 H :    0.145097
  13 H :    0.190152
  14 H :    0.157627
  15 H :    0.158162
  16 H :    0.149982
  17 H :    0.151287

  Mayer bond orders larger than 0.1
B(  0-O ,  1-C ) :   0.8897 B(  0-O ,  9-H ) :   0.8346 B(  1-C ,  2-C ) :   0.8971
B(  1-C ,  8-C ) :   0.9593 B(  1-C , 10-H ) :   0.9179 B(  2-C ,  3-N ) :   0.9014
B(  2-C , 11-H ) :   0.9370 B(  2-C , 12-H ) :   0.9302 B(  3-N ,  4-C ) :   1.1519
B(  3-N , 13-H ) :   0.8578 B(  4-C ,  5-O ) :   2.0092 B(  4-C ,  6-C ) :   0.9026
B(  6-C ,  7-C ) :   0.8869 B(  6-C , 14-H ) :   0.9036 B(  6-C , 15-H ) :   0.9266
B(  7-C ,  8-C ) :   1.7750 B(  7-C , 16-H ) :   0.9223 B(  8-C , 17-H ) :   0.9296

MP2 TOTAL ENERGY:     -438.401719250 Eh
FINAL SINGLE POINT ENERGY      -438.401719249871

DIPOLE MOMENT
-------------
                                X             Y             Z
Electronic contribution:     -2.44082       2.35164      -1.79590
Nuclear contribution   :      2.84051      -3.05391       2.51067
                        -----------------------------------------
Total Dipole Moment    :      0.39968      -0.70227       0.71477
                        -----------------------------------------
Magnitude (a.u.)       :      1.07880
Magnitude (Debye)      :      2.74210

                             ****ORCA TERMINATED NORMALLY****
TOTAL RUN TIME: 0 days 0 hours 16 minutes 48 seconds 757 msec
