                         Program Version 3.0.3 - RELEASE   -
|  1> ! RI-MP2 RIJK def2-TZVP def2-TZVP/C def2-TZVP/JK TIGHTSCF
|  2> % maxcore 2000
|  3> % mp2 density relaxed end
|  4> *xyz 0 1
|  5>  C       -0.0308607331     1.5347806239    -0.1984402719
|  6>  N       -0.1210850924     0.0779727500    -0.2433648967
|  7>  C       -0.3084825248    -0.6000835789     1.0353042081
|  8>  C       -1.4265697359    -0.4963874200     0.0578268790
|  9>  C        1.3972606587     1.9922403774    -0.0503241080
| 10>  C        2.5932284337     1.6889680009    -1.0045572272
| 11>  C        3.1758650829     2.5867763075     0.1230351750
| 12>  C        1.9015483181     3.4677257091    -0.0149498208
| 13>  C        2.3791748945     1.7156739857     1.1340329375
| 14>  H       -0.4392743776     1.9238514917    -1.1401740317
| 15>  H       -0.6421847500     1.9638805469     0.6189218195
| 16>  H        0.2318376978    -1.5338502281     1.1622592583
| 17>  H       -0.3767901407     0.0121806490     1.9335470783
| 18>  H       -2.2394943442     0.1850924128     0.3054060950
| 19>  H       -1.7180981859    -1.3523504971    -0.5443053064
| 20>  H        2.9347194360     0.6517433429    -1.0396526181
| 21>  H        2.5408976212     2.1285390044    -2.0051884451
| 22>  H        4.2049269023     2.9329218450     0.2239370255
| 23>  H        1.7975299123     4.0421003164    -0.9406414530
| 24>  H        1.6167171691     4.0627727738     0.8582743454
| 25>  H        2.1312867895     2.1794627603     2.0940619404
| 26>  H        2.7133856984     0.6826367664     1.2615398470
| 27> *
| 28>
| 29>                          ****END OF INPUT****

CARTESIAN COORDINATES (ANGSTROEM)
---------------------------------
  C     -0.030861    1.534781   -0.198440
  N     -0.121085    0.077973   -0.243365
  C     -0.308483   -0.600084    1.035304
  C     -1.426570   -0.496387    0.057827
  C      1.397261    1.992240   -0.050324
  C      2.593228    1.688968   -1.004557
  C      3.175865    2.586776    0.123035
  C      1.901548    3.467726   -0.014950
  C      2.379175    1.715674    1.134033
  H     -0.439274    1.923851   -1.140174
  H     -0.642185    1.963881    0.618922
  H      0.231838   -1.533850    1.162259
  H     -0.376790    0.012181    1.933547
  H     -2.239494    0.185092    0.305406
  H     -1.718098   -1.352350   -0.544305
  H      2.934719    0.651743   -1.039653
  H      2.540898    2.128539   -2.005188
  H      4.204927    2.932922    0.223937
  H      1.797530    4.042100   -0.940641
  H      1.616717    4.062773    0.858274
  H      2.131287    2.179463    2.094062
  H      2.713386    0.682637    1.261540

 Total Charge           Charge          ....    0
 Multiplicity           Mult            ....    1
 Number of Electrons    NEL             ....   68
 Basis Dimension        Dim             ....  357

ORBITAL ENERGIES
----------------

  NO   OCC          E(Eh)            E(eV)
   0   2.0000     -15.556389      -423.3109
   1   2.0000     -11.251619      -306.1721
   2   2.0000     -11.250893      -306.1524
   3   2.0000     -11.248740      -306.0938
   4   2.0000     -11.241054      -305.8846
   5   2.0000     -11.236134      -305.7507
   6   2.0000     -11.222204      -305.3717
   7   2.0000     -11.220956      -305.3377
   8   2.0000     -11.217815      -305.2523
   9   2.0000      -1.271337       -34.5948
  10   2.0000      -1.203171       -32.7400
  11   2.0000      -1.008358       -27.4388
  12   2.0000      -0.900557       -24.5054
  13   2.0000      -0.898334       -24.4449
  14   2.0000      -0.854396       -23.2493
  15   2.0000      -0.839239       -22.8368
  16   2.0000      -0.787840       -21.4382
  17   2.0000      -0.722533       -19.6611
  18   2.0000      -0.680803       -18.5256
  19   2.0000      -0.647514       -17.6198
  20   2.0000      -0.631489       -17.1837
  21   2.0000      -0.610923       -16.6241
  22   2.0000      -0.605536       -16.4775
  23   2.0000      -0.572604       -15.5814
  24   2.0000      -0.524621       -14.2757
  25   2.0000      -0.493934       -13.4406
  26   2.0000      -0.489146       -13.3103
  27   2.0000      -0.467702       -12.7268
  28   2.0000      -0.445745       -12.1293
  29   2.0000      -0.444809       -12.1039
  30   2.0000      -0.434007       -11.8099
  31   2.0000      -0.430947       -11.7267
  32   2.0000      -0.414376       -11.2757
  33   2.0000      -0.372509       -10.1365
  34   0.0000       0.142145         3.8680
  35   0.0000       0.160695         4.3727
  36   0.0000       0.166776         4.5382
  37   0.0000       0.174072         4.7367
  38   0.0000       0.177166         4.8209

MULLIKEN ATOMIC CHARGES
-----------------------
   0 C :   -0.158836
   1 N :   -0.226064
   2 C :   -0.187357
   3 C :   -0.170618
   4 C :   -0.035334
   5 C :   -0.186773
   6 C :   -0.137973
   7 C :   -0.184138
   8 C :   -0.210123
   9 H :    0.115282
  10 H :    0.098062
  11 H :    0.127798
  12 H :    0.121017
  13 H :    0.117549
  14 H :    0.129765
  15 H :    0.113337
  16 H :    0.106679
  17 H :    0.131054
  18 H :    0.109254
  19 H :    0.107365
  20 H :    0.105888
  21 H :    0.114166
Sum of atomic charges:   -0.0000000

LOEWDIN ATOMIC CHARGES
----------------------
   0 C :   -0.265203
   1 N :    0.097899
   2 C :   -0.271091
   3 C :   -0.272057
   4 C :   -0.219626
   5 C :   -0.174005
   6 C :   -0.187897
   7 C :   -0.178673
   8 C :   -0.180492
   9 H :    0.141378
  10 H :    0.128733
  11 H :    0.123415
  12 H :    0.122041
  13 H :    0.121585
  14 H :    0.123823
  15 H :    0.130583
  16 H :    0.127516
  17 H :    0.121527
  18 H :    0.127745
  19 H :    0.127053
  20 H :    0.126337
  21 H :    0.129407

  Mayer bond orders larger than 0.1
B(  0-C ,  1-N ) :   0.9119 B(  0-C ,  4-C ) :   0.8903 B(  0-C ,  9-H ) :   0.8999
B(  0-C , 10-H ) :   0.9422 B(  1-N ,  2-C ) :   0.8915 B(  1-N ,  3-C ) :   0.8925
B(  2-C ,  3-C ) :   0.9468 B(  2-C , 11-H ) :   0.9288 B(  2-C , 12-H ) :   0.9220
B(  3-C , 13-H ) :   0.9239 B(  3-C , 14-H ) :   0.9260 B(  4-C ,  5-C ) :   0.8931
B(  4-C ,  7-C ) :   0.8917 B(  4-C ,  8-C ) :   0.8925 B(  5-C ,  6-C ) :   0.9074
B(  5-C , 15-H ) :   0.9280 B(  5-C , 16-H ) :   0.9295 B(  6-C ,  7-C ) :   0.9139
B(  6-C ,  8-C ) :   0.9087 B(  6-C , 17-H ) :   0.8996 B(  7-C , 18-H ) :   0.9298
B(  7-C , 19-H ) :   0.9290 B(  8-C , 20-H ) :   0.9295 B(  8-C , 21-H ) :   0.9274

MP2 TOTAL ENERGY:     -366.467991417 Eh
FINAL SINGLE POINT ENERGY      -366.467991417077

DIPOLE MOMENT
-------------
                                X             Y             Z
Electronic contribution:      0.36286      -0.60211      -1.08466
Nuclear contribution   :     -0.65582       0.73716       1.38651
                        -----------------------------------------
Total Dipole Moment    :     -0.29297       0.13505       0.30186
                        -----------------------------------------
Magnitude (a.u.)       :      0.44180
Magnitude (Debye)      :      1.12296

                             ****ORCA TERMINATED NORMALLY****
TOTAL RUN TIME: 0 days 0 hours 18 minutes 20 seconds 517 msec
