                         Program Version 3.0.3 - RELEASE   -
|  1> ! RI-MP2 RIJK def2-TZVP def2-TZVP/C def2-TZVP/JK TIGHTSCF
|  2> % maxcore 2000
|  3> % mp2 density relaxed end
|  4> *xyz 0 1
|  5>  O       -0.1360087998     0.0909204492    -0.4185668457
|  6>  C        0.0277355544     1.1473908172     0.1227687319
|  7>  C        1.3248019428     1.9563818179     0.0036951845
|  8>  O        2.4569366629     1.2139802472    -0.4786716648
|  9>  C        2.6079714042     2.1139797452    -1.5918878363
| 10>  C        1.4158326544     2.0474037196    -2.4813047770
| 11>  C        1.3704481145     2.8997522952    -1.2266598234
| 12>  C        1.6214236634     2.6394359666     1.2662594240
| 13>  N        1.8126171045     3.1816809335     2.2683948170
| 14>  H       -0.7658981185     1.6550828842     0.7112033162
| 15>  H        3.6131705162     2.4125558300    -1.8589412578
| 16>  H        1.4794655086     2.6325068460    -3.3934564366
| 17>  H        0.8503735682     1.1239753810    -2.5504683217
| 18>  H        1.1698023742     3.9605129673    -1.2001951202
| 19> *
| 20>
| 21>                          ****END OF INPUT****

CARTESIAN COORDINATES (ANGSTROEM)
---------------------------------
  O     -0.136009    0.090920   -0.418567
  C      0.027736    1.147391    0.122769
  C      1.324802    1.956382    0.003695
  O      2.456937    1.213980   -0.478672
  C      2.607971    2.113980   -1.591888
  C      1.415833    2.047404   -2.481305
  C      1.370448    2.899752   -1.226660
  C      1.621424    2.639436    1.266259
  N      1.812617    3.181681    2.268395
  H     -0.765898    1.655083    0.711203
  H      3.613171    2.412556   -1.858941
  H      1.479466    2.632507   -3.393456
  H      0.850374    1.123975   -2.550468
  H      1.169802    3.960513   -1.200195

 Total Charge           Charge          ....    0
 Multiplicity           Mult            ....    1
 Number of Electrons    NEL             ....   64
 Basis Dimension        Dim             ....  309

ORBITAL ENERGIES
----------------

  NO   OCC          E(Eh)            E(eV)
   0   2.0000     -20.603299      -560.6443
   1   2.0000     -20.591113      -560.3127
   2   2.0000     -15.599602      -424.4868
   3   2.0000     -11.373776      -309.4962
   4   2.0000     -11.366331      -309.2936
   5   2.0000     -11.327807      -308.2453
   6   2.0000     -11.295215      -307.3584
   7   2.0000     -11.288385      -307.1726
   8   2.0000     -11.267903      -306.6152
   9   2.0000      -1.452778       -39.5321
  10   2.0000      -1.424097       -38.7517
  11   2.0000      -1.242611       -33.8132
  12   2.0000      -1.160208       -31.5709
  13   2.0000      -1.065530       -28.9945
  14   2.0000      -0.887064       -24.1382
  15   2.0000      -0.851131       -23.1605
  16   2.0000      -0.825139       -22.4532
  17   2.0000      -0.766694       -20.8628
  18   2.0000      -0.722349       -19.6561
  19   2.0000      -0.702069       -19.1043
  20   2.0000      -0.674780       -18.3617
  21   2.0000      -0.647619       -17.6226
  22   2.0000      -0.584414       -15.9027
  23   2.0000      -0.582023       -15.8376
  24   2.0000      -0.571043       -15.5389
  25   2.0000      -0.563653       -15.3378
  26   2.0000      -0.532444       -14.4885
  27   2.0000      -0.507222       -13.8022
  28   2.0000      -0.492085       -13.3903
  29   2.0000      -0.464490       -12.6394
  30   2.0000      -0.441684       -12.0188
  31   2.0000      -0.420795       -11.4504
  32   0.0000       0.088856         2.4179
  33   0.0000       0.131585         3.5806
  34   0.0000       0.141563         3.8521
  35   0.0000       0.150437         4.0936
  36   0.0000       0.155459         4.2302

MULLIKEN ATOMIC CHARGES
-----------------------
   0 O :   -0.229049
   1 C :    0.071106
   2 C :    0.448228
   3 O :   -0.304142
   4 C :    0.039479
   5 C :   -0.247459
   6 C :   -0.226613
   7 C :   -0.271524
   8 N :   -0.031648
   9 H :    0.109482
  10 H :    0.152189
  11 H :    0.146347
  12 H :    0.176526
  13 H :    0.167078
Sum of atomic charges:    0.0000000

LOEWDIN ATOMIC CHARGES
----------------------
   0 O :    0.174866
   1 C :   -0.237169
   2 C :   -0.297777
   3 O :    0.229806
   4 C :   -0.216425
   5 C :   -0.187947
   6 C :   -0.133044
   7 C :   -0.135246
   8 N :    0.093601
   9 H :    0.127259
  10 H :    0.137843
  11 H :    0.150505
  12 H :    0.146297
  13 H :    0.147431

  Mayer bond orders larger than 0.1
B(  0-O ,  1-C ) :   2.0053 B(  1-C ,  2-C ) :   0.8112 B(  1-C ,  9-H ) :   0.9315
B(  2-C ,  3-O ) :   0.9006 B(  2-C ,  6-C ) :   0.8602 B(  2-C ,  7-C ) :   0.9000
B(  3-O ,  4-C ) :   0.9357 B(  4-C ,  5-C ) :   0.8932 B(  4-C ,  6-C ) :   0.9225
B(  4-C , 10-H ) :   0.9165 B(  5-C ,  6-C ) :   0.8863 B(  5-C , 11-H ) :   0.9220
B(  5-C , 12-H ) :   0.8977 B(  6-C , 13-H ) :   0.9061 B(  7-C ,  8-N ) :   2.8487

MP2 TOTAL ENERGY:     -435.915855913 Eh
FINAL SINGLE POINT ENERGY      -435.915855912771

DIPOLE MOMENT
-------------
                                X             Y             Z
Electronic contribution:      0.27343      -1.45741       4.97108
Nuclear contribution   :     -0.50523       2.22088      -6.32632
                        -----------------------------------------
Total Dipole Moment    :     -0.23180       0.76348      -1.35524
                        -----------------------------------------
Magnitude (a.u.)       :      1.57268
Magnitude (Debye)      :      3.99743

                             ****ORCA TERMINATED NORMALLY****
TOTAL RUN TIME: 0 days 0 hours 14 minutes 40 seconds 193 msec
