                         Program Version 3.0.3 - RELEASE   -
|  1> ! RI-MP2 RIJK def2-TZVP def2-TZVP/C def2-TZVP/JK TIGHTSCF
|  2> % maxcore 2000
|  3> % mp2 density relaxed end
|  4> *xyz 0 1
|  5>  C       -0.0310772992     1.5218880442     0.1207993421
|  6>  C       -0.0040939787     0.0388487682    -0.0119075863
|  7>  C       -0.0422651150    -0.7882511907    -1.1260529389
|  8>  N       -0.1625906943    -0.4047344558    -2.4641939890
|  9>  N       -0.0202313456    -2.1008188933    -0.7655870110
| 10>  C        0.0346437581    -2.1017010858     0.5594816278
| 11>  N        0.0585262039    -0.8287187272     1.0534162505
| 12>  C        0.0682423942    -3.2360404533     1.4049182516
| 13>  N        0.1003579814    -4.1380978010     2.1318140910
| 14>  H        0.9630907576     1.9532673556     0.2956143210
| 15>  H       -0.4274633807     1.9616673412    -0.7984059906
| 16>  H       -0.6783262851     1.8438271347     0.9441878413
| 17>  H        0.5069292043     0.2988892135    -2.7475581065
| 18>  H       -0.0873876089    -1.2127678305    -3.0693797593
| 19>  H        0.1006958779    -0.5758515299     2.0275392662
| 20> *
| 21>
| 22>                          ****END OF INPUT****

CARTESIAN COORDINATES (ANGSTROEM)
---------------------------------
  C     -0.031077    1.521888    0.120799
  C     -0.004094    0.038849   -0.011908
  C     -0.042265   -0.788251   -1.126053
  N     -0.162591   -0.404734   -2.464194
  N     -0.020231   -2.100819   -0.765587
  C      0.034644   -2.101701    0.559482
  N      0.058526   -0.828719    1.053416
  C      0.068242   -3.236040    1.404918
  N      0.100358   -4.138098    2.131814
  H      0.963091    1.953267    0.295614
  H     -0.427463    1.961667   -0.798406
  H     -0.678326    1.843827    0.944188
  H      0.506929    0.298889   -2.747558
  H     -0.087388   -1.212768   -3.069380
  H      0.100696   -0.575852    2.027539

 Total Charge           Charge          ....    0
 Multiplicity           Mult            ....    1
 Number of Electrons    NEL             ....   64
 Basis Dimension        Dim             ....  315

ORBITAL ENERGIES
----------------

  NO   OCC          E(Eh)            E(eV)
   0   2.0000     -15.647850      -425.7996
   1   2.0000     -15.587078      -424.1460
   2   2.0000     -15.576123      -423.8479
   3   2.0000     -15.568698      -423.6458
   4   2.0000     -11.340990      -308.6040
   5   2.0000     -11.298789      -307.4557
   6   2.0000     -11.288294      -307.1701
   7   2.0000     -11.282314      -307.0074
   8   2.0000     -11.255254      -306.2710
   9   2.0000      -1.374585       -37.4044
  10   2.0000      -1.234723       -33.5985
  11   2.0000      -1.226699       -33.3802
  12   2.0000      -1.174815       -31.9683
  13   2.0000      -1.062021       -28.8991
  14   2.0000      -0.977212       -26.5913
  15   2.0000      -0.882676       -24.0188
  16   2.0000      -0.814358       -22.1598
  17   2.0000      -0.784775       -21.3548
  18   2.0000      -0.711540       -19.3620
  19   2.0000      -0.658262       -17.9122
  20   2.0000      -0.639790       -17.4096
  21   2.0000      -0.632495       -17.2111
  22   2.0000      -0.595841       -16.2137
  23   2.0000      -0.584822       -15.9138
  24   2.0000      -0.573659       -15.6101
  25   2.0000      -0.567040       -15.4299
  26   2.0000      -0.507588       -13.8122
  27   2.0000      -0.486039       -13.2258
  28   2.0000      -0.479726       -13.0540
  29   2.0000      -0.469157       -12.7664
  30   2.0000      -0.405068       -11.0224
  31   2.0000      -0.302112        -8.2209
  32   0.0000       0.090108         2.4520
  33   0.0000       0.109087         2.9684
  34   0.0000       0.129746         3.5306
  35   0.0000       0.158250         4.3062
  36   0.0000       0.173982         4.7343

MULLIKEN ATOMIC CHARGES
-----------------------
   0 C :   -0.437795
   1 C :    0.054773
   2 C :    0.202991
   3 N :   -0.544128
   4 N :   -0.300639
   5 C :    0.352446
   6 N :   -0.281798
   7 C :   -0.239598
   8 N :   -0.049190
   9 H :    0.157388
  10 H :    0.163868
  11 H :    0.147136
  12 H :    0.253328
  13 H :    0.261289
  14 H :    0.259931
Sum of atomic charges:   -0.0000000

LOEWDIN ATOMIC CHARGES
----------------------
   0 C :   -0.278662
   1 C :   -0.233408
   2 C :   -0.331300
   3 N :   -0.087985
   4 N :    0.145364
   5 C :   -0.329000
   6 N :    0.242195
   7 C :   -0.163139
   8 N :    0.076593
   9 H :    0.133009
  10 H :    0.142980
  11 H :    0.134606
  12 H :    0.168071
  13 H :    0.175843
  14 H :    0.204833

  Mayer bond orders larger than 0.1
B(  0-C ,  1-C ) :   0.8344 B(  0-C ,  9-H ) :   0.9304 B(  0-C , 10-H ) :   0.9487
B(  0-C , 11-H ) :   0.9350 B(  1-C ,  2-C ) :   1.4466 B(  1-C ,  6-N ) :   1.1462
B(  2-C ,  3-N ) :   0.9946 B(  2-C ,  4-N ) :   1.3379 B(  3-N , 12-H ) :   0.8726
B(  3-N , 13-H ) :   0.8737 B(  4-N ,  5-C ) :   1.4259 B(  5-C ,  6-N ) :   1.1454
B(  5-C ,  7-C ) :   0.9215 B(  6-N , 14-H ) :   0.8593 B(  7-C ,  8-N ) :   2.8519

MP2 TOTAL ENERGY:     -412.341004601 Eh
FINAL SINGLE POINT ENERGY      -412.341004600842

DIPOLE MOMENT
-------------
                                X             Y             Z
Electronic contribution:      0.07960      -8.80746       3.28034
Nuclear contribution   :      0.33783      11.14496      -3.48267
                        -----------------------------------------
Total Dipole Moment    :      0.41743       2.33750      -0.20232
                        -----------------------------------------
Magnitude (a.u.)       :      2.38309
Magnitude (Debye)      :      6.05732

                             ****ORCA TERMINATED NORMALLY****
TOTAL RUN TIME: 0 days 0 hours 14 minutes 2 seconds 227 msec
