                         Program Version 3.0.3 - RELEASE   -
|  1> ! RI-MP2 RIJK def2-TZVP def2-TZVP/C def2-TZVP/JK TIGHTSCF
|  2> % maxcore 2000
|  3> % mp2 density relaxed end
|  4> *xyz 0 1
|  5>  C        0.2006949167     1.0980710191    -0.4628057847
|  6>  C        0.3916678162    -0.2718124697     0.1339759573
|  7>  O        1.7079164838    -0.6520352331     0.5389284856
|  8>  C        0.7024472538    -0.5373382651     1.5629511250
|  9>  C        0.8642643663     0.5526374837     2.5951521310
| 10>  C        0.2281104904    -1.8639997458     2.1286710486
| 11>  O       -0.5371096290    -1.9036697909     3.0605043161
| 12>  C        0.8044421748    -3.1161508049     1.4785576091
| 13>  O        0.1951454963    -4.2472469941     2.0441310920
| 14>  H        0.7716533634     1.8609913471     0.0679687084
| 15>  H        0.5306227644     1.0943647553    -1.5069302756
| 16>  H       -0.8590695258     1.3731816903    -0.4473451419
| 17>  H       -0.1421565778    -1.0612420638    -0.4003177805
| 18>  H        1.0795963996     1.5194085930     2.1401847595
| 19>  H       -0.0490972835     0.6218325875     3.1899718666
| 20>  H        1.6861110428     0.3046808787     3.2745583016
| 21>  H        0.6663610804    -3.0555171749     0.3874769173
| 22>  H        1.8951270321    -3.0831509345     1.6417642675
| 23>  H        0.6068404249    -5.0262182981     1.6593760371
| 24> *
| 25>
| 26>                          ****END OF INPUT****

CARTESIAN COORDINATES (ANGSTROEM)
---------------------------------
  C      0.200695    1.098071   -0.462806
  C      0.391668   -0.271812    0.133976
  O      1.707916   -0.652035    0.538928
  C      0.702447   -0.537338    1.562951
  C      0.864264    0.552637    2.595152
  C      0.228110   -1.864000    2.128671
  O     -0.537110   -1.903670    3.060504
  C      0.804442   -3.116151    1.478558
  O      0.195145   -4.247247    2.044131
  H      0.771653    1.860991    0.067969
  H      0.530623    1.094365   -1.506930
  H     -0.859070    1.373182   -0.447345
  H     -0.142157   -1.061242   -0.400318
  H      1.079596    1.519409    2.140185
  H     -0.049097    0.621833    3.189972
  H      1.686111    0.304681    3.274558
  H      0.666361   -3.055517    0.387477
  H      1.895127   -3.083151    1.641764
  H      0.606840   -5.026218    1.659376

 Total Charge           Charge          ....    0
 Multiplicity           Mult            ....    1
 Number of Electrons    NEL             ....   70
 Basis Dimension        Dim             ....  339

ORBITAL ENERGIES
----------------

  NO   OCC          E(Eh)            E(eV)
   0   2.0000     -20.583597      -560.1081
   1   2.0000     -20.566080      -559.6315
   2   2.0000     -20.550747      -559.2142
   3   2.0000     -11.334629      -308.4309
   4   2.0000     -11.308841      -307.7292
   5   2.0000     -11.308019      -307.7068
   6   2.0000     -11.295221      -307.3586
   7   2.0000     -11.238699      -305.8205
   8   2.0000     -11.230091      -305.5863
   9   2.0000      -1.432100       -38.9694
  10   2.0000      -1.399634       -38.0860
  11   2.0000      -1.367368       -37.2080
  12   2.0000      -1.039820       -28.2949
  13   2.0000      -1.024522       -27.8786
  14   2.0000      -0.990080       -26.9414
  15   2.0000      -0.892104       -24.2754
  16   2.0000      -0.826175       -22.4814
  17   2.0000      -0.747101       -20.3297
  18   2.0000      -0.730219       -19.8703
  19   2.0000      -0.672616       -18.3028
  20   2.0000      -0.661382       -17.9971
  21   2.0000      -0.653107       -17.7719
  22   2.0000      -0.625935       -17.0326
  23   2.0000      -0.613062       -16.6823
  24   2.0000      -0.597750       -16.2656
  25   2.0000      -0.565858       -15.3978
  26   2.0000      -0.563357       -15.3297
  27   2.0000      -0.540257       -14.7011
  28   2.0000      -0.534305       -14.5392
  29   2.0000      -0.524017       -14.2592
  30   2.0000      -0.520538       -14.1645
  31   2.0000      -0.475474       -12.9383
  32   2.0000      -0.459110       -12.4930
  33   2.0000      -0.436365       -11.8741
  34   2.0000      -0.407133       -11.0787
  35   0.0000       0.125256         3.4084
  36   0.0000       0.132286         3.5997
  37   0.0000       0.146437         3.9847
  38   0.0000       0.163584         4.4514
  39   0.0000       0.169390         4.6093

MULLIKEN ATOMIC CHARGES
-----------------------
   0 C :   -0.383471
   1 C :    0.026261
   2 O :   -0.339636
   3 C :    0.158746
   4 C :   -0.396719
   5 C :    0.186419
   6 O :   -0.264400
   7 C :   -0.090057
   8 O :   -0.434859
   9 H :    0.136825
  10 H :    0.144601
  11 H :    0.139861
  12 H :    0.111721
  13 H :    0.130263
  14 H :    0.162495
  15 H :    0.141585
  16 H :    0.121898
  17 H :    0.128476
  18 H :    0.319992
Sum of atomic charges:    0.0000000

LOEWDIN ATOMIC CHARGES
----------------------
   0 C :   -0.288105
   1 C :   -0.267723
   2 O :    0.187109
   3 C :   -0.289531
   4 C :   -0.256734
   5 C :   -0.296956
   6 O :    0.179767
   7 C :   -0.332999
   8 O :   -0.020535
   9 H :    0.128440
  10 H :    0.132731
  11 H :    0.134676
  12 H :    0.138654
  13 H :    0.126881
  14 H :    0.142658
  15 H :    0.135692
  16 H :    0.131199
  17 H :    0.137566
  18 H :    0.177208

  Mayer bond orders larger than 0.1
B(  0-C ,  1-C ) :   0.9035 B(  0-C ,  9-H ) :   0.9429 B(  0-C , 10-H ) :   0.9333
B(  0-C , 11-H ) :   0.9250 B(  1-C ,  2-O ) :   0.8813 B(  1-C ,  3-C ) :   0.9375
B(  1-C , 12-H ) :   0.8992 B(  2-O ,  3-C ) :   0.8711 B(  3-C ,  4-C ) :   0.9087
B(  3-C ,  5-C ) :   0.8424 B(  4-C , 13-H ) :   0.9395 B(  4-C , 14-H ) :   0.9270
B(  4-C , 15-H ) :   0.9297 B(  5-C ,  6-O ) :   1.9942 B(  5-C ,  7-C ) :   0.9338
B(  7-C ,  8-O ) :   1.0316 B(  7-C , 16-H ) :   0.9129 B(  7-C , 17-H ) :   0.9063
B(  8-O , 18-H ) :   0.8448

MP2 TOTAL ENERGY:     -459.419118755 Eh
FINAL SINGLE POINT ENERGY      -459.419118754823

DIPOLE MOMENT
-------------
                                X             Y             Z
Electronic contribution:     -0.59068      -6.35595       3.17754
Nuclear contribution   :      1.01273       6.66634      -4.26812
                        -----------------------------------------
Total Dipole Moment    :      0.42204       0.31039      -1.09058
                        -----------------------------------------
Magnitude (a.u.)       :      1.20988
Magnitude (Debye)      :      3.07528

                             ****ORCA TERMINATED NORMALLY****
TOTAL RUN TIME: 0 days 0 hours 16 minutes 5 seconds 619 msec
