                         Program Version 3.0.3 - RELEASE   -
|  1> ! RI-MP2 RIJK def2-TZVP def2-TZVP/C def2-TZVP/JK TIGHTSCF
|  2> % maxcore 2000
|  3> % mp2 density relaxed end
|  4> *xyz 0 1
|  5>  C        0.1592356750     1.4951800987     0.0827614609
|  6>  C        0.0207759608    -0.0243886735    -0.0553433970
|  7>  C       -1.4392302442    -0.5372474996    -0.0366701182
|  8>  C       -2.2424469672    -0.0439465832    -1.2557775916
|  9>  C       -1.4859408613    -2.0401804346     0.0733784573
| 10>  C       -1.9842184328    -2.7428682560     1.0936388428
| 11>  C       -1.9192652821    -4.2343671391     0.8735961396
| 12>  C       -0.9713482637    -4.3593890797    -0.3464299025
| 13>  C       -0.9982989093    -2.9688595341    -1.0282431957
| 14>  H        1.2131969574     1.7868152802     0.1313214461
| 15>  H       -0.2881377605     2.0285104442    -0.7616177563
| 16>  H       -0.3262391710     1.8546188992     0.9973274552
| 17>  H        0.5089707701    -0.3519282818    -0.9823708334
| 18>  H        0.5636485120    -0.5097612548     0.7644897448
| 19>  H       -1.9151841064    -0.1309754613     0.8666274179
| 20>  H       -3.2673774335    -0.4263191324    -1.2263644447
| 21>  H       -2.2945027113     1.0480394911    -1.2847178780
| 22>  H       -1.7856577983    -0.3808177659    -2.1930666409
| 23>  H       -2.4323158119    -2.3026003803     1.9792145668
| 24>  H       -1.5507433338    -4.7837346391     1.7477507691
| 25>  H       -2.9187165791    -4.6405800488     0.6585799298
| 26>  H        0.0439718765    -4.5692339091     0.0053946180
| 27>  H       -1.2511302369    -5.1703748497    -1.0238513977
| 28>  H       -1.6936454970    -2.9483114113    -1.8796001139
| 29>  H       -0.0194891216    -2.6850991588    -1.4309882982
| 30> *
| 31>
| 32>                          ****END OF INPUT****

CARTESIAN COORDINATES (ANGSTROEM)
---------------------------------
  C      0.159236    1.495180    0.082761
  C      0.020776   -0.024389   -0.055343
  C     -1.439230   -0.537247   -0.036670
  C     -2.242447   -0.043947   -1.255778
  C     -1.485941   -2.040180    0.073378
  C     -1.984218   -2.742868    1.093639
  C     -1.919265   -4.234367    0.873596
  C     -0.971348   -4.359389   -0.346430
  C     -0.998299   -2.968860   -1.028243
  H      1.213197    1.786815    0.131321
  H     -0.288138    2.028510   -0.761618
  H     -0.326239    1.854619    0.997327
  H      0.508971   -0.351928   -0.982371
  H      0.563649   -0.509761    0.764490
  H     -1.915184   -0.130975    0.866627
  H     -3.267377   -0.426319   -1.226364
  H     -2.294503    1.048039   -1.284718
  H     -1.785658   -0.380818   -2.193067
  H     -2.432316   -2.302600    1.979215
  H     -1.550743   -4.783735    1.747751
  H     -2.918717   -4.640580    0.658580
  H      0.043972   -4.569234    0.005395
  H     -1.251130   -5.170375   -1.023851
  H     -1.693645   -2.948311   -1.879600
  H     -0.019489   -2.685099   -1.430988

 Total Charge           Charge          ....    0
 Multiplicity           Mult            ....    1
 Number of Electrons    NEL             ....   70
 Basis Dimension        Dim             ....  375

ORBITAL ENERGIES
----------------

  NO   OCC          E(Eh)            E(eV)
   0   2.0000     -11.226661      -305.4930
   1   2.0000     -11.218533      -305.2718
   2   2.0000     -11.217247      -305.2368
   3   2.0000     -11.216713      -305.2223
   4   2.0000     -11.216048      -305.2042
   5   2.0000     -11.215036      -305.1767
   6   2.0000     -11.210917      -305.0646
   7   2.0000     -11.210661      -305.0576
   8   2.0000     -11.207785      -304.9793
   9   2.0000      -1.133618       -30.8473
  10   2.0000      -1.071222       -29.1494
  11   2.0000      -0.987952       -26.8836
  12   2.0000      -0.954012       -25.9600
  13   2.0000      -0.939618       -25.5683
  14   2.0000      -0.869491       -23.6600
  15   2.0000      -0.797005       -21.6876
  16   2.0000      -0.768957       -20.9244
  17   2.0000      -0.700326       -19.0568
  18   2.0000      -0.651526       -17.7289
  19   2.0000      -0.631225       -17.1765
  20   2.0000      -0.620283       -16.8787
  21   2.0000      -0.579151       -15.7595
  22   2.0000      -0.571486       -15.5509
  23   2.0000      -0.548245       -14.9185
  24   2.0000      -0.534045       -14.5321
  25   2.0000      -0.525768       -14.3069
  26   2.0000      -0.518074       -14.0975
  27   2.0000      -0.498256       -13.5582
  28   2.0000      -0.482503       -13.1296
  29   2.0000      -0.479221       -13.0403
  30   2.0000      -0.471625       -12.8336
  31   2.0000      -0.458006       -12.4630
  32   2.0000      -0.449682       -12.2365
  33   2.0000      -0.445992       -12.1360
  34   2.0000      -0.327030        -8.8989
  35   0.0000       0.132786         3.6133
  36   0.0000       0.149934         4.0799
  37   0.0000       0.163420         4.4469
  38   0.0000       0.166168         4.5217
  39   0.0000       0.175292         4.7699

MULLIKEN ATOMIC CHARGES
-----------------------
   0 C :   -0.408049
   1 C :   -0.202533
   2 C :   -0.041661
   3 C :   -0.437895
   4 C :    0.051373
   5 C :   -0.215624
   6 C :   -0.160976
   7 C :   -0.231601
   8 C :   -0.253104
   9 H :    0.134895
  10 H :    0.127687
  11 H :    0.123478
  12 H :    0.102732
  13 H :    0.119412
  14 H :    0.081566
  15 H :    0.137760
  16 H :    0.135544
  17 H :    0.127604
  18 H :    0.119054
  19 H :    0.114643
  20 H :    0.108543
  21 H :    0.108080
  22 H :    0.119745
  23 H :    0.116705
  24 H :    0.122621
Sum of atomic charges:    0.0000000

LOEWDIN ATOMIC CHARGES
----------------------
   0 C :   -0.319843
   1 C :   -0.265547
   2 C :   -0.248873
   3 C :   -0.284815
   4 C :   -0.148606
   5 C :   -0.143624
   6 C :   -0.247057
   7 C :   -0.238588
   8 C :   -0.214911
   9 H :    0.121425
  10 H :    0.118476
  11 H :    0.121016
  12 H :    0.135365
  13 H :    0.140052
  14 H :    0.157679
  15 H :    0.125789
  16 H :    0.121528
  17 H :    0.123784
  18 H :    0.136033
  19 H :    0.133275
  20 H :    0.136977
  21 H :    0.136301
  22 H :    0.129072
  23 H :    0.139823
  24 H :    0.135269

  Mayer bond orders larger than 0.1
B(  0-C ,  1-C ) :   0.9079 B(  0-C ,  9-H ) :   0.9419 B(  0-C , 10-H ) :   0.9422
B(  0-C , 11-H ) :   0.9390 B(  1-C ,  2-C ) :   0.9262 B(  1-C , 12-H ) :   0.9243
B(  1-C , 13-H ) :   0.9380 B(  2-C ,  3-C ) :   0.8923 B(  2-C ,  4-C ) :   0.8885
B(  2-C , 14-H ) :   0.9337 B(  3-C , 15-H ) :   0.9405 B(  3-C , 16-H ) :   0.9386
B(  3-C , 17-H ) :   0.9315 B(  4-C ,  5-C ) :   1.7321 B(  4-C ,  8-C ) :   0.9066
B(  5-C ,  6-C ) :   0.9444 B(  5-C , 18-H ) :   0.9236 B(  6-C ,  7-C ) :   0.9517
B(  6-C , 19-H ) :   0.9329 B(  6-C , 20-H ) :   0.9095 B(  7-C ,  8-C ) :   0.9531
B(  7-C , 21-H ) :   0.9316 B(  7-C , 22-H ) :   0.9403 B(  8-C , 23-H ) :   0.9085
B(  8-C , 24-H ) :   0.9287

MP2 TOTAL ENERGY:     -351.729271267 Eh
FINAL SINGLE POINT ENERGY      -351.729271266846

DIPOLE MOMENT
-------------
                                X             Y             Z
Electronic contribution:     -1.52162      -4.29471       2.04574
Nuclear contribution   :      1.54673       4.32328      -2.09549
                        -----------------------------------------
Total Dipole Moment    :      0.02511       0.02857      -0.04975
                        -----------------------------------------
Magnitude (a.u.)       :      0.06263
Magnitude (Debye)      :      0.15918

                             ****ORCA TERMINATED NORMALLY****
TOTAL RUN TIME: 0 days 0 hours 22 minutes 22 seconds 608 msec
