                         Program Version 3.0.3 - RELEASE   -
|  1> ! RI-MP2 RIJK def2-TZVP def2-TZVP/C def2-TZVP/JK TIGHTSCF
|  2> % maxcore 2000
|  3> % mp2 density relaxed end
|  4> *xyz 0 1
|  5>  O       -0.0463639569     0.0618102873     0.4928915466
|  6>  C       -0.1322287737     1.2073002839     0.1566741538
|  7>  C       -1.2606913937     2.2476953169     0.0574249978
|  8>  C       -1.6240314027     2.7448838859    -1.3860140169
|  9>  C       -0.6320414145     3.9412465153    -1.2388060374
| 10>  C       -0.1017571916     3.2991603706     0.0441851837
| 11>  C        0.7309201429     3.8584330879     1.2158017346
| 12>  C        1.7061397093     2.6593476767     1.0259652101
| 13>  N        0.8842939430     2.1645802405    -0.1323934745
| 14>  H       -2.0682704112     2.1795436341     0.7850460721
| 15>  H       -1.3720365384     2.0344216545    -2.1747353734
| 16>  H       -2.6704039835     3.0324488870    -1.4970896319
| 17>  H        0.0995331633     4.0980961546    -2.0352302513
| 18>  H       -1.1564147059     4.8816653976    -1.0437870624
| 19>  H        1.1748164152     4.8350405131     1.0084840072
| 20>  H        0.2146479240     3.9068870774     2.1772766996
| 21>  H        2.7214625471     2.9261509493     0.7251695499
| 22>  H        1.7544551273     1.9375213472     1.8451384225
| 23> *
| 24>
| 25>                          ****END OF INPUT****

CARTESIAN COORDINATES (ANGSTROEM)
---------------------------------
  O     -0.046364    0.061810    0.492892
  C     -0.132229    1.207300    0.156674
  C     -1.260691    2.247695    0.057425
  C     -1.624031    2.744884   -1.386014
  C     -0.632041    3.941247   -1.238806
  C     -0.101757    3.299160    0.044185
  C      0.730920    3.858433    1.215802
  C      1.706140    2.659348    1.025965
  N      0.884294    2.164580   -0.132393
  H     -2.068270    2.179544    0.785046
  H     -1.372037    2.034422   -2.174735
  H     -2.670404    3.032449   -1.497090
  H      0.099533    4.098096   -2.035230
  H     -1.156415    4.881665   -1.043787
  H      1.174816    4.835041    1.008484
  H      0.214648    3.906887    2.177277
  H      2.721463    2.926151    0.725170
  H      1.754455    1.937521    1.845138

 Total Charge           Charge          ....    0
 Multiplicity           Mult            ....    1
 Number of Electrons    NEL             ....   66
 Basis Dimension        Dim             ....  333

ORBITAL ENERGIES
----------------

  NO   OCC          E(Eh)            E(eV)
   0   2.0000     -20.541077      -558.9511
   1   2.0000     -15.565349      -423.5547
   2   2.0000     -11.349019      -308.8225
   3   2.0000     -11.280577      -306.9601
   4   2.0000     -11.274356      -306.7908
   5   2.0000     -11.251181      -306.1602
   6   2.0000     -11.246416      -306.0305
   7   2.0000     -11.245522      -306.0062
   8   2.0000     -11.236849      -305.7702
   9   2.0000      -1.397601       -38.0307
  10   2.0000      -1.289098       -35.0781
  11   2.0000      -1.114766       -30.3343
  12   2.0000      -1.029055       -28.0020
  13   2.0000      -0.937689       -25.5158
  14   2.0000      -0.911109       -24.7925
  15   2.0000      -0.821202       -22.3460
  16   2.0000      -0.785174       -21.3657
  17   2.0000      -0.700567       -19.0634
  18   2.0000      -0.686378       -18.6773
  19   2.0000      -0.671213       -18.2646
  20   2.0000      -0.658949       -17.9309
  21   2.0000      -0.607276       -16.5248
  22   2.0000      -0.584549       -15.9064
  23   2.0000      -0.564109       -15.3502
  24   2.0000      -0.555732       -15.1222
  25   2.0000      -0.545452       -14.8425
  26   2.0000      -0.539619       -14.6838
  27   2.0000      -0.484818       -13.1926
  28   2.0000      -0.484037       -13.1713
  29   2.0000      -0.458091       -12.4653
  30   2.0000      -0.431099       -11.7308
  31   2.0000      -0.410439       -11.1686
  32   2.0000      -0.378827       -10.3084
  33   0.0000       0.129470         3.5231
  34   0.0000       0.132841         3.6148
  35   0.0000       0.162080         4.4104
  36   0.0000       0.165762         4.5106
  37   0.0000       0.177496         4.8299

MULLIKEN ATOMIC CHARGES
-----------------------
   0 O :   -0.267093
   1 C :    0.173060
   2 C :   -0.143289
   3 C :   -0.260591
   4 C :   -0.209824
   5 C :    0.093073
   6 C :   -0.219196
   7 C :   -0.168115
   8 N :   -0.151811
   9 H :    0.134513
  10 H :    0.137076
  11 H :    0.128604
  12 H :    0.116471
  13 H :    0.118697
  14 H :    0.130864
  15 H :    0.127491
  16 H :    0.126147
  17 H :    0.133924
Sum of atomic charges:   -0.0000000

LOEWDIN ATOMIC CHARGES
----------------------
   0 O :    0.145338
   1 C :   -0.385368
   2 C :   -0.128277
   3 C :   -0.198384
   4 C :   -0.203131
   5 C :   -0.205923
   6 C :   -0.206345
   7 C :   -0.220022
   8 N :    0.186940
   9 H :    0.144486
  10 H :    0.137991
  11 H :    0.132134
  12 H :    0.132209
  13 H :    0.139031
  14 H :    0.138116
  15 H :    0.135504
  16 H :    0.126177
  17 H :    0.129525

  Mayer bond orders larger than 0.1
B(  0-O ,  1-C ) :   2.0579 B(  1-C ,  2-C ) :   0.9022 B(  1-C ,  8-N ) :   1.0025
B(  2-C ,  3-C ) :   0.8879 B(  2-C ,  5-C ) :   0.8691 B(  2-C ,  9-H ) :   0.8992
B(  3-C ,  4-C ) :   0.9685 B(  3-C , 10-H ) :   0.9160 B(  3-C , 11-H ) :   0.9273
B(  4-C ,  5-C ) :   0.9054 B(  4-C , 12-H ) :   0.9061 B(  4-C , 13-H ) :   0.9142
B(  5-C ,  6-C ) :   0.8724 B(  5-C ,  8-N ) :   0.9200 B(  6-C ,  7-C ) :   0.9720
B(  6-C , 14-H ) :   0.9160 B(  6-C , 15-H ) :   0.9093 B(  7-C ,  8-N ) :   0.8744
B(  7-C , 16-H ) :   0.9213 B(  7-C , 17-H ) :   0.9269

MP2 TOTAL ENERGY:     -401.224777535 Eh
FINAL SINGLE POINT ENERGY      -401.224777535223

DIPOLE MOMENT
-------------
                                X             Y             Z
Electronic contribution:      0.58222      -5.80989       0.66100
Nuclear contribution   :     -0.84318       7.30741      -0.48719
                        -----------------------------------------
Total Dipole Moment    :     -0.26096       1.49752       0.17382
                        -----------------------------------------
Magnitude (a.u.)       :      1.53000
Magnitude (Debye)      :      3.88894

                             ****ORCA TERMINATED NORMALLY****
TOTAL RUN TIME: 0 days 0 hours 20 minutes 9 seconds 285 msec
