                         Program Version 3.0.3 - RELEASE   -
|  1> ! RI-MP2 RIJK def2-TZVP def2-TZVP/C def2-TZVP/JK TIGHTSCF
|  2> % maxcore 2000
|  3> % mp2 density relaxed end
|  4> *xyz 0 1
|  5>  C        0.0138989240     1.5211810864     0.0075010350
|  6>  C       -0.0544994057     0.0237549192     0.0745959923
|  7>  N        1.1408301406    -0.7598695072    -0.2695923353
|  8>  C        0.5445780812    -0.9607045875     1.0591792146
|  9>  C        1.3949987173    -0.7481718121     2.2769920320
| 10>  C       -0.7087506888    -1.8155899811     0.9793823483
| 11>  C       -1.9250197331    -1.0051345886     1.3497682172
| 12>  C       -1.3139043691    -0.8208888310    -0.0161578347
| 13>  H        0.9902527296     1.8795591759     0.3438188304
| 14>  H       -0.1312068931     1.8732487663    -1.0207894645
| 15>  H       -0.7624782367     1.9790801294     0.6295587005
| 16>  H        0.9254660434    -1.5262314563    -0.9048389012
| 17>  H        2.0777007203     0.0928024386     2.1304171879
| 18>  H        0.7769756426    -0.5501568369     3.1591626422
| 19>  H        2.0038898452    -1.6353559237     2.4880575425
| 20>  H       -0.7339193630    -2.8990678807     0.9278008944
| 21>  H       -2.8661725215    -1.5476666401     1.3795138678
| 22>  H       -1.8467750719    -0.2147856817     2.0918495071
| 23>  H       -1.8604937610    -1.0471535791    -0.9257045665
| 24> *
| 25>
| 26>                          ****END OF INPUT****

CARTESIAN COORDINATES (ANGSTROEM)
---------------------------------
  C      0.013899    1.521181    0.007501
  C     -0.054499    0.023755    0.074596
  N      1.140830   -0.759870   -0.269592
  C      0.544578   -0.960705    1.059179
  C      1.394999   -0.748172    2.276992
  C     -0.708751   -1.815590    0.979382
  C     -1.925020   -1.005135    1.349768
  C     -1.313904   -0.820889   -0.016158
  H      0.990253    1.879559    0.343819
  H     -0.131207    1.873249   -1.020789
  H     -0.762478    1.979080    0.629559
  H      0.925466   -1.526231   -0.904839
  H      2.077701    0.092802    2.130417
  H      0.776976   -0.550157    3.159163
  H      2.003890   -1.635356    2.488058
  H     -0.733919   -2.899068    0.927801
  H     -2.866173   -1.547667    1.379514
  H     -1.846775   -0.214786    2.091850
  H     -1.860494   -1.047154   -0.925705

 Total Charge           Charge          ....    0
 Multiplicity           Mult            ....    1
 Number of Electrons    NEL             ....   60
 Basis Dimension        Dim             ....  314

ORBITAL ENERGIES
----------------

  NO   OCC          E(Eh)            E(eV)
   0   2.0000     -15.546554      -423.0432
   1   2.0000     -11.260646      -306.4178
   2   2.0000     -11.259997      -306.4001
   3   2.0000     -11.236807      -305.7691
   4   2.0000     -11.236002      -305.7472
   5   2.0000     -11.235443      -305.7319
   6   2.0000     -11.215432      -305.1874
   7   2.0000     -11.215421      -305.1871
   8   2.0000      -1.286852       -35.0170
   9   2.0000      -1.133936       -30.8560
  10   2.0000      -0.995536       -27.0899
  11   2.0000      -0.979866       -26.6635
  12   2.0000      -0.874617       -23.7995
  13   2.0000      -0.837736       -22.7960
  14   2.0000      -0.796993       -21.6873
  15   2.0000      -0.690299       -18.7840
  16   2.0000      -0.686794       -18.6886
  17   2.0000      -0.649302       -17.6684
  18   2.0000      -0.601953       -16.3800
  19   2.0000      -0.576047       -15.6750
  20   2.0000      -0.570474       -15.5234
  21   2.0000      -0.556427       -15.1412
  22   2.0000      -0.547227       -14.8908
  23   2.0000      -0.534092       -14.5334
  24   2.0000      -0.476807       -12.9746
  25   2.0000      -0.469008       -12.7624
  26   2.0000      -0.416951       -11.3458
  27   2.0000      -0.416058       -11.3215
  28   2.0000      -0.395406       -10.7595
  29   2.0000      -0.373460       -10.1624
  30   0.0000       0.142703         3.8831
  31   0.0000       0.157309         4.2806
  32   0.0000       0.163362         4.4453
  33   0.0000       0.169267         4.6060
  34   0.0000       0.197774         5.3817

MULLIKEN ATOMIC CHARGES
-----------------------
   0 C :   -0.424878
   1 C :    0.071184
   2 N :   -0.368601
   3 C :    0.071115
   4 C :   -0.424896
   5 C :   -0.095706
   6 C :   -0.279536
   7 C :   -0.095803
   8 H :    0.142654
   9 H :    0.133934
  10 H :    0.129221
  11 H :    0.212976
  12 H :    0.142644
  13 H :    0.129228
  14 H :    0.133931
  15 H :    0.130013
  16 H :    0.126060
  17 H :    0.136415
  18 H :    0.130044
Sum of atomic charges:   -0.0000000

LOEWDIN ATOMIC CHARGES
----------------------
   0 C :   -0.270024
   1 C :   -0.256583
   2 N :    0.059168
   3 C :   -0.256533
   4 C :   -0.270043
   5 C :   -0.152963
   6 C :   -0.191672
   7 C :   -0.153006
   8 H :    0.132761
   9 H :    0.130148
  10 H :    0.128410
  11 H :    0.165110
  12 H :    0.132755
  13 H :    0.128410
  14 H :    0.130148
  15 H :    0.136425
  16 H :    0.137318
  17 H :    0.133734
  18 H :    0.136437

  Mayer bond orders larger than 0.1
B(  0-C ,  1-C ) :   0.8867 B(  0-C ,  8-H ) :   0.9386 B(  0-C ,  9-H ) :   0.9373
B(  0-C , 10-H ) :   0.9411 B(  1-C ,  2-N ) :   0.9286 B(  1-C ,  3-C ) :   0.8504
B(  1-C ,  7-C ) :   0.9228 B(  2-N ,  3-C ) :   0.9286 B(  2-N , 11-H ) :   0.8707
B(  3-C ,  4-C ) :   0.8867 B(  3-C ,  5-C ) :   0.9229 B(  4-C , 12-H ) :   0.9386
B(  4-C , 13-H ) :   0.9411 B(  4-C , 14-H ) :   0.9373 B(  5-C ,  6-C ) :   0.8761
B(  5-C ,  7-C ) :   0.8460 B(  5-C , 15-H ) :   0.9256 B(  6-C ,  7-C ) :   0.8762
B(  6-C , 16-H ) :   0.9215 B(  6-C , 17-H ) :   0.9156 B(  7-C , 18-H ) :   0.9256

MP2 TOTAL ENERGY:     -327.289854617 Eh
FINAL SINGLE POINT ENERGY      -327.289854616778

DIPOLE MOMENT
-------------
                                X             Y             Z
Electronic contribution:     -0.18241      -2.50611      -2.39443
Nuclear contribution   :     -0.38028       2.29494       2.52526
                        -----------------------------------------
Total Dipole Moment    :     -0.56269      -0.21117       0.13083
                        -----------------------------------------
Magnitude (a.u.)       :      0.61508
Magnitude (Debye)      :      1.56341

                             ****ORCA TERMINATED NORMALLY****
TOTAL RUN TIME: 0 days 0 hours 13 minutes 36 seconds 521 msec
