                         Program Version 3.0.3 - RELEASE   -
|  1> ! RI-MP2 RIJK def2-TZVP def2-TZVP/C def2-TZVP/JK TIGHTSCF
|  2> % maxcore 2000
|  3> % mp2 density relaxed end
|  4> *xyz 0 1
|  5>  C        0.1007723230     1.5522633256    -0.0649571730
|  6>  C       -0.0344074026     0.0341403674     0.0540765665
|  7>  O        0.5810579001    -0.6016184440    -1.0721677648
|  8>  C        1.4866612098    -1.6125171246    -0.6597881100
|  9>  C        1.5295099505    -1.4928855626     0.8505544282
| 10>  C        0.6566187436    -0.5642728975     1.2470364960
| 11>  C        2.3745411081    -2.2871237439     1.6666687716
| 12>  N        3.0783332535    -2.9524844545     2.3020855569
| 13>  H        1.1536762747     1.8469535017    -0.0498844320
| 14>  H       -0.3426056588     1.8880568853    -1.0059212964
| 15>  H       -0.4191302610     2.0512005701     0.7591157753
| 16>  H       -1.1073355987    -0.2247231393     0.0720446018
| 17>  H        1.1346976353    -2.6073499098    -0.9730636817
| 18>  H        2.4704765585    -1.4483671305    -1.1198191296
| 19>  H        0.4533877539    -0.2704547035     2.2682661011
| 20> *
| 21>
| 22>                          ****END OF INPUT****

CARTESIAN COORDINATES (ANGSTROEM)
---------------------------------
  C      0.100772    1.552263   -0.064957
  C     -0.034407    0.034140    0.054077
  O      0.581058   -0.601618   -1.072168
  C      1.486661   -1.612517   -0.659788
  C      1.529510   -1.492886    0.850554
  C      0.656619   -0.564273    1.247036
  C      2.374541   -2.287124    1.666669
  N      3.078333   -2.952484    2.302086
  H      1.153676    1.846954   -0.049884
  H     -0.342606    1.888057   -1.005921
  H     -0.419130    2.051201    0.759116
  H     -1.107336   -0.224723    0.072045
  H      1.134698   -2.607350   -0.973064
  H      2.470477   -1.448367   -1.119819
  H      0.453388   -0.270455    2.268266

 Total Charge           Charge          ....    0
 Multiplicity           Mult            ....    1
 Number of Electrons    NEL             ....   58
 Basis Dimension        Dim             ....  290

ORBITAL ENERGIES
----------------

  NO   OCC          E(Eh)            E(eV)
   0   2.0000     -20.574449      -559.8592
   1   2.0000     -15.582466      -424.0205
   2   2.0000     -11.311784      -307.8093
   3   2.0000     -11.307605      -307.6956
   4   2.0000     -11.288654      -307.1799
   5   2.0000     -11.285250      -307.0873
   6   2.0000     -11.279606      -306.9337
   7   2.0000     -11.235562      -305.7352
   8   2.0000      -1.403240       -38.1841
   9   2.0000      -1.228653       -33.4333
  10   2.0000      -1.122033       -30.5321
  11   2.0000      -1.062109       -28.9015
  12   2.0000      -0.945476       -25.7277
  13   2.0000      -0.878364       -23.9015
  14   2.0000      -0.815787       -22.1987
  15   2.0000      -0.749400       -20.3922
  16   2.0000      -0.687988       -18.7211
  17   2.0000      -0.650161       -17.6918
  18   2.0000      -0.627706       -17.0807
  19   2.0000      -0.588155       -16.0045
  20   2.0000      -0.574009       -15.6196
  21   2.0000      -0.559827       -15.2337
  22   2.0000      -0.553695       -15.0668
  23   2.0000      -0.533088       -14.5060
  24   2.0000      -0.522540       -14.2190
  25   2.0000      -0.515217       -14.0198
  26   2.0000      -0.465242       -12.6599
  27   2.0000      -0.448935       -12.2161
  28   2.0000      -0.376203       -10.2370
  29   0.0000       0.083233         2.2649
  30   0.0000       0.127754         3.4764
  31   0.0000       0.146960         3.9990
  32   0.0000       0.162234         4.4146
  33   0.0000       0.172185         4.6854

MULLIKEN ATOMIC CHARGES
-----------------------
   0 C :   -0.386721
   1 C :    0.142175
   2 O :   -0.325077
   3 C :   -0.020376
   4 C :    0.136165
   5 C :   -0.219708
   6 C :   -0.193661
   7 N :   -0.046790
   8 H :    0.131343
   9 H :    0.147547
  10 H :    0.125246
  11 H :    0.103273
  12 H :    0.119933
  13 H :    0.125417
  14 H :    0.161232
Sum of atomic charges:    0.0000000

LOEWDIN ATOMIC CHARGES
----------------------
   0 C :   -0.284098
   1 C :   -0.310308
   2 O :    0.180614
   3 C :   -0.240873
   4 C :   -0.165542
   5 C :   -0.064743
   6 C :   -0.152105
   7 N :    0.082481
   8 H :    0.127234
   9 H :    0.130556
  10 H :    0.127129
  11 H :    0.147292
  12 H :    0.133839
  13 H :    0.134910
  14 H :    0.153614

  Mayer bond orders larger than 0.1
B(  0-C ,  1-C ) :   0.9114 B(  0-C ,  8-H ) :   0.9312 B(  0-C ,  9-H ) :   0.9340
B(  0-C , 10-H ) :   0.9291 B(  1-C ,  2-O ) :   0.9293 B(  1-C ,  5-C ) :   0.9583
B(  1-C , 11-H ) :   0.9063 B(  2-O ,  3-C ) :   0.9602 B(  3-C ,  4-C ) :   0.9618
B(  3-C , 12-H ) :   0.9108 B(  3-C , 13-H ) :   0.9069 B(  4-C ,  5-C ) :   1.7075
B(  4-C ,  6-C ) :   0.8878 B(  5-C , 14-H ) :   0.9072 B(  6-C ,  7-N ) :   2.8371

MP2 TOTAL ENERGY:     -362.055872577 Eh
FINAL SINGLE POINT ENERGY      -362.055872576567

DIPOLE MOMENT
-------------
                                X             Y             Z
Electronic contribution:      3.74275      -6.41459       2.89483
Nuclear contribution   :     -4.63813       7.30482      -3.20041
                        -----------------------------------------
Total Dipole Moment    :     -0.89537       0.89023      -0.30558
                        -----------------------------------------
Magnitude (a.u.)       :      1.29907
Magnitude (Debye)      :      3.30197

                             ****ORCA TERMINATED NORMALLY****
TOTAL RUN TIME: 0 days 0 hours 12 minutes 8 seconds 351 msec
