                         Program Version 3.0.3 - RELEASE   -
|  1> ! RI-MP2 RIJK def2-TZVP def2-TZVP/C def2-TZVP/JK TIGHTSCF
|  2> % maxcore 2000
|  3> % mp2 density relaxed end
|  4> *xyz 0 1
|  5>  N       -0.0114389771     1.2608316774     0.5343334330
|  6>  C        0.0379605417     0.1465418958    -0.0649980739
|  7>  N       -1.0746674656    -0.2894418942    -0.7853512175
|  8>  C       -1.3901940739    -1.5906720877    -1.1790630820
|  9>  N       -2.5722439086    -2.0232855678    -1.0515420354
| 10>  O       -0.3871619142    -2.3104522655    -1.7512782976
| 11>  C        0.7280896766    -1.5831772101    -2.2647090968
| 12>  C        1.7100698217    -1.2496081871    -1.1535933819
| 13>  O        1.0884256475    -0.7161860070     0.0188603915
| 14>  H        0.8783551451     1.4452748258     0.9922862904
| 15>  H       -1.8938490443     0.2704229645    -0.5944819260
| 16>  H       -2.6639976973    -2.9291921451    -1.5080798761
| 17>  H        1.2120735032    -2.2378915364    -2.9943460326
| 18>  H        0.3834618442    -0.6824860997    -2.7814722149
| 19>  H        2.2148732045    -2.1546886480    -0.8075303581
| 20>  H        2.4673640766    -0.5468284748    -1.5270766220
| 21> *
| 22>
| 23>                          ****END OF INPUT****

CARTESIAN COORDINATES (ANGSTROEM)
---------------------------------
  N     -0.011439    1.260832    0.534333
  C      0.037961    0.146542   -0.064998
  N     -1.074667   -0.289442   -0.785351
  C     -1.390194   -1.590672   -1.179063
  N     -2.572244   -2.023286   -1.051542
  O     -0.387162   -2.310452   -1.751278
  C      0.728090   -1.583177   -2.264709
  C      1.710070   -1.249608   -1.153593
  O      1.088426   -0.716186    0.018860
  H      0.878355    1.445275    0.992286
  H     -1.893849    0.270423   -0.594482
  H     -2.663998   -2.929192   -1.508080
  H      1.212074   -2.237892   -2.994346
  H      0.383462   -0.682486   -2.781472
  H      2.214873   -2.154689   -0.807530
  H      2.467364   -0.546828   -1.527077

 Total Charge           Charge          ....    0
 Multiplicity           Mult            ....    1
 Number of Electrons    NEL             ....   68
 Basis Dimension        Dim             ....  321

ORBITAL ENERGIES
----------------

  NO   OCC          E(Eh)            E(eV)
   0   2.0000     -20.615975      -560.9892
   1   2.0000     -20.611017      -560.8543
   2   2.0000     -15.606746      -424.6811
   3   2.0000     -15.537274      -422.7907
   4   2.0000     -15.534435      -422.7135
   5   2.0000     -11.388541      -309.8980
   6   2.0000     -11.386273      -309.8362
   7   2.0000     -11.320750      -308.0533
   8   2.0000     -11.319646      -308.0232
   9   2.0000      -1.469441       -39.9855
  10   2.0000      -1.436736       -39.0956
  11   2.0000      -1.288451       -35.0605
  12   2.0000      -1.210054       -32.9272
  13   2.0000      -1.163185       -31.6519
  14   2.0000      -1.053162       -28.6580
  15   2.0000      -0.925870       -25.1942
  16   2.0000      -0.863529       -23.4978
  17   2.0000      -0.823976       -22.4215
  18   2.0000      -0.739362       -20.1191
  19   2.0000      -0.734716       -19.9926
  20   2.0000      -0.697129       -18.9698
  21   2.0000      -0.684525       -18.6269
  22   2.0000      -0.669523       -18.2186
  23   2.0000      -0.658241       -17.9116
  24   2.0000      -0.620050       -16.8724
  25   2.0000      -0.604954       -16.4616
  26   2.0000      -0.563794       -15.3416
  27   2.0000      -0.537112       -14.6156
  28   2.0000      -0.526568       -14.3286
  29   2.0000      -0.487794       -13.2735
  30   2.0000      -0.453977       -12.3534
  31   2.0000      -0.447268       -12.1708
  32   2.0000      -0.423954       -11.5364
  33   2.0000      -0.372792       -10.1442
  34   0.0000       0.125741         3.4216
  35   0.0000       0.151213         4.1147
  36   0.0000       0.159185         4.3316
  37   0.0000       0.165711         4.5092
  38   0.0000       0.171785         4.6745

MULLIKEN ATOMIC CHARGES
-----------------------
   0 N :   -0.404772
   1 C :    0.270589
   2 N :   -0.313775
   3 C :    0.273073
   4 N :   -0.401604
   5 O :   -0.268163
   6 C :   -0.112221
   7 C :   -0.038128
   8 O :   -0.286323
   9 H :    0.230177
  10 H :    0.271505
  11 H :    0.228685
  12 H :    0.148664
  13 H :    0.151269
  14 H :    0.135282
  15 H :    0.115743
Sum of atomic charges:   -0.0000000

LOEWDIN ATOMIC CHARGES
----------------------
   0 N :   -0.073903
   1 C :   -0.493022
   2 N :    0.143438
   3 C :   -0.492593
   4 N :   -0.075735
   5 O :    0.242661
   6 C :   -0.298857
   7 C :   -0.292340
   8 O :    0.233429
   9 H :    0.171371
  10 H :    0.217850
  11 H :    0.170690
  12 H :    0.141407
  13 H :    0.135626
  14 H :    0.137794
  15 H :    0.132185

  Mayer bond orders larger than 0.1
B(  0-N ,  1-C ) :   1.9699 B(  0-N ,  9-H ) :   0.8547 B(  1-C ,  2-N ) :   1.0212
B(  1-C ,  8-O ) :   1.0742 B(  2-N ,  3-C ) :   1.0018 B(  2-N , 10-H ) :   0.8510
B(  3-C ,  4-N ) :   1.9834 B(  3-C ,  5-O ) :   1.0861 B(  4-N , 11-H ) :   0.8545
B(  5-O ,  6-C ) :   0.8511 B(  6-C ,  7-C ) :   0.9416 B(  6-C , 12-H ) :   0.9190
B(  6-C , 13-H ) :   0.9344 B(  7-C ,  8-O ) :   0.8801 B(  7-C , 14-H ) :   0.9259
B(  7-C , 15-H ) :   0.9274

MP2 TOTAL ENERGY:     -470.468148063 Eh
FINAL SINGLE POINT ENERGY      -470.468148062948

DIPOLE MOMENT
-------------
                                X             Y             Z
Electronic contribution:     -2.24885      -0.13831       1.93614
Nuclear contribution   :      3.67561      -0.24450      -2.98503
                        -----------------------------------------
Total Dipole Moment    :      1.42676      -0.38281      -1.04889
                        -----------------------------------------
Magnitude (a.u.)       :      1.81173
Magnitude (Debye)      :      4.60505

                             ****ORCA TERMINATED NORMALLY****
TOTAL RUN TIME: 0 days 0 hours 13 minutes 59 seconds 3 msec
