                         Program Version 3.0.3 - RELEASE   -
|  1> ! RI-MP2 RIJK def2-TZVP def2-TZVP/C def2-TZVP/JK TIGHTSCF
|  2> % maxcore 2000
|  3> % mp2 density relaxed end
|  4> *xyz 0 1
|  5>  C        0.0567149659     1.5438064122     0.1451087009
|  6>  C        0.0281307779     0.0285293915     0.0430455693
|  7>  O        0.6961646572    -0.5123483263     1.1659289632
|  8>  C        0.7251095868    -1.9218118484     1.1664885694
|  9>  C        1.4670796718    -2.3652610940     2.4192602699
| 10>  C        1.5700646893    -3.8711067081     2.5436279393
| 11>  O        1.1081409437    -4.6396625186     1.7268432542
| 12>  C        2.2703498790    -4.3513162615     3.7254387035
| 13>  C        2.8523300826    -4.7300495775     4.7086192339
| 14>  H        1.0878553143     1.9079611306     0.1656636066
| 15>  H       -0.4534433956     1.9930825977    -0.7121185715
| 16>  H       -0.4420605195     1.8767312120     1.0597976455
| 17>  H       -1.0116274344    -0.3386026123     0.0076033788
| 18>  H        0.5175121809    -0.3071346949    -0.8869979795
| 19>  H       -0.2938184343    -2.3393377939     1.1598091344
| 20>  H        1.2306530450    -2.3083746699     0.2678392474
| 21>  H        2.4794763177    -1.9416498156     2.4359767124
| 22>  H        0.9736264299    -1.9716928503     3.3171769704
| 23>  H        3.3629639019    -5.0828945929     5.5717100819
| 24> *
| 25>
| 26>                          ****END OF INPUT****

CARTESIAN COORDINATES (ANGSTROEM)
---------------------------------
  C      0.056715    1.543806    0.145109
  C      0.028131    0.028529    0.043046
  O      0.696165   -0.512348    1.165929
  C      0.725110   -1.921812    1.166489
  C      1.467080   -2.365261    2.419260
  C      1.570065   -3.871107    2.543628
  O      1.108141   -4.639663    1.726843
  C      2.270350   -4.351316    3.725439
  C      2.852330   -4.730050    4.708619
  H      1.087855    1.907961    0.165664
  H     -0.453443    1.993083   -0.712119
  H     -0.442061    1.876731    1.059798
  H     -1.011627   -0.338603    0.007603
  H      0.517512   -0.307135   -0.886998
  H     -0.293818   -2.339338    1.159809
  H      1.230653   -2.308375    0.267839
  H      2.479476   -1.941650    2.435977
  H      0.973626   -1.971693    3.317177
  H      3.362964   -5.082895    5.571710

 Total Charge           Charge          ....    0
 Multiplicity           Mult            ....    1
 Number of Electrons    NEL             ....   68
 Basis Dimension        Dim             ....  339

ORBITAL ENERGIES
----------------

  NO   OCC          E(Eh)            E(eV)
   0   2.0000     -20.565546      -559.6170
   1   2.0000     -20.558347      -559.4211
   2   2.0000     -11.364552      -309.2452
   3   2.0000     -11.281439      -306.9836
   4   2.0000     -11.277523      -306.8770
   5   2.0000     -11.264779      -306.5302
   6   2.0000     -11.255213      -306.2699
   7   2.0000     -11.247808      -306.0684
   8   2.0000     -11.216734      -305.2229
   9   2.0000      -1.407656       -38.3043
  10   2.0000      -1.381230       -37.5852
  11   2.0000      -1.083392       -29.4806
  12   2.0000      -1.052665       -28.6445
  13   2.0000      -1.007495       -27.4153
  14   2.0000      -0.912902       -24.8413
  15   2.0000      -0.837930       -22.8012
  16   2.0000      -0.824799       -22.4439
  17   2.0000      -0.737087       -20.0572
  18   2.0000      -0.702095       -19.1050
  19   2.0000      -0.686797       -18.6887
  20   2.0000      -0.664025       -18.0690
  21   2.0000      -0.632255       -17.2045
  22   2.0000      -0.629529       -17.1304
  23   2.0000      -0.597678       -16.2637
  24   2.0000      -0.569972       -15.5097
  25   2.0000      -0.536834       -14.6080
  26   2.0000      -0.521899       -14.2016
  27   2.0000      -0.509863       -13.8741
  28   2.0000      -0.494268       -13.4497
  29   2.0000      -0.482191       -13.1211
  30   2.0000      -0.448090       -12.1931
  31   2.0000      -0.427470       -11.6320
  32   2.0000      -0.423850       -11.5335
  33   2.0000      -0.419652       -11.4193
  34   0.0000       0.082607         2.2478
  35   0.0000       0.135022         3.6741
  36   0.0000       0.150572         4.0973
  37   0.0000       0.152036         4.1371
  38   0.0000       0.164256         4.4696

MULLIKEN ATOMIC CHARGES
-----------------------
   0 C :   -0.359238
   1 C :   -0.048347
   2 O :   -0.293689
   3 C :   -0.080939
   4 C :   -0.188540
   5 C :   -0.022893
   6 O :   -0.275280
   7 C :    0.056661
   8 C :   -0.063383
   9 H :    0.128439
  10 H :    0.122642
  11 H :    0.128430
  12 H :    0.093581
  13 H :    0.093589
  14 H :    0.105098
  15 H :    0.105098
  16 H :    0.147777
  17 H :    0.147787
  18 H :    0.203207
Sum of atomic charges:   -0.0000000

LOEWDIN ATOMIC CHARGES
----------------------
   0 C :   -0.317090
   1 C :   -0.353146
   2 O :    0.154853
   3 C :   -0.320239
   4 C :   -0.226723
   5 C :   -0.322298
   6 O :    0.177430
   7 C :   -0.059924
   8 C :   -0.042422
   9 H :    0.123749
  10 H :    0.124639
  11 H :    0.123736
  12 H :    0.116741
  13 H :    0.116742
  14 H :    0.124761
  15 H :    0.124761
  16 H :    0.160940
  17 H :    0.160930
  18 H :    0.132560

  Mayer bond orders larger than 0.1
B(  0-C ,  1-C ) :   0.9513 B(  0-C ,  9-H ) :   0.9362 B(  0-C , 10-H ) :   0.9327
B(  0-C , 11-H ) :   0.9362 B(  1-C ,  2-O ) :   0.9159 B(  1-C , 12-H ) :   0.9262
B(  1-C , 13-H ) :   0.9262 B(  2-O ,  3-C ) :   0.9640 B(  3-C ,  4-C ) :   0.9601
B(  3-C , 14-H ) :   0.9238 B(  3-C , 15-H ) :   0.9238 B(  4-C ,  5-C ) :   0.9679
B(  4-C ,  7-C ) :  -0.1126 B(  4-C , 16-H ) :   0.8956 B(  4-C , 17-H ) :   0.8957
B(  5-C ,  6-O ) :   1.9576 B(  5-C ,  7-C ) :   1.0831 B(  5-C ,  8-C ) :  -0.1442
B(  7-C ,  8-C ) :   2.5903 B(  8-C , 18-H ) :   0.8862

MP2 TOTAL ENERGY:     -422.276383168 Eh
FINAL SINGLE POINT ENERGY      -422.276383168075

DIPOLE MOMENT
-------------
                                X             Y             Z
Electronic contribution:      3.94611     -12.25523       6.32013
Nuclear contribution   :     -3.73393      12.76579      -5.93862
                        -----------------------------------------
Total Dipole Moment    :      0.21217       0.51056       0.38152
                        -----------------------------------------
Magnitude (a.u.)       :      0.67175
Magnitude (Debye)      :      1.70745

                             ****ORCA TERMINATED NORMALLY****
TOTAL RUN TIME: 0 days 0 hours 14 minutes 2 seconds 745 msec
