                         Program Version 3.0.3 - RELEASE   -
|  1> ! RI-MP2 RIJK def2-TZVP def2-TZVP/C def2-TZVP/JK TIGHTSCF
|  2> % maxcore 2000
|  3> % mp2 density relaxed end
|  4> *xyz 0 1
|  5>  C        0.3088753198     0.8909803210    -0.1310735775
|  6>  O       -0.1825601485    -0.2517508381     0.5721972823
|  7>  C       -1.3695322710    -0.7338018726     0.1552975454
|  8>  N       -2.0227160646    -0.1986709145    -0.7933408995
|  9>  N       -1.6988713681    -1.8183994161     0.9606234591
| 10>  C       -2.7723493029    -2.7130405160     0.6074976491
| 11>  C       -2.5064362656    -3.5688247182    -0.5685192864
| 12>  N       -2.2818587014    -4.2446600080    -1.4780058944
| 13>  H        1.2716996862     1.1217856690     0.3263036717
| 14>  H        0.4295820284     0.6682807459    -1.1940965294
| 15>  H       -0.3783144140     1.7343413408    -0.0271678946
| 16>  H       -2.8806013354    -0.6915388523    -1.0186809321
| 17>  H       -0.9081994504    -2.2306153396     1.4334793832
| 18>  H       -2.9850172974    -3.3606132604     1.4631679471
| 19>  H       -3.6854578150    -2.1374443309     0.4215656258
| 20> *
| 21>
| 22>                          ****END OF INPUT****

CARTESIAN COORDINATES (ANGSTROEM)
---------------------------------
  C      0.308875    0.890980   -0.131074
  O     -0.182560   -0.251751    0.572197
  C     -1.369532   -0.733802    0.155298
  N     -2.022716   -0.198671   -0.793341
  N     -1.698871   -1.818399    0.960623
  C     -2.772349   -2.713041    0.607498
  C     -2.506436   -3.568825   -0.568519
  N     -2.281859   -4.244660   -1.478006
  H      1.271700    1.121786    0.326304
  H      0.429582    0.668281   -1.194097
  H     -0.378314    1.734341   -0.027168
  H     -2.880601   -0.691539   -1.018681
  H     -0.908199   -2.230615    1.433479
  H     -2.985017   -3.360613    1.463168
  H     -3.685458   -2.137444    0.421566

 Total Charge           Charge          ....    0
 Multiplicity           Mult            ....    1
 Number of Electrons    NEL             ....   60
 Basis Dimension        Dim             ....  290

ORBITAL ENERGIES
----------------

  NO   OCC          E(Eh)            E(eV)
   0   2.0000     -20.601828      -560.6042
   1   2.0000     -15.608426      -424.7269
   2   2.0000     -15.584931      -424.0875
   3   2.0000     -15.532114      -422.6503
   4   2.0000     -11.381252      -309.6996
   5   2.0000     -11.338499      -308.5362
   6   2.0000     -11.284234      -307.0596
   7   2.0000     -11.282217      -307.0047
   8   2.0000      -1.447005       -39.3750
   9   2.0000      -1.283028       -34.9130
  10   2.0000      -1.227889       -33.4126
  11   2.0000      -1.179929       -32.1075
  12   2.0000      -1.033251       -28.1162
  13   2.0000      -0.952589       -25.9213
  14   2.0000      -0.807734       -21.9796
  15   2.0000      -0.764364       -20.7994
  16   2.0000      -0.748291       -20.3620
  17   2.0000      -0.707499       -19.2520
  18   2.0000      -0.669764       -18.2252
  19   2.0000      -0.653085       -17.7713
  20   2.0000      -0.624303       -16.9881
  21   2.0000      -0.597450       -16.2574
  22   2.0000      -0.575527       -15.6609
  23   2.0000      -0.545744       -14.8504
  24   2.0000      -0.527318       -14.3491
  25   2.0000      -0.483998       -13.1703
  26   2.0000      -0.475187       -12.9305
  27   2.0000      -0.457806       -12.4575
  28   2.0000      -0.446272       -12.1437
  29   2.0000      -0.392797       -10.6885
  30   0.0000       0.111685         3.0391
  31   0.0000       0.141714         3.8562
  32   0.0000       0.156609         4.2615
  33   0.0000       0.162883         4.4323
  34   0.0000       0.174435         4.7466

MULLIKEN ATOMIC CHARGES
-----------------------
   0 C :   -0.195469
   1 O :   -0.293846
   2 C :    0.347057
   3 N :   -0.458527
   4 N :   -0.320374
   5 C :   -0.138265
   6 C :   -0.142683
   7 N :   -0.055847
   8 H :    0.140873
   9 H :    0.141461
  10 H :    0.138310
  11 H :    0.214460
  12 H :    0.254536
  13 H :    0.183145
  14 H :    0.185170
Sum of atomic charges:    0.0000000

LOEWDIN ATOMIC CHARGES
----------------------
   0 C :   -0.310880
   1 O :    0.219199
   2 C :   -0.507992
   3 N :   -0.091768
   4 N :    0.081298
   5 C :   -0.283645
   6 C :   -0.196123
   7 N :    0.069418
   8 H :    0.113240
   9 H :    0.115013
  10 H :    0.114053
  11 H :    0.159358
  12 H :    0.194713
  13 H :    0.163663
  14 H :    0.160453

  Mayer bond orders larger than 0.1
B(  0-C ,  1-O ) :   0.8476 B(  0-C ,  8-H ) :   0.9309 B(  0-C ,  9-H ) :   0.9382
B(  0-C , 10-H ) :   0.9402 B(  1-O ,  2-C ) :   1.0969 B(  2-C ,  3-N ) :   1.8480
B(  2-C ,  4-N ) :   1.0662 B(  3-N , 11-H ) :   0.8647 B(  4-N ,  5-C ) :   0.9295
B(  4-N , 12-H ) :   0.8589 B(  5-C ,  6-C ) :   0.8693 B(  5-C , 13-H ) :   0.9161
B(  5-C , 14-H ) :   0.9299 B(  6-C ,  7-N ) :   2.8417

MP2 TOTAL ENERGY:     -395.343032404 Eh
FINAL SINGLE POINT ENERGY      -395.343032403553

DIPOLE MOMENT
-------------
                                X             Y             Z
Electronic contribution:     -1.54471      -5.05004      -0.40948
Nuclear contribution   :      1.44712       5.29882       1.72904
                        -----------------------------------------
Total Dipole Moment    :     -0.09759       0.24879       1.31956
                        -----------------------------------------
Magnitude (a.u.)       :      1.34635
Magnitude (Debye)      :      3.42216

                             ****ORCA TERMINATED NORMALLY****
TOTAL RUN TIME: 0 days 0 hours 10 minutes 7 seconds 848 msec
