                         Program Version 3.0.3 - RELEASE   -
|  1> ! RI-MP2 RIJK def2-TZVP def2-TZVP/C def2-TZVP/JK TIGHTSCF
|  2> % maxcore 2000
|  3> % mp2 density relaxed end
|  4> *xyz 0 1
|  5>  C        0.0164318821     1.5035538653     0.0156756914
|  6>  C        0.0232942642    -0.0039832596     0.0132292616
|  7>  C        0.4898747341    -0.7438343563    -1.2622296393
|  8>  C       -0.7088246585    -1.6864375259    -1.0758807994
|  9>  C       -0.4945756700    -2.7678604416    -0.0080635057
| 10>  O        0.7574678578    -3.4120291071    -0.0547710502
| 11>  C       -0.7707735291    -1.6828351801     1.0594673248
| 12>  C        0.4191822532    -0.7462763582     1.3118519745
| 13>  N       -1.3339161364    -0.7514929541    -0.0257688329
| 14>  H        1.0423926407     1.8911887980     0.0451197038
| 15>  H       -0.4701874362     1.8944618837    -0.8838082937
| 16>  H       -0.5200533990     1.8918268290     0.8875806757
| 17>  H        0.3738947452    -0.1197857127    -2.1525924264
| 18>  H        1.4863966679    -1.1910123612    -1.2626920974
| 19>  H       -1.2962997589    -1.9547747061    -1.9557673216
| 20>  H       -1.3194340025    -3.4931460974    -0.0316047503
| 21>  H        0.7732884586    -4.1040503727     0.6138934181
| 22>  H       -1.4129534103    -1.9481236038     1.9026187870
| 23>  H        1.4116640423    -1.2025825063     1.3548869119
| 24>  H        0.2685755650    -0.1225750528     2.1971609680
| 25> *
| 26>
| 27>                          ****END OF INPUT****

CARTESIAN COORDINATES (ANGSTROEM)
---------------------------------
  C      0.016432    1.503554    0.015676
  C      0.023294   -0.003983    0.013229
  C      0.489875   -0.743834   -1.262230
  C     -0.708825   -1.686438   -1.075881
  C     -0.494576   -2.767860   -0.008064
  O      0.757468   -3.412029   -0.054771
  C     -0.770774   -1.682835    1.059467
  C      0.419182   -0.746276    1.311852
  N     -1.333916   -0.751493   -0.025769
  H      1.042393    1.891189    0.045120
  H     -0.470187    1.894462   -0.883808
  H     -0.520053    1.891827    0.887581
  H      0.373895   -0.119786   -2.152592
  H      1.486397   -1.191012   -1.262692
  H     -1.296300   -1.954775   -1.955767
  H     -1.319434   -3.493146   -0.031605
  H      0.773288   -4.104050    0.613893
  H     -1.412953   -1.948124    1.902619
  H      1.411664   -1.202583    1.354887
  H      0.268576   -0.122575    2.197161

 Total Charge           Charge          ....    0
 Multiplicity           Mult            ....    1
 Number of Electrons    NEL             ....   68
 Basis Dimension        Dim             ....  345

ORBITAL ENERGIES
----------------

  NO   OCC          E(Eh)            E(eV)
   0   2.0000     -20.564954      -559.6008
   1   2.0000     -15.539331      -422.8467
   2   2.0000     -11.283089      -307.0285
   3   2.0000     -11.259976      -306.3995
   4   2.0000     -11.252010      -306.1828
   5   2.0000     -11.251227      -306.1615
   6   2.0000     -11.220618      -305.3285
   7   2.0000     -11.218554      -305.2724
   8   2.0000     -11.211468      -305.0796
   9   2.0000      -1.373541       -37.3760
  10   2.0000      -1.271195       -34.5910
  11   2.0000      -1.035836       -28.1865
  12   2.0000      -1.012881       -27.5619
  13   2.0000      -0.945664       -25.7328
  14   2.0000      -0.933411       -25.3994
  15   2.0000      -0.812066       -22.0974
  16   2.0000      -0.777811       -21.1653
  17   2.0000      -0.709798       -19.3146
  18   2.0000      -0.687055       -18.6957
  19   2.0000      -0.661541       -18.0014
  20   2.0000      -0.639352       -17.3976
  21   2.0000      -0.610727       -16.6187
  22   2.0000      -0.581232       -15.8161
  23   2.0000      -0.569727       -15.5031
  24   2.0000      -0.567082       -15.4311
  25   2.0000      -0.555669       -15.1205
  26   2.0000      -0.529831       -14.4174
  27   2.0000      -0.496918       -13.5218
  28   2.0000      -0.473319       -12.8797
  29   2.0000      -0.464706       -12.6453
  30   2.0000      -0.439987       -11.9726
  31   2.0000      -0.405081       -11.0228
  32   2.0000      -0.396577       -10.7914
  33   2.0000      -0.366206        -9.9650
  34   0.0000       0.127013         3.4562
  35   0.0000       0.145731         3.9655
  36   0.0000       0.164848         4.4857
  37   0.0000       0.176074         4.7912
  38   0.0000       0.188112         5.1188

MULLIKEN ATOMIC CHARGES
-----------------------
   0 C :   -0.390653
   1 C :    0.109907
   2 C :   -0.273855
   3 C :    0.036438
   4 C :   -0.060173
   5 O :   -0.454331
   6 C :    0.011028
   7 C :   -0.253323
   8 N :   -0.242670
   9 H :    0.128030
  10 H :    0.128372
  11 H :    0.127377
  12 H :    0.118581
  13 H :    0.129767
  14 H :    0.116076
  15 H :    0.096423
  16 H :    0.317203
  17 H :    0.119384
  18 H :    0.115805
  19 H :    0.120614
Sum of atomic charges:   -0.0000000

LOEWDIN ATOMIC CHARGES
----------------------
   0 C :   -0.277075
   1 C :   -0.270721
   2 C :   -0.185510
   3 C :   -0.194137
   4 C :   -0.312489
   5 O :   -0.009939
   6 C :   -0.206488
   7 C :   -0.190405
   8 N :    0.141274
   9 H :    0.130081
  10 H :    0.128390
  11 H :    0.128093
  12 H :    0.140488
  13 H :    0.136480
  14 H :    0.128547
  15 H :    0.137100
  16 H :    0.177512
  17 H :    0.125877
  18 H :    0.133428
  19 H :    0.139494

  Mayer bond orders larger than 0.1
B(  0-C ,  1-C ) :   0.8775 B(  0-C ,  9-H ) :   0.9330 B(  0-C , 10-H ) :   0.9368
B(  0-C , 11-H ) :   0.9360 B(  1-C ,  2-C ) :   0.9766 B(  1-C ,  7-C ) :   0.9692
B(  1-C ,  8-N ) :   0.9202 B(  2-C ,  3-C ) :   0.9542 B(  2-C , 12-H ) :   0.9151
B(  2-C , 13-H ) :   0.8940 B(  3-C ,  4-C ) :   0.9246 B(  3-C ,  8-N ) :   0.9396
B(  3-C , 14-H ) :   0.9012 B(  4-C ,  5-O ) :   1.1621 B(  4-C ,  6-C ) :   0.9451
B(  4-C , 15-H ) :   0.9375 B(  5-O , 16-H ) :   0.8426 B(  6-C ,  7-C ) :   0.9457
B(  6-C ,  8-N ) :   0.9475 B(  6-C , 17-H ) :   0.9045 B(  7-C , 18-H ) :   0.8906
B(  7-C , 19-H ) :   0.9170

MP2 TOTAL ENERGY:     -402.413271773 Eh
FINAL SINGLE POINT ENERGY      -402.413271773002

DIPOLE MOMENT
-------------
                                X             Y             Z
Electronic contribution:     -1.50929      -4.60509      -0.25138
Nuclear contribution   :      1.85198       4.17318       0.65871
                        -----------------------------------------
Total Dipole Moment    :      0.34268      -0.43191       0.40733
                        -----------------------------------------
Magnitude (a.u.)       :      0.68549
Magnitude (Debye)      :      1.74237

                             ****ORCA TERMINATED NORMALLY****
TOTAL RUN TIME: 0 days 0 hours 20 minutes 53 seconds 351 msec
