                         Program Version 3.0.3 - RELEASE   -
|  1> ! RI-MP2 RIJK def2-TZVP def2-TZVP/C def2-TZVP/JK TIGHTSCF
|  2> % maxcore 2000
|  3> % mp2 density relaxed end
|  4> *xyz 0 1
|  5>  C       -0.0103881339     1.5072650500    -0.0200391626
|  6>  C        0.0110529590    -0.0025765997    -0.0601302799
|  7>  C        0.8309546454    -0.7228937572    -1.1512775615
|  8>  C        0.7067541119    -2.1341926922    -0.5312378655
|  9>  C        1.3566524334    -1.8939882670     0.8538065540
| 10>  C        0.3472311887    -0.8239127772     1.2595915045
| 11>  N       -0.9866828301    -1.5428197794     1.1968323556
| 12>  C       -0.7979308142    -2.1865253165    -0.1473013323
| 13>  C       -1.3114282490    -0.7961253834    -0.0553817086
| 14>  H        0.9966996088     1.9127901441     0.1281460789
| 15>  H       -0.3995334388     1.9232597056    -0.9567906417
| 16>  H       -0.6423751220     1.8763965618     0.7948133555
| 17>  H        0.3549747615    -0.6365312880    -2.1339002491
| 18>  H        1.8699706692    -0.3818831073    -1.2262909288
| 19>  H        1.0722057379    -2.9753010250    -1.1186600139
| 20>  H        1.3110246734    -2.7606239597     1.5193801934
| 21>  H        2.3898147871    -1.5397822512     0.7848261462
| 22>  H        0.4927878634    -0.2770967554     2.1903550354
| 23>  H       -1.4333877588    -3.0390792735    -0.3517505894
| 24>  H       -2.3132780030    -0.4521742188    -0.2943966303
| 25> *
| 26>
| 27>                          ****END OF INPUT****

CARTESIAN COORDINATES (ANGSTROEM)
---------------------------------
  C     -0.010388    1.507265   -0.020039
  C      0.011053   -0.002577   -0.060130
  C      0.830955   -0.722894   -1.151278
  C      0.706754   -2.134193   -0.531238
  C      1.356652   -1.893988    0.853807
  C      0.347231   -0.823913    1.259592
  N     -0.986683   -1.542820    1.196832
  C     -0.797931   -2.186525   -0.147301
  C     -1.311428   -0.796125   -0.055382
  H      0.996700    1.912790    0.128146
  H     -0.399533    1.923260   -0.956791
  H     -0.642375    1.876397    0.794813
  H      0.354975   -0.636531   -2.133900
  H      1.869971   -0.381883   -1.226291
  H      1.072206   -2.975301   -1.118660
  H      1.311025   -2.760624    1.519380
  H      2.389815   -1.539782    0.784826
  H      0.492788   -0.277097    2.190355
  H     -1.433388   -3.039079   -0.351751
  H     -2.313278   -0.452174   -0.294397

 Total Charge           Charge          ....    0
 Multiplicity           Mult            ....    1
 Number of Electrons    NEL             ....   66
 Basis Dimension        Dim             ....  345

ORBITAL ENERGIES
----------------

  NO   OCC          E(Eh)            E(eV)
   0   2.0000     -15.549904      -423.1344
   1   2.0000     -11.251552      -306.1703
   2   2.0000     -11.251383      -306.1657
   3   2.0000     -11.249713      -306.1203
   4   2.0000     -11.238183      -305.8065
   5   2.0000     -11.233503      -305.6792
   6   2.0000     -11.221364      -305.3488
   7   2.0000     -11.220145      -305.3157
   8   2.0000     -11.219466      -305.2972
   9   2.0000      -1.306734       -35.5580
  10   2.0000      -1.093753       -29.7625
  11   2.0000      -1.028326       -27.9822
  12   2.0000      -0.990710       -26.9586
  13   2.0000      -0.911824       -24.8120
  14   2.0000      -0.846983       -23.0476
  15   2.0000      -0.801307       -21.8047
  16   2.0000      -0.759185       -20.6585
  17   2.0000      -0.721368       -19.6294
  18   2.0000      -0.667823       -18.1724
  19   2.0000      -0.654818       -17.8185
  20   2.0000      -0.613214       -16.6864
  21   2.0000      -0.575423       -15.6581
  22   2.0000      -0.567551       -15.4438
  23   2.0000      -0.546656       -14.8753
  24   2.0000      -0.538575       -14.6554
  25   2.0000      -0.512488       -13.9455
  26   2.0000      -0.496417       -13.5082
  27   2.0000      -0.473997       -12.8981
  28   2.0000      -0.457230       -12.4419
  29   2.0000      -0.445170       -12.1137
  30   2.0000      -0.416986       -11.3468
  31   2.0000      -0.407625       -11.0920
  32   2.0000      -0.355371        -9.6701
  33   0.0000       0.134385         3.6568
  34   0.0000       0.156741         4.2652
  35   0.0000       0.172880         4.7043
  36   0.0000       0.180255         4.9050
  37   0.0000       0.188484         5.1289

MULLIKEN ATOMIC CHARGES
-----------------------
   0 C :   -0.431149
   1 C :    0.125433
   2 C :   -0.268508
   3 C :    0.015046
   4 C :   -0.308300
   5 C :   -0.011733
   6 N :   -0.222613
   7 C :   -0.145349
   8 C :   -0.153878
   9 H :    0.134257
  10 H :    0.133822
  11 H :    0.143066
  12 H :    0.117034
  13 H :    0.111234
  14 H :    0.135704
  15 H :    0.126560
  16 H :    0.117994
  17 H :    0.124083
  18 H :    0.132099
  19 H :    0.125200
Sum of atomic charges:    0.0000000

LOEWDIN ATOMIC CHARGES
----------------------
   0 C :   -0.273336
   1 C :   -0.230744
   2 C :   -0.182949
   3 C :   -0.203850
   4 C :   -0.210542
   5 C :   -0.177587
   6 N :    0.134953
   7 C :   -0.181205
   8 C :   -0.166503
   9 H :    0.128332
  10 H :    0.128793
  11 H :    0.130419
  12 H :    0.139913
  13 H :    0.135151
  14 H :    0.142260
  15 H :    0.142470
  16 H :    0.137535
  17 H :    0.137783
  18 H :    0.138233
  19 H :    0.130873

  Mayer bond orders larger than 0.1
B(  0-C ,  1-C ) :   0.8507 B(  0-C ,  9-H ) :   0.9457 B(  0-C , 10-H ) :   0.9418
B(  0-C , 11-H ) :   0.9452 B(  1-C ,  2-C ) :   0.9568 B(  1-C ,  5-C ) :   0.9236
B(  1-C ,  8-C ) :   0.9060 B(  2-C ,  3-C ) :   0.9286 B(  2-C , 12-H ) :   0.9174
B(  2-C , 13-H ) :   0.9155 B(  3-C ,  4-C ) :   0.8996 B(  3-C ,  7-C ) :   0.8725
B(  3-C , 14-H ) :   0.9146 B(  4-C ,  5-C ) :   0.9623 B(  4-C , 15-H ) :   0.9181
B(  4-C , 16-H ) :   0.9213 B(  5-C ,  6-N ) :   0.9365 B(  5-C , 17-H ) :   0.9117
B(  6-N ,  7-C ) :   0.9067 B(  6-N ,  8-C ) :   0.9169 B(  7-C ,  8-C ) :   0.9178
B(  7-C , 18-H ) :   0.9293 B(  8-C , 19-H ) :   0.9080

MP2 TOTAL ENERGY:     -365.337361171 Eh
FINAL SINGLE POINT ENERGY      -365.337361170633

DIPOLE MOMENT
-------------
                                X             Y             Z
Electronic contribution:     -2.70705      -3.37317       1.57845
Nuclear contribution   :      3.16527       3.63876      -2.13944
                        -----------------------------------------
Total Dipole Moment    :      0.45822       0.26560      -0.56099
                        -----------------------------------------
Magnitude (a.u.)       :      0.77150
Magnitude (Debye)      :      1.96100

                             ****ORCA TERMINATED NORMALLY****
TOTAL RUN TIME: 0 days 0 hours 22 minutes 40 seconds 745 msec
