                         Program Version 3.0.3 - RELEASE   -
|  1> ! RI-MP2 RIJK def2-TZVP def2-TZVP/C def2-TZVP/JK TIGHTSCF
|  2> % maxcore 2000
|  3> % mp2 density relaxed end
|  4> *xyz 0 1
|  5>  O       -0.0504198066     1.4939601792    -0.1590243244
|  6>  C       -0.1186409562     0.1044952856     0.0197586018
|  7>  C       -0.4751030402    -0.6551213792     1.2674320546
|  8>  C       -1.6803052287    -0.1335704497     2.0949318307
|  9>  C       -2.3215265449     1.1323138146     1.5824326231
| 10>  C       -2.5642421165    -0.1697600493     0.8648203037
| 11>  C       -1.3794132385    -0.6905958842     0.0073878497
| 12>  H        0.6954812390     1.8151556768     0.3600677596
| 13>  H        0.6657091522    -0.4245154774    -0.5298406497
| 14>  H        0.1729797914    -1.4368548505     1.6465145745
| 15>  H       -1.8950660136    -0.5295954730     3.0788550960
| 16>  H       -3.1687431209     1.4532820530     2.1833744942
| 17>  H       -1.7500149568     1.9283951783     1.1303173569
| 18>  H       -3.5518097109    -0.6012825679     0.7689014747
| 19>  H       -1.5155244385    -1.5033522063    -0.6960432154
| 20> *
| 21>
| 22>                          ****END OF INPUT****

CARTESIAN COORDINATES (ANGSTROEM)
---------------------------------
  O     -0.050420    1.493960   -0.159024
  C     -0.118641    0.104495    0.019759
  C     -0.475103   -0.655121    1.267432
  C     -1.680305   -0.133570    2.094932
  C     -2.321527    1.132314    1.582433
  C     -2.564242   -0.169760    0.864820
  C     -1.379413   -0.690596    0.007388
  H      0.695481    1.815156    0.360068
  H      0.665709   -0.424515   -0.529841
  H      0.172980   -1.436855    1.646515
  H     -1.895066   -0.529595    3.078855
  H     -3.168743    1.453282    2.183374
  H     -1.750015    1.928395    1.130317
  H     -3.551810   -0.601283    0.768901
  H     -1.515524   -1.503352   -0.696043

 Total Charge           Charge          ....    0
 Multiplicity           Mult            ....    1
 Number of Electrons    NEL             ....   52
 Basis Dimension        Dim             ....  265

ORBITAL ENERGIES
----------------

  NO   OCC          E(Eh)            E(eV)
   0   2.0000     -20.560242      -559.4726
   1   2.0000     -11.290057      -307.2181
   2   2.0000     -11.236114      -305.7502
   3   2.0000     -11.235415      -305.7312
   4   2.0000     -11.231707      -305.6303
   5   2.0000     -11.230544      -305.5986
   6   2.0000     -11.220356      -305.3214
   7   2.0000      -1.369356       -37.2621
   8   2.0000      -1.205010       -32.7900
   9   2.0000      -1.068164       -29.0662
  10   2.0000      -0.870118       -23.6771
  11   2.0000      -0.857443       -23.3322
  12   2.0000      -0.766428       -20.8556
  13   2.0000      -0.727169       -19.7873
  14   2.0000      -0.716833       -19.5060
  15   2.0000      -0.676490       -18.4082
  16   2.0000      -0.620391       -16.8817
  17   2.0000      -0.604343       -16.4450
  18   2.0000      -0.566881       -15.4256
  19   2.0000      -0.557067       -15.1586
  20   2.0000      -0.487032       -13.2528
  21   2.0000      -0.473348       -12.8805
  22   2.0000      -0.447780       -12.1847
  23   2.0000      -0.439192       -11.9510
  24   2.0000      -0.396023       -10.7763
  25   2.0000      -0.319713        -8.6998
  26   0.0000       0.143198         3.8966
  27   0.0000       0.154815         4.2127
  28   0.0000       0.170200         4.6314
  29   0.0000       0.172941         4.7060
  30   0.0000       0.200770         5.4632

MULLIKEN ATOMIC CHARGES
-----------------------
   0 O :   -0.469880
   1 C :    0.021262
   2 C :   -0.145127
   3 C :   -0.152276
   4 C :   -0.224457
   5 C :   -0.156486
   6 C :   -0.111086
   7 H :    0.322005
   8 H :    0.100889
   9 H :    0.131013
  10 H :    0.133135
  11 H :    0.121015
  12 H :    0.156147
  13 H :    0.135356
  14 H :    0.138489
Sum of atomic charges:   -0.0000000

LOEWDIN ATOMIC CHARGES
----------------------
   0 O :   -0.008909
   1 C :   -0.308711
   2 C :   -0.150573
   3 C :   -0.171749
   4 C :   -0.202173
   5 C :   -0.167003
   6 C :   -0.138109
   7 H :    0.179960
   8 H :    0.146056
   9 H :    0.136101
  10 H :    0.136836
  11 H :    0.139836
  12 H :    0.132726
  13 H :    0.137529
  14 H :    0.138184

  Mayer bond orders larger than 0.1
B(  0-O ,  1-C ) :   1.0232 B(  0-O ,  7-H ) :   0.8399 B(  1-C ,  2-C ) :   0.9084
B(  1-C ,  6-C ) :   0.8734 B(  1-C ,  8-H ) :   0.9616 B(  2-C ,  3-C ) :   0.8748
B(  2-C ,  6-C ) :   0.8731 B(  2-C ,  9-H ) :   0.9197 B(  3-C ,  4-C ) :   0.9032
B(  3-C ,  5-C ) :   0.9088 B(  3-C , 10-H ) :   0.9274 B(  4-C ,  5-C ) :   0.8920
B(  4-C , 11-H ) :   0.9281 B(  4-C , 12-H ) :   0.9027 B(  5-C ,  6-C ) :   0.8739
B(  5-C , 13-H ) :   0.9268 B(  6-C , 14-H ) :   0.9213

MP2 TOTAL ENERGY:     -307.892518930 Eh
FINAL SINGLE POINT ENERGY      -307.892518930262

DIPOLE MOMENT
-------------
                                X             Y             Z
Electronic contribution:      1.13378       0.48051      -1.13830
Nuclear contribution   :     -0.80535      -0.85782       1.53717
                        -----------------------------------------
Total Dipole Moment    :      0.32843      -0.37731       0.39887
                        -----------------------------------------
Magnitude (a.u.)       :      0.63979
Magnitude (Debye)      :      1.62621

                             ****ORCA TERMINATED NORMALLY****
TOTAL RUN TIME: 0 days 0 hours 7 minutes 53 seconds 358 msec
