                         Program Version 3.0.3 - RELEASE   -
|  1> ! RI-MP2 RIJK def2-TZVP def2-TZVP/C def2-TZVP/JK TIGHTSCF
|  2> % maxcore 2000
|  3> % mp2 density relaxed end
|  4> *xyz 0 1
|  5>  C        0.1244519245     1.5432302166    -0.0407080783
|  6>  C        0.0991673418     0.0322817358     0.0450010941
|  7>  C        1.3382961997    -0.8058786905    -0.1554166088
|  8>  O        2.5817144147    -0.1776458925    -0.3772972422
|  9>  C        3.1910430731     0.4018998357     0.6877646927
| 10>  N        2.7918197962     0.5352824721     1.8768632370
| 11>  C        1.4984392627    -0.0091684795     2.2737718117
| 12>  C        0.7017088140    -0.7540529444     1.2055427558
| 13>  C       -0.0445487050    -1.9764041302     1.7008927861
| 14>  H        1.0201849754     1.9736612354     0.4118273556
| 15>  H        0.0899204961     1.8713977709    -1.0849066991
| 16>  H       -0.7437566605     1.9720408938     0.4707302855
| 17>  H       -0.8001286645    -0.4139383150    -0.3746147502
| 18>  H        1.2818469493    -1.7130424564    -0.7477551525
| 19>  H        4.1571566966     0.7950200917     0.3774985698
| 20>  H        1.6876507974    -0.6980545445     3.1062406216
| 21>  H        0.9084631539     0.8124718607     2.7026810579
| 22>  H       -0.7929431788    -1.7009115637     2.4537228293
| 23>  H       -0.5705064540    -2.4824328049     0.8849250299
| 24>  H        0.6390513575    -2.7002252012     2.1595350741
| 25> *
| 26>
| 27>                          ****END OF INPUT****

CARTESIAN COORDINATES (ANGSTROEM)
---------------------------------
  C      0.124452    1.543230   -0.040708
  C      0.099167    0.032282    0.045001
  C      1.338296   -0.805879   -0.155417
  O      2.581714   -0.177646   -0.377297
  C      3.191043    0.401900    0.687765
  N      2.791820    0.535282    1.876863
  C      1.498439   -0.009168    2.273772
  C      0.701709   -0.754053    1.205543
  C     -0.044549   -1.976404    1.700893
  H      1.020185    1.973661    0.411827
  H      0.089920    1.871398   -1.084907
  H     -0.743757    1.972041    0.470730
  H     -0.800129   -0.413938   -0.374615
  H      1.281847   -1.713042   -0.747755
  H      4.157157    0.795020    0.377499
  H      1.687651   -0.698055    3.106241
  H      0.908463    0.812472    2.702681
  H     -0.792943   -1.700912    2.453723
  H     -0.570506   -2.482433    0.884925
  H      0.639051   -2.700225    2.159535

 Total Charge           Charge          ....    0
 Multiplicity           Mult            ....    1
 Number of Electrons    NEL             ....   68
 Basis Dimension        Dim             ....  345

ORBITAL ENERGIES
----------------

  NO   OCC          E(Eh)            E(eV)
   0   2.0000     -20.597295      -560.4809
   1   2.0000     -15.543236      -422.9530
   2   2.0000     -11.328841      -308.2734
   3   2.0000     -11.290608      -307.2331
   4   2.0000     -11.257028      -306.3193
   5   2.0000     -11.244439      -305.9768
   6   2.0000     -11.236477      -305.7601
   7   2.0000     -11.227563      -305.5175
   8   2.0000     -11.221356      -305.3486
   9   2.0000      -1.431136       -38.9432
  10   2.0000      -1.215481       -33.0749
  11   2.0000      -1.164178       -31.6789
  12   2.0000      -1.004383       -27.3307
  13   2.0000      -0.956082       -26.0163
  14   2.0000      -0.946864       -25.7655
  15   2.0000      -0.872124       -23.7317
  16   2.0000      -0.772067       -21.0090
  17   2.0000      -0.730939       -19.8898
  18   2.0000      -0.690409       -18.7870
  19   2.0000      -0.670170       -18.2362
  20   2.0000      -0.648923       -17.6581
  21   2.0000      -0.612928       -16.6786
  22   2.0000      -0.597695       -16.2641
  23   2.0000      -0.572739       -15.5850
  24   2.0000      -0.564920       -15.3723
  25   2.0000      -0.553224       -15.0540
  26   2.0000      -0.549837       -14.9618
  27   2.0000      -0.536171       -14.5900
  28   2.0000      -0.530680       -14.4405
  29   2.0000      -0.504593       -13.7307
  30   2.0000      -0.425139       -11.5686
  31   2.0000      -0.407322       -11.0838
  32   2.0000      -0.393407       -10.7051
  33   2.0000      -0.371837       -10.1182
  34   0.0000       0.129513         3.5242
  35   0.0000       0.154246         4.1973
  36   0.0000       0.168785         4.5929
  37   0.0000       0.177759         4.8371
  38   0.0000       0.187990         5.1155

MULLIKEN ATOMIC CHARGES
-----------------------
   0 C :   -0.424099
   1 C :   -0.127122
   2 C :    0.014438
   3 O :   -0.262040
   4 C :    0.075401
   5 N :   -0.272034
   6 C :   -0.128924
   7 C :    0.061165
   8 C :   -0.421284
   9 H :    0.149761
  10 H :    0.141061
  11 H :    0.136952
  12 H :    0.120964
  13 H :    0.132960
  14 H :    0.134309
  15 H :    0.132003
  16 H :    0.133146
  17 H :    0.137598
  18 H :    0.127154
  19 H :    0.138593
Sum of atomic charges:    0.0000000

LOEWDIN ATOMIC CHARGES
----------------------
   0 C :   -0.285967
   1 C :   -0.194877
   2 C :   -0.224619
   3 O :    0.259537
   4 C :   -0.363692
   5 N :    0.070265
   6 C :   -0.248497
   7 C :   -0.242581
   8 C :   -0.265787
   9 H :    0.133502
  10 H :    0.129806
  11 H :    0.128207
  12 H :    0.153006
  13 H :    0.143730
  14 H :    0.133777
  15 H :    0.146654
  16 H :    0.141735
  17 H :    0.129520
  18 H :    0.127835
  19 H :    0.128446

  Mayer bond orders larger than 0.1
B(  0-C ,  1-C ) :   0.8917 B(  0-C ,  9-H ) :   0.9290 B(  0-C , 10-H ) :   0.9351
B(  0-C , 11-H ) :   0.9393 B(  1-C ,  2-C ) :   0.8687 B(  1-C ,  7-C ) :   0.8468
B(  1-C , 12-H ) :   0.9202 B(  2-C ,  3-O ) :   0.8963 B(  2-C ,  7-C ) :   0.8758
B(  2-C , 13-H ) :   0.9476 B(  3-O ,  4-C ) :   1.0578 B(  4-C ,  5-N ) :   1.8393
B(  4-C , 14-H ) :   0.9300 B(  5-N ,  6-C ) :   0.9294 B(  6-C ,  7-C ) :   0.9175
B(  6-C , 15-H ) :   0.9291 B(  6-C , 16-H ) :   0.9263 B(  7-C ,  8-C ) :   0.8942
B(  8-C , 17-H ) :   0.9376 B(  8-C , 18-H ) :   0.9310 B(  8-C , 19-H ) :   0.9377

MP2 TOTAL ENERGY:     -402.454353328 Eh
FINAL SINGLE POINT ENERGY      -402.454353328499

DIPOLE MOMENT
-------------
                                X             Y             Z
Electronic contribution:      6.81653       0.38263      -1.72936
Nuclear contribution   :     -7.56465      -0.78100       1.51608
                        -----------------------------------------
Total Dipole Moment    :     -0.74812      -0.39837      -0.21328
                        -----------------------------------------
Magnitude (a.u.)       :      0.87400
Magnitude (Debye)      :      2.22152

                             ****ORCA TERMINATED NORMALLY****
TOTAL RUN TIME: 0 days 0 hours 20 minutes 19 seconds 913 msec
