                         Program Version 3.0.3 - RELEASE   -
|  1> ! RI-MP2 RIJK def2-TZVP def2-TZVP/C def2-TZVP/JK TIGHTSCF
|  2> % maxcore 2000
|  3> % mp2 density relaxed end
|  4> *xyz 0 1
|  5>  O       -0.5388150795     0.7431014703    -0.6930814976
|  6>  C        0.1754485628     0.9948189056     0.2425222553
|  7>  C        1.3680534171     1.9322267303     0.1928173042
|  8>  C        1.4834731125     2.6627116878    -1.1504009543
|  9>  O        2.4784241042     3.6691234105    -1.0905868106
| 10>  C        2.1525087146     4.7078237983    -0.1894661359
| 11>  C        1.6441015680     4.2061043180     1.1344292443
| 12>  C        1.3116975742     2.9325584250     1.3253197916
| 13>  H        0.0022207394     0.5279249019     1.2405497621
| 14>  H        2.2483467333     1.2821837436     0.3417513050
| 15>  H        1.7775215678     1.9798871065    -1.9498353253
| 16>  H        0.5047750146     3.0887895055    -1.4165351572
| 17>  H        3.0714722230     5.2892003846    -0.0490091268
| 18>  H        1.4086194420     5.3935205356    -0.6366651447
| 19>  H        1.5633473168     4.9342829149     1.9369448114
| 20>  H        0.9705156392     2.5819250716     2.2965709786
| 21> *
| 22>
| 23>                          ****END OF INPUT****

CARTESIAN COORDINATES (ANGSTROEM)
---------------------------------
  O     -0.538815    0.743101   -0.693081
  C      0.175449    0.994819    0.242522
  C      1.368053    1.932227    0.192817
  C      1.483473    2.662712   -1.150401
  O      2.478424    3.669123   -1.090587
  C      2.152509    4.707824   -0.189466
  C      1.644102    4.206104    1.134429
  C      1.311698    2.932558    1.325320
  H      0.002221    0.527925    1.240550
  H      2.248347    1.282184    0.341751
  H      1.777522    1.979887   -1.949835
  H      0.504775    3.088790   -1.416535
  H      3.071472    5.289200   -0.049009
  H      1.408619    5.393521   -0.636665
  H      1.563347    4.934283    1.936945
  H      0.970516    2.581925    2.296571

 Total Charge           Charge          ....    0
 Multiplicity           Mult            ....    1
 Number of Electrons    NEL             ....   60
 Basis Dimension        Dim             ....  296

ORBITAL ENERGIES
----------------

  NO   OCC          E(Eh)            E(eV)
   0   2.0000     -20.565111      -559.6051
   1   2.0000     -20.562493      -559.5339
   2   2.0000     -11.340515      -308.5911
   3   2.0000     -11.288640      -307.1795
   4   2.0000     -11.281780      -306.9929
   5   2.0000     -11.255728      -306.2839
   6   2.0000     -11.248408      -306.0847
   7   2.0000     -11.245482      -306.0051
   8   2.0000      -1.405272       -38.2394
   9   2.0000      -1.385785       -37.7091
  10   2.0000      -1.111556       -30.2470
  11   2.0000      -1.049520       -28.5589
  12   2.0000      -0.925712       -25.1899
  13   2.0000      -0.891359       -24.2551
  14   2.0000      -0.800016       -21.7695
  15   2.0000      -0.736845       -20.0506
  16   2.0000      -0.703788       -19.1510
  17   2.0000      -0.690045       -18.7771
  18   2.0000      -0.656687       -17.8694
  19   2.0000      -0.637306       -17.3420
  20   2.0000      -0.617994       -16.8165
  21   2.0000      -0.594259       -16.1706
  22   2.0000      -0.577267       -15.7082
  23   2.0000      -0.555731       -15.1222
  24   2.0000      -0.533364       -14.5136
  25   2.0000      -0.512165       -13.9367
  26   2.0000      -0.468896       -12.7593
  27   2.0000      -0.442784       -12.0488
  28   2.0000      -0.417529       -11.3615
  29   2.0000      -0.367967       -10.0129
  30   0.0000       0.114196         3.1074
  31   0.0000       0.139734         3.8024
  32   0.0000       0.154151         4.1947
  33   0.0000       0.155699         4.2368
  34   0.0000       0.170549         4.6409

MULLIKEN ATOMIC CHARGES
-----------------------
   0 O :   -0.261523
   1 C :    0.061893
   2 C :    0.086262
   3 C :   -0.106425
   4 O :   -0.309442
   5 C :   -0.009212
   6 C :   -0.171625
   7 C :   -0.253145
   8 H :    0.085415
   9 H :    0.119686
  10 H :    0.135300
  11 H :    0.119724
  12 H :    0.132096
  13 H :    0.105687
  14 H :    0.133639
  15 H :    0.131671
Sum of atomic charges:    0.0000000

LOEWDIN ATOMIC CHARGES
----------------------
   0 O :    0.142067
   1 C :   -0.266354
   2 C :   -0.252062
   3 C :   -0.276119
   4 O :    0.161903
   5 C :   -0.307804
   6 C :   -0.169004
   7 C :   -0.150875
   8 H :    0.114382
   9 H :    0.176078
  10 H :    0.136072
  11 H :    0.131742
  12 H :    0.138325
  13 H :    0.129433
  14 H :    0.146469
  15 H :    0.145745

  Mayer bond orders larger than 0.1
B(  0-O ,  1-C ) :   1.9979 B(  1-C ,  2-C ) :   0.8423 B(  1-C ,  8-H ) :   0.9398
B(  2-C ,  3-C ) :   0.9251 B(  2-C ,  7-C ) :   0.8743 B(  2-C ,  9-H ) :   0.8769
B(  3-C ,  4-O ) :   0.9179 B(  3-C , 10-H ) :   0.9221 B(  3-C , 11-H ) :   0.9403
B(  4-O ,  5-C ) :   0.9471 B(  5-C ,  6-C ) :   0.9273 B(  5-C , 12-H ) :   0.9221
B(  5-C , 13-H ) :   0.9306 B(  6-C ,  7-C ) :   1.8197 B(  6-C , 14-H ) :   0.9171
B(  7-C , 15-H ) :   0.9190

MP2 TOTAL ENERGY:     -383.103202910 Eh
FINAL SINGLE POINT ENERGY      -383.103202910032

DIPOLE MOMENT
-------------
                                X             Y             Z
Electronic contribution:     -1.14726      -2.71357      -1.27813
Nuclear contribution   :      1.42786       3.07670       2.17128
                        -----------------------------------------
Total Dipole Moment    :      0.28059       0.36313       0.89315
                        -----------------------------------------
Magnitude (a.u.)       :      1.00415
Magnitude (Debye)      :      2.55234

                             ****ORCA TERMINATED NORMALLY****
TOTAL RUN TIME: 0 days 0 hours 11 minutes 23 seconds 264 msec
