                         Program Version 3.0.3 - RELEASE   -
|  1> ! RI-MP2 RIJK def2-TZVP def2-TZVP/C def2-TZVP/JK TIGHTSCF
|  2> % maxcore 2000
|  3> % mp2 density relaxed end
|  4> *xyz 0 1
|  5>  C        0.0914197581     1.6717833309     0.0631694118
|  6>  C        1.5990339649     1.4488259687    -0.1113403838
|  7>  O        2.0261994280     0.6243292299     0.9844542442
|  8>  C        1.4334706293    -0.0106538990    -0.1522264689
|  9>  C       -0.0896607225     0.1159364086     0.0607545803
| 10>  C       -0.7575752774    -0.6362548395     1.2318566164
| 11>  N       -1.7503300053    -1.5265424178     0.6048755624
| 12>  C       -1.7018539369    -1.2674440372    -0.6319713180
| 13>  O       -0.8315656879    -0.3304827078    -1.0957669187
| 14>  H       -0.2118354467     2.2070662140     0.9662741770
| 15>  H       -0.3871760843     2.1074422144    -0.8166942177
| 16>  H        2.3428753301     2.0886804393    -0.5693557637
| 17>  H        1.9867038448    -0.7948672900    -0.6561876427
| 18>  H       -0.0323069005    -1.2137892743     1.8127063554
| 19>  H       -1.2613781855     0.0432418009     1.9279848341
| 20>  H       -2.3103335881    -1.7281169911    -1.4021055781
| 21> *
| 22>
| 23>                          ****END OF INPUT****

CARTESIAN COORDINATES (ANGSTROEM)
---------------------------------
  C      0.091420    1.671783    0.063169
  C      1.599034    1.448826   -0.111340
  O      2.026199    0.624329    0.984454
  C      1.433471   -0.010654   -0.152226
  C     -0.089661    0.115936    0.060755
  C     -0.757575   -0.636255    1.231857
  N     -1.750330   -1.526542    0.604876
  C     -1.701854   -1.267444   -0.631971
  O     -0.831566   -0.330483   -1.095767
  H     -0.211835    2.207066    0.966274
  H     -0.387176    2.107442   -0.816694
  H      2.342875    2.088680   -0.569356
  H      1.986704   -0.794867   -0.656188
  H     -0.032307   -1.213789    1.812706
  H     -1.261378    0.043242    1.927985
  H     -2.310334   -1.728117   -1.402106

 Total Charge           Charge          ....    0
 Multiplicity           Mult            ....    1
 Number of Electrons    NEL             ....   66
 Basis Dimension        Dim             ....  321

ORBITAL ENERGIES
----------------

  NO   OCC          E(Eh)            E(eV)
   0   2.0000     -20.603378      -560.6464
   1   2.0000     -20.581989      -560.0644
   2   2.0000     -15.553652      -423.2364
   3   2.0000     -11.335045      -308.4423
   4   2.0000     -11.314539      -307.8843
   5   2.0000     -11.300145      -307.4926
   6   2.0000     -11.297176      -307.4118
   7   2.0000     -11.262399      -306.4655
   8   2.0000     -11.247166      -306.0509
   9   2.0000      -1.449997       -39.4564
  10   2.0000      -1.428762       -38.8786
  11   2.0000      -1.218304       -33.1517
  12   2.0000      -1.102138       -29.9907
  13   2.0000      -0.984841       -26.7989
  14   2.0000      -0.908967       -24.7343
  15   2.0000      -0.855290       -23.2736
  16   2.0000      -0.827229       -22.5100
  17   2.0000      -0.763018       -20.7628
  18   2.0000      -0.728631       -19.8271
  19   2.0000      -0.703018       -19.1301
  20   2.0000      -0.678875       -18.4731
  21   2.0000      -0.616270       -16.7696
  22   2.0000      -0.608185       -16.5495
  23   2.0000      -0.581642       -15.8273
  24   2.0000      -0.571744       -15.5579
  25   2.0000      -0.558055       -15.1854
  26   2.0000      -0.542857       -14.7719
  27   2.0000      -0.516450       -14.0533
  28   2.0000      -0.498533       -13.5658
  29   2.0000      -0.465162       -12.6577
  30   2.0000      -0.442647       -12.0450
  31   2.0000      -0.412958       -11.2372
  32   2.0000      -0.382808       -10.4167
  33   0.0000       0.147709         4.0194
  34   0.0000       0.155875         4.2416
  35   0.0000       0.159900         4.3511
  36   0.0000       0.173308         4.7160
  37   0.0000       0.182088         4.9549

MULLIKEN ATOMIC CHARGES
-----------------------
   0 C :   -0.242759
   1 C :   -0.009274
   2 O :   -0.318926
   3 C :   -0.092091
   4 C :    0.331778
   5 C :   -0.176288
   6 N :   -0.259379
   7 C :    0.087811
   8 O :   -0.288452
   9 H :    0.125053
  10 H :    0.134543
  11 H :    0.142798
  12 H :    0.148038
  13 H :    0.143825
  14 H :    0.126325
  15 H :    0.146996
Sum of atomic charges:   -0.0000000

LOEWDIN ATOMIC CHARGES
----------------------
   0 C :   -0.176907
   1 C :   -0.234569
   2 O :    0.179381
   3 C :   -0.209220
   4 C :   -0.256366
   5 C :   -0.235003
   6 N :    0.065163
   7 C :   -0.345971
   8 O :    0.250663
   9 H :    0.134930
  10 H :    0.146788
  11 H :    0.131416
  12 H :    0.135050
  13 H :    0.142471
  14 H :    0.137931
  15 H :    0.134242

  Mayer bond orders larger than 0.1
B(  0-C ,  1-C ) :   0.9363 B(  0-C ,  4-C ) :   0.9376 B(  0-C ,  9-H ) :   0.9008
B(  0-C , 10-H ) :   0.9070 B(  1-C ,  2-O ) :   0.9246 B(  1-C ,  3-C ) :   0.9367
B(  1-C , 11-H ) :   0.9263 B(  2-O ,  3-C ) :   0.9121 B(  3-C ,  4-C ) :   0.8246
B(  3-C , 12-H ) :   0.9196 B(  4-C ,  5-C ) :   0.9191 B(  4-C ,  8-O ) :   0.8635
B(  5-C ,  6-N ) :   0.9331 B(  5-C , 13-H ) :   0.9184 B(  5-C , 14-H ) :   0.9197
B(  6-N ,  7-C ) :   1.8415 B(  7-C ,  8-O ) :   1.0493 B(  7-C , 15-H ) :   0.9231

MP2 TOTAL ENERGY:     -437.127283577 Eh
FINAL SINGLE POINT ENERGY      -437.127283576783

DIPOLE MOMENT
-------------
                                X             Y             Z
Electronic contribution:      0.14793      -1.86561      -1.11714
Nuclear contribution   :      0.04085       2.43618       0.47433
                        -----------------------------------------
Total Dipole Moment    :      0.18879       0.57057      -0.64281
                        -----------------------------------------
Magnitude (a.u.)       :      0.88000
Magnitude (Debye)      :      2.23677

                             ****ORCA TERMINATED NORMALLY****
TOTAL RUN TIME: 0 days 0 hours 15 minutes 41 seconds 640 msec
