                         Program Version 3.0.3 - RELEASE   -
|  1> ! RI-MP2 RIJK def2-TZVP def2-TZVP/C def2-TZVP/JK TIGHTSCF
|  2> % maxcore 2000
|  3> % mp2 density relaxed end
|  4> *xyz 0 1
|  5>  N       -0.0830879838     1.3456986565    -0.0939383858
|  6>  C       -0.0171227764     0.0852117800     0.0271720370
|  7>  C       -1.2649601130    -0.7545862249     0.1240165182
|  8>  C       -1.0634511689    -2.0037182576     0.9301769984
|  9>  N       -1.9318211230    -2.4801453288     1.7025171727
| 10>  O        0.1412368958    -2.6683163390     0.7123447333
| 11>  C        1.2734462916    -2.0338652007     0.2810656790
| 12>  O        2.3011929243    -2.6363643063     0.1648716607
| 13>  N        1.1520591234    -0.6785786494     0.0337711820
| 14>  H        0.8399098640     1.7757442247    -0.1809941803
| 15>  H       -2.0820982390    -0.1694638684     0.5394442588
| 16>  H       -1.5471682344    -1.0523341991    -0.8957086029
| 17>  H       -1.6079734910    -3.3529723488     2.1237027134
| 18>  H        2.0314077904    -0.2323113281    -0.1865086644
| 19> *
| 20>
| 21>                          ****END OF INPUT****

CARTESIAN COORDINATES (ANGSTROEM)
---------------------------------
  N     -0.083088    1.345699   -0.093938
  C     -0.017123    0.085212    0.027172
  C     -1.264960   -0.754586    0.124017
  C     -1.063451   -2.003718    0.930177
  N     -1.931821   -2.480145    1.702517
  O      0.141237   -2.668316    0.712345
  C      1.273446   -2.033865    0.281066
  O      2.301193   -2.636364    0.164872
  N      1.152059   -0.678579    0.033771
  H      0.839910    1.775744   -0.180994
  H     -2.082098   -0.169464    0.539444
  H     -1.547168   -1.052334   -0.895709
  H     -1.607973   -3.352972    2.123703
  H      2.031408   -0.232311   -0.186509

 Total Charge           Charge          ....    0
 Multiplicity           Mult            ....    1
 Number of Electrons    NEL             ....   66
 Basis Dimension        Dim             ....  309

ORBITAL ENERGIES
----------------

  NO   OCC          E(Eh)            E(eV)
   0   2.0000     -20.651405      -561.9533
   1   2.0000     -20.564190      -559.5801
   2   2.0000     -15.645249      -425.7289
   3   2.0000     -15.573308      -423.7713
   4   2.0000     -15.568599      -423.6431
   5   2.0000     -11.450238      -311.5768
   6   2.0000     -11.379869      -309.6620
   7   2.0000     -11.365348      -309.2668
   8   2.0000     -11.282130      -307.0024
   9   2.0000      -1.514270       -41.2054
  10   2.0000      -1.412235       -38.4289
  11   2.0000      -1.322777       -35.9946
  12   2.0000      -1.241844       -33.7923
  13   2.0000      -1.205930       -32.8150
  14   2.0000      -1.065958       -29.0062
  15   2.0000      -0.919729       -25.0271
  16   2.0000      -0.887193       -24.1418
  17   2.0000      -0.806269       -21.9397
  18   2.0000      -0.787963       -21.4416
  19   2.0000      -0.735050       -20.0017
  20   2.0000      -0.707095       -19.2410
  21   2.0000      -0.680638       -18.5211
  22   2.0000      -0.669356       -18.2141
  23   2.0000      -0.630418       -17.1546
  24   2.0000      -0.613017       -16.6810
  25   2.0000      -0.590095       -16.0573
  26   2.0000      -0.558598       -15.2002
  27   2.0000      -0.518820       -14.1178
  28   2.0000      -0.513192       -13.9647
  29   2.0000      -0.478898       -13.0315
  30   2.0000      -0.459303       -12.4983
  31   2.0000      -0.443405       -12.0657
  32   2.0000      -0.415694       -11.3116
  33   0.0000       0.100296         2.7292
  34   0.0000       0.116668         3.1747
  35   0.0000       0.142480         3.8771
  36   0.0000       0.162305         4.4166
  37   0.0000       0.169558         4.6139

MULLIKEN ATOMIC CHARGES
-----------------------
   0 N :   -0.327963
   1 C :    0.077227
   2 C :   -0.122723
   3 C :    0.119654
   4 N :   -0.330092
   5 O :   -0.201639
   6 C :    0.341820
   7 O :   -0.290203
   8 N :   -0.308902
   9 H :    0.207303
  10 H :    0.172020
  11 H :    0.167236
  12 H :    0.238670
  13 H :    0.257591
Sum of atomic charges:   -0.0000000

LOEWDIN ATOMIC CHARGES
----------------------
   0 N :   -0.037686
   1 C :   -0.359413
   2 C :   -0.170421
   3 C :   -0.370649
   4 N :   -0.012164
   5 O :    0.306607
   6 C :   -0.545148
   7 O :    0.132976
   8 N :    0.156467
   9 H :    0.162727
  10 H :    0.174515
  11 H :    0.176609
  12 H :    0.177431
  13 H :    0.208149

  Mayer bond orders larger than 0.1
B(  0-N ,  1-C ) :   2.0813 B(  0-N ,  9-H ) :   0.8571 B(  1-C ,  2-C ) :   0.8974
B(  1-C ,  8-N ) :   1.0098 B(  2-C ,  3-C ) :   0.9049 B(  2-C , 10-H ) :   0.9100
B(  2-C , 11-H ) :   0.9078 B(  3-C ,  4-N ) :   2.0828 B(  3-C ,  5-O ) :   0.9577
B(  4-N , 12-H ) :   0.8498 B(  5-O ,  6-C ) :   1.0526 B(  6-C ,  7-O ) :   2.0334
B(  6-C ,  8-N ) :   1.0769 B(  8-N , 13-H ) :   0.8548

MP2 TOTAL ENERGY:     -469.316606579 Eh
FINAL SINGLE POINT ENERGY      -469.316606578799

DIPOLE MOMENT
-------------
                                X             Y             Z
Electronic contribution:      2.90608      -2.90143       0.36754
Nuclear contribution   :     -2.62540       3.39795      -0.70746
                        -----------------------------------------
Total Dipole Moment    :      0.28068       0.49653      -0.33992
                        -----------------------------------------
Magnitude (a.u.)       :      0.66398
Magnitude (Debye)      :      1.68769

                             ****ORCA TERMINATED NORMALLY****
TOTAL RUN TIME: 0 days 0 hours 13 minutes 5 seconds 991 msec
