                         Program Version 3.0.3 - RELEASE   -
|  1> ! RI-MP2 RIJK def2-TZVP def2-TZVP/C def2-TZVP/JK TIGHTSCF
|  2> % maxcore 2000
|  3> % mp2 density relaxed end
|  4> *xyz 0 1
|  5>  C       -0.0793515385     1.4473263480     0.1577963898
|  6>  C       -0.0163420063    -0.0506059080    -0.0393610087
|  7>  O        1.0163943410    -0.6650279684    -0.2170799176
|  8>  C       -1.3042904664    -0.7661290530    -0.0045809633
|  9>  C       -1.8057800339    -1.9162074287    -0.8686345156
| 10>  C       -3.2305117040    -1.3465489653    -0.6432480075
| 11>  C       -3.0878542844    -1.5335883893     0.8238681373
| 12>  C       -1.6600864077    -2.1061417512     0.6266821428
| 13>  N       -2.7115913333    -0.2131047053     0.2032059766
| 14>  H        0.9256724362     1.8680130385     0.1143719309
| 15>  H       -0.7153660947     1.9016711602    -0.6100550244
| 16>  H       -0.5483886575     1.6811929078     1.1200077462
| 17>  H       -1.2989868890    -2.4115467894    -1.6832368860
| 18>  H       -4.0999009682    -1.2447791727    -1.2801913117
| 19>  H       -3.8180371661    -1.6144270190     1.6189698268
| 20>  H       -1.0198697472    -2.7754086243     1.1816430743
| 21> *
| 22>
| 23>                          ****END OF INPUT****

CARTESIAN COORDINATES (ANGSTROEM)
---------------------------------
  C     -0.079352    1.447326    0.157796
  C     -0.016342   -0.050606   -0.039361
  O      1.016394   -0.665028   -0.217080
  C     -1.304290   -0.766129   -0.004581
  C     -1.805780   -1.916207   -0.868635
  C     -3.230512   -1.346549   -0.643248
  C     -3.087854   -1.533588    0.823868
  C     -1.660086   -2.106142    0.626682
  N     -2.711591   -0.213105    0.203206
  H      0.925672    1.868013    0.114372
  H     -0.715366    1.901671   -0.610055
  H     -0.548389    1.681193    1.120008
  H     -1.298987   -2.411547   -1.683237
  H     -4.099901   -1.244779   -1.280191
  H     -3.818037   -1.614427    1.618970
  H     -1.019870   -2.775409    1.181643

 Total Charge           Charge          ....    0
 Multiplicity           Mult            ....    1
 Number of Electrons    NEL             ....   64
 Basis Dimension        Dim             ....  321

ORBITAL ENERGIES
----------------

  NO   OCC          E(Eh)            E(eV)
   0   2.0000     -20.540671      -558.9401
   1   2.0000     -15.577723      -423.8914
   2   2.0000     -11.336311      -308.4767
   3   2.0000     -11.284611      -307.0699
   4   2.0000     -11.283879      -307.0500
   5   2.0000     -11.281641      -306.9891
   6   2.0000     -11.266559      -306.5786
   7   2.0000     -11.265913      -306.5611
   8   2.0000     -11.231640      -305.6285
   9   2.0000      -1.386825       -37.7374
  10   2.0000      -1.357781       -36.9471
  11   2.0000      -1.081753       -29.4360
  12   2.0000      -1.026541       -27.9336
  13   2.0000      -0.947802       -25.7910
  14   2.0000      -0.911876       -24.8134
  15   2.0000      -0.827521       -22.5180
  16   2.0000      -0.746723       -20.3194
  17   2.0000      -0.730910       -19.8891
  18   2.0000      -0.690924       -18.8010
  19   2.0000      -0.646887       -17.6027
  20   2.0000      -0.634503       -17.2657
  21   2.0000      -0.606210       -16.4958
  22   2.0000      -0.600788       -16.3483
  23   2.0000      -0.577496       -15.7145
  24   2.0000      -0.559147       -15.2152
  25   2.0000      -0.518822       -14.1179
  26   2.0000      -0.506851       -13.7921
  27   2.0000      -0.464889       -12.6503
  28   2.0000      -0.463279       -12.6065
  29   2.0000      -0.419956       -11.4276
  30   2.0000      -0.376978       -10.2581
  31   2.0000      -0.354386        -9.6433
  32   0.0000       0.127097         3.4585
  33   0.0000       0.147146         4.0041
  34   0.0000       0.162620         4.4251
  35   0.0000       0.166059         4.5187
  36   0.0000       0.170458         4.6384

MULLIKEN ATOMIC CHARGES
-----------------------
   0 C :   -0.391021
   1 C :    0.152569
   2 O :   -0.305935
   3 C :    0.088440
   4 C :   -0.145775
   5 C :   -0.059185
   6 C :   -0.059523
   7 C :   -0.145598
   8 N :   -0.223811
   9 H :    0.151542
  10 H :    0.150287
  11 H :    0.150377
  12 H :    0.166738
  13 H :    0.152083
  14 H :    0.152074
  15 H :    0.166738
Sum of atomic charges:    0.0000000

LOEWDIN ATOMIC CHARGES
----------------------
   0 C :   -0.267263
   1 C :   -0.336288
   2 O :    0.142096
   3 C :   -0.161646
   4 C :   -0.096219
   5 C :   -0.155396
   6 C :   -0.155369
   7 C :   -0.096208
   8 N :    0.153151
   9 H :    0.133294
  10 H :    0.142638
  11 H :    0.142657
  12 H :    0.144692
  13 H :    0.132584
  14 H :    0.132581
  15 H :    0.144695

  Mayer bond orders larger than 0.1
B(  0-C ,  1-C ) :   0.9501 B(  0-C ,  9-H ) :   0.9363 B(  0-C , 10-H ) :   0.9058
B(  0-C , 11-H ) :   0.9058 B(  1-C ,  2-O ) :   1.9902 B(  1-C ,  3-C ) :   0.8820
B(  3-C ,  4-C ) :   0.8205 B(  3-C ,  7-C ) :   0.8205 B(  3-C ,  8-N ) :   0.8960
B(  4-C ,  5-C ) :   0.8863 B(  4-C ,  7-C ) :   0.8749 B(  4-C , 12-H ) :   0.9079
B(  5-C ,  6-C ) :   0.9548 B(  5-C ,  8-N ) :   0.8974 B(  5-C , 13-H ) :   0.9076
B(  6-C ,  7-C ) :   0.8865 B(  6-C ,  8-N ) :   0.8978 B(  6-C , 14-H ) :   0.9076
B(  7-C , 15-H ) :   0.9079

MP2 TOTAL ENERGY:     -399.941167844 Eh
FINAL SINGLE POINT ENERGY      -399.941167843648

DIPOLE MOMENT
-------------
                                X             Y             Z
Electronic contribution:      0.01111      -2.83253      -0.36177
Nuclear contribution   :     -0.85515       2.53386       0.40537
                        -----------------------------------------
Total Dipole Moment    :     -0.84405      -0.29867       0.04359
                        -----------------------------------------
Magnitude (a.u.)       :      0.89639
Magnitude (Debye)      :      2.27845

                             ****ORCA TERMINATED NORMALLY****
TOTAL RUN TIME: 0 days 0 hours 18 minutes 26 seconds 353 msec
