                         Program Version 3.0.3 - RELEASE   -
|  1> ! RI-MP2 RIJK def2-TZVP def2-TZVP/C def2-TZVP/JK TIGHTSCF
|  2> % maxcore 2000
|  3> % mp2 density relaxed end
|  4> *xyz 0 1
|  5>  O        0.1332480740     1.4087633024     0.0617547354
|  6>  C        0.0147632932     0.0067009575    -0.0060919414
|  7>  C       -1.3690467673    -0.6458479029     0.0241593746
|  8>  C       -2.2190730536    -0.2190624782    -1.1579244593
|  9>  C       -2.2540285201     1.1120000340    -1.7114760162
| 10>  C       -2.3618366033     2.2334999125    -2.1376479323
| 11>  C       -1.1374970449    -1.2518202817    -1.3700743282
| 12>  C        0.2709236661    -0.6441806375    -1.4180229390
| 13>  O        0.6063088880     0.2321575450    -2.4536626804
| 14>  H       -0.6670749024     1.8024903174    -0.3111238266
| 15>  H        0.6839039622    -0.4017854927     0.7542590221
| 16>  H       -1.8357355438    -1.0890928413     0.8957093350
| 17>  H       -3.2068760184    -0.6742055884    -1.1222230695
| 18>  H       -2.4394452468     3.2105638788    -2.5472173007
| 19>  H       -1.4023910824    -2.2414151650    -1.7223805759
| 20>  H        1.0222790097    -1.4405115244    -1.3514562285
| 21>  H        0.6489047698     1.1112406946    -2.0518554190
| 22> *
| 23>
| 24>                          ****END OF INPUT****

CARTESIAN COORDINATES (ANGSTROEM)
---------------------------------
  O      0.133248    1.408763    0.061755
  C      0.014763    0.006701   -0.006092
  C     -1.369047   -0.645848    0.024159
  C     -2.219073   -0.219062   -1.157924
  C     -2.254029    1.112000   -1.711476
  C     -2.361837    2.233500   -2.137648
  C     -1.137497   -1.251820   -1.370074
  C      0.270924   -0.644181   -1.418023
  O      0.606309    0.232158   -2.453663
  H     -0.667075    1.802490   -0.311124
  H      0.683904   -0.401785    0.754259
  H     -1.835736   -1.089093    0.895709
  H     -3.206876   -0.674206   -1.122223
  H     -2.439445    3.210564   -2.547217
  H     -1.402391   -2.241415   -1.722381
  H      1.022279   -1.440512   -1.351456
  H      0.648905    1.111241   -2.051855

 Total Charge           Charge          ....    0
 Multiplicity           Mult            ....    1
 Number of Electrons    NEL             ....   66
 Basis Dimension        Dim             ....  327

ORBITAL ENERGIES
----------------

  NO   OCC          E(Eh)            E(eV)
   0   2.0000     -20.565317      -559.6107
   1   2.0000     -20.550189      -559.1991
   2   2.0000     -11.295847      -307.3756
   3   2.0000     -11.288384      -307.1726
   4   2.0000     -11.277929      -306.8880
   5   2.0000     -11.259083      -306.3752
   6   2.0000     -11.256107      -306.2942
   7   2.0000     -11.250845      -306.1510
   8   2.0000     -11.236712      -305.7665
   9   2.0000      -1.385843       -37.7107
  10   2.0000      -1.354009       -36.8445
  11   2.0000      -1.204509       -32.7764
  12   2.0000      -1.055441       -28.7200
  13   2.0000      -0.983878       -26.7727
  14   2.0000      -0.898588       -24.4518
  15   2.0000      -0.855936       -23.2912
  16   2.0000      -0.776144       -21.1200
  17   2.0000      -0.749172       -20.3860
  18   2.0000      -0.722768       -19.6675
  19   2.0000      -0.684068       -18.6144
  20   2.0000      -0.674087       -18.3428
  21   2.0000      -0.628513       -17.1027
  22   2.0000      -0.620641       -16.8885
  23   2.0000      -0.595662       -16.2088
  24   2.0000      -0.576192       -15.6790
  25   2.0000      -0.534376       -14.5411
  26   2.0000      -0.522947       -14.2301
  27   2.0000      -0.494596       -13.4587
  28   2.0000      -0.447923       -12.1886
  29   2.0000      -0.431400       -11.7390
  30   2.0000      -0.419333       -11.4106
  31   2.0000      -0.394856       -10.7446
  32   2.0000      -0.374726       -10.1968
  33   0.0000       0.132750         3.6123
  34   0.0000       0.152031         4.1370
  35   0.0000       0.159010         4.3269
  36   0.0000       0.163539         4.4501
  37   0.0000       0.167963         4.5705

MULLIKEN ATOMIC CHARGES
-----------------------
   0 O :   -0.471006
   1 C :    0.005950
   2 C :   -0.085629
   3 C :   -0.335382
   4 C :    0.011270
   5 C :   -0.159265
   6 C :   -0.077222
   7 C :    0.064027
   8 O :   -0.467614
   9 H :    0.341893
  10 H :    0.116192
  11 H :    0.140038
  12 H :    0.144676
  13 H :    0.196459
  14 H :    0.143103
  15 H :    0.100680
  16 H :    0.331829
Sum of atomic charges:    0.0000000

LOEWDIN ATOMIC CHARGES
----------------------
   0 O :   -0.007684
   1 C :   -0.290941
   2 C :   -0.130396
   3 C :   -0.177946
   4 C :   -0.105376
   5 C :   -0.098352
   6 C :   -0.122278
   7 C :   -0.299435
   8 O :   -0.001128
   9 H :    0.181561
  10 H :    0.144667
  11 H :    0.139329
  12 H :    0.179136
  13 H :    0.129635
  14 H :    0.139894
  15 H :    0.140159
  16 H :    0.179155

  Mayer bond orders larger than 0.1
B(  0-O ,  1-C ) :   0.9767 B(  0-O ,  9-H ) :   0.8126 B(  1-C ,  2-C ) :   0.9411
B(  1-C ,  7-C ) :   0.9377 B(  1-C , 10-H ) :   0.9497 B(  2-C ,  3-C ) :   0.8638
B(  2-C ,  6-C ) :   0.8031 B(  2-C , 11-H ) :   0.9219 B(  3-C ,  4-C ) :   1.1331
B(  3-C ,  5-C ) :  -0.1400 B(  3-C ,  6-C ) :   0.8869 B(  3-C , 12-H ) :   0.9458
B(  4-C ,  5-C ) :   2.5634 B(  5-C , 13-H ) :   0.8966 B(  6-C ,  7-C ) :   0.8891
B(  6-C , 14-H ) :   0.9190 B(  7-C ,  8-O ) :   1.0143 B(  7-C , 15-H ) :   0.9525
B(  8-O , 16-H ) :   0.8137

MP2 TOTAL ENERGY:     -421.046815953 Eh
FINAL SINGLE POINT ENERGY      -421.046815953254

DIPOLE MOMENT
-------------
                                X             Y             Z
Electronic contribution:     -0.25830       1.41027      -0.98170
Nuclear contribution   :     -0.41640      -1.75714       1.41814
                        -----------------------------------------
Total Dipole Moment    :     -0.67470      -0.34687       0.43644
                        -----------------------------------------
Magnitude (a.u.)       :      0.87523
Magnitude (Debye)      :      2.22465

                             ****ORCA TERMINATED NORMALLY****
TOTAL RUN TIME: 0 days 0 hours 17 minutes 57 seconds 427 msec
