                         Program Version 3.0.3 - RELEASE   -
|  1> ! RI-MP2 RIJK def2-TZVP def2-TZVP/C def2-TZVP/JK TIGHTSCF
|  2> % maxcore 2000
|  3> % mp2 density relaxed end
|  4> *xyz 0 1
|  5>  C       -0.0027908759     1.4047336506    -0.0273865888
|  6>  O       -0.0135317712    -0.0198024775    -0.0292814475
|  7>  C        0.6078713969    -0.6187098348    -1.0571061106
|  8>  C        0.7368152974    -1.9525013509    -1.2561592910
|  9>  O        1.4505966932    -2.1032888666    -2.4477468291
| 10>  C        1.6845991060    -0.8492808401    -2.8562226046
| 11>  N        2.4404322161    -0.6929907092    -3.9899147204
| 12>  N        1.2122379997     0.0881308623    -2.0862844333
| 13>  H        1.0193292121     1.7951806709     0.0024561009
| 14>  H       -0.5046434757     1.8080214901    -0.9125934003
| 15>  H       -0.5415601567     1.7016320465     0.8738006577
| 16>  H        0.4353526726    -2.8471125516    -0.7470392743
| 17>  H        2.3724415098    -1.4536064213    -4.6499683054
| 18>  H        2.3432926857     0.2191486117    -4.4097879533
| 19> *
| 20>
| 21>                          ****END OF INPUT****

CARTESIAN COORDINATES (ANGSTROEM)
---------------------------------
  C     -0.002791    1.404734   -0.027387
  O     -0.013532   -0.019802   -0.029281
  C      0.607871   -0.618710   -1.057106
  C      0.736815   -1.952501   -1.256159
  O      1.450597   -2.103289   -2.447747
  C      1.684599   -0.849281   -2.856223
  N      2.440432   -0.692991   -3.989915
  N      1.212238    0.088131   -2.086284
  H      1.019329    1.795181    0.002456
  H     -0.504643    1.808021   -0.912593
  H     -0.541560    1.701632    0.873801
  H      0.435353   -2.847113   -0.747039
  H      2.372442   -1.453606   -4.649968
  H      2.343293    0.219149   -4.409788

 Total Charge           Charge          ....    0
 Multiplicity           Mult            ....    1
 Number of Electrons    NEL             ....   60
 Basis Dimension        Dim             ....  284

ORBITAL ENERGIES
----------------

  NO   OCC          E(Eh)            E(eV)
   0   2.0000     -20.625628      -561.2519
   1   2.0000     -20.583619      -560.1088
   2   2.0000     -15.594792      -424.3559
   3   2.0000     -15.547727      -423.0751
   4   2.0000     -11.377926      -309.6091
   5   2.0000     -11.318448      -307.9906
   6   2.0000     -11.276187      -306.8407
   7   2.0000     -11.257972      -306.3450
   8   2.0000      -1.483505       -40.3682
   9   2.0000      -1.413460       -38.4622
  10   2.0000      -1.253025       -34.0965
  11   2.0000      -1.208803       -32.8932
  12   2.0000      -1.011320       -27.5194
  13   2.0000      -0.934184       -25.4204
  14   2.0000      -0.823336       -22.4041
  15   2.0000      -0.817736       -22.2517
  16   2.0000      -0.746919       -20.3247
  17   2.0000      -0.703132       -19.1332
  18   2.0000      -0.679821       -18.4989
  19   2.0000      -0.657756       -17.8985
  20   2.0000      -0.637998       -17.3608
  21   2.0000      -0.629274       -17.1234
  22   2.0000      -0.620003       -16.8711
  23   2.0000      -0.556625       -15.1465
  24   2.0000      -0.516521       -14.0552
  25   2.0000      -0.508297       -13.8315
  26   2.0000      -0.501454       -13.6452
  27   2.0000      -0.459628       -12.5071
  28   2.0000      -0.419599       -11.4179
  29   2.0000      -0.298751        -8.1294
  30   0.0000       0.127626         3.4729
  31   0.0000       0.162088         4.4106
  32   0.0000       0.173124         4.7109
  33   0.0000       0.186375         5.0715
  34   0.0000       0.194369         5.2890

MULLIKEN ATOMIC CHARGES
-----------------------
   0 C :   -0.198727
   1 O :   -0.295859
   2 C :    0.217909
   3 C :   -0.110268
   4 O :   -0.226742
   5 C :    0.372678
   6 N :   -0.502960
   7 N :   -0.353586
   8 H :    0.131377
   9 H :    0.129138
  10 H :    0.142044
  11 H :    0.156968
  12 H :    0.266255
  13 H :    0.271775
Sum of atomic charges:    0.0000000

LOEWDIN ATOMIC CHARGES
----------------------
   0 C :   -0.319460
   1 O :    0.224878
   2 C :   -0.390208
   3 C :   -0.246249
   4 O :    0.325383
   5 C :   -0.467729
   6 N :   -0.049583
   7 N :    0.097670
   8 H :    0.110463
   9 H :    0.109738
  10 H :    0.113362
  11 H :    0.132225
  12 H :    0.177624
  13 H :    0.181886

  Mayer bond orders larger than 0.1
B(  0-C ,  1-O ) :   0.8535 B(  0-C ,  8-H ) :   0.9370 B(  0-C ,  9-H ) :   0.9369
B(  0-C , 10-H ) :   0.9361 B(  1-O ,  2-C ) :   1.0857 B(  2-C ,  3-C ) :   1.5857
B(  2-C ,  7-N ) :   1.1385 B(  3-C ,  4-O ) :   0.9341 B(  3-C , 11-H ) :   0.9247
B(  4-O ,  5-C ) :   1.1424 B(  5-C ,  6-N ) :   1.0943 B(  5-C ,  7-N ) :   1.6082
B(  6-N , 12-H ) :   0.8659 B(  6-N , 13-H ) :   0.8676

MP2 TOTAL ENERGY:     -415.211360921 Eh
FINAL SINGLE POINT ENERGY      -415.211360921023

DIPOLE MOMENT
-------------
                                X             Y             Z
Electronic contribution:      0.87917      -4.21041      -1.24025
Nuclear contribution   :     -0.89873       4.36342       0.48795
                        -----------------------------------------
Total Dipole Moment    :     -0.01956       0.15301      -0.75230
                        -----------------------------------------
Magnitude (a.u.)       :      0.76795
Magnitude (Debye)      :      1.95197

                             ****ORCA TERMINATED NORMALLY****
TOTAL RUN TIME: 0 days 0 hours 10 minutes 9 seconds 834 msec
