                         Program Version 3.0.3 - RELEASE   -
|  1> ! RI-MP2 RIJK def2-TZVP def2-TZVP/C def2-TZVP/JK TIGHTSCF
|  2> % maxcore 2000
|  3> % mp2 density relaxed end
|  4> *xyz 0 1
|  5>  C       -0.5771513452     0.6514109323     0.2036015537
|  6>  O        0.1395136704    -0.5429276920    -0.0670271567
|  7>  C        0.8928281312    -0.5062752055    -1.2701255796
|  8>  C        1.7600793987    -1.7615789463    -1.3373677541
|  9>  C        0.8439184481    -2.7877431063    -2.0332574903
| 10>  C        0.0098847750    -3.6415338464    -1.0866792066
| 11>  O       -0.0327202398    -1.9822002158    -2.8642346890
| 12>  C       -0.0139727228    -0.6766719001    -2.4848657841
| 13>  N       -0.6701419696     0.2526096309    -3.0383402994
| 14>  H        0.1089627712     1.5054208773     0.3088567116
| 15>  H       -1.3006036882     0.8826273763    -0.5857815854
| 16>  H       -1.0985133842     0.4935273184     1.1504451822
| 17>  H        1.4595640955     0.4303071794    -1.3366405003
| 18>  H        2.6445721413    -1.5656398391    -1.9498360145
| 19>  H        2.0820417854    -2.0797240152    -0.3446559878
| 20>  H        1.4034564073    -3.4268114232    -2.7226507383
| 21>  H       -0.5237108084    -3.0064770669    -0.3754476608
| 22>  H       -0.7138938767    -4.2373527146    -1.6494638108
| 23>  H        0.6581398395    -4.3244062772    -0.5277700449
| 24>  H       -1.2392691288    -0.1182032559    -3.8027364749
| 25> *
| 26>
| 27>                          ****END OF INPUT****

CARTESIAN COORDINATES (ANGSTROEM)
---------------------------------
  C     -0.577151    0.651411    0.203602
  O      0.139514   -0.542928   -0.067027
  C      0.892828   -0.506275   -1.270126
  C      1.760079   -1.761579   -1.337368
  C      0.843918   -2.787743   -2.033257
  C      0.009885   -3.641534   -1.086679
  O     -0.032720   -1.982200   -2.864235
  C     -0.013973   -0.676672   -2.484866
  N     -0.670142    0.252610   -3.038340
  H      0.108963    1.505421    0.308857
  H     -1.300604    0.882627   -0.585782
  H     -1.098513    0.493527    1.150445
  H      1.459564    0.430307   -1.336641
  H      2.644572   -1.565640   -1.949836
  H      2.082042   -2.079724   -0.344656
  H      1.403456   -3.426811   -2.722651
  H     -0.523711   -3.006477   -0.375448
  H     -0.713894   -4.237353   -1.649464
  H      0.658140   -4.324406   -0.527770
  H     -1.239269   -0.118203   -3.802736

 Total Charge           Charge          ....    0
 Multiplicity           Mult            ....    1
 Number of Electrons    NEL             ....   70
 Basis Dimension        Dim             ....  345

ORBITAL ENERGIES
----------------

  NO   OCC          E(Eh)            E(eV)
   0   2.0000     -20.589384      -560.2656
   1   2.0000     -20.566163      -559.6337
   2   2.0000     -15.532318      -422.6559
   3   2.0000     -11.331794      -308.3538
   4   2.0000     -11.299230      -307.4677
   5   2.0000     -11.298363      -307.4441
   6   2.0000     -11.266911      -306.5882
   7   2.0000     -11.239185      -305.8338
   8   2.0000     -11.219944      -305.3102
   9   2.0000      -1.429468       -38.8978
  10   2.0000      -1.380404       -37.5627
  11   2.0000      -1.192743       -32.4562
  12   2.0000      -1.081060       -29.4171
  13   2.0000      -1.015494       -27.6330
  14   2.0000      -0.926720       -25.2173
  15   2.0000      -0.890623       -24.2351
  16   2.0000      -0.823933       -22.4204
  17   2.0000      -0.771442       -20.9920
  18   2.0000      -0.708293       -19.2736
  19   2.0000      -0.675742       -18.3879
  20   2.0000      -0.673368       -18.3233
  21   2.0000      -0.638821       -17.3832
  22   2.0000      -0.628764       -17.1095
  23   2.0000      -0.607834       -16.5400
  24   2.0000      -0.585376       -15.9289
  25   2.0000      -0.556275       -15.1370
  26   2.0000      -0.544246       -14.8097
  27   2.0000      -0.529876       -14.4187
  28   2.0000      -0.524139       -14.2626
  29   2.0000      -0.505443       -13.7538
  30   2.0000      -0.486678       -13.2432
  31   2.0000      -0.474859       -12.9216
  32   2.0000      -0.451428       -12.2840
  33   2.0000      -0.414313       -11.2740
  34   2.0000      -0.395656       -10.7663
  35   0.0000       0.135580         3.6893
  36   0.0000       0.155244         4.2244
  37   0.0000       0.164953         4.4886
  38   0.0000       0.170715         4.6454
  39   0.0000       0.182246         4.9592

MULLIKEN ATOMIC CHARGES
-----------------------
   0 C :   -0.231544
   1 O :   -0.322767
   2 C :    0.139817
   3 C :   -0.221965
   4 C :    0.113495
   5 C :   -0.430805
   6 O :   -0.257739
   7 C :    0.085321
   8 N :   -0.388131
   9 H :    0.110127
  10 H :    0.148848
  11 H :    0.135617
  12 H :    0.100664
  13 H :    0.137639
  14 H :    0.133869
  15 H :    0.106987
  16 H :    0.157296
  17 H :    0.137993
  18 H :    0.124369
  19 H :    0.220910
Sum of atomic charges:    0.0000000

LOEWDIN ATOMIC CHARGES
----------------------
   0 C :   -0.344886
   1 O :    0.156227
   2 C :   -0.286200
   3 C :   -0.208491
   4 C :   -0.290769
   5 C :   -0.293593
   6 O :    0.257303
   7 C :   -0.391743
   8 N :   -0.061951
   9 H :    0.104145
  10 H :    0.110559
  11 H :    0.112214
  12 H :    0.146198
  13 H :    0.146757
  14 H :    0.149729
  15 H :    0.140912
  16 H :    0.131590
  17 H :    0.126917
  18 H :    0.127658
  19 H :    0.167426

  Mayer bond orders larger than 0.1
B(  0-C ,  1-O ) :   0.8902 B(  0-C ,  9-H ) :   0.9371 B(  0-C , 10-H ) :   0.9290
B(  0-C , 11-H ) :   0.9363 B(  1-O ,  2-C ) :   0.9528 B(  2-C ,  3-C ) :   0.9186
B(  2-C ,  7-C ) :   0.8852 B(  2-C , 12-H ) :   0.9223 B(  3-C ,  4-C ) :   0.9257
B(  3-C , 13-H ) :   0.9210 B(  3-C , 14-H ) :   0.9254 B(  4-C ,  5-C ) :   0.9195
B(  4-C ,  6-O ) :   0.8491 B(  4-C , 15-H ) :   0.9328 B(  5-C , 16-H ) :   0.9251
B(  5-C , 17-H ) :   0.9364 B(  5-C , 18-H ) :   0.9286 B(  6-O ,  7-C ) :   1.1132
B(  7-C ,  8-N ) :   2.0144 B(  8-N , 19-H ) :   0.8560

MP2 TOTAL ENERGY:     -439.579267534 Eh
FINAL SINGLE POINT ENERGY      -439.579267533736

DIPOLE MOMENT
-------------
                                X             Y             Z
Electronic contribution:     -0.25272       1.39285      -4.37422
Nuclear contribution   :      0.79015      -1.92487       4.67633
                        -----------------------------------------
Total Dipole Moment    :      0.53742      -0.53202       0.30211
                        -----------------------------------------
Magnitude (a.u.)       :      0.81433
Magnitude (Debye)      :      2.06987

                             ****ORCA TERMINATED NORMALLY****
TOTAL RUN TIME: 0 days 0 hours 30 minutes 13 seconds 602 msec
