                         Program Version 3.0.3 - RELEASE   -
|  1> ! RI-MP2 RIJK def2-TZVP def2-TZVP/C def2-TZVP/JK TIGHTSCF
|  2> % maxcore 2000
|  3> % mp2 density relaxed end
|  4> *xyz 0 1
|  5>  C        0.4777542179     1.2772605621    -0.0680186957
|  6>  C        0.2222404672    -0.2340779220     0.0063518021
|  7>  C       -1.2497166768    -0.6605270238     0.1211796156
|  8>  C       -1.9613749752     0.0342628529     1.2805336491
|  9>  C       -2.0548450915    -0.7011500074    -1.2217677139
| 10>  C       -1.5993854029    -0.0141240830    -2.4938591646
| 11>  O       -1.9093368691    -2.1362673674    -1.3031082605
| 12>  C       -1.4549900853    -2.2108559828     0.0651599468
| 13>  C       -0.3153305233    -3.1934373305     0.2462740963
| 14>  H        1.5454633200     1.4746827716    -0.2062927611
| 15>  H       -0.0533314424     1.7420877351    -0.9037968508
| 16>  H        0.1679739740     1.7881683808     0.8481732112
| 17>  H        0.6714448242    -0.7153886519    -0.8688591097
| 18>  H        0.7604217827    -0.6364349940     0.8747768766
| 19>  H       -2.0414268120     1.1140962319     1.1198460795
| 20>  H       -2.9767950448    -0.3550515456     1.4059947609
| 21>  H       -1.4255731992    -0.1195929843     2.2248685636
| 22>  H       -3.1100884300    -0.4413398436    -1.0360149995
| 23>  H       -0.5397783519    -0.1862854381    -2.6986238109
| 24>  H       -2.1724817936    -0.4137275899    -3.3372110745
| 25>  H       -1.7820463830     1.0642291823    -2.4458836875
| 26>  H       -2.2888396230    -2.5082947000     0.7219996026
| 27>  H        0.5436844031    -2.9457697609    -0.3815961457
| 28>  H        0.0085648366    -3.2236311895     1.2923008190
| 29>  H       -0.6559396519    -4.1971329722    -0.0283153887
| 30> *
| 31>
| 32>                          ****END OF INPUT****

CARTESIAN COORDINATES (ANGSTROEM)
---------------------------------
  C      0.477754    1.277261   -0.068019
  C      0.222240   -0.234078    0.006352
  C     -1.249717   -0.660527    0.121180
  C     -1.961375    0.034263    1.280534
  C     -2.054845   -0.701150   -1.221768
  C     -1.599385   -0.014124   -2.493859
  O     -1.909337   -2.136267   -1.303108
  C     -1.454990   -2.210856    0.065160
  C     -0.315331   -3.193437    0.246274
  H      1.545463    1.474683   -0.206293
  H     -0.053331    1.742088   -0.903797
  H      0.167974    1.788168    0.848173
  H      0.671445   -0.715389   -0.868859
  H      0.760422   -0.636435    0.874777
  H     -2.041427    1.114096    1.119846
  H     -2.976795   -0.355052    1.405995
  H     -1.425573   -0.119593    2.224869
  H     -3.110088   -0.441340   -1.036015
  H     -0.539778   -0.186285   -2.698624
  H     -2.172482   -0.413728   -3.337211
  H     -1.782046    1.064229   -2.445884
  H     -2.288840   -2.508295    0.722000
  H      0.543684   -2.945770   -0.381596
  H      0.008565   -3.223631    1.292301
  H     -0.655940   -4.197133   -0.028315

 Total Charge           Charge          ....    0
 Multiplicity           Mult            ....    1
 Number of Electrons    NEL             ....   72
 Basis Dimension        Dim             ....  375

ORBITAL ENERGIES
----------------

  NO   OCC          E(Eh)            E(eV)
   0   2.0000     -20.536393      -558.8237
   1   2.0000     -11.274479      -306.7942
   2   2.0000     -11.273450      -306.7662
   3   2.0000     -11.235477      -305.7329
   4   2.0000     -11.222668      -305.3843
   5   2.0000     -11.217318      -305.2387
   6   2.0000     -11.215457      -305.1881
   7   2.0000     -11.212920      -305.1191
   8   2.0000     -11.212250      -305.1008
   9   2.0000      -1.370707       -37.2988
  10   2.0000      -1.088310       -29.6144
  11   2.0000      -1.023733       -27.8572
  12   2.0000      -0.994661       -27.0661
  13   2.0000      -0.972253       -26.4564
  14   2.0000      -0.893136       -24.3035
  15   2.0000      -0.840114       -22.8607
  16   2.0000      -0.819197       -22.2915
  17   2.0000      -0.714142       -19.4328
  18   2.0000      -0.656829       -17.8732
  19   2.0000      -0.643604       -17.5133
  20   2.0000      -0.619544       -16.8587
  21   2.0000      -0.611424       -16.6377
  22   2.0000      -0.585599       -15.9350
  23   2.0000      -0.568765       -15.4769
  24   2.0000      -0.556930       -15.1548
  25   2.0000      -0.553591       -15.0640
  26   2.0000      -0.537979       -14.6392
  27   2.0000      -0.532334       -14.4856
  28   2.0000      -0.515586       -14.0298
  29   2.0000      -0.505571       -13.7573
  30   2.0000      -0.504097       -13.7172
  31   2.0000      -0.491932       -13.3861
  32   2.0000      -0.467080       -12.7099
  33   2.0000      -0.430830       -11.7235
  34   2.0000      -0.415820       -11.3150
  35   2.0000      -0.397598       -10.8192
  36   0.0000       0.129636         3.5276
  37   0.0000       0.151729         4.1288
  38   0.0000       0.160676         4.3722
  39   0.0000       0.168738         4.5916
  40   0.0000       0.191206         5.2030

MULLIKEN ATOMIC CHARGES
-----------------------
   0 C :   -0.413361
   1 C :   -0.296939
   2 C :    0.205427
   3 C :   -0.442920
   4 C :    0.020826
   5 C :   -0.403371
   6 O :   -0.315665
   7 C :    0.036504
   8 C :   -0.394296
   9 H :    0.137554
  10 H :    0.131505
  11 H :    0.133659
  12 H :    0.133503
  13 H :    0.121952
  14 H :    0.141701
  15 H :    0.136647
  16 H :    0.132855
  17 H :    0.068461
  18 H :    0.126215
  19 H :    0.146544
  20 H :    0.127580
  21 H :    0.067033
  22 H :    0.127119
  23 H :    0.126940
  24 H :    0.144527
Sum of atomic charges:   -0.0000000

LOEWDIN ATOMIC CHARGES
----------------------
   0 C :   -0.313348
   1 C :   -0.252671
   2 C :   -0.247417
   3 C :   -0.275811
   4 C :   -0.268763
   5 C :   -0.297696
   6 O :    0.158630
   7 C :   -0.271151
   8 C :   -0.297354
   9 H :    0.123065
  10 H :    0.120989
  11 H :    0.120789
  12 H :    0.141809
  13 H :    0.143025
  14 H :    0.126731
  15 H :    0.125569
  16 H :    0.127938
  17 H :    0.136681
  18 H :    0.123937
  19 H :    0.131777
  20 H :    0.125010
  21 H :    0.135957
  22 H :    0.124211
  23 H :    0.127278
  24 H :    0.130816

  Mayer bond orders larger than 0.1
B(  0-C ,  1-C ) :   0.9024 B(  0-C ,  9-H ) :   0.9412 B(  0-C , 10-H ) :   0.9405
B(  0-C , 11-H ) :   0.9411 B(  1-C ,  2-C ) :   0.8594 B(  1-C , 12-H ) :   0.9483
B(  1-C , 13-H ) :   0.9286 B(  2-C ,  3-C ) :   0.8923 B(  2-C ,  4-C ) :   0.9176
B(  2-C ,  7-C ) :   0.9082 B(  3-C , 14-H ) :   0.9393 B(  3-C , 15-H ) :   0.9311
B(  3-C , 16-H ) :   0.9350 B(  4-C ,  5-C ) :   0.8990 B(  4-C ,  6-O ) :   0.9687
B(  4-C , 17-H ) :   0.9166 B(  5-C , 18-H ) :   0.9358 B(  5-C , 19-H ) :   0.9320
B(  5-C , 20-H ) :   0.9344 B(  6-O ,  7-C ) :   0.9721 B(  7-C ,  8-C ) :   0.9022
B(  7-C , 21-H ) :   0.9180 B(  8-C , 22-H ) :   0.9336 B(  8-C , 23-H ) :   0.9337
B(  8-C , 24-H ) :   0.9339

MP2 TOTAL ENERGY:     -388.815853174 Eh
FINAL SINGLE POINT ENERGY      -388.815853173573

DIPOLE MOMENT
-------------
                                X             Y             Z
Electronic contribution:     -3.55919      -4.50927      -2.06194
Nuclear contribution   :      3.77507       4.98158       2.52597
                        -----------------------------------------
Total Dipole Moment    :      0.21588       0.47232       0.46403
                        -----------------------------------------
Magnitude (a.u.)       :      0.69643
Magnitude (Debye)      :      1.77018

                             ****ORCA TERMINATED NORMALLY****
TOTAL RUN TIME: 0 days 0 hours 23 minutes 4 seconds 895 msec
