                         Program Version 3.0.3 - RELEASE   -
|  1> ! RI-MP2 RIJK def2-TZVP def2-TZVP/C def2-TZVP/JK TIGHTSCF
|  2> % maxcore 2000
|  3> % mp2 density relaxed end
|  4> *xyz 0 1
|  5>  C        0.0501877045     1.5265473549     0.1222687009
|  6>  C        0.0226764722    -0.0047008559     0.0390571640
|  7>  O       -1.2968699371    -0.5218132900     0.0585659722
|  8>  C        0.7740416970    -0.4952269845    -1.1688094835
|  9>  N        1.9570454331    -1.0206701098    -1.2410050255
| 10>  C        2.0980441479    -1.2413713765    -2.5986089151
| 11>  C        3.3157698730    -1.8483017808    -3.2033857885
| 12>  N        1.0667071369    -0.8776832193    -3.3147604796
| 13>  O        0.1711433200    -0.3689778000    -2.3578788170
| 14>  H        1.0772689532     1.8972287019     0.1907119680
| 15>  H       -0.4150870870     1.9696169012    -0.7646173554
| 16>  H       -0.5034275336     1.8481625740     1.0076932018
| 17>  H        0.5239042645    -0.4311394928     0.9116542037
| 18>  H       -1.7505172153    -0.2130274753    -0.7342995531
| 19>  H        3.4874280105    -2.8448519624    -2.7858430385
| 20>  H        3.2047600084    -1.9254731113    -4.2857572413
| 21>  H        4.1956227816    -1.2404291533    -2.9725099431
| 22> *
| 23>
| 24>                          ****END OF INPUT****

CARTESIAN COORDINATES (ANGSTROEM)
---------------------------------
  C      0.050188    1.526547    0.122269
  C      0.022676   -0.004701    0.039057
  O     -1.296870   -0.521813    0.058566
  C      0.774042   -0.495227   -1.168809
  N      1.957045   -1.020670   -1.241005
  C      2.098044   -1.241371   -2.598609
  C      3.315770   -1.848302   -3.203386
  N      1.066707   -0.877683   -3.314760
  O      0.171143   -0.368978   -2.357879
  H      1.077269    1.897229    0.190712
  H     -0.415087    1.969617   -0.764617
  H     -0.503428    1.848163    1.007693
  H      0.523904   -0.431139    0.911654
  H     -1.750517   -0.213027   -0.734300
  H      3.487428   -2.844852   -2.785843
  H      3.204760   -1.925473   -4.285757
  H      4.195623   -1.240429   -2.972510

 Total Charge           Charge          ....    0
 Multiplicity           Mult            ....    1
 Number of Electrons    NEL             ....   68
 Basis Dimension        Dim             ....  327

ORBITAL ENERGIES
----------------

  NO   OCC          E(Eh)            E(eV)
   0   2.0000     -20.656632      -562.0955
   1   2.0000     -20.578056      -559.9574
   2   2.0000     -15.623968      -425.1498
   3   2.0000     -15.574738      -423.8102
   4   2.0000     -11.361032      -309.1494
   5   2.0000     -11.319674      -308.0240
   6   2.0000     -11.318768      -307.9993
   7   2.0000     -11.245010      -305.9923
   8   2.0000     -11.240884      -305.8800
   9   2.0000      -1.520361       -41.3711
  10   2.0000      -1.386664       -37.7330
  11   2.0000      -1.257583       -34.2206
  12   2.0000      -1.172933       -31.9171
  13   2.0000      -1.045959       -28.4620
  14   2.0000      -1.002767       -27.2867
  15   2.0000      -0.912819       -24.8391
  16   2.0000      -0.832830       -22.6625
  17   2.0000      -0.802802       -21.8454
  18   2.0000      -0.737383       -20.0652
  19   2.0000      -0.689595       -18.7648
  20   2.0000      -0.661218       -17.9927
  21   2.0000      -0.649111       -17.6632
  22   2.0000      -0.629654       -17.1338
  23   2.0000      -0.592590       -16.1252
  24   2.0000      -0.578521       -15.7424
  25   2.0000      -0.569372       -15.4934
  26   2.0000      -0.561447       -15.2777
  27   2.0000      -0.548300       -14.9200
  28   2.0000      -0.535984       -14.5849
  29   2.0000      -0.505747       -13.7621
  30   2.0000      -0.477880       -13.0038
  31   2.0000      -0.467992       -12.7347
  32   2.0000      -0.459344       -12.4994
  33   2.0000      -0.400441       -10.8966
  34   0.0000       0.122229         3.3260
  35   0.0000       0.133666         3.6372
  36   0.0000       0.144594         3.9346
  37   0.0000       0.169195         4.6040
  38   0.0000       0.183357         4.9894

MULLIKEN ATOMIC CHARGES
-----------------------
   0 C :   -0.401644
   1 C :    0.110522
   2 O :   -0.462847
   3 C :    0.190927
   4 N :   -0.297439
   5 C :    0.202847
   6 C :   -0.421651
   7 N :   -0.139415
   8 O :   -0.125189
   9 H :    0.142907
  10 H :    0.133255
  11 H :    0.150840
  12 H :    0.126831
  13 H :    0.326469
  14 H :    0.153338
  15 H :    0.158801
  16 H :    0.151449
Sum of atomic charges:   -0.0000000

LOEWDIN ATOMIC CHARGES
----------------------
   0 C :   -0.287072
   1 C :   -0.340994
   2 O :   -0.002710
   3 C :   -0.350099
   4 N :    0.135415
   5 C :   -0.373910
   6 C :   -0.263847
   7 N :    0.053242
   8 O :    0.279439
   9 H :    0.132515
  10 H :    0.126592
  11 H :    0.130756
  12 H :    0.162354
  13 H :    0.179885
  14 H :    0.140116
  15 H :    0.138949
  16 H :    0.139367

  Mayer bond orders larger than 0.1
B(  0-C ,  1-C ) :   0.9437 B(  0-C ,  9-H ) :   0.9288 B(  0-C , 10-H ) :   0.9191
B(  0-C , 11-H ) :   0.9350 B(  1-C ,  2-O ) :   0.8948 B(  1-C ,  3-C ) :   0.8946
B(  1-C , 12-H ) :   0.9244 B(  2-O , 13-H ) :   0.8349 B(  3-C ,  4-N ) :   1.6520
B(  3-C ,  8-O ) :   1.1567 B(  4-N ,  5-C ) :   1.1702 B(  5-C ,  6-C ) :   0.8630
B(  5-C ,  7-N ) :   1.6493 B(  6-C , 14-H ) :   0.9293 B(  6-C , 15-H ) :   0.9515
B(  6-C , 16-H ) :   0.9298 B(  7-N ,  8-O ) :   0.8769

MP2 TOTAL ENERGY:     -454.419867140 Eh
FINAL SINGLE POINT ENERGY      -454.419867139951

DIPOLE MOMENT
-------------
                                X             Y             Z
Electronic contribution:     -2.42074      -2.55178      -2.34080
Nuclear contribution   :      2.76766       3.01499       2.39245
                        -----------------------------------------
Total Dipole Moment    :      0.34691       0.46321       0.05165
                        -----------------------------------------
Magnitude (a.u.)       :      0.58102
Magnitude (Debye)      :      1.47683

                             ****ORCA TERMINATED NORMALLY****
TOTAL RUN TIME: 0 days 0 hours 15 minutes 42 seconds 584 msec
