                         Program Version 3.0.3 - RELEASE   -
|  1> ! RI-MP2 RIJK def2-TZVP def2-TZVP/C def2-TZVP/JK TIGHTSCF
|  2> % maxcore 2000
|  3> % mp2 density relaxed end
|  4> *xyz 0 1
|  5>  O       -0.0266117113     1.4288922391     0.0137451648
|  6>  C       -0.0015085319     0.0180184447    -0.0013448042
|  7>  C       -1.3933825405    -0.5838280959     0.0488109008
|  8>  O       -2.0534928246    -0.1696818060    -1.1733626213
|  9>  C       -3.3144845178    -0.5293927666    -1.3425585770
| 10>  C       -4.1466613610    -0.2400406897    -2.4002695908
| 11>  N       -5.3357369947    -0.8367355030    -2.1120037577
| 12>  N       -5.3406334497    -1.4454606496    -1.0302145344
| 13>  O       -3.9350060448    -1.2587334841    -0.4474552047
| 14>  H       -0.5208184447     1.7134254296    -0.7625916789
| 15>  H        0.5313583065    -0.3745372154    -0.8810477119
| 16>  H        0.5470512809    -0.3008695159     0.8907044797
| 17>  H       -1.3631994719    -1.6773858432     0.0925565903
| 18>  H       -1.9576681938    -0.2016974847     0.9043632821
| 19>  H       -3.9676614706     0.3265893107    -3.2955344967
| 20> *
| 21>
| 22>                          ****END OF INPUT****

CARTESIAN COORDINATES (ANGSTROEM)
---------------------------------
  O     -0.026612    1.428892    0.013745
  C     -0.001509    0.018018   -0.001345
  C     -1.393383   -0.583828    0.048811
  O     -2.053493   -0.169682   -1.173363
  C     -3.314485   -0.529393   -1.342559
  C     -4.146661   -0.240041   -2.400270
  N     -5.335737   -0.836736   -2.112004
  N     -5.340633   -1.445461   -1.030215
  O     -3.935006   -1.258733   -0.447455
  H     -0.520818    1.713425   -0.762592
  H      0.531358   -0.374537   -0.881048
  H      0.547051   -0.300870    0.890704
  H     -1.363199   -1.677386    0.092557
  H     -1.957668   -0.201697    0.904363
  H     -3.967661    0.326589   -3.295534

 Total Charge           Charge          ....    0
 Multiplicity           Mult            ....    1
 Number of Electrons    NEL             ....   68
 Basis Dimension        Dim             ....  315

ORBITAL ENERGIES
----------------

  NO   OCC          E(Eh)            E(eV)
   0   2.0000     -20.649596      -561.9041
   1   2.0000     -20.639768      -561.6366
   2   2.0000     -20.573722      -559.8394
   3   2.0000     -15.690289      -426.9545
   4   2.0000     -15.654322      -425.9758
   5   2.0000     -11.402432      -310.2759
   6   2.0000     -11.317530      -307.9656
   7   2.0000     -11.300963      -307.5148
   8   2.0000     -11.264824      -306.5315
   9   2.0000      -1.529033       -41.6071
  10   2.0000      -1.456747       -39.6401
  11   2.0000      -1.380480       -37.5648
  12   2.0000      -1.333288       -36.2806
  13   2.0000      -1.099415       -29.9166
  14   2.0000      -1.040219       -28.3058
  15   2.0000      -0.906189       -24.6586
  16   2.0000      -0.856998       -23.3201
  17   2.0000      -0.839317       -22.8390
  18   2.0000      -0.772682       -21.0257
  19   2.0000      -0.729440       -19.8491
  20   2.0000      -0.707408       -19.2496
  21   2.0000      -0.687904       -18.7188
  22   2.0000      -0.669283       -18.2121
  23   2.0000      -0.642494       -17.4831
  24   2.0000      -0.614825       -16.7302
  25   2.0000      -0.609021       -16.5723
  26   2.0000      -0.568375       -15.4663
  27   2.0000      -0.562447       -15.3050
  28   2.0000      -0.543902       -14.8003
  29   2.0000      -0.517296       -14.0763
  30   2.0000      -0.509056       -13.8521
  31   2.0000      -0.472954       -12.8697
  32   2.0000      -0.467433       -12.7195
  33   2.0000      -0.360054        -9.7976
  34   0.0000       0.112369         3.0577
  35   0.0000       0.128918         3.5080
  36   0.0000       0.149706         4.0737
  37   0.0000       0.171625         4.6702
  38   0.0000       0.180347         4.9075

MULLIKEN ATOMIC CHARGES
-----------------------
   0 O :   -0.475062
   1 C :    0.000503
   2 C :   -0.115690
   3 O :   -0.276771
   4 C :    0.335014
   5 C :   -0.193550
   6 N :   -0.081471
   7 N :   -0.040039
   8 O :   -0.156330
   9 H :    0.327506
  10 H :    0.113588
  11 H :    0.124378
  12 H :    0.134575
  13 H :    0.144633
  14 H :    0.158716
Sum of atomic charges:   -0.0000000

LOEWDIN ATOMIC CHARGES
----------------------
   0 O :   -0.038279
   1 C :   -0.353376
   2 C :   -0.277755
   3 O :    0.264485
   4 C :   -0.455563
   5 C :   -0.271127
   6 N :    0.030967
   7 N :    0.008986
   8 O :    0.238745
   9 H :    0.178236
  10 H :    0.123912
  11 H :    0.137903
  12 H :    0.134876
  13 H :    0.135676
  14 H :    0.142315

  Mayer bond orders larger than 0.1
B(  0-O ,  1-C ) :   0.9313 B(  0-O ,  9-H ) :   0.8374 B(  1-C ,  2-C ) :   0.9481
B(  1-C , 10-H ) :   0.9299 B(  1-C , 11-H ) :   0.9215 B(  2-C ,  3-O ) :   0.8064
B(  2-C , 12-H ) :   0.9207 B(  2-C , 13-H ) :   0.9231 B(  3-O ,  4-C ) :   1.1348
B(  4-C ,  5-C ) :   1.4128 B(  4-C ,  8-O ) :   1.2022 B(  5-C ,  6-N ) :   1.2345
B(  5-C ,  7-N ) :   0.1199 B(  5-C , 14-H ) :   0.9313 B(  6-N ,  7-N ) :   1.5126
B(  7-N ,  8-O ) :   0.7332

MP2 TOTAL ENERGY:     -490.271173022 Eh
FINAL SINGLE POINT ENERGY      -490.271173021725

DIPOLE MOMENT
-------------
                                X             Y             Z
Electronic contribution:     -8.04558      -1.58422      -2.39695
Nuclear contribution   :      9.21994       1.62449       2.21609
                        -----------------------------------------
Total Dipole Moment    :      1.17436       0.04027      -0.18086
                        -----------------------------------------
Magnitude (a.u.)       :      1.18889
Magnitude (Debye)      :      3.02192

                             ****ORCA TERMINATED NORMALLY****
TOTAL RUN TIME: 0 days 0 hours 14 minutes 4 seconds 675 msec
