                         Program Version 3.0.3 - RELEASE   -
|  1> ! RI-MP2 RIJK def2-TZVP def2-TZVP/C def2-TZVP/JK TIGHTSCF
|  2> % maxcore 2000
|  3> % mp2 density relaxed end
|  4> *xyz 0 1
|  5>  C       -0.0588765300     1.7061544245    -0.4153430085
|  6>  C        0.0866521637     0.2056044002    -0.1336356591
|  7>  C       -1.2534559881    -0.5036534735    -0.1605315374
|  8>  C       -1.8304299596    -1.1934970170    -1.3718230548
|  9>  O       -0.8064915837    -1.9008373570    -2.0851128378
| 10>  C       -0.6236290988    -2.8285154512    -0.9718518143
| 11>  C        0.8136387546    -3.1355282714    -0.6057445699
| 12>  C       -1.5521033710    -1.9816780143    -0.0992362314
| 13>  O       -2.3500611666    -2.4788681229     0.9114076896
| 14>  H        0.9146351995     2.2057989809    -0.4068719005
| 15>  H       -0.5157224140     1.8786137130    -1.3955043377
| 16>  H       -0.6903823165     2.1932301069     0.3361561296
| 17>  H        0.7413349509    -0.2404274113    -0.8871627678
| 18>  H        0.5677150602     0.0581654694     0.8413752566
| 19>  H       -2.0422837281     0.0154716054     0.3861114835
| 20>  H       -2.7276571731    -0.9153362407    -1.9125354374
| 21>  H       -1.1419578112    -3.7677222715    -1.2273933870
| 22>  H        1.3306682911    -3.5946863693    -1.4546445556
| 23>  H        1.3644655019    -2.2437347328    -0.3046854261
| 24>  H        0.8312411683    -3.8495838077     0.2248068591
| 25>  H       -2.8623069694    -3.2166594398     0.5597717772
| 26> *
| 27>
| 28>                          ****END OF INPUT****

CARTESIAN COORDINATES (ANGSTROEM)
---------------------------------
  C     -0.058877    1.706154   -0.415343
  C      0.086652    0.205604   -0.133636
  C     -1.253456   -0.503653   -0.160532
  C     -1.830430   -1.193497   -1.371823
  O     -0.806492   -1.900837   -2.085113
  C     -0.623629   -2.828515   -0.971852
  C      0.813639   -3.135528   -0.605745
  C     -1.552103   -1.981678   -0.099236
  O     -2.350061   -2.478868    0.911408
  H      0.914635    2.205799   -0.406872
  H     -0.515722    1.878614   -1.395504
  H     -0.690382    2.193230    0.336156
  H      0.741335   -0.240427   -0.887163
  H      0.567715    0.058165    0.841375
  H     -2.042284    0.015472    0.386111
  H     -2.727657   -0.915336   -1.912535
  H     -1.141958   -3.767722   -1.227393
  H      1.330668   -3.594686   -1.454645
  H      1.364466   -2.243735   -0.304685
  H      0.831241   -3.849584    0.224807
  H     -2.862307   -3.216659    0.559772

 Total Charge           Charge          ....    0
 Multiplicity           Mult            ....    1
 Number of Electrons    NEL             ....   70
 Basis Dimension        Dim             ....  351

ORBITAL ENERGIES
----------------

  NO   OCC          E(Eh)            E(eV)
   0   2.0000     -20.578346      -559.9653
   1   2.0000     -20.554639      -559.3201
   2   2.0000     -11.292874      -307.2947
   3   2.0000     -11.291325      -307.2526
   4   2.0000     -11.281019      -306.9721
   5   2.0000     -11.236371      -305.7572
   6   2.0000     -11.220165      -305.3162
   7   2.0000     -11.219466      -305.2972
   8   2.0000     -11.211946      -305.0925
   9   2.0000      -1.404085       -38.2071
  10   2.0000      -1.373263       -37.3684
  11   2.0000      -1.117391       -30.4057
  12   2.0000      -1.025764       -27.9125
  13   2.0000      -1.018652       -27.7189
  14   2.0000      -0.888191       -24.1689
  15   2.0000      -0.857952       -23.3461
  16   2.0000      -0.789112       -21.4728
  17   2.0000      -0.759538       -20.6681
  18   2.0000      -0.727553       -19.7977
  19   2.0000      -0.650839       -17.7102
  20   2.0000      -0.642258       -17.4767
  21   2.0000      -0.613779       -16.7018
  22   2.0000      -0.606036       -16.4911
  23   2.0000      -0.592348       -16.1186
  24   2.0000      -0.566174       -15.4064
  25   2.0000      -0.552291       -15.0286
  26   2.0000      -0.538244       -14.6464
  27   2.0000      -0.531585       -14.4652
  28   2.0000      -0.515669       -14.0321
  29   2.0000      -0.506354       -13.7786
  30   2.0000      -0.485523       -13.2118
  31   2.0000      -0.471419       -12.8280
  32   2.0000      -0.461640       -12.5619
  33   2.0000      -0.393244       -10.7007
  34   2.0000      -0.361054        -9.8248
  35   0.0000       0.128575         3.4987
  36   0.0000       0.145280         3.9533
  37   0.0000       0.157356         4.2819
  38   0.0000       0.181180         4.9302
  39   0.0000       0.186890         5.0855

MULLIKEN ATOMIC CHARGES
-----------------------
   0 C :   -0.408960
   1 C :   -0.202649
   2 C :   -0.115444
   3 C :    0.001329
   4 O :   -0.340711
   5 C :    0.114148
   6 C :   -0.392787
   7 C :    0.086427
   8 O :   -0.446768
   9 H :    0.134216
  10 H :    0.133295
  11 H :    0.123306
  12 H :    0.131727
  13 H :    0.118116
  14 H :    0.113587
  15 H :    0.139565
  16 H :    0.074747
  17 H :    0.140998
  18 H :    0.135910
  19 H :    0.134402
  20 H :    0.325548
Sum of atomic charges:    0.0000000

LOEWDIN ATOMIC CHARGES
----------------------
   0 C :   -0.313939
   1 C :   -0.275685
   2 C :   -0.175982
   3 C :   -0.216863
   4 O :    0.161443
   5 C :   -0.265603
   6 C :   -0.291111
   7 C :   -0.317310
   8 O :    0.035815
   9 H :    0.120833
  10 H :    0.123266
  11 H :    0.119862
  12 H :    0.142561
  13 H :    0.138328
  14 H :    0.170047
  15 H :    0.129617
  16 H :    0.141642
  17 H :    0.130387
  18 H :    0.125977
  19 H :    0.132648
  20 H :    0.184067

  Mayer bond orders larger than 0.1
B(  0-C ,  1-C ) :   0.9141 B(  0-C ,  9-H ) :   0.9421 B(  0-C , 10-H ) :   0.9408
B(  0-C , 11-H ) :   0.9414 B(  1-C ,  2-C ) :   0.8865 B(  1-C , 12-H ) :   0.9288
B(  1-C , 13-H ) :   0.9346 B(  2-C ,  3-C ) :   0.8892 B(  2-C ,  7-C ) :   0.8779
B(  2-C , 14-H ) :   0.9110 B(  3-C ,  4-O ) :   0.9520 B(  3-C ,  7-C ) :   0.8630
B(  3-C , 15-H ) :   0.9129 B(  4-O ,  5-C ) :   0.9080 B(  5-C ,  6-C ) :   0.9342
B(  5-C ,  7-C ) :   0.9345 B(  5-C , 16-H ) :   0.8916 B(  6-C , 17-H ) :   0.9313
B(  6-C , 18-H ) :   0.9348 B(  6-C , 19-H ) :   0.9277 B(  7-C ,  8-O ) :   1.1103
B(  8-O , 20-H ) :   0.8327

MP2 TOTAL ENERGY:     -423.476045556 Eh
FINAL SINGLE POINT ENERGY      -423.476045556233

DIPOLE MOMENT
-------------
                                X             Y             Z
Electronic contribution:     -5.71223      -4.88360      -1.03638
Nuclear contribution   :      5.48116       4.53550       1.16032
                        -----------------------------------------
Total Dipole Moment    :     -0.23107      -0.34810       0.12394
                        -----------------------------------------
Magnitude (a.u.)       :      0.43581
Magnitude (Debye)      :      1.10774

                             ****ORCA TERMINATED NORMALLY****
TOTAL RUN TIME: 0 days 0 hours 31 minutes 25 seconds 464 msec
