                         Program Version 3.0.3 - RELEASE   -
|  1> ! RI-MP2 RIJK def2-TZVP def2-TZVP/C def2-TZVP/JK TIGHTSCF
|  2> % maxcore 2000
|  3> % mp2 density relaxed end
|  4> *xyz 0 1
|  5>  O       -0.1001602617     0.2598613654    -0.9507026990
|  6>  C       -0.0768446439     1.2892614806    -0.3308506627
|  7>  C       -1.2100262482     2.0190931487     0.2888603631
|  8>  C       -0.9725760618     2.4750065319     1.7377491901
|  9>  C       -0.6652692038     3.4058578756     0.6263580006
| 10>  N        0.7373784913     3.5251486777     0.2468864784
| 11>  C        1.2118550209     2.1717596695    -0.1229443973
| 12>  C        2.0921236629     1.5707584289     0.8750685120
| 13>  C        2.8007109827     1.0477993614     1.6929148593
| 14>  H       -2.2149426752     1.8035833048    -0.0488494022
| 15>  H       -1.8759597315     2.6529203504     2.3094219963
| 16>  H       -0.1563943712     2.0310082650     2.2962387679
| 17>  H       -1.2594175282     4.2998534922     0.4824536494
| 18>  H        0.7987552075     4.1181134866    -0.5729731959
| 19>  H        1.7352943255     2.2037940819    -1.0838174577
| 20>  H        3.4355843646     0.5929803493     2.4126460279
| 21> *
| 22>
| 23>                          ****END OF INPUT****

CARTESIAN COORDINATES (ANGSTROEM)
---------------------------------
  O     -0.100160    0.259861   -0.950703
  C     -0.076845    1.289261   -0.330851
  C     -1.210026    2.019093    0.288860
  C     -0.972576    2.475007    1.737749
  C     -0.665269    3.405858    0.626358
  N      0.737378    3.525149    0.246886
  C      1.211855    2.171760   -0.122944
  C      2.092124    1.570758    0.875069
  C      2.800711    1.047799    1.692915
  H     -2.214943    1.803583   -0.048849
  H     -1.875960    2.652920    2.309422
  H     -0.156394    2.031008    2.296239
  H     -1.259418    4.299853    0.482454
  H      0.798755    4.118113   -0.572973
  H      1.735294    2.203794   -1.083817
  H      3.435584    0.592980    2.412646

 Total Charge           Charge          ....    0
 Multiplicity           Mult            ....    1
 Number of Electrons    NEL             ....   64
 Basis Dimension        Dim             ....  321

ORBITAL ENERGIES
----------------

  NO   OCC          E(Eh)            E(eV)
   0   2.0000     -20.552730      -559.2682
   1   2.0000     -15.576304      -423.8528
   2   2.0000     -11.342467      -308.6442
   3   2.0000     -11.303934      -307.5957
   4   2.0000     -11.289333      -307.1984
   5   2.0000     -11.251921      -306.1803
   6   2.0000     -11.250968      -306.1544
   7   2.0000     -11.241252      -305.8900
   8   2.0000     -11.231491      -305.6244
   9   2.0000      -1.399034       -38.0696
  10   2.0000      -1.269256       -34.5382
  11   2.0000      -1.130672       -30.7671
  12   2.0000      -1.055167       -28.7126
  13   2.0000      -0.979195       -26.6453
  14   2.0000      -0.894475       -24.3399
  15   2.0000      -0.817228       -22.2379
  16   2.0000      -0.771736       -21.0000
  17   2.0000      -0.736808       -20.0496
  18   2.0000      -0.719385       -19.5755
  19   2.0000      -0.678131       -18.4529
  20   2.0000      -0.639222       -17.3941
  21   2.0000      -0.625477       -17.0201
  22   2.0000      -0.618907       -16.8413
  23   2.0000      -0.594228       -16.1698
  24   2.0000      -0.549260       -14.9461
  25   2.0000      -0.533816       -14.5259
  26   2.0000      -0.509362       -13.8604
  27   2.0000      -0.457394       -12.4463
  28   2.0000      -0.434165       -11.8142
  29   2.0000      -0.398900       -10.8546
  30   2.0000      -0.388326       -10.5669
  31   2.0000      -0.367389        -9.9972
  32   0.0000       0.118871         3.2346
  33   0.0000       0.126800         3.4504
  34   0.0000       0.154324         4.1994
  35   0.0000       0.157831         4.2948
  36   0.0000       0.174669         4.7530

MULLIKEN ATOMIC CHARGES
-----------------------
   0 O :   -0.260845
   1 C :    0.160935
   2 C :   -0.151703
   3 C :   -0.267701
   4 C :   -0.043610
   5 N :   -0.290419
   6 C :   -0.110279
   7 C :   -0.049652
   8 C :   -0.136371
   9 H :    0.145082
  10 H :    0.145181
  11 H :    0.164320
  12 H :    0.139806
  13 H :    0.216405
  14 H :    0.145470
  15 H :    0.193382
Sum of atomic charges:    0.0000000

LOEWDIN ATOMIC CHARGES
----------------------
   0 O :    0.167714
   1 C :   -0.279832
   2 C :   -0.166589
   3 C :   -0.176841
   4 C :   -0.240650
   5 N :    0.040028
   6 C :   -0.235006
   7 C :   -0.087473
   8 C :   -0.084475
   9 H :    0.152142
  10 H :    0.142555
  11 H :    0.147519
  12 H :    0.143718
  13 H :    0.176650
  14 H :    0.172089
  15 H :    0.128453

  Mayer bond orders larger than 0.1
B(  0-O ,  1-C ) :   2.0362 B(  1-C ,  2-C ) :   0.9840 B(  1-C ,  6-C ) :   0.8199
B(  2-C ,  3-C ) :   0.8152 B(  2-C ,  4-C ) :   0.8548 B(  2-C ,  6-C ) :  -0.1310
B(  2-C ,  9-H ) :   0.9170 B(  3-C ,  4-C ) :   0.9110 B(  3-C , 10-H ) :   0.9254
B(  3-C , 11-H ) :   0.9079 B(  4-C ,  5-N ) :   1.0083 B(  4-C , 12-H ) :   0.9235
B(  5-N ,  6-C ) :   1.0491 B(  5-N , 13-H ) :   0.8748 B(  6-C ,  7-C ) :   1.1397
B(  6-C , 14-H ) :   0.9103 B(  7-C ,  8-C ) :   2.5910 B(  8-C , 15-H ) :   0.8974

MP2 TOTAL ENERGY:     -400.005028579 Eh
FINAL SINGLE POINT ENERGY      -400.005028578770

DIPOLE MOMENT
-------------
                                X             Y             Z
Electronic contribution:      1.70778      -2.65563      -2.43702
Nuclear contribution   :     -2.14004       3.61871       2.63186
                        -----------------------------------------
Total Dipole Moment    :     -0.43226       0.96308       0.19485
                        -----------------------------------------
Magnitude (a.u.)       :      1.07347
Magnitude (Debye)      :      2.72855

                             ****ORCA TERMINATED NORMALLY****
TOTAL RUN TIME: 0 days 0 hours 16 minutes 31 seconds 246 msec
