                         Program Version 3.0.3 - RELEASE   -
|  1> ! RI-MP2 RIJK def2-TZVP def2-TZVP/C def2-TZVP/JK TIGHTSCF
|  2> % maxcore 2000
|  3> % mp2 density relaxed end
|  4> *xyz 0 1
|  5>  C        0.0468312876     1.4754273871    -0.1514730099
|  6>  C        0.0131647110    -0.0494006715     0.0655650472
|  7>  C        0.7039893063    -0.4337944193     1.2957677461
|  8>  C        1.2856857055    -0.7135630523     2.3081389049
|  9>  N       -1.3637994930    -0.5586676807     0.0561743712
| 10>  C       -2.2750585186    -0.5830573288     1.0757926347
| 11>  N       -3.4294830598    -1.0351112782     0.6582327480
| 12>  N       -3.2945226843    -1.3200493113    -0.6873034007
| 13>  C       -2.0645618308    -1.0280624819    -1.0202266639
| 14>  H        1.0821047926     1.8218612055    -0.1958000303
| 15>  H       -0.4554432112     1.7296575618    -1.0882718471
| 16>  H       -0.4580611201     1.9883316031     0.6704062263
| 17>  H        0.5165068244    -0.5341845685    -0.7791677587
| 18>  H        1.7995260307    -0.9773660988     3.2001455835
| 19>  H       -2.0351316540    -0.2817296210     2.0828408036
| 20>  H       -1.6285214863    -1.1385824152    -2.0015502449
| 21> *
| 22>
| 23>                          ****END OF INPUT****

CARTESIAN COORDINATES (ANGSTROEM)
---------------------------------
  C      0.046831    1.475427   -0.151473
  C      0.013165   -0.049401    0.065565
  C      0.703989   -0.433794    1.295768
  C      1.285686   -0.713563    2.308139
  N     -1.363799   -0.558668    0.056174
  C     -2.275059   -0.583057    1.075793
  N     -3.429483   -1.035111    0.658233
  N     -3.294523   -1.320049   -0.687303
  C     -2.064562   -1.028062   -1.020227
  H      1.082105    1.821861   -0.195800
  H     -0.455443    1.729658   -1.088272
  H     -0.458061    1.988332    0.670406
  H      0.516507   -0.534185   -0.779168
  H      1.799526   -0.977366    3.200146
  H     -2.035132   -0.281730    2.082841
  H     -1.628521   -1.138582   -2.001550

 Total Charge           Charge          ....    0
 Multiplicity           Mult            ....    1
 Number of Electrons    NEL             ....   64
 Basis Dimension        Dim             ....  321

ORBITAL ENERGIES
----------------

  NO   OCC          E(Eh)            E(eV)
   0   2.0000     -15.637865      -425.5279
   1   2.0000     -15.577893      -423.8960
   2   2.0000     -15.576692      -423.8633
   3   2.0000     -11.339474      -308.5628
   4   2.0000     -11.302979      -307.5697
   5   2.0000     -11.300491      -307.5020
   6   2.0000     -11.262279      -306.4622
   7   2.0000     -11.255737      -306.2842
   8   2.0000     -11.254985      -306.2637
   9   2.0000      -1.397439       -38.0262
  10   2.0000      -1.243589       -33.8398
  11   2.0000      -1.098555       -29.8932
  12   2.0000      -1.090810       -29.6825
  13   2.0000      -1.027880       -27.9700
  14   2.0000      -0.922856       -25.1122
  15   2.0000      -0.852566       -23.1995
  16   2.0000      -0.819856       -22.3094
  17   2.0000      -0.765732       -20.8366
  18   2.0000      -0.728976       -19.8364
  19   2.0000      -0.681439       -18.5429
  20   2.0000      -0.661932       -18.0121
  21   2.0000      -0.633413       -17.2361
  22   2.0000      -0.614304       -16.7161
  23   2.0000      -0.579993       -15.7824
  24   2.0000      -0.573832       -15.6148
  25   2.0000      -0.555332       -15.1113
  26   2.0000      -0.480467       -13.0742
  27   2.0000      -0.431234       -11.7345
  28   2.0000      -0.428822       -11.6688
  29   2.0000      -0.420469       -11.4415
  30   2.0000      -0.406342       -11.0571
  31   2.0000      -0.362880        -9.8745
  32   0.0000       0.114459         3.1146
  33   0.0000       0.139103         3.7852
  34   0.0000       0.141705         3.8560
  35   0.0000       0.149548         4.0694
  36   0.0000       0.157343         4.2815

MULLIKEN ATOMIC CHARGES
-----------------------
   0 C :   -0.357554
   1 C :   -0.171617
   2 C :   -0.054663
   3 C :   -0.098449
   4 N :   -0.029107
   5 C :   -0.016236
   6 N :   -0.177478
   7 N :   -0.183115
   8 C :   -0.020397
   9 H :    0.148021
  10 H :    0.150132
  11 H :    0.143922
  12 H :    0.144066
  13 H :    0.204604
  14 H :    0.162966
  15 H :    0.154904
Sum of atomic charges:   -0.0000000

LOEWDIN ATOMIC CHARGES
----------------------
   0 C :   -0.258049
   1 C :   -0.252067
   2 C :   -0.086854
   3 C :   -0.066106
   4 N :    0.258778
   5 C :   -0.304299
   6 N :    0.021486
   7 N :    0.020086
   8 C :   -0.315872
   9 H :    0.134398
  10 H :    0.130313
  11 H :    0.133112
  12 H :    0.174961
  13 H :    0.132589
  14 H :    0.141096
  15 H :    0.136427

  Mayer bond orders larger than 0.1
B(  0-C ,  1-C ) :   0.9367 B(  0-C ,  9-H ) :   0.9302 B(  0-C , 10-H ) :   0.9307
B(  0-C , 11-H ) :   0.9192 B(  1-C ,  2-C ) :   1.0937 B(  1-C ,  4-N ) :   0.8805
B(  1-C , 12-H ) :   0.9284 B(  2-C ,  3-C ) :   2.6099 B(  3-C , 13-H ) :   0.8905
B(  4-N ,  5-C ) :   1.1304 B(  4-N ,  8-C ) :   1.1346 B(  5-C ,  6-N ) :   1.6249
B(  5-C , 14-H ) :   0.9213 B(  6-N ,  7-N ) :   1.0630 B(  7-N ,  8-C ) :   1.6220
B(  8-C , 15-H ) :   0.9201

MP2 TOTAL ENERGY:     -396.204471130 Eh
FINAL SINGLE POINT ENERGY      -396.204471129504

DIPOLE MOMENT
-------------
                                X             Y             Z
Electronic contribution:     -4.22413      -4.49341       0.74789
Nuclear contribution   :      6.56546       5.37573      -0.68479
                        -----------------------------------------
Total Dipole Moment    :      2.34133       0.88232       0.06310
                        -----------------------------------------
Magnitude (a.u.)       :      2.50286
Magnitude (Debye)      :      6.36177

                             ****ORCA TERMINATED NORMALLY****
TOTAL RUN TIME: 0 days 0 hours 14 minutes 52 seconds 818 msec
