                         Program Version 3.0.3 - RELEASE   -
|  1> ! RI-MP2 RIJK def2-TZVP def2-TZVP/C def2-TZVP/JK TIGHTSCF
|  2> % maxcore 2000
|  3> % mp2 density relaxed end
|  4> *xyz 0 1
|  5>  C        0.5241444411     1.5450710402     0.0372740048
|  6>  C       -0.1673054481     0.1858261776    -0.1211634736
|  7>  C        0.3689935317    -0.5805810088    -1.3099567647
|  8>  N        1.6487071899    -1.2946979345    -1.1370840394
|  9>  C        0.4304230199    -2.0672618655    -1.4260698082
| 10>  C       -0.0407371777    -3.0012484490    -0.3305302011
| 11>  C        0.2647849747    -2.6326968491    -2.8399994110
| 12>  C        1.0888171500    -3.8204442058    -3.0796339726
| 13>  N        1.7451730814    -4.7541582394    -3.2603211833
| 14>  H        1.6007582276     1.4121445290     0.1806899392
| 15>  H        0.3771330662     2.1722703415    -0.8492091457
| 16>  H        0.1301755338     2.0904652217     0.8998033968
| 17>  H       -0.0269459722    -0.4029009365     0.7895827080
| 18>  H       -1.2485797437     0.3271302364    -0.2474388284
| 19>  H        0.2343150642    -0.0524948704    -2.2561759929
| 20>  H        2.2393978253    -1.2090304746    -1.9604592690
| 21>  H        0.1762508636    -2.5879158697     0.6545737509
| 22>  H       -1.1187002426    -3.1835639276    -0.4056619021
| 23>  H        0.4722249653    -3.9656835264    -0.4072040030
| 24>  H       -0.7836317829    -2.9014361441    -3.0187264866
| 25>  H        0.5282608525    -1.8755505948    -3.5870396983
| 26> *
| 27>
| 28>                          ****END OF INPUT****

CARTESIAN COORDINATES (ANGSTROEM)
---------------------------------
  C      0.524144    1.545071    0.037274
  C     -0.167305    0.185826   -0.121163
  C      0.368994   -0.580581   -1.309957
  N      1.648707   -1.294698   -1.137084
  C      0.430423   -2.067262   -1.426070
  C     -0.040737   -3.001248   -0.330530
  C      0.264785   -2.632697   -2.839999
  C      1.088817   -3.820444   -3.079634
  N      1.745173   -4.754158   -3.260321
  H      1.600758    1.412145    0.180690
  H      0.377133    2.172270   -0.849209
  H      0.130176    2.090465    0.899803
  H     -0.026946   -0.402901    0.789583
  H     -1.248580    0.327130   -0.247439
  H      0.234315   -0.052495   -2.256176
  H      2.239398   -1.209030   -1.960459
  H      0.176251   -2.587916    0.654574
  H     -1.118700   -3.183564   -0.405662
  H      0.472225   -3.965684   -0.407204
  H     -0.783632   -2.901436   -3.018726
  H      0.528261   -1.875551   -3.587040

 Total Charge           Charge          ....    0
 Multiplicity           Mult            ....    1
 Number of Electrons    NEL             ....   68
 Basis Dimension        Dim             ....  351

ORBITAL ENERGIES
----------------

  NO   OCC          E(Eh)            E(eV)
   0   2.0000     -15.571619      -423.7253
   1   2.0000     -15.567307      -423.6080
   2   2.0000     -11.291310      -307.2522
   3   2.0000     -11.290690      -307.2353
   4   2.0000     -11.275778      -306.8295
   5   2.0000     -11.273257      -306.7609
   6   2.0000     -11.233182      -305.6704
   7   2.0000     -11.228667      -305.5476
   8   2.0000     -11.220894      -305.3361
   9   2.0000      -1.283682       -34.9308
  10   2.0000      -1.220245       -33.2046
  11   2.0000      -1.069199       -29.0944
  12   2.0000      -1.045268       -28.4432
  13   2.0000      -0.984974       -26.8025
  14   2.0000      -0.908778       -24.7291
  15   2.0000      -0.831438       -22.6246
  16   2.0000      -0.769929       -20.9508
  17   2.0000      -0.724200       -19.7065
  18   2.0000      -0.686537       -18.6816
  19   2.0000      -0.656851       -17.8738
  20   2.0000      -0.614069       -16.7097
  21   2.0000      -0.606679       -16.5086
  22   2.0000      -0.585469       -15.9314
  23   2.0000      -0.567736       -15.4489
  24   2.0000      -0.556696       -15.1485
  25   2.0000      -0.541873       -14.7451
  26   2.0000      -0.530583       -14.4379
  27   2.0000      -0.516506       -14.0548
  28   2.0000      -0.494867       -13.4660
  29   2.0000      -0.471538       -12.8312
  30   2.0000      -0.466866       -12.7041
  31   2.0000      -0.458800       -12.4846
  32   2.0000      -0.449390       -12.2285
  33   2.0000      -0.398114       -10.8332
  34   0.0000       0.112892         3.0720
  35   0.0000       0.143809         3.9132
  36   0.0000       0.145388         3.9562
  37   0.0000       0.162221         4.4143
  38   0.0000       0.171595         4.6693

MULLIKEN ATOMIC CHARGES
-----------------------
   0 C :   -0.404446
   1 C :   -0.184967
   2 C :   -0.065540
   3 N :   -0.385624
   4 C :    0.139796
   5 C :   -0.439234
   6 C :   -0.135044
   7 C :   -0.184862
   8 N :   -0.052780
   9 H :    0.142854
  10 H :    0.118905
  11 H :    0.136523
  12 H :    0.112378
  13 H :    0.108218
  14 H :    0.114565
  15 H :    0.220564
  16 H :    0.143210
  17 H :    0.129323
  18 H :    0.162369
  19 H :    0.160659
  20 H :    0.163132
Sum of atomic charges:    0.0000000

LOEWDIN ATOMIC CHARGES
----------------------
   0 C :   -0.313347
   1 C :   -0.273207
   2 C :   -0.241293
   3 N :    0.036427
   4 C :   -0.301614
   5 C :   -0.258106
   6 C :   -0.213490
   7 C :   -0.190624
   8 N :    0.060205
   9 H :    0.126324
  10 H :    0.119667
  11 H :    0.121860
  12 H :    0.141928
  13 H :    0.139736
  14 H :    0.140544
  15 H :    0.167834
  16 H :    0.132023
  17 H :    0.129474
  18 H :    0.137405
  19 H :    0.170979
  20 H :    0.167276

  Mayer bond orders larger than 0.1
B(  0-C ,  1-C ) :   0.9190 B(  0-C ,  9-H ) :   0.9384 B(  0-C , 10-H ) :   0.9378
B(  0-C , 11-H ) :   0.9404 B(  1-C ,  2-C ) :   0.9138 B(  1-C , 12-H ) :   0.9345
B(  1-C , 13-H ) :   0.9327 B(  2-C ,  3-N ) :   0.8861 B(  2-C ,  4-C ) :   0.9041
B(  2-C , 14-H ) :   0.9062 B(  3-N ,  4-C ) :   0.9407 B(  3-N , 15-H ) :   0.8641
B(  4-C ,  5-C ) :   0.9023 B(  4-C ,  6-C ) :   0.8912 B(  5-C , 16-H ) :   0.9361
B(  5-C , 17-H ) :   0.9362 B(  5-C , 18-H ) :   0.9312 B(  6-C ,  7-C ) :   0.9310
B(  6-C , 19-H ) :   0.9011 B(  6-C , 20-H ) :   0.9128 B(  7-C ,  8-N ) :   2.8634

MP2 TOTAL ENERGY:     -382.596682438 Eh
FINAL SINGLE POINT ENERGY      -382.596682438185

DIPOLE MOMENT
-------------
                                X             Y             Z
Electronic contribution:      3.66452      -9.03766      -6.85626
Nuclear contribution   :     -4.80114      10.34235       6.80813
                        -----------------------------------------
Total Dipole Moment    :     -1.13662       1.30470      -0.04813
                        -----------------------------------------
Magnitude (a.u.)       :      1.73103
Magnitude (Debye)      :      4.39993

                             ****ORCA TERMINATED NORMALLY****
TOTAL RUN TIME: 0 days 0 hours 28 minutes 56 seconds 205 msec
