                         Program Version 3.0.3 - RELEASE   -
|  1> ! RI-MP2 RIJK def2-TZVP def2-TZVP/C def2-TZVP/JK TIGHTSCF
|  2> % maxcore 2000
|  3> % mp2 density relaxed end
|  4> *xyz 0 1
|  5>  N        0.1550781122     1.3493658937     0.1953629405
|  6>  C        0.1235896977     0.1047218437     0.0214350988
|  7>  O       -0.9293390049    -0.5129559824    -0.5651600055
|  8>  C       -0.7488220461    -1.9314551721    -0.5742882391
|  9>  C       -0.8293000210    -2.4879181864    -2.0084907942
| 10>  C        0.6182640888    -2.6762912714    -2.3933275911
| 11>  C        1.4555579361    -2.4745605415    -1.3774085651
| 12>  C        0.7223444360    -2.0990388550    -0.1172080116
| 13>  O        1.0791427165    -0.7987288380     0.3808374381
| 14>  H        1.0350591180     1.6167330659     0.6294096676
| 15>  H       -1.4825223825    -2.3753702416     0.1034872762
| 16>  H       -1.3796544316    -3.4364875324    -2.0352263845
| 17>  H       -1.3635732891    -1.7911771548    -2.6624001838
| 18>  H        0.9156602412    -2.9614234047    -3.3964479998
| 19>  H        2.5346305608    -2.5608605048    -1.4081709996
| 20>  H        0.8689693079    -2.8063025181     0.7039980531
| 21> *
| 22>
| 23>                          ****END OF INPUT****

CARTESIAN COORDINATES (ANGSTROEM)
---------------------------------
  N      0.155078    1.349366    0.195363
  C      0.123590    0.104722    0.021435
  O     -0.929339   -0.512956   -0.565160
  C     -0.748822   -1.931455   -0.574288
  C     -0.829300   -2.487918   -2.008491
  C      0.618264   -2.676291   -2.393328
  C      1.455558   -2.474561   -1.377409
  C      0.722344   -2.099039   -0.117208
  O      1.079143   -0.798729    0.380837
  H      1.035059    1.616733    0.629410
  H     -1.482522   -2.375370    0.103487
  H     -1.379654   -3.436488   -2.035226
  H     -1.363573   -1.791177   -2.662400
  H      0.915660   -2.961423   -3.396448
  H      2.534631   -2.560861   -1.408171
  H      0.868969   -2.806303    0.703998

 Total Charge           Charge          ....    0
 Multiplicity           Mult            ....    1
 Number of Electrons    NEL             ....   66
 Basis Dimension        Dim             ....  321

ORBITAL ENERGIES
----------------

  NO   OCC          E(Eh)            E(eV)
   0   2.0000     -20.608190      -560.7774
   1   2.0000     -20.603726      -560.6559
   2   2.0000     -15.519564      -422.3088
   3   2.0000     -11.387595      -309.8722
   4   2.0000     -11.317378      -307.9615
   5   2.0000     -11.314623      -307.8865
   6   2.0000     -11.258216      -306.3516
   7   2.0000     -11.251982      -306.1820
   8   2.0000     -11.247045      -306.0477
   9   2.0000      -1.494404       -40.6648
  10   2.0000      -1.380948       -37.5775
  11   2.0000      -1.204149       -32.7666
  12   2.0000      -1.144571       -31.1453
  13   2.0000      -0.995820       -27.0977
  14   2.0000      -0.982869       -26.7452
  15   2.0000      -0.847117       -23.0512
  16   2.0000      -0.823311       -22.4034
  17   2.0000      -0.777388       -21.1538
  18   2.0000      -0.737879       -20.0787
  19   2.0000      -0.693102       -18.8603
  20   2.0000      -0.674639       -18.3579
  21   2.0000      -0.654386       -17.8067
  22   2.0000      -0.629807       -17.1379
  23   2.0000      -0.609673       -16.5901
  24   2.0000      -0.571145       -15.5416
  25   2.0000      -0.567863       -15.4523
  26   2.0000      -0.549059       -14.9406
  27   2.0000      -0.522143       -14.2082
  28   2.0000      -0.503093       -13.6898
  29   2.0000      -0.472420       -12.8552
  30   2.0000      -0.443501       -12.0683
  31   2.0000      -0.390213       -10.6182
  32   2.0000      -0.382750       -10.4151
  33   0.0000       0.128194         3.4883
  34   0.0000       0.131246         3.5714
  35   0.0000       0.159943         4.3523
  36   0.0000       0.169724         4.6184
  37   0.0000       0.179432         4.8826

MULLIKEN ATOMIC CHARGES
-----------------------
   0 N :   -0.389010
   1 C :    0.271252
   2 O :   -0.248062
   3 C :    0.044545
   4 C :   -0.162132
   5 C :   -0.192456
   6 C :   -0.198566
   7 C :    0.119057
   8 O :   -0.277014
   9 H :    0.231314
  10 H :    0.117339
  11 H :    0.126654
  12 H :    0.149184
  13 H :    0.140840
  14 H :    0.145376
  15 H :    0.121680
Sum of atomic charges:    0.0000000

LOEWDIN ATOMIC CHARGES
----------------------
   0 N :   -0.081168
   1 C :   -0.535082
   2 O :    0.279949
   3 C :   -0.229917
   4 C :   -0.215025
   5 C :   -0.134633
   6 C :   -0.139177
   7 C :   -0.239900
   8 O :    0.249236
   9 H :    0.173394
  10 H :    0.141474
  11 H :    0.146201
  12 H :    0.152153
  13 H :    0.141724
  14 H :    0.143439
  15 H :    0.147333

  Mayer bond orders larger than 0.1
B(  0-N ,  1-C ) :   2.0127 B(  0-N ,  9-H ) :   0.8491 B(  1-C ,  2-O ) :   1.0758
B(  1-C ,  8-O ) :   1.0756 B(  2-O ,  3-C ) :   0.9194 B(  3-C ,  4-C ) :   0.9150
B(  3-C ,  7-C ) :   0.9335 B(  3-C , 10-H ) :   0.9352 B(  4-C ,  5-C ) :   0.9418
B(  4-C , 11-H ) :   0.9069 B(  4-C , 12-H ) :   0.9177 B(  5-C ,  6-C ) :   1.7661
B(  5-C , 13-H ) :   0.9181 B(  6-C ,  7-C ) :   0.9280 B(  6-C , 14-H ) :   0.9225
B(  7-C ,  8-O ) :   0.8763 B(  7-C , 15-H ) :   0.9225

MP2 TOTAL ENERGY:     -437.192977695 Eh
FINAL SINGLE POINT ENERGY      -437.192977694820

DIPOLE MOMENT
-------------
                                X             Y             Z
Electronic contribution:      0.45405       3.45742       2.73599
Nuclear contribution   :     -0.08951      -5.24133      -3.04089
                        -----------------------------------------
Total Dipole Moment    :      0.36454      -1.78391      -0.30489
                        -----------------------------------------
Magnitude (a.u.)       :      1.84613
Magnitude (Debye)      :      4.69249

                             ****ORCA TERMINATED NORMALLY****
TOTAL RUN TIME: 0 days 0 hours 15 minutes 9 seconds 932 msec
