                         Program Version 3.0.3 - RELEASE   -
|  1> ! RI-MP2 RIJK def2-TZVP def2-TZVP/C def2-TZVP/JK TIGHTSCF
|  2> % maxcore 2000
|  3> % mp2 density relaxed end
|  4> *xyz 0 1
|  5>  C        0.4966998213     1.8173815341     0.8036102395
|  6>  O        0.6201114219     0.5556313202     0.1877133121
|  7>  C        0.7583910471    -0.5080093784     1.0954145065
|  8>  C       -0.5298479551    -1.1647538285     1.6994616680
|  9>  C       -1.8341631364    -0.8269187050     0.9799263737
| 10>  C        0.1136445139    -2.5593164702     1.3817540235
| 11>  C       -0.7496889671    -3.6933073069     0.8433208165
| 12>  C        1.1616798104    -1.8603864954     0.4483589191
| 13>  C        0.9368478605    -1.9612610004    -1.0593250368
| 14>  H        1.3746656673     2.0491395382     1.4273243269
| 15>  H        0.4222035480     2.5630528380     0.0079326725
| 16>  H       -0.3998798053     1.8879181274     1.4368287790
| 17>  H        1.4621842462    -0.2242632438     1.8930748260
| 18>  H       -0.6632085158    -0.9814176033     2.7710009198
| 19>  H       -1.7465261944    -0.8997790249    -0.1063354634
| 20>  H       -2.6384859669    -1.4971860926     1.3008378199
| 21>  H       -2.1492612021     0.1962706950     1.2085741851
| 22>  H        0.6290782545    -2.9184663893     2.2793558676
| 23>  H       -1.2968560095    -3.4092635296    -0.0598986310
| 24>  H       -0.1357463624    -4.5666063253     0.5961312357
| 25>  H       -1.4860514495    -4.0117890675     1.5896716953
| 26>  H        2.1967960547    -2.1488174194     0.6595719317
| 27>  H       -0.0756046764    -1.6808502199    -1.3588419290
| 28>  H        1.6241786297    -1.2952565069    -1.5885035675
| 29>  H        1.1197697455    -2.9837575157    -1.4059959907
| 30> *
| 31>
| 32>                          ****END OF INPUT****

CARTESIAN COORDINATES (ANGSTROEM)
---------------------------------
  C      0.496700    1.817382    0.803610
  O      0.620111    0.555631    0.187713
  C      0.758391   -0.508009    1.095415
  C     -0.529848   -1.164754    1.699462
  C     -1.834163   -0.826919    0.979926
  C      0.113645   -2.559316    1.381754
  C     -0.749689   -3.693307    0.843321
  C      1.161680   -1.860386    0.448359
  C      0.936848   -1.961261   -1.059325
  H      1.374666    2.049140    1.427324
  H      0.422204    2.563053    0.007933
  H     -0.399880    1.887918    1.436829
  H      1.462184   -0.224263    1.893075
  H     -0.663209   -0.981418    2.771001
  H     -1.746526   -0.899779   -0.106335
  H     -2.638486   -1.497186    1.300838
  H     -2.149261    0.196271    1.208574
  H      0.629078   -2.918466    2.279356
  H     -1.296856   -3.409264   -0.059899
  H     -0.135746   -4.566606    0.596131
  H     -1.486051   -4.011789    1.589672
  H      2.196796   -2.148817    0.659572
  H     -0.075605   -1.680850   -1.358842
  H      1.624179   -1.295257   -1.588504
  H      1.119770   -2.983758   -1.405996

 Total Charge           Charge          ....    0
 Multiplicity           Mult            ....    1
 Number of Electrons    NEL             ....   72
 Basis Dimension        Dim             ....  375

ORBITAL ENERGIES
----------------

  NO   OCC          E(Eh)            E(eV)
   0   2.0000     -20.549995      -559.1938
   1   2.0000     -11.268218      -306.6238
   2   2.0000     -11.268141      -306.6217
   3   2.0000     -11.220447      -305.3239
   4   2.0000     -11.218814      -305.2794
   5   2.0000     -11.217397      -305.2409
   6   2.0000     -11.208801      -305.0070
   7   2.0000     -11.208012      -304.9855
   8   2.0000     -11.203443      -304.8612
   9   2.0000      -1.372328       -37.3430
  10   2.0000      -1.130273       -30.7563
  11   2.0000      -0.998627       -27.1740
  12   2.0000      -0.981602       -26.7108
  13   2.0000      -0.940129       -25.5822
  14   2.0000      -0.915508       -24.9122
  15   2.0000      -0.816007       -22.2047
  16   2.0000      -0.807404       -21.9706
  17   2.0000      -0.704213       -19.1626
  18   2.0000      -0.685175       -18.6445
  19   2.0000      -0.645304       -17.5596
  20   2.0000      -0.636706       -17.3256
  21   2.0000      -0.620717       -16.8906
  22   2.0000      -0.582403       -15.8480
  23   2.0000      -0.563142       -15.3239
  24   2.0000      -0.554243       -15.0817
  25   2.0000      -0.540251       -14.7010
  26   2.0000      -0.530552       -14.4371
  27   2.0000      -0.529059       -14.3964
  28   2.0000      -0.526519       -14.3273
  29   2.0000      -0.498091       -13.5537
  30   2.0000      -0.490853       -13.3568
  31   2.0000      -0.469180       -12.7670
  32   2.0000      -0.439699       -11.9648
  33   2.0000      -0.423459       -11.5229
  34   2.0000      -0.408777       -11.1234
  35   2.0000      -0.388290       -10.5659
  36   0.0000       0.127970         3.4822
  37   0.0000       0.151182         4.1139
  38   0.0000       0.158580         4.3152
  39   0.0000       0.172561         4.6956
  40   0.0000       0.191915         5.2223

MULLIKEN ATOMIC CHARGES
-----------------------
   0 C :   -0.228379
   1 O :   -0.297748
   2 C :    0.063586
   3 C :   -0.074884
   4 C :   -0.452559
   5 C :   -0.013440
   6 C :   -0.430122
   7 C :   -0.054099
   8 C :   -0.436193
   9 H :    0.114005
  10 H :    0.139658
  11 H :    0.109333
  12 H :    0.075776
  13 H :    0.099841
  14 H :    0.136924
  15 H :    0.135858
  16 H :    0.125963
  17 H :    0.094711
  18 H :    0.130963
  19 H :    0.134332
  20 H :    0.134041
  21 H :    0.098537
  22 H :    0.124087
  23 H :    0.138527
  24 H :    0.131284
Sum of atomic charges:    0.0000000

LOEWDIN ATOMIC CHARGES
----------------------
   0 C :   -0.356917
   1 O :    0.165634
   2 C :   -0.271322
   3 C :   -0.217160
   4 C :   -0.295468
   5 C :   -0.215087
   6 C :   -0.300013
   7 C :   -0.210338
   8 C :   -0.294089
   9 H :    0.101793
  10 H :    0.113311
  11 H :    0.100763
  12 H :    0.132709
  13 H :    0.138336
  14 H :    0.124072
  15 H :    0.124906
  16 H :    0.122586
  17 H :    0.149219
  18 H :    0.123854
  19 H :    0.125162
  20 H :    0.124688
  21 H :    0.140702
  22 H :    0.121312
  23 H :    0.128048
  24 H :    0.123301

  Mayer bond orders larger than 0.1
B(  0-C ,  1-O ) :   0.9086 B(  0-C ,  9-H ) :   0.9356 B(  0-C , 10-H ) :   0.9422
B(  0-C , 11-H ) :   0.9347 B(  1-O ,  2-C ) :   1.0163 B(  2-C ,  3-C ) :   0.9353
B(  2-C ,  7-C ) :   0.9063 B(  2-C , 12-H ) :   0.9404 B(  3-C ,  4-C ) :   0.8822
B(  3-C ,  5-C ) :   0.9280 B(  3-C , 13-H ) :   0.9177 B(  4-C , 14-H ) :   0.9350
B(  4-C , 15-H ) :   0.9414 B(  4-C , 16-H ) :   0.9390 B(  5-C ,  6-C ) :   0.8704
B(  5-C ,  7-C ) :   0.9093 B(  5-C , 17-H ) :   0.9282 B(  6-C , 18-H ) :   0.9393
B(  6-C , 19-H ) :   0.9414 B(  6-C , 20-H ) :   0.9417 B(  7-C ,  8-C ) :   0.9049
B(  7-C , 21-H ) :   0.9168 B(  8-C , 22-H ) :   0.9352 B(  8-C , 23-H ) :   0.9337
B(  8-C , 24-H ) :   0.9398

MP2 TOTAL ENERGY:     -388.799830313 Eh
FINAL SINGLE POINT ENERGY      -388.799830313364

DIPOLE MOMENT
-------------
                                X             Y             Z
Electronic contribution:      3.10098       2.32262       0.76220
Nuclear contribution   :     -3.09670      -2.22908      -0.33152
                        -----------------------------------------
Total Dipole Moment    :      0.00428       0.09355       0.43068
                        -----------------------------------------
Magnitude (a.u.)       :      0.44074
Magnitude (Debye)      :      1.12028

                             ****ORCA TERMINATED NORMALLY****
TOTAL RUN TIME: 0 days 0 hours 23 minutes 2 seconds 58 msec
