                         Program Version 3.0.3 - RELEASE   -
|  1> ! RI-MP2 RIJK def2-TZVP def2-TZVP/C def2-TZVP/JK TIGHTSCF
|  2> % maxcore 2000
|  3> % mp2 density relaxed end
|  4> *xyz 0 1
|  5>  C        0.1927496842     1.5757549204    -0.0128949494
|  6>  O        1.2596001976     0.6328025837    -0.1079753440
|  7>  C       -0.0833619404     0.1329447747    -0.0377877712
|  8>  C       -0.4466590637    -0.6291049445     1.2019044530
|  9>  C       -1.8915793126    -1.1606351982     1.3594494182
| 10>  C       -1.6412555991    -2.3913498122     0.4146554135
| 11>  C       -2.1762638257    -3.3926454037     1.4562616198
| 12>  C       -1.4257664900    -2.3349976243     2.2878183940
| 13>  C       -0.3022720318    -2.1694675710     1.2074663914
| 14>  H        0.1293131745     2.1158934447     0.9315628859
| 15>  H        0.0168759583     2.1788306060    -0.9029830409
| 16>  H       -0.4397982127    -0.2916303163    -0.9778393308
| 17>  H       -0.0343288571    -0.1262393681     2.0849948917
| 18>  H       -2.8239918737    -0.6002138664     1.4513402661
| 19>  H       -1.7575146141    -2.4103142105    -0.6695984883
| 20>  H       -3.2628993538    -3.4403113682     1.5822043983
| 21>  H       -1.7473938796    -4.3997713153     1.4371854649
| 22>  H       -1.2836826943    -2.2724566208     3.3679988326
| 23>  H        0.6034392938    -2.7718380103     1.1225436951
| 24> *
| 25>
| 26>                          ****END OF INPUT****

CARTESIAN COORDINATES (ANGSTROEM)
---------------------------------
  C      0.192750    1.575755   -0.012895
  O      1.259600    0.632803   -0.107975
  C     -0.083362    0.132945   -0.037788
  C     -0.446659   -0.629105    1.201904
  C     -1.891579   -1.160635    1.359449
  C     -1.641256   -2.391350    0.414655
  C     -2.176264   -3.392645    1.456262
  C     -1.425766   -2.334998    2.287818
  C     -0.302272   -2.169468    1.207466
  H      0.129313    2.115893    0.931563
  H      0.016876    2.178831   -0.902983
  H     -0.439798   -0.291630   -0.977839
  H     -0.034329   -0.126239    2.084995
  H     -2.823992   -0.600214    1.451340
  H     -1.757515   -2.410314   -0.669598
  H     -3.262899   -3.440311    1.582204
  H     -1.747394   -4.399771    1.437185
  H     -1.283683   -2.272457    3.367999
  H      0.603439   -2.771838    1.122544

 Total Charge           Charge          ....    0
 Multiplicity           Mult            ....    1
 Number of Electrons    NEL             ....   66
 Basis Dimension        Dim             ....  339

ORBITAL ENERGIES
----------------

  NO   OCC          E(Eh)            E(eV)
   0   2.0000     -20.562418      -559.5318
   1   2.0000     -11.281609      -306.9882
   2   2.0000     -11.278495      -306.9034
   3   2.0000     -11.246369      -306.0293
   4   2.0000     -11.245330      -306.0010
   5   2.0000     -11.244809      -305.9868
   6   2.0000     -11.243610      -305.9542
   7   2.0000     -11.235315      -305.7285
   8   2.0000     -11.226402      -305.4859
   9   2.0000      -1.404814       -38.2269
  10   2.0000      -1.246289       -33.9132
  11   2.0000      -1.027498       -27.9596
  12   2.0000      -0.927803       -25.2468
  13   2.0000      -0.879896       -23.9432
  14   2.0000      -0.865333       -23.5469
  15   2.0000      -0.862916       -23.4811
  16   2.0000      -0.793093       -21.5812
  17   2.0000      -0.707771       -19.2594
  18   2.0000      -0.684794       -18.6342
  19   2.0000      -0.678955       -18.4753
  20   2.0000      -0.648344       -17.6423
  21   2.0000      -0.615089       -16.7374
  22   2.0000      -0.596753       -16.2385
  23   2.0000      -0.557696       -15.1757
  24   2.0000      -0.537459       -14.6250
  25   2.0000      -0.486571       -13.2403
  26   2.0000      -0.469791       -12.7837
  27   2.0000      -0.451593       -12.2885
  28   2.0000      -0.435672       -11.8552
  29   2.0000      -0.431870       -11.7518
  30   2.0000      -0.428409       -11.6576
  31   2.0000      -0.420633       -11.4460
  32   2.0000      -0.409422       -11.1409
  33   0.0000       0.151611         4.1255
  34   0.0000       0.156722         4.2646
  35   0.0000       0.157750         4.2926
  36   0.0000       0.170992         4.6529
  37   0.0000       0.185461         5.0467

MULLIKEN ATOMIC CHARGES
-----------------------
   0 C :   -0.077519
   1 O :   -0.335112
   2 C :    0.024781
   3 C :   -0.096935
   4 C :   -0.114849
   5 C :   -0.160305
   6 C :   -0.191625
   7 C :   -0.138401
   8 C :   -0.100986
   9 H :    0.112805
  10 H :    0.115537
  11 H :    0.128734
  12 H :    0.106956
  13 H :    0.124858
  14 H :    0.126101
  15 H :    0.110613
  16 H :    0.112184
  17 H :    0.124415
  18 H :    0.128745
Sum of atomic charges:   -0.0000000

LOEWDIN ATOMIC CHARGES
----------------------
   0 C :   -0.269003
   1 O :    0.141425
   2 C :   -0.268857
   3 C :   -0.181832
   4 C :   -0.115284
   5 C :   -0.144764
   6 C :   -0.206034
   7 C :   -0.140701
   8 C :   -0.111915
   9 H :    0.119505
  10 H :    0.117989
  11 H :    0.141648
  12 H :    0.152407
  13 H :    0.127975
  14 H :    0.125189
  15 H :    0.126920
  16 H :    0.127549
  17 H :    0.127249
  18 H :    0.130533

  Mayer bond orders larger than 0.1
B(  0-C ,  1-O ) :   0.9119 B(  0-C ,  2-C ) :   0.9836 B(  0-C ,  9-H ) :   0.9075
B(  0-C , 10-H ) :   0.9208 B(  1-O ,  2-C ) :   0.8844 B(  2-C ,  3-C ) :   0.9173
B(  2-C , 11-H ) :   0.9108 B(  3-C ,  4-C ) :   0.8807 B(  3-C ,  8-C ) :   0.8887
B(  3-C , 12-H ) :   0.9187 B(  4-C ,  5-C ) :   0.8598 B(  4-C ,  7-C ) :   0.8583
B(  4-C , 13-H ) :   0.9001 B(  5-C ,  6-C ) :   0.9260 B(  5-C ,  8-C ) :   0.8559
B(  5-C , 14-H ) :   0.9077 B(  6-C ,  7-C ) :   0.9250 B(  6-C , 15-H ) :   0.9250
B(  6-C , 16-H ) :   0.9265 B(  7-C ,  8-C ) :   0.8596 B(  7-C , 17-H ) :   0.9098
B(  8-C , 18-H ) :   0.9062

MP2 TOTAL ENERGY:     -385.105992335 Eh
FINAL SINGLE POINT ENERGY      -385.105992334615

DIPOLE MOMENT
-------------
                                X             Y             Z
Electronic contribution:      2.71902       1.54087      -0.84714
Nuclear contribution   :     -3.47197      -1.53294       0.96801
                        -----------------------------------------
Total Dipole Moment    :     -0.75295       0.00793       0.12087
                        -----------------------------------------
Magnitude (a.u.)       :      0.76263
Magnitude (Debye)      :      1.93845

                             ****ORCA TERMINATED NORMALLY****
TOTAL RUN TIME: 0 days 0 hours 15 minutes 47 seconds 359 msec
