                         Program Version 3.0.3 - RELEASE   -
|  1> ! RI-MP2 RIJK def2-TZVP def2-TZVP/C def2-TZVP/JK TIGHTSCF
|  2> % maxcore 2000
|  3> % mp2 density relaxed end
|  4> *xyz 0 1
|  5>  O       -0.1194711355     1.4438309079    -0.0436123744
|  6>  C       -0.0191909086     0.0528164474    -0.0633622254
|  7>  C       -0.3918162576    -0.7281402993     1.1696118671
|  8>  C       -1.3195107635    -0.6807948187    -0.0261699523
|  9>  C       -2.7367593049    -0.1435941579    -0.1117584259
| 10>  N       -3.0150152428     0.0034922238    -1.5462222274
| 11>  C       -3.1835077595    -1.3465124639    -0.9009621978
| 12>  C       -1.7770975585    -1.9174118369    -0.7914190579
| 13>  O       -1.2679920947    -2.9726378226    -1.0374846679
| 14>  H        0.6452505561     1.7897923550     0.4289627555
| 15>  H        0.7568344900    -0.3579564485    -0.7093168476
| 16>  H        0.1065392155    -1.6719031241     1.3673906224
| 17>  H       -0.6890279562    -0.1561062915     2.0426263869
| 18>  H       -3.2859227990     0.3929549235     0.6496750874
| 19>  H       -3.9598862098     0.3789846712    -1.6438593891
| 20>  H       -4.1333225609    -1.8639335356    -0.9303068037
| 21> *
| 22>
| 23>                          ****END OF INPUT****

CARTESIAN COORDINATES (ANGSTROEM)
---------------------------------
  O     -0.119471    1.443831   -0.043612
  C     -0.019191    0.052816   -0.063362
  C     -0.391816   -0.728140    1.169612
  C     -1.319511   -0.680795   -0.026170
  C     -2.736759   -0.143594   -0.111758
  N     -3.015015    0.003492   -1.546222
  C     -3.183508   -1.346512   -0.900962
  C     -1.777098   -1.917412   -0.791419
  O     -1.267992   -2.972638   -1.037485
  H      0.645251    1.789792    0.428963
  H      0.756834   -0.357956   -0.709317
  H      0.106539   -1.671903    1.367391
  H     -0.689028   -0.156106    2.042626
  H     -3.285923    0.392955    0.649675
  H     -3.959886    0.378985   -1.643859
  H     -4.133323   -1.863934   -0.930307

 Total Charge           Charge          ....    0
 Multiplicity           Mult            ....    1
 Number of Electrons    NEL             ....   66
 Basis Dimension        Dim             ....  321

ORBITAL ENERGIES
----------------

  NO   OCC          E(Eh)            E(eV)
   0   2.0000     -20.575331      -559.8832
   1   2.0000     -20.552641      -559.2658
   2   2.0000     -15.585796      -424.1111
   3   2.0000     -11.339464      -308.5625
   4   2.0000     -11.300070      -307.4905
   5   2.0000     -11.288273      -307.1695
   6   2.0000     -11.279767      -306.9381
   7   2.0000     -11.256311      -306.2998
   8   2.0000     -11.246466      -306.0319
   9   2.0000      -1.397988       -38.0412
  10   2.0000      -1.385319       -37.6964
  11   2.0000      -1.299061       -35.3492
  12   2.0000      -1.148288       -31.2465
  13   2.0000      -1.009169       -27.4609
  14   2.0000      -0.874532       -23.7972
  15   2.0000      -0.844949       -22.9922
  16   2.0000      -0.820741       -22.3335
  17   2.0000      -0.728746       -19.8302
  18   2.0000      -0.720175       -19.5970
  19   2.0000      -0.705706       -19.2032
  20   2.0000      -0.665438       -18.1075
  21   2.0000      -0.644835       -17.5469
  22   2.0000      -0.616147       -16.7662
  23   2.0000      -0.587467       -15.9858
  24   2.0000      -0.561162       -15.2700
  25   2.0000      -0.550923       -14.9914
  26   2.0000      -0.528812       -14.3897
  27   2.0000      -0.508224       -13.8295
  28   2.0000      -0.499194       -13.5838
  29   2.0000      -0.453024       -12.3274
  30   2.0000      -0.423213       -11.5162
  31   2.0000      -0.393301       -10.7023
  32   2.0000      -0.377993       -10.2857
  33   0.0000       0.120350         3.2749
  34   0.0000       0.135198         3.6789
  35   0.0000       0.150917         4.1066
  36   0.0000       0.171609         4.6697
  37   0.0000       0.176689         4.8079

MULLIKEN ATOMIC CHARGES
-----------------------
   0 O :   -0.451055
   1 C :   -0.022712
   2 C :   -0.325740
   3 C :    0.068041
   4 C :   -0.017206
   5 N :   -0.361579
   6 C :   -0.094959
   7 C :    0.200198
   8 O :   -0.260851
   9 H :    0.324804
  10 H :    0.120651
  11 H :    0.148282
  12 H :    0.141691
  13 H :    0.153245
  14 H :    0.221876
  15 H :    0.155314
Sum of atomic charges:   -0.0000000

LOEWDIN ATOMIC CHARGES
----------------------
   0 O :    0.009759
   1 C :   -0.290401
   2 C :   -0.175974
   3 C :   -0.167540
   4 C :   -0.182699
   5 N :    0.023339
   6 C :   -0.175468
   7 C :   -0.263066
   8 O :    0.165247
   9 H :    0.183285
  10 H :    0.139993
  11 H :    0.143127
  12 H :    0.141614
  13 H :    0.137726
  14 H :    0.176407
  15 H :    0.134652

  Mayer bond orders larger than 0.1
B(  0-O ,  1-C ) :   1.1128 B(  0-O ,  3-C ) :  -0.1083 B(  0-O ,  9-H ) :   0.8392
B(  1-C ,  2-C ) :   0.9364 B(  1-C ,  3-C ) :   0.7909 B(  1-C , 10-H ) :   0.9565
B(  2-C ,  3-C ) :   0.8474 B(  2-C , 11-H ) :   0.9062 B(  2-C , 12-H ) :   0.9214
B(  3-C ,  4-C ) :   0.9125 B(  3-C ,  6-C ) :  -0.1032 B(  3-C ,  7-C ) :   0.9119
B(  4-C ,  5-N ) :   0.9590 B(  4-C ,  6-C ) :   0.8576 B(  4-C , 13-H ) :   0.9134
B(  5-N ,  6-C ) :   0.8733 B(  5-N , 14-H ) :   0.8639 B(  6-C ,  7-C ) :   0.9114
B(  6-C , 15-H ) :   0.9107 B(  7-C ,  8-O ) :   2.0466

MP2 TOTAL ENERGY:     -437.099682841 Eh
FINAL SINGLE POINT ENERGY      -437.099682841052

DIPOLE MOMENT
-------------
                                X             Y             Z
Electronic contribution:     -0.36475      -2.24244      -2.48541
Nuclear contribution   :     -0.00757       2.96742       3.55637
                        -----------------------------------------
Total Dipole Moment    :     -0.37233       0.72498       1.07096
                        -----------------------------------------
Magnitude (a.u.)       :      1.34580
Magnitude (Debye)      :      3.42076

                             ****ORCA TERMINATED NORMALLY****
TOTAL RUN TIME: 0 days 0 hours 14 minutes 57 seconds 744 msec
