                         Program Version 3.0.3 - RELEASE   -
|  1> ! RI-MP2 RIJK def2-TZVP def2-TZVP/C def2-TZVP/JK TIGHTSCF
|  2> % maxcore 2000
|  3> % mp2 density relaxed end
|  4> *xyz 0 1
|  5>  N       -0.0027392868     1.0991814282     0.9633600295
|  6>  C       -0.0131813397     0.1608044958     0.1036214782
|  7>  O        1.1368608513    -0.1440815342    -0.5894019318
|  8>  C        1.2580756953    -1.4213828785    -1.2127309523
|  9>  C        0.4832787283    -1.4731247969    -2.5046676231
| 10>  C       -0.3272116531    -2.6867458373    -2.8492917933
| 11>  N       -0.9633203472    -1.4465817126    -2.4186162157
| 12>  C       -1.6227589033    -1.3189569027    -1.2012508133
| 13>  C       -1.2515105341    -0.5910568646    -0.1331642574
| 14>  H        0.9348093643     1.5012461856     1.0222862370
| 15>  H        2.3269574080    -1.5521260874    -1.4014890476
| 16>  H        0.9306688357    -2.2125769391    -0.5295651976
| 17>  H        0.8904403661    -0.8715417259    -3.3146132447
| 18>  H       -0.4819546112    -2.9601268488    -3.8886367785
| 19>  H       -0.3059659833    -3.5177002170    -2.1474268796
| 20>  H       -2.5949192233    -1.8057148179    -1.1950228358
| 21>  H       -1.9722517371    -0.4693917166     0.6660829460
| 22> *
| 23>
| 24>                          ****END OF INPUT****

CARTESIAN COORDINATES (ANGSTROEM)
---------------------------------
  N     -0.002739    1.099181    0.963360
  C     -0.013181    0.160804    0.103621
  O      1.136861   -0.144082   -0.589402
  C      1.258076   -1.421383   -1.212731
  C      0.483279   -1.473125   -2.504668
  C     -0.327212   -2.686746   -2.849292
  N     -0.963320   -1.446582   -2.418616
  C     -1.622759   -1.318957   -1.201251
  C     -1.251511   -0.591057   -0.133164
  H      0.934809    1.501246    1.022286
  H      2.326957   -1.552126   -1.401489
  H      0.930669   -2.212577   -0.529565
  H      0.890440   -0.871542   -3.314613
  H     -0.481955   -2.960127   -3.888637
  H     -0.305966   -3.517700   -2.147427
  H     -2.594919   -1.805715   -1.195023
  H     -1.972252   -0.469392    0.666083

 Total Charge           Charge          ....    0
 Multiplicity           Mult            ....    1
 Number of Electrons    NEL             ....   66
 Basis Dimension        Dim             ....  327

ORBITAL ENERGIES
----------------

  NO   OCC          E(Eh)            E(eV)
   0   2.0000     -20.591129      -560.3131
   1   2.0000     -15.591740      -424.2728
   2   2.0000     -15.524620      -422.4464
   3   2.0000     -11.335957      -308.4671
   4   2.0000     -11.305175      -307.6295
   5   2.0000     -11.291531      -307.2582
   6   2.0000     -11.287786      -307.1563
   7   2.0000     -11.285725      -307.1002
   8   2.0000     -11.232525      -305.6525
   9   2.0000      -1.421552       -38.6824
  10   2.0000      -1.314900       -35.7803
  11   2.0000      -1.191013       -32.4091
  12   2.0000      -1.079684       -29.3797
  13   2.0000      -0.999960       -27.2103
  14   2.0000      -0.942546       -25.6480
  15   2.0000      -0.862336       -23.4653
  16   2.0000      -0.808106       -21.9897
  17   2.0000      -0.765864       -20.8402
  18   2.0000      -0.720808       -19.6142
  19   2.0000      -0.693239       -18.8640
  20   2.0000      -0.670992       -18.2586
  21   2.0000      -0.642044       -17.4709
  22   2.0000      -0.618382       -16.8270
  23   2.0000      -0.603774       -16.4295
  24   2.0000      -0.580717       -15.8021
  25   2.0000      -0.532580       -14.4923
  26   2.0000      -0.530710       -14.4413
  27   2.0000      -0.498291       -13.5592
  28   2.0000      -0.475072       -12.9274
  29   2.0000      -0.456551       -12.4234
  30   2.0000      -0.435127       -11.8404
  31   2.0000      -0.411740       -11.2040
  32   2.0000      -0.327302        -8.9063
  33   0.0000       0.109749         2.9864
  34   0.0000       0.143577         3.9069
  35   0.0000       0.158772         4.3204
  36   0.0000       0.161955         4.4070
  37   0.0000       0.166755         4.5376

MULLIKEN ATOMIC CHARGES
-----------------------
   0 N :   -0.373873
   1 C :    0.190792
   2 O :   -0.272589
   3 C :   -0.088391
   4 C :   -0.050382
   5 C :   -0.183899
   6 N :   -0.188820
   7 C :   -0.028811
   8 C :   -0.196423
   9 H :    0.218205
  10 H :    0.139597
  11 H :    0.138874
  12 H :    0.137631
  13 H :    0.140525
  14 H :    0.138861
  15 H :    0.132010
  16 H :    0.146691
Sum of atomic charges:   -0.0000000

LOEWDIN ATOMIC CHARGES
----------------------
   0 N :   -0.052461
   1 C :   -0.400318
   2 O :    0.230257
   3 C :   -0.279524
   4 C :   -0.242657
   5 C :   -0.212089
   6 N :    0.169353
   7 C :   -0.211322
   8 C :   -0.164784
   9 H :    0.164430
  10 H :    0.140358
  11 H :    0.137382
  12 H :    0.147698
  13 H :    0.129952
  14 H :    0.130151
  15 H :    0.148446
  16 H :    0.165127

  Mayer bond orders larger than 0.1
B(  0-N ,  1-C ) :   1.9812 B(  0-N ,  9-H ) :   0.8587 B(  1-C ,  2-O ) :   1.0668
B(  1-C ,  8-C ) :   0.9930 B(  2-O ,  3-C ) :   0.8665 B(  3-C ,  4-C ) :   0.9381
B(  3-C , 10-H ) :   0.9301 B(  3-C , 11-H ) :   0.9325 B(  4-C ,  5-C ) :   0.9215
B(  4-C ,  6-N ) :   0.8765 B(  4-C , 12-H ) :   0.9137 B(  5-C ,  6-N ) :   0.8601
B(  5-C , 13-H ) :   0.9223 B(  5-C , 14-H ) :   0.9104 B(  6-N ,  7-C ) :   1.0348
B(  7-C ,  8-C ) :   1.6429 B(  7-C , 15-H ) :   0.9322 B(  8-C , 16-H ) :   0.9142

MP2 TOTAL ENERGY:     -417.272498118 Eh
FINAL SINGLE POINT ENERGY      -417.272498118126

DIPOLE MOMENT
-------------
                                X             Y             Z
Electronic contribution:     -0.09305       3.20064       1.14406
Nuclear contribution   :      0.56376      -4.65364      -1.98808
                        -----------------------------------------
Total Dipole Moment    :      0.47071      -1.45300      -0.84402
                        -----------------------------------------
Magnitude (a.u.)       :      1.74504
Magnitude (Debye)      :      4.43554

                             ****ORCA TERMINATED NORMALLY****
TOTAL RUN TIME: 0 days 0 hours 16 minutes 31 seconds 423 msec
