                         Program Version 3.0.3 - RELEASE   -
|  1> ! RI-MP2 RIJK def2-TZVP def2-TZVP/C def2-TZVP/JK TIGHTSCF
|  2> % maxcore 2000
|  3> % mp2 density relaxed end
|  4> *xyz 0 1
|  5>  C       -0.0101586588     1.4313516650     0.0196228658
|  6>  N       -0.0250297159    -0.0206211980     0.0217915189
|  7>  C       -0.0062942030    -0.8145674515    -1.1097415092
|  8>  C        0.0357097332    -2.1294790660    -0.7258058081
|  9>  C        0.0445887173    -2.1163403761     0.6926197022
| 10>  C        0.0087734655    -0.8067610335     1.1294641892
| 11>  N        0.0747325986    -3.2575607131     1.5545454381
| 12>  O        0.1023352659    -4.3661537191     1.0265953336
| 13>  O        0.0722294621    -3.0562623933     2.7683277257
| 14>  H        0.9900173223     1.8165755939    -0.2034685781
| 15>  H       -0.7104989496     1.8090033710    -0.7292651167
| 16>  H       -0.3185052314     1.7959578404     1.0005437694
| 17>  H       -0.0265210700    -0.3657188032    -2.0899258175
| 18>  H        0.0484265409    -3.0027933505    -1.3552069464
| 19>  H        0.0048791030    -0.4065713763     2.1285485433
| 20> *
| 21>
| 22>                          ****END OF INPUT****

CARTESIAN COORDINATES (ANGSTROEM)
---------------------------------
  C     -0.010159    1.431352    0.019623
  N     -0.025030   -0.020621    0.021792
  C     -0.006294   -0.814567   -1.109742
  C      0.035710   -2.129479   -0.725806
  C      0.044589   -2.116340    0.692620
  C      0.008773   -0.806761    1.129464
  N      0.074733   -3.257561    1.554545
  O      0.102335   -4.366154    1.026595
  O      0.072229   -3.056262    2.768328
  H      0.990017    1.816576   -0.203469
  H     -0.710499    1.809003   -0.729265
  H     -0.318505    1.795958    1.000544
  H     -0.026521   -0.365719   -2.089926
  H      0.048427   -3.002793   -1.355207
  H      0.004879   -0.406571    2.128549

 Total Charge           Charge          ....    0
 Multiplicity           Mult            ....    1
 Number of Electrons    NEL             ....   66
 Basis Dimension        Dim             ....  315

ORBITAL ENERGIES
----------------

  NO   OCC          E(Eh)            E(eV)
   0   2.0000     -20.583768      -560.1128
   1   2.0000     -20.580487      -560.0235
   2   2.0000     -15.839088      -431.0035
   3   2.0000     -15.647952      -425.8024
   4   2.0000     -11.300949      -307.5145
   5   2.0000     -11.300758      -307.5093
   6   2.0000     -11.281054      -306.9731
   7   2.0000     -11.281026      -306.9723
   8   2.0000     -11.247576      -306.0621
   9   2.0000      -1.585824       -43.1525
  10   2.0000      -1.378833       -37.5199
  11   2.0000      -1.342813       -36.5398
  12   2.0000      -1.136096       -30.9147
  13   2.0000      -1.045302       -28.4441
  14   2.0000      -1.001097       -27.2412
  15   2.0000      -0.923453       -25.1284
  16   2.0000      -0.804642       -21.8954
  17   2.0000      -0.790357       -21.5067
  18   2.0000      -0.767860       -20.8945
  19   2.0000      -0.707339       -19.2477
  20   2.0000      -0.706439       -19.2232
  21   2.0000      -0.684056       -18.6141
  22   2.0000      -0.664331       -18.0774
  23   2.0000      -0.629197       -17.1213
  24   2.0000      -0.609238       -16.5782
  25   2.0000      -0.584063       -15.8931
  26   2.0000      -0.569913       -15.5081
  27   2.0000      -0.556721       -15.1492
  28   2.0000      -0.485445       -13.2096
  29   2.0000      -0.477864       -13.0034
  30   2.0000      -0.440483       -11.9861
  31   2.0000      -0.379290       -10.3210
  32   2.0000      -0.336684        -9.1616
  33   0.0000       0.070611         1.9214
  34   0.0000       0.117657         3.2016
  35   0.0000       0.134979         3.6730
  36   0.0000       0.161698         4.4000
  37   0.0000       0.166201         4.5226

MULLIKEN ATOMIC CHARGES
-----------------------
   0 C :   -0.324765
   1 N :    0.018329
   2 C :   -0.096826
   3 C :   -0.231933
   4 C :    0.030845
   5 C :   -0.146667
   6 N :    0.408286
   7 O :   -0.312060
   8 O :   -0.319558
   9 H :    0.161253
  10 H :    0.158031
  11 H :    0.158816
  12 H :    0.158344
  13 H :    0.160978
  14 H :    0.176926
Sum of atomic charges:   -0.0000000

LOEWDIN ATOMIC CHARGES
----------------------
   0 C :   -0.259975
   1 N :    0.241165
   2 C :   -0.193566
   3 C :   -0.147642
   4 C :   -0.216735
   5 C :   -0.173193
   6 N :   -0.044665
   7 O :   -0.010816
   8 O :   -0.019426
   9 H :    0.126398
  10 H :    0.128624
  11 H :    0.131146
  12 H :    0.139787
  13 H :    0.151752
  14 H :    0.147146

  Mayer bond orders larger than 0.1
B(  0-C ,  1-N ) :   0.8551 B(  0-C ,  9-H ) :   0.9253 B(  0-C , 10-H ) :   0.9302
B(  0-C , 11-H ) :   0.9317 B(  1-N ,  2-C ) :   1.1184 B(  1-N ,  5-C ) :   1.1956
B(  2-C ,  3-C ) :   1.4715 B(  2-C , 12-H ) :   0.9106 B(  3-C ,  4-C ) :   1.2879
B(  3-C , 13-H ) :   0.9091 B(  4-C ,  5-C ) :   1.4517 B(  4-C ,  6-N ) :   0.9593
B(  5-C , 14-H ) :   0.8662 B(  6-N ,  7-O ) :   1.4577 B(  6-N ,  8-O ) :   1.4532
B(  7-O ,  8-O ) :   0.1623

MP2 TOTAL ENERGY:     -453.162493910 Eh
FINAL SINGLE POINT ENERGY      -453.162493910261

DIPOLE MOMENT
-------------
                                X             Y             Z
Electronic contribution:      0.14844      -8.72353       3.68083
Nuclear contribution   :     -0.20411      11.14030      -4.77564
                        -----------------------------------------
Total Dipole Moment    :     -0.05567       2.41677      -1.09481
                        -----------------------------------------
Magnitude (a.u.)       :      2.65376
Magnitude (Debye)      :      6.74533

                             ****ORCA TERMINATED NORMALLY****
TOTAL RUN TIME: 0 days 0 hours 16 minutes 35 seconds 422 msec
