                         Program Version 3.0.3 - RELEASE   -
|  1> ! RI-MP2 RIJK def2-TZVP def2-TZVP/C def2-TZVP/JK TIGHTSCF
|  2> % maxcore 2000
|  3> % mp2 density relaxed end
|  4> *xyz 0 1
|  5>  C       -0.0712268563     1.5749739336     0.0468012897
|  6>  C        0.0353500495     0.0424643947     0.0386522576
|  7>  N        0.8088254700    -0.4610998120    -1.0760367714
|  8>  C        1.8640419681    -1.2699258675    -0.7003548719
|  9>  O        2.6298900940    -1.8417170254    -1.4472064017
| 10>  C        1.8292420650    -1.2685646983     0.7901875154
| 11>  C        0.7988946534    -0.5351002547     1.2190030518
| 12>  C        0.3806939781    -0.2775839500     2.6287256387
| 13>  O        1.2225105620    -1.0002090227     3.5032917953
| 14>  H        0.9235777824     2.0263363898     0.0968896356
| 15>  H       -0.5656046677     1.9286577206    -0.8631852784
| 16>  H       -0.6616902620     1.9224241045     0.9005697327
| 17>  H       -0.9840441676    -0.3775633186     0.0278533759
| 18>  H        0.5494018668    -0.3447607757    -2.0408415354
| 19>  H        2.5448324010    -1.8049068785     1.3940474430
| 20>  H        0.4253686342     0.8071339853     2.8298633841
| 21>  H       -0.6782553048    -0.5682060450     2.7502192162
| 22>  H        0.9721640640    -0.7885372801     4.4069323529
| 23> *
| 24>
| 25>                          ****END OF INPUT****

CARTESIAN COORDINATES (ANGSTROEM)
---------------------------------
  C     -0.071227    1.574974    0.046801
  C      0.035350    0.042464    0.038652
  N      0.808825   -0.461100   -1.076037
  C      1.864042   -1.269926   -0.700355
  O      2.629890   -1.841717   -1.447206
  C      1.829242   -1.268565    0.790188
  C      0.798895   -0.535100    1.219003
  C      0.380694   -0.277584    2.628726
  O      1.222511   -1.000209    3.503292
  H      0.923578    2.026336    0.096890
  H     -0.565605    1.928658   -0.863185
  H     -0.661690    1.922424    0.900570
  H     -0.984044   -0.377563    0.027853
  H      0.549402   -0.344761   -2.040842
  H      2.544832   -1.804907    1.394047
  H      0.425369    0.807134    2.829863
  H     -0.678255   -0.568206    2.750219
  H      0.972164   -0.788537    4.406932

 Total Charge           Charge          ....    0
 Multiplicity           Mult            ....    1
 Number of Electrons    NEL             ....   68
 Basis Dimension        Dim             ....  333

ORBITAL ENERGIES
----------------

  NO   OCC          E(Eh)            E(eV)
   0   2.0000     -20.577636      -559.9459
   1   2.0000     -20.507082      -558.0261
   2   2.0000     -15.572855      -423.7589
   3   2.0000     -11.339808      -308.5719
   4   2.0000     -11.308203      -307.7119
   5   2.0000     -11.292144      -307.2749
   6   2.0000     -11.263335      -306.4909
   7   2.0000     -11.239255      -305.8357
   8   2.0000     -11.231609      -305.6276
   9   2.0000      -1.385001       -37.6878
  10   2.0000      -1.370191       -37.2848
  11   2.0000      -1.254942       -34.1487
  12   2.0000      -1.088441       -29.6180
  13   2.0000      -1.030691       -28.0465
  14   2.0000      -0.961343       -26.1595
  15   2.0000      -0.882326       -24.0093
  16   2.0000      -0.799047       -21.7432
  17   2.0000      -0.756809       -20.5938
  18   2.0000      -0.716214       -19.4892
  19   2.0000      -0.695263       -18.9191
  20   2.0000      -0.660340       -17.9688
  21   2.0000      -0.639267       -17.3953
  22   2.0000      -0.612645       -16.6709
  23   2.0000      -0.602409       -16.3924
  24   2.0000      -0.598232       -16.2787
  25   2.0000      -0.576342       -15.6831
  26   2.0000      -0.550296       -14.9743
  27   2.0000      -0.532178       -14.4813
  28   2.0000      -0.526932       -14.3385
  29   2.0000      -0.505186       -13.7468
  30   2.0000      -0.477373       -12.9900
  31   2.0000      -0.413795       -11.2599
  32   2.0000      -0.388227       -10.5642
  33   2.0000      -0.373070       -10.1518
  34   0.0000       0.106978         2.9110
  35   0.0000       0.118818         3.2332
  36   0.0000       0.137979         3.7546
  37   0.0000       0.157915         4.2971
  38   0.0000       0.164040         4.4637

MULLIKEN ATOMIC CHARGES
-----------------------
   0 C :   -0.418724
   1 C :    0.091850
   2 N :   -0.324704
   3 C :    0.246507
   4 O :   -0.346325
   5 C :   -0.185413
   6 C :    0.023788
   7 C :   -0.112701
   8 O :   -0.454404
   9 H :    0.146154
  10 H :    0.137162
  11 H :    0.126251
  12 H :    0.114451
  13 H :    0.236443
  14 H :    0.162567
  15 H :    0.122770
  16 H :    0.114927
  17 H :    0.319400
Sum of atomic charges:    0.0000000

LOEWDIN ATOMIC CHARGES
----------------------
   0 C :   -0.283719
   1 C :   -0.258448
   2 N :    0.138954
   3 C :   -0.435136
   4 O :    0.080906
   5 C :   -0.079021
   6 C :   -0.131866
   7 C :   -0.312385
   8 O :   -0.026712
   9 H :    0.131093
  10 H :    0.125253
  11 H :    0.124067
  12 H :    0.155327
  13 H :    0.182236
  14 H :    0.153436
  15 H :    0.129577
  16 H :    0.129589
  17 H :    0.176850

  Mayer bond orders larger than 0.1
B(  0-C ,  1-C ) :   0.8669 B(  0-C ,  9-H ) :   0.9347 B(  0-C , 10-H ) :   0.9332
B(  0-C , 11-H ) :   0.9320 B(  1-C ,  2-N ) :   0.8952 B(  1-C ,  6-C ) :   0.9368
B(  1-C , 12-H ) :   0.9129 B(  2-N ,  3-C ) :   1.1338 B(  2-N , 13-H ) :   0.8684
B(  3-C ,  4-O ) :   1.9874 B(  3-C ,  5-C ) :   0.9552 B(  5-C ,  6-C ) :   1.6707
B(  5-C , 14-H ) :   0.9302 B(  6-C ,  7-C ) :   0.8884 B(  6-C ,  8-O ) :  -0.1157
B(  7-C ,  8-O ) :   1.0616 B(  7-C , 15-H ) :   0.9372 B(  7-C , 16-H ) :   0.9273
B(  8-O , 17-H ) :   0.8450

MP2 TOTAL ENERGY:     -438.408554606 Eh
FINAL SINGLE POINT ENERGY      -438.408554605776

DIPOLE MOMENT
-------------
                                X             Y             Z
Electronic contribution:      4.75936      -5.94687      -2.73949
Nuclear contribution   :     -6.47870       7.24606       3.88975
                        -----------------------------------------
Total Dipole Moment    :     -1.71933       1.29919       1.15026
                        -----------------------------------------
Magnitude (a.u.)       :      2.44276
Magnitude (Debye)      :      6.20901

                             ****ORCA TERMINATED NORMALLY****
TOTAL RUN TIME: 0 days 0 hours 16 minutes 46 seconds 310 msec
