                         Program Version 3.0.3 - RELEASE   -
|  1> ! RI-MP2 RIJK def2-TZVP def2-TZVP/C def2-TZVP/JK TIGHTSCF
|  2> % maxcore 2000
|  3> % mp2 density relaxed end
|  4> *xyz 0 1
|  5>  C       -0.0482877111    -1.1576358235     0.1206027206
|  6>  C       -0.0434720643     0.0444910080     0.0842963404
|  7>  C       -0.0139667764     1.4710103157    -0.0007423602
|  8>  O       -0.6221312962     2.2966386390     1.0620077815
|  9>  C       -0.0871804539     3.2586349438     0.0885778231
| 10>  C        1.2223583951     2.4363337950    -0.0727803217
| 11>  C        1.7175089854     2.5151841407    -1.5100336766
| 12>  C        0.3556897100     2.4976798238    -2.2757355987
| 13>  C       -0.6134403457     2.4127256851    -1.1049866515
| 14>  H       -0.0578318025    -2.2189477740     0.1617381181
| 15>  H       -0.2196481786     4.3189340292     0.2999207156
| 16>  H        1.9245258755     2.4128331422     0.7593360600
| 17>  H        2.2931845497     3.4268377129    -1.6963159696
| 18>  H        2.3550172043     1.6652431476    -1.7702186132
| 19>  H        0.1980159348     3.3999203001    -2.8743325174
| 20>  H        0.2634456514     1.6383728854    -2.9462537037
| 21>  H       -1.6885711977     2.3663576088    -1.2721763468
| 22> *
| 23>
| 24>                          ****END OF INPUT****

CARTESIAN COORDINATES (ANGSTROEM)
---------------------------------
  C     -0.048288   -1.157636    0.120603
  C     -0.043472    0.044491    0.084296
  C     -0.013967    1.471010   -0.000742
  O     -0.622131    2.296639    1.062008
  C     -0.087180    3.258635    0.088578
  C      1.222358    2.436334   -0.072780
  C      1.717509    2.515184   -1.510034
  C      0.355690    2.497680   -2.275736
  C     -0.613440    2.412726   -1.104987
  H     -0.057832   -2.218948    0.161738
  H     -0.219648    4.318934    0.299921
  H      1.924526    2.412833    0.759336
  H      2.293185    3.426838   -1.696316
  H      2.355017    1.665243   -1.770219
  H      0.198016    3.399920   -2.874333
  H      0.263446    1.638373   -2.946254
  H     -1.688571    2.366358   -1.272176

 Total Charge           Charge          ....    0
 Multiplicity           Mult            ....    1
 Number of Electrons    NEL             ....   64
 Basis Dimension        Dim             ....  327

ORBITAL ENERGIES
----------------

  NO   OCC          E(Eh)            E(eV)
   0   2.0000     -20.553184      -559.2806
   1   2.0000     -11.320983      -308.0596
   2   2.0000     -11.299047      -307.4627
   3   2.0000     -11.249505      -306.1146
   4   2.0000     -11.249492      -306.1142
   5   2.0000     -11.241993      -305.9102
   6   2.0000     -11.237579      -305.7901
   7   2.0000     -11.233974      -305.6920
   8   2.0000     -11.233440      -305.6774
   9   2.0000      -1.401937       -38.1486
  10   2.0000      -1.149799       -31.2876
  11   2.0000      -1.049826       -28.5672
  12   2.0000      -0.974089       -26.5063
  13   2.0000      -0.963418       -26.2159
  14   2.0000      -0.912877       -24.8406
  15   2.0000      -0.801524       -21.8106
  16   2.0000      -0.770463       -20.9654
  17   2.0000      -0.720628       -19.6093
  18   2.0000      -0.703485       -19.1428
  19   2.0000      -0.656870       -17.8743
  20   2.0000      -0.642404       -17.4807
  21   2.0000      -0.577578       -15.7167
  22   2.0000      -0.560330       -15.2473
  23   2.0000      -0.545939       -14.8558
  24   2.0000      -0.503699       -13.7063
  25   2.0000      -0.497182       -13.5290
  26   2.0000      -0.481058       -13.0903
  27   2.0000      -0.470921       -12.8144
  28   2.0000      -0.465630       -12.6704
  29   2.0000      -0.406955       -11.0738
  30   2.0000      -0.400971       -10.9110
  31   2.0000      -0.375017       -10.2047
  32   0.0000       0.129377         3.5205
  33   0.0000       0.149010         4.0548
  34   0.0000       0.154953         4.2165
  35   0.0000       0.155052         4.2192
  36   0.0000       0.170875         4.6498

MULLIKEN ATOMIC CHARGES
-----------------------
   0 C :   -0.087632
   1 C :    0.025258
   2 C :   -0.140265
   3 O :   -0.301478
   4 C :   -0.100468
   5 C :    0.017455
   6 C :   -0.254517
   7 C :   -0.254508
   8 C :    0.017446
   9 H :    0.196046
  10 H :    0.133851
  11 H :    0.128105
  12 H :    0.122445
  13 H :    0.123857
  14 H :    0.122442
  15 H :    0.123858
  16 H :    0.128105
Sum of atomic charges:   -0.0000000

LOEWDIN ATOMIC CHARGES
----------------------
   0 C :   -0.060057
   1 C :   -0.060594
   2 C :   -0.229210
   3 O :    0.159821
   4 C :   -0.186983
   5 C :   -0.136437
   6 C :   -0.224252
   7 C :   -0.224253
   8 C :   -0.136438
   9 H :    0.129773
  10 H :    0.126001
  11 H :    0.145312
  12 H :    0.136875
  13 H :    0.139128
  14 H :    0.136876
  15 H :    0.139127
  16 H :    0.145312

  Mayer bond orders larger than 0.1
B(  0-C ,  1-C ) :   2.6312 B(  0-C ,  2-C ) :  -0.1603 B(  0-C ,  9-H ) :   0.8626
B(  1-C ,  2-C ) :   1.1867 B(  2-C ,  3-O ) :   0.9674 B(  2-C ,  5-C ) :   0.8592
B(  2-C ,  8-C ) :   0.8592 B(  3-O ,  4-C ) :   0.8890 B(  4-C ,  5-C ) :   0.9191
B(  4-C ,  8-C ) :   0.9191 B(  4-C , 10-H ) :   0.8978 B(  5-C ,  6-C ) :   0.8920
B(  5-C , 11-H ) :   0.9147 B(  6-C ,  7-C ) :   0.9668 B(  6-C , 12-H ) :   0.9198
B(  6-C , 13-H ) :   0.9129 B(  7-C ,  8-C ) :   0.8920 B(  7-C , 14-H ) :   0.9198
B(  7-C , 15-H ) :   0.9129 B(  8-C , 16-H ) :   0.9147

MP2 TOTAL ENERGY:     -383.919005073 Eh
FINAL SINGLE POINT ENERGY      -383.919005073007

DIPOLE MOMENT
-------------
                                X             Y             Z
Electronic contribution:     -2.70534      -2.37922       4.86593
Nuclear contribution   :      3.17754       2.48641      -5.70824
                        -----------------------------------------
Total Dipole Moment    :      0.47221       0.10719      -0.84230
                        -----------------------------------------
Magnitude (a.u.)       :      0.97157
Magnitude (Debye)      :      2.46953

                             ****ORCA TERMINATED NORMALLY****
TOTAL RUN TIME: 0 days 0 hours 18 minutes 48 seconds 479 msec
