                         Program Version 3.0.3 - RELEASE   -
|  1> ! RI-MP2 RIJK def2-TZVP def2-TZVP/C def2-TZVP/JK TIGHTSCF
|  2> % maxcore 2000
|  3> % mp2 density relaxed end
|  4> *xyz 0 1
|  5>  C        0.5433187792     1.0116610304     1.0711586282
|  6>  C        0.1752643673    -0.3711244518     0.6210983676
|  7>  C       -0.6413594619    -1.3094393559     1.4241208895
|  8>  N        0.7984118460    -1.5973582062     1.2387131374
|  9>  C        1.0613028586    -2.1011344989    -0.1627160578
| 10>  C       -0.0453161956    -2.1908359771    -1.1866111195
| 11>  C       -1.4727348506    -2.7264516985    -1.1496343948
| 12>  O       -1.7522764651    -3.1847240593    -2.4681704985
| 13>  C        0.5063682087    -0.8442106663    -0.8138162079
| 14>  H        1.5473971456     1.2806894177     0.7249634923
| 15>  H       -0.1608167493     1.7510105149     0.6707161448
| 16>  H        0.5311424219     1.0807960644     2.1624494281
| 17>  H       -0.8554112484    -1.0017079755     2.4450934594
| 18>  H       -1.3936353002    -1.9607353042     1.0039102845
| 19>  H        2.0087571803    -2.6056226893    -0.3079480815
| 20>  H        0.4052869603    -2.5190472104    -2.1235194685
| 21>  H       -1.5620738410    -3.5516256776    -0.4252990437
| 22>  H       -2.1815790808    -1.9391577035    -0.8563767958
| 23>  H       -2.6532941513    -3.5213378828    -2.4821863721
| 24>  H        0.9740433564    -0.1785285502    -1.5288091718
| 25> *
| 26>
| 27>                          ****END OF INPUT****

CARTESIAN COORDINATES (ANGSTROEM)
---------------------------------
  C      0.543319    1.011661    1.071159
  C      0.175264   -0.371124    0.621098
  C     -0.641359   -1.309439    1.424121
  N      0.798412   -1.597358    1.238713
  C      1.061303   -2.101134   -0.162716
  C     -0.045316   -2.190836   -1.186611
  C     -1.472735   -2.726452   -1.149634
  O     -1.752276   -3.184724   -2.468170
  C      0.506368   -0.844211   -0.813816
  H      1.547397    1.280689    0.724963
  H     -0.160817    1.751011    0.670716
  H      0.531142    1.080796    2.162449
  H     -0.855411   -1.001708    2.445093
  H     -1.393635   -1.960735    1.003910
  H      2.008757   -2.605623   -0.307948
  H      0.405287   -2.519047   -2.123519
  H     -1.562074   -3.551626   -0.425299
  H     -2.181579   -1.939158   -0.856377
  H     -2.653294   -3.521338   -2.482186
  H      0.974043   -0.178529   -1.528809

 Total Charge           Charge          ....    0
 Multiplicity           Mult            ....    1
 Number of Electrons    NEL             ....   68
 Basis Dimension        Dim             ....  345

ORBITAL ENERGIES
----------------

  NO   OCC          E(Eh)            E(eV)
   0   2.0000     -20.560522      -559.4802
   1   2.0000     -15.555124      -423.2764
   2   2.0000     -11.285560      -307.0957
   3   2.0000     -11.271626      -306.7165
   4   2.0000     -11.263362      -306.4917
   5   2.0000     -11.256128      -306.2948
   6   2.0000     -11.242642      -305.9278
   7   2.0000     -11.236057      -305.7486
   8   2.0000     -11.222460      -305.3787
   9   2.0000      -1.364747       -37.1366
  10   2.0000      -1.298989       -35.3473
  11   2.0000      -1.115280       -30.3483
  12   2.0000      -0.998766       -27.1778
  13   2.0000      -0.965500       -26.2726
  14   2.0000      -0.888149       -24.1678
  15   2.0000      -0.840508       -22.8714
  16   2.0000      -0.771184       -20.9850
  17   2.0000      -0.713649       -19.4194
  18   2.0000      -0.706623       -19.2282
  19   2.0000      -0.678347       -18.4588
  20   2.0000      -0.641212       -17.4483
  21   2.0000      -0.634995       -17.2791
  22   2.0000      -0.593017       -16.1368
  23   2.0000      -0.572942       -15.5905
  24   2.0000      -0.566750       -15.4221
  25   2.0000      -0.546539       -14.8721
  26   2.0000      -0.528131       -14.3712
  27   2.0000      -0.519546       -14.1376
  28   2.0000      -0.480956       -13.0875
  29   2.0000      -0.453822       -12.3491
  30   2.0000      -0.450646       -12.2627
  31   2.0000      -0.436722       -11.8838
  32   2.0000      -0.375365       -10.2142
  33   2.0000      -0.336256        -9.1500
  34   0.0000       0.132602         3.6083
  35   0.0000       0.145664         3.9637
  36   0.0000       0.166630         4.5342
  37   0.0000       0.177964         4.8426
  38   0.0000       0.184886         5.0310

MULLIKEN ATOMIC CHARGES
-----------------------
   0 C :   -0.433306
   1 C :    0.161122
   2 C :   -0.166585
   3 N :   -0.263089
   4 C :   -0.063374
   5 C :   -0.097949
   6 C :   -0.080795
   7 O :   -0.464477
   8 C :   -0.194006
   9 H :    0.133688
  10 H :    0.132673
  11 H :    0.138902
  12 H :    0.123887
  13 H :    0.116275
  14 H :    0.136662
  15 H :    0.136378
  16 H :    0.112755
  17 H :    0.114016
  18 H :    0.315647
  19 H :    0.141576
Sum of atomic charges:    0.0000000

LOEWDIN ATOMIC CHARGES
----------------------
   0 C :   -0.268129
   1 C :   -0.255489
   2 C :   -0.220686
   3 N :    0.132498
   4 C :   -0.182471
   5 C :   -0.193923
   6 C :   -0.342934
   7 O :   -0.049747
   8 C :   -0.141630
   9 H :    0.130996
  10 H :    0.130624
  11 H :    0.133074
  12 H :    0.135158
  13 H :    0.127350
  14 H :    0.135328
  15 H :    0.178584
  16 H :    0.118496
  17 H :    0.119079
  18 H :    0.172372
  19 H :    0.141449

  Mayer bond orders larger than 0.1
B(  0-C ,  1-C ) :   0.8675 B(  0-C ,  9-H ) :   0.9361 B(  0-C , 10-H ) :   0.9399
B(  0-C , 11-H ) :   0.9396 B(  1-C ,  2-C ) :   0.9719 B(  1-C ,  3-N ) :   0.7838
B(  1-C ,  8-C ) :   0.8887 B(  2-C ,  3-N ) :   0.9123 B(  2-C , 12-H ) :   0.9154
B(  2-C , 13-H ) :   0.8934 B(  3-N ,  4-C ) :   0.9188 B(  4-C ,  5-C ) :   0.8745
B(  4-C ,  8-C ) :   0.8776 B(  4-C , 14-H ) :   0.9305 B(  5-C ,  6-C ) :   0.8648
B(  5-C ,  8-C ) :   0.8607 B(  5-C , 15-H ) :   0.9273 B(  6-C ,  7-O ) :   0.9932
B(  6-C , 16-H ) :   0.9366 B(  6-C , 17-H ) :   0.9338 B(  7-O , 18-H ) :   0.8473
B(  8-C , 19-H ) :   0.9223

MP2 TOTAL ENERGY:     -402.356656929 Eh
FINAL SINGLE POINT ENERGY      -402.356656929281

DIPOLE MOMENT
-------------
                                X             Y             Z
Electronic contribution:      0.85834      -3.03836      -1.44419
Nuclear contribution   :     -1.61085       3.21158       1.38098
                        -----------------------------------------
Total Dipole Moment    :     -0.75251       0.17322      -0.06321
                        -----------------------------------------
Magnitude (a.u.)       :      0.77477
Magnitude (Debye)      :      1.96931

                             ****ORCA TERMINATED NORMALLY****
TOTAL RUN TIME: 0 days 0 hours 19 minutes 14 seconds 352 msec
