                         Program Version 3.0.3 - RELEASE   -
|  1> ! RI-MP2 RIJK def2-TZVP def2-TZVP/C def2-TZVP/JK TIGHTSCF
|  2> % maxcore 2000
|  3> % mp2 density relaxed end
|  4> *xyz 0 1
|  5>  C       -0.0570227066     1.5317462344     0.1063658998
|  6>  C       -0.0658042394     0.0403471003     0.0173554630
|  7>  C        0.0133948081    -0.7670229431    -1.0943410904
|  8>  N        0.1239781694    -0.4635442496    -2.4543884194
|  9>  C        0.1943627307    -1.3695161023    -3.4675351187
| 10>  O        0.1705856647    -2.5800953485    -3.3288192771
| 11>  N       -0.0357348484    -2.0644548386    -0.6462775458
| 12>  C       -0.1421540920    -1.9969049307     0.7108540307
| 13>  N       -0.1628119164    -0.7566285154     1.1391307347
| 14>  H        0.0259665217     2.0019263845    -0.8796604506
| 15>  H       -0.9743411009     1.9052738043     0.5740212694
| 16>  H        0.7830487560     1.8866108218     0.7130334980
| 17>  H        0.1533281963     0.5148138899    -2.6948982716
| 18>  H        0.2773556476    -0.8787595095    -4.4529525471
| 19>  H        0.0052777590    -2.8568541482    -1.2721604101
| 20>  H       -0.2000693198    -2.8820109794     1.3256196253
| 21> *
| 22>
| 23>                          ****END OF INPUT****

CARTESIAN COORDINATES (ANGSTROEM)
---------------------------------
  C     -0.057023    1.531746    0.106366
  C     -0.065804    0.040347    0.017355
  C      0.013395   -0.767023   -1.094341
  N      0.123978   -0.463544   -2.454388
  C      0.194363   -1.369516   -3.467535
  O      0.170586   -2.580095   -3.328819
  N     -0.035735   -2.064455   -0.646278
  C     -0.142154   -1.996905    0.710854
  N     -0.162812   -0.756629    1.139131
  H      0.025967    2.001926   -0.879660
  H     -0.974341    1.905274    0.574021
  H      0.783049    1.886611    0.713033
  H      0.153328    0.514814   -2.694898
  H      0.277356   -0.878760   -4.452953
  H      0.005278   -2.856854   -1.272160
  H     -0.200069   -2.882011    1.325620

 Total Charge           Charge          ....    0
 Multiplicity           Mult            ....    1
 Number of Electrons    NEL             ....   66
 Basis Dimension        Dim             ....  321

ORBITAL ENERGIES
----------------

  NO   OCC          E(Eh)            E(eV)
   0   2.0000     -20.550651      -559.2117
   1   2.0000     -15.629794      -425.3083
   2   2.0000     -15.611272      -424.8043
   3   2.0000     -15.541123      -422.8955
   4   2.0000     -11.378894      -309.6355
   5   2.0000     -11.305233      -307.6310
   6   2.0000     -11.290937      -307.2420
   7   2.0000     -11.247041      -306.0475
   8   2.0000     -11.228218      -305.5353
   9   2.0000      -1.412775       -38.4436
  10   2.0000      -1.346075       -36.6286
  11   2.0000      -1.265707       -34.4416
  12   2.0000      -1.165251       -31.7081
  13   2.0000      -1.037125       -28.2216
  14   2.0000      -0.953009       -25.9327
  15   2.0000      -0.878226       -23.8977
  16   2.0000      -0.834935       -22.7197
  17   2.0000      -0.796001       -21.6603
  18   2.0000      -0.735677       -20.0188
  19   2.0000      -0.726724       -19.7752
  20   2.0000      -0.668753       -18.1977
  21   2.0000      -0.639871       -17.4118
  22   2.0000      -0.634100       -17.2547
  23   2.0000      -0.606366       -16.5001
  24   2.0000      -0.586699       -15.9649
  25   2.0000      -0.554878       -15.0990
  26   2.0000      -0.552281       -15.0283
  27   2.0000      -0.537651       -14.6302
  28   2.0000      -0.472174       -12.8485
  29   2.0000      -0.462060       -12.5733
  30   2.0000      -0.435596       -11.8532
  31   2.0000      -0.392119       -10.6701
  32   2.0000      -0.292662        -7.9637
  33   0.0000       0.115903         3.1539
  34   0.0000       0.132669         3.6101
  35   0.0000       0.157137         4.2759
  36   0.0000       0.167021         4.5449
  37   0.0000       0.180654         4.9158

MULLIKEN ATOMIC CHARGES
-----------------------
   0 C :   -0.411864
   1 C :    0.031736
   2 C :    0.212734
   3 N :   -0.307311
   4 C :    0.217257
   5 O :   -0.402568
   6 N :   -0.263048
   7 C :    0.032051
   8 N :   -0.296324
   9 H :    0.092840
  10 H :    0.153550
  11 H :    0.153554
  12 H :    0.253278
  13 H :    0.102161
  14 H :    0.281260
  15 H :    0.150694
Sum of atomic charges:    0.0000000

LOEWDIN ATOMIC CHARGES
----------------------
   0 C :   -0.276549
   1 C :   -0.274609
   2 C :   -0.263481
   3 N :    0.145089
   4 C :   -0.413314
   5 O :    0.047578
   6 N :    0.199632
   7 C :   -0.313217
   8 N :    0.106997
   9 H :    0.119354
  10 H :    0.135241
  11 H :    0.135244
  12 H :    0.202767
  13 H :    0.118138
  14 H :    0.200059
  15 H :    0.131074

  Mayer bond orders larger than 0.1
B(  0-C ,  1-C ) :   0.8792 B(  0-C ,  9-H ) :   0.9513 B(  0-C , 10-H ) :   0.9382
B(  0-C , 11-H ) :   0.9382 B(  1-C ,  2-C ) :   1.4597 B(  1-C ,  8-N ) :   1.2896
B(  2-C ,  3-N ) :   0.9357 B(  2-C ,  6-N ) :   1.1512 B(  3-N ,  4-C ) :   1.1444
B(  3-N , 12-H ) :   0.8672 B(  4-C ,  5-O ) :   1.8015 B(  4-C , 13-H ) :   0.9313
B(  6-N ,  7-C ) :   1.1546 B(  6-N , 14-H ) :   0.8274 B(  7-C ,  8-N ) :   1.5590
B(  7-C , 15-H ) :   0.9265

MP2 TOTAL ENERGY:     -433.413499922 Eh
FINAL SINGLE POINT ENERGY      -433.413499921750

DIPOLE MOMENT
-------------
                                X             Y             Z
Electronic contribution:      0.07289      -5.18680      -1.61979
Nuclear contribution   :      0.01197       5.89548       0.63992
                        -----------------------------------------
Total Dipole Moment    :      0.08486       0.70868      -0.97987
                        -----------------------------------------
Magnitude (a.u.)       :      1.21226
Magnitude (Debye)      :      3.08132

                             ****ORCA TERMINATED NORMALLY****
TOTAL RUN TIME: 0 days 0 hours 14 minutes 43 seconds 78 msec
