                         Program Version 3.0.3 - RELEASE   -
|  1> ! RI-MP2 RIJK def2-TZVP def2-TZVP/C def2-TZVP/JK TIGHTSCF
|  2> % maxcore 2000
|  3> % mp2 density relaxed end
|  4> *xyz 0 1
|  5>  C        0.1399426153     1.1341349664    -0.4337058838
|  6>  O       -0.0914553669    -0.0318196481     0.3309317840
|  7>  C       -1.3723456657    -0.5860628819     0.1915487343
|  8>  C       -2.4770947989     0.1963431133     0.8696705149
|  9>  C       -1.6560545042    -1.3472293828    -1.0841994957
| 10>  C       -1.4061532746    -2.0902205941     0.2203584172
| 11>  C       -0.1482495308    -2.9097776972     0.4085072394
| 12>  C       -0.2478849398    -4.2855480357    -0.2404974988
| 13>  O        0.9663652396    -4.9767502066     0.0151596396
| 14>  H        1.1934860010     1.3930726687    -0.3031052772
| 15>  H       -0.0576518562     0.9660991091    -1.5020516546
| 16>  H       -0.4716150454     1.9832267333    -0.0978131916
| 17>  H       -2.6188245276     1.1812785298     0.4117027545
| 18>  H       -3.4283261846    -0.3384221750     0.7976040865
| 19>  H       -2.2439278100     0.3435769581     1.9294468388
| 20>  H       -2.6568356969    -1.3264642750    -1.5028720472
| 21>  H       -0.8595230485    -1.3795129404    -1.8208142109
| 22>  H       -2.2917584993    -2.5114606440     0.6922795695
| 23>  H        0.7102414475    -2.3763881814    -0.0079639933
| 24>  H        0.0575544179    -3.0442775277     1.4773871886
| 25>  H       -1.1114308946    -4.8333212808     0.1729165474
| 26>  H       -0.4248672866    -4.1725542492    -1.3222251332
| 27>  H        0.9106311796    -5.8436902686    -0.3966913884
| 28> *
| 29>
| 30>                          ****END OF INPUT****

CARTESIAN COORDINATES (ANGSTROEM)
---------------------------------
  C      0.139943    1.134135   -0.433706
  O     -0.091455   -0.031820    0.330932
  C     -1.372346   -0.586063    0.191549
  C     -2.477095    0.196343    0.869671
  C     -1.656055   -1.347229   -1.084199
  C     -1.406153   -2.090221    0.220358
  C     -0.148250   -2.909778    0.408507
  C     -0.247885   -4.285548   -0.240497
  O      0.966365   -4.976750    0.015160
  H      1.193486    1.393073   -0.303105
  H     -0.057652    0.966099   -1.502052
  H     -0.471615    1.983227   -0.097813
  H     -2.618825    1.181279    0.411703
  H     -3.428326   -0.338422    0.797604
  H     -2.243928    0.343577    1.929447
  H     -2.656836   -1.326464   -1.502872
  H     -0.859523   -1.379513   -1.820814
  H     -2.291758   -2.511461    0.692280
  H      0.710241   -2.376388   -0.007964
  H      0.057554   -3.044278    1.477387
  H     -1.111431   -4.833321    0.172917
  H     -0.424867   -4.172554   -1.322225
  H      0.910631   -5.843690   -0.396691

 Total Charge           Charge          ....    0
 Multiplicity           Mult            ....    1
 Number of Electrons    NEL             ....   72
 Basis Dimension        Dim             ....  363

ORBITAL ENERGIES
----------------

  NO   OCC          E(Eh)            E(eV)
   0   2.0000     -20.554327      -559.3117
   1   2.0000     -20.548737      -559.1596
   2   2.0000     -11.283545      -307.0409
   3   2.0000     -11.267945      -306.6164
   4   2.0000     -11.267928      -306.6159
   5   2.0000     -11.226752      -305.4955
   6   2.0000     -11.220423      -305.3232
   7   2.0000     -11.218503      -305.2710
   8   2.0000     -11.210906      -305.0643
   9   2.0000      -1.378289       -37.5052
  10   2.0000      -1.352396       -36.8006
  11   2.0000      -1.140710       -31.0403
  12   2.0000      -1.016346       -27.6562
  13   2.0000      -0.960876       -26.1468
  14   2.0000      -0.928720       -25.2717
  15   2.0000      -0.854498       -23.2521
  16   2.0000      -0.784245       -21.3404
  17   2.0000      -0.754500       -20.5310
  18   2.0000      -0.694752       -18.9052
  19   2.0000      -0.669765       -18.2252
  20   2.0000      -0.641853       -17.4657
  21   2.0000      -0.638182       -17.3658
  22   2.0000      -0.624940       -17.0055
  23   2.0000      -0.602699       -16.4003
  24   2.0000      -0.568796       -15.4777
  25   2.0000      -0.564674       -15.3656
  26   2.0000      -0.551189       -14.9986
  27   2.0000      -0.539138       -14.6707
  28   2.0000      -0.521504       -14.1908
  29   2.0000      -0.496174       -13.5016
  30   2.0000      -0.491276       -13.3683
  31   2.0000      -0.480241       -13.0680
  32   2.0000      -0.449248       -12.2247
  33   2.0000      -0.436808       -11.8861
  34   2.0000      -0.392695       -10.6858
  35   2.0000      -0.385180       -10.4813
  36   0.0000       0.136128         3.7042
  37   0.0000       0.144611         3.9351
  38   0.0000       0.157229         4.2784
  39   0.0000       0.172247         4.6871
  40   0.0000       0.185312         5.0426

MULLIKEN ATOMIC CHARGES
-----------------------
   0 C :   -0.217892
   1 O :   -0.316776
   2 C :    0.280438
   3 C :   -0.427789
   4 C :   -0.344744
   5 C :   -0.148439
   6 C :   -0.184978
   7 C :   -0.065014
   8 O :   -0.464042
   9 H :    0.141072
  10 H :    0.113635
  11 H :    0.114572
  12 H :    0.129912
  13 H :    0.127836
  14 H :    0.140518
  15 H :    0.129667
  16 H :    0.140532
  17 H :    0.114313
  18 H :    0.125352
  19 H :    0.118085
  20 H :    0.085034
  21 H :    0.095471
  22 H :    0.313240
Sum of atomic charges:    0.0000000

LOEWDIN ATOMIC CHARGES
----------------------
   0 C :   -0.347309
   1 O :    0.192099
   2 C :   -0.352576
   3 C :   -0.270088
   4 C :   -0.199162
   5 C :   -0.188900
   6 C :   -0.247188
   7 C :   -0.348848
   8 O :   -0.053482
   9 H :    0.113672
  10 H :    0.102964
  11 H :    0.102030
  12 H :    0.124200
  13 H :    0.130669
  14 H :    0.130539
  15 H :    0.131350
  16 H :    0.139659
  17 H :    0.150210
  18 H :    0.148100
  19 H :    0.144821
  20 H :    0.112563
  21 H :    0.114127
  22 H :    0.170551

  Mayer bond orders larger than 0.1
B(  0-C ,  1-O ) :   0.9021 B(  0-C ,  9-H ) :   0.9398 B(  0-C , 10-H ) :   0.9341
B(  0-C , 11-H ) :   0.9357 B(  1-O ,  2-C ) :   0.9488 B(  2-C ,  3-C ) :   0.9087
B(  2-C ,  4-C ) :   0.8861 B(  2-C ,  5-C ) :   0.8734 B(  3-C , 12-H ) :   0.9348
B(  3-C , 13-H ) :   0.9295 B(  3-C , 14-H ) :   0.9420 B(  4-C ,  5-C ) :   0.8833
B(  4-C , 15-H ) :   0.9179 B(  4-C , 16-H ) :   0.9212 B(  5-C ,  6-C ) :   0.8920
B(  5-C , 17-H ) :   0.9199 B(  6-C ,  7-C ) :   0.9311 B(  6-C , 18-H ) :   0.9216
B(  6-C , 19-H ) :   0.9270 B(  7-C ,  8-O ) :   1.0182 B(  7-C , 20-H ) :   0.9278
B(  7-C , 21-H ) :   0.9324 B(  8-O , 22-H ) :   0.8502

MP2 TOTAL ENERGY:     -424.694463223 Eh
FINAL SINGLE POINT ENERGY      -424.694463223384

DIPOLE MOMENT
-------------
                                X             Y             Z
Electronic contribution:      3.06855      -3.30790       1.13450
Nuclear contribution   :     -3.81320       3.34751      -1.70293
                        -----------------------------------------
Total Dipole Moment    :     -0.74465       0.03961      -0.56843
                        -----------------------------------------
Magnitude (a.u.)       :      0.93765
Magnitude (Debye)      :      2.38331

                             ****ORCA TERMINATED NORMALLY****
TOTAL RUN TIME: 0 days 0 hours 17 minutes 18 seconds 917 msec
