                         Program Version 3.0.3 - RELEASE   -
|  1> ! RI-MP2 RIJK def2-TZVP def2-TZVP/C def2-TZVP/JK TIGHTSCF
|  2> % maxcore 2000
|  3> % mp2 density relaxed end
|  4> *xyz 0 1
|  5>  C       -0.0803370915     1.5718148491     0.0411443886
|  6>  C        0.0194610452     0.0679651437     0.0389118093
|  7>  O       -1.1283971896    -0.6083810567    -0.4046079890
|  8>  C        1.3182271276    -0.6891203684    -0.2492256763
|  9>  N        2.5842252782    -0.0501544037    -0.0521559940
| 10>  C        2.7161401934     0.4465657948     1.2436450101
| 11>  O        3.5644045528     1.2094944052     1.6450678774
| 12>  N        1.6709881906    -0.1057627427     1.9788949127
| 13>  C        0.6981083754    -0.7303018761     1.1367475600
| 14>  H        0.8112313237     2.0493685409     0.4525962939
| 15>  H       -0.2163705201     1.9495678676    -0.9797257394
| 16>  H       -0.9446038136     1.8873571027     0.6340191372
| 17>  H       -1.2183080424    -0.4557105274    -1.3525649974
| 18>  H        1.2831927558    -1.5514623862    -0.9066092214
| 19>  H        3.0671057728     0.4438902432    -0.7845828294
| 20>  H        1.4390821640     0.3271384524     2.8575582682
| 21>  H        0.1956806277    -1.6155608184     1.5094198697
| 22> *
| 23>
| 24>                          ****END OF INPUT****

CARTESIAN COORDINATES (ANGSTROEM)
---------------------------------
  C     -0.080337    1.571815    0.041144
  C      0.019461    0.067965    0.038912
  O     -1.128397   -0.608381   -0.404608
  C      1.318227   -0.689120   -0.249226
  N      2.584225   -0.050154   -0.052156
  C      2.716140    0.446566    1.243645
  O      3.564405    1.209494    1.645068
  N      1.670988   -0.105763    1.978895
  C      0.698108   -0.730302    1.136748
  H      0.811231    2.049369    0.452596
  H     -0.216371    1.949568   -0.979726
  H     -0.944604    1.887357    0.634019
  H     -1.218308   -0.455711   -1.352565
  H      1.283193   -1.551462   -0.906609
  H      3.067106    0.443890   -0.784583
  H      1.439082    0.327138    2.857558
  H      0.195681   -1.615561    1.509420

 Total Charge           Charge          ....    0
 Multiplicity           Mult            ....    1
 Number of Electrons    NEL             ....   68
 Basis Dimension        Dim             ....  327

ORBITAL ENERGIES
----------------

  NO   OCC          E(Eh)            E(eV)
   0   2.0000     -20.580630      -560.0274
   1   2.0000     -20.516926      -558.2939
   2   2.0000     -15.587746      -424.1641
   3   2.0000     -15.586630      -424.1338
   4   2.0000     -11.377102      -309.5867
   5   2.0000     -11.306583      -307.6678
   6   2.0000     -11.284506      -307.0670
   7   2.0000     -11.283179      -307.0309
   8   2.0000     -11.235113      -305.7230
   9   2.0000      -1.403469       -38.1903
  10   2.0000      -1.390525       -37.8381
  11   2.0000      -1.298741       -35.3405
  12   2.0000      -1.189139       -32.3581
  13   2.0000      -1.105045       -30.0698
  14   2.0000      -0.990425       -26.9508
  15   2.0000      -0.850424       -23.1412
  16   2.0000      -0.843968       -22.9655
  17   2.0000      -0.808924       -22.0119
  18   2.0000      -0.725198       -19.7337
  19   2.0000      -0.708130       -19.2692
  20   2.0000      -0.669943       -18.2301
  21   2.0000      -0.655624       -17.8404
  22   2.0000      -0.629825       -17.1384
  23   2.0000      -0.613244       -16.6872
  24   2.0000      -0.597423       -16.2567
  25   2.0000      -0.586445       -15.9580
  26   2.0000      -0.570165       -15.5150
  27   2.0000      -0.556142       -15.1334
  28   2.0000      -0.513865       -13.9830
  29   2.0000      -0.500176       -13.6105
  30   2.0000      -0.460794       -12.5388
  31   2.0000      -0.440015       -11.9734
  32   2.0000      -0.389812       -10.6073
  33   2.0000      -0.362515        -9.8645
  34   0.0000       0.117486         3.1970
  35   0.0000       0.142652         3.8818
  36   0.0000       0.160425         4.3654
  37   0.0000       0.164763         4.4834
  38   0.0000       0.182408         4.9636

MULLIKEN ATOMIC CHARGES
-----------------------
   0 C :   -0.424630
   1 C :    0.221632
   2 O :   -0.457249
   3 C :   -0.101607
   4 N :   -0.324649
   5 C :    0.257172
   6 O :   -0.349278
   7 N :   -0.334088
   8 C :   -0.032947
   9 H :    0.154732
  10 H :    0.124398
  11 H :    0.148185
  12 H :    0.323163
  13 H :    0.145260
  14 H :    0.251307
  15 H :    0.252868
  16 H :    0.145732
Sum of atomic charges:    0.0000000

LOEWDIN ATOMIC CHARGES
----------------------
   0 C :   -0.273626
   1 C :   -0.362298
   2 O :    0.030371
   3 C :   -0.215762
   4 N :    0.113920
   5 C :   -0.532125
   6 O :    0.067551
   7 N :    0.118293
   8 C :   -0.202534
   9 H :    0.138833
  10 H :    0.128015
  11 H :    0.134272
  12 H :    0.183035
  13 H :    0.144501
  14 H :    0.188612
  15 H :    0.189929
  16 H :    0.149012

  Mayer bond orders larger than 0.1
B(  0-C ,  1-C ) :   0.9192 B(  0-C ,  9-H ) :   0.9240 B(  0-C , 10-H ) :   0.9251
B(  0-C , 11-H ) :   0.9403 B(  1-C ,  2-O ) :   0.9522 B(  1-C ,  3-C ) :   0.8280
B(  1-C ,  8-C ) :   0.8461 B(  2-O , 12-H ) :   0.8385 B(  3-C ,  4-N ) :   0.9395
B(  3-C ,  8-C ) :   0.8768 B(  3-C , 13-H ) :   0.9289 B(  4-N ,  5-C ) :   1.1043
B(  4-N , 14-H ) :   0.8654 B(  5-C ,  6-O ) :   2.0186 B(  5-C ,  7-N ) :   1.1085
B(  7-N ,  8-C ) :   0.9544 B(  7-N , 15-H ) :   0.8657 B(  8-C , 16-H ) :   0.9253

MP2 TOTAL ENERGY:     -454.442218427 Eh
FINAL SINGLE POINT ENERGY      -454.442218427477

DIPOLE MOMENT
-------------
                                X             Y             Z
Electronic contribution:      4.11027      -1.94837       2.04347
Nuclear contribution   :     -5.16878       1.76534      -3.03657
                        -----------------------------------------
Total Dipole Moment    :     -1.05851      -0.18303      -0.99310
                        -----------------------------------------
Magnitude (a.u.)       :      1.46293
Magnitude (Debye)      :      3.71848

                             ****ORCA TERMINATED NORMALLY****
TOTAL RUN TIME: 0 days 0 hours 17 minutes 27 seconds 735 msec
