                         Program Version 3.0.3 - RELEASE   -
|  1> ! RI-MP2 RIJK def2-TZVP def2-TZVP/C def2-TZVP/JK TIGHTSCF
|  2> % maxcore 2000
|  3> % mp2 density relaxed end
|  4> *xyz 0 1
|  5>  C       -0.0812503008     1.5462774014    -0.1257436086
|  6>  C        0.0324402670     0.0217438385    -0.0425938618
|  7>  C        0.7256526329    -0.4904407423     1.2357190051
|  8>  C       -0.0165107155    -0.1929824273     2.5302565318
|  9>  C       -0.2605129361    -1.2926333624     3.2457589776
| 10>  C        0.2506791772    -2.5113970786     2.5356371283
| 11>  C        0.6445708633    -3.7598041269     3.2719504501
| 12>  O       -0.4126856067    -2.7050299943     1.2552252299
| 13>  C        0.8427212274    -2.0149880590     1.2814355659
| 14>  H        0.9031084555     2.0244414229    -0.0640487938
| 15>  H       -0.5385364403     1.8515101796    -1.0720102568
| 16>  H       -0.6984113639     1.9530262825     0.6818181029
| 17>  H       -0.9590008590    -0.4389763455    -0.1010432802
| 18>  H        0.5974240588    -0.3450483589    -0.9089211777
| 19>  H        1.7356776397    -0.0546080269     1.2776477246
| 20>  H       -0.3339157955     0.8080143329     2.8000152239
| 21>  H       -0.7741345722    -1.3347614674     4.1993139307
| 22>  H       -0.2213931973    -4.2009073450     3.7780984647
| 23>  H        1.0473180864    -4.5029920398     2.5796810118
| 24>  H        1.4008521774    -3.5396022120     4.0329316248
| 25>  H        1.6584266718    -2.5190995918     0.7673114168
| 26> *
| 27>
| 28>                          ****END OF INPUT****

CARTESIAN COORDINATES (ANGSTROEM)
---------------------------------
  C     -0.081250    1.546277   -0.125744
  C      0.032440    0.021744   -0.042594
  C      0.725653   -0.490441    1.235719
  C     -0.016511   -0.192982    2.530257
  C     -0.260513   -1.292633    3.245759
  C      0.250679   -2.511397    2.535637
  C      0.644571   -3.759804    3.271950
  O     -0.412686   -2.705030    1.255225
  C      0.842721   -2.014988    1.281436
  H      0.903108    2.024441   -0.064049
  H     -0.538536    1.851510   -1.072010
  H     -0.698411    1.953026    0.681818
  H     -0.959001   -0.438976   -0.101043
  H      0.597424   -0.345048   -0.908921
  H      1.735678   -0.054608    1.277648
  H     -0.333916    0.808014    2.800015
  H     -0.774135   -1.334761    4.199314
  H     -0.221393   -4.200907    3.778098
  H      1.047318   -4.502992    2.579681
  H      1.400852   -3.539602    4.032932
  H      1.658427   -2.519100    0.767311

 Total Charge           Charge          ....    0
 Multiplicity           Mult            ....    1
 Number of Electrons    NEL             ....   68
 Basis Dimension        Dim             ....  351

ORBITAL ENERGIES
----------------

  NO   OCC          E(Eh)            E(eV)
   0   2.0000     -20.554544      -559.3176
   1   2.0000     -11.286812      -307.1298
   2   2.0000     -11.275591      -306.8244
   3   2.0000     -11.237418      -305.7857
   4   2.0000     -11.233027      -305.6662
   5   2.0000     -11.227191      -305.5074
   6   2.0000     -11.225016      -305.4482
   7   2.0000     -11.221416      -305.3503
   8   2.0000     -11.215083      -305.1779
   9   2.0000      -1.399763       -38.0895
  10   2.0000      -1.115807       -30.3627
  11   2.0000      -1.046035       -28.4641
  12   2.0000      -0.999089       -27.1866
  13   2.0000      -0.949326       -25.8325
  14   2.0000      -0.876741       -23.8573
  15   2.0000      -0.829486       -22.5715
  16   2.0000      -0.768071       -20.9003
  17   2.0000      -0.737105       -20.0577
  18   2.0000      -0.694320       -18.8934
  19   2.0000      -0.626327       -17.0432
  20   2.0000      -0.613925       -16.7058
  21   2.0000      -0.592129       -16.1127
  22   2.0000      -0.585525       -15.9329
  23   2.0000      -0.570890       -15.5347
  24   2.0000      -0.555208       -15.1080
  25   2.0000      -0.541293       -14.7293
  26   2.0000      -0.526742       -14.3334
  27   2.0000      -0.505922       -13.7668
  28   2.0000      -0.493325       -13.4241
  29   2.0000      -0.487942       -13.2776
  30   2.0000      -0.470780       -12.8106
  31   2.0000      -0.436783       -11.8855
  32   2.0000      -0.404298       -11.0015
  33   2.0000      -0.350914        -9.5488
  34   0.0000       0.127205         3.4614
  35   0.0000       0.148526         4.0416
  36   0.0000       0.152060         4.1378
  37   0.0000       0.169674         4.6171
  38   0.0000       0.180418         4.9094

MULLIKEN ATOMIC CHARGES
-----------------------
   0 C :   -0.404972
   1 C :   -0.229295
   2 C :    0.039364
   3 C :   -0.203007
   4 C :   -0.231392
   5 C :    0.254415
   6 C :   -0.423356
   7 O :   -0.342313
   8 C :   -0.001061
   9 H :    0.122943
  10 H :    0.137042
  11 H :    0.125978
  12 H :    0.137702
  13 H :    0.110590
  14 H :    0.097378
  15 H :    0.131196
  16 H :    0.132284
  17 H :    0.137802
  18 H :    0.144099
  19 H :    0.135018
  20 H :    0.129585
Sum of atomic charges:    0.0000000

LOEWDIN ATOMIC CHARGES
----------------------
   0 C :   -0.318786
   1 C :   -0.262177
   2 C :   -0.215013
   3 C :   -0.112657
   4 C :   -0.116619
   5 C :   -0.295451
   6 C :   -0.266673
   7 O :    0.176910
   8 C :   -0.209236
   9 H :    0.120201
  10 H :    0.122579
  11 H :    0.119313
  12 H :    0.144554
  13 H :    0.139042
  14 H :    0.160573
  15 H :    0.138594
  16 H :    0.140678
  17 H :    0.131867
  18 H :    0.134228
  19 H :    0.132554
  20 H :    0.135519

  Mayer bond orders larger than 0.1
B(  0-C ,  1-C ) :   0.9132 B(  0-C ,  9-H ) :   0.9376 B(  0-C , 10-H ) :   0.9423
B(  0-C , 11-H ) :   0.9408 B(  1-C ,  2-C ) :   0.8728 B(  1-C , 12-H ) :   0.9306
B(  1-C , 13-H ) :   0.9330 B(  2-C ,  3-C ) :   0.9190 B(  2-C ,  8-C ) :   0.9069
B(  2-C , 14-H ) :   0.9079 B(  3-C ,  4-C ) :   1.8013 B(  3-C , 15-H ) :   0.9277
B(  4-C ,  5-C ) :   0.9275 B(  4-C , 16-H ) :   0.9243 B(  5-C ,  6-C ) :   0.8819
B(  5-C ,  7-O ) :   0.8690 B(  5-C ,  8-C ) :   0.9656 B(  6-C , 17-H ) :   0.9399
B(  6-C , 18-H ) :   0.9425 B(  6-C , 19-H ) :   0.9277 B(  7-O ,  8-C ) :   0.8960
B(  8-C , 20-H ) :   0.9121

MP2 TOTAL ENERGY:     -386.406970161 Eh
FINAL SINGLE POINT ENERGY      -386.406970160905

DIPOLE MOMENT
-------------
                                X             Y             Z
Electronic contribution:     -0.94994      -4.35969       2.08559
Nuclear contribution   :      1.49449       4.64817      -1.77980
                        -----------------------------------------
Total Dipole Moment    :      0.54454       0.28848       0.30579
                        -----------------------------------------
Magnitude (a.u.)       :      0.68794
Magnitude (Debye)      :      1.74860

                             ****ORCA TERMINATED NORMALLY****
TOTAL RUN TIME: 0 days 0 hours 32 minutes 13 seconds 881 msec
