                         Program Version 3.0.3 - RELEASE   -
|  1> ! RI-MP2 RIJK def2-TZVP def2-TZVP/C def2-TZVP/JK TIGHTSCF
|  2> % maxcore 2000
|  3> % mp2 density relaxed end
|  4> *xyz 0 1
|  5>  C       -0.3901577897     1.3644655704    -0.6329002823
|  6>  C        0.1912492253     0.0426775245    -0.2310224251
|  7>  N        1.4165931265    -0.2259542435    -0.2531705295
|  8>  O       -0.8753551414    -0.7966351176     0.1590228428
|  9>  C       -0.6829511423    -2.0868857706     0.5876637386
| 10>  O        0.3642749245    -2.6608023488     0.6893734330
| 11>  N       -1.9383905989    -2.5891969266     0.8775401953
| 12>  C       -2.2720959625    -3.8582969957     1.3474816983
| 13>  N       -1.4328931060    -4.7739396444     1.5860919422
| 14>  H        0.4160042016     2.0291193047    -0.9400312390
| 15>  H       -1.0983970500     1.2366148190    -1.4577431313
| 16>  H       -0.9392853341     1.8110512598     0.2022043409
| 17>  H        1.6024000732    -1.1782071616     0.0587975131
| 18>  H       -2.6970239174    -1.9444931006     0.7245691363
| 19>  H       -3.3590693348    -3.9337456801     1.4742939539
| 20>  H       -1.9166749940    -5.6062265987     1.9187117330
| 21> *
| 22>
| 23>                          ****END OF INPUT****

CARTESIAN COORDINATES (ANGSTROEM)
---------------------------------
  C     -0.390158    1.364466   -0.632900
  C      0.191249    0.042678   -0.231022
  N      1.416593   -0.225954   -0.253171
  O     -0.875355   -0.796635    0.159023
  C     -0.682951   -2.086886    0.587664
  O      0.364275   -2.660802    0.689373
  N     -1.938391   -2.589197    0.877540
  C     -2.272096   -3.858297    1.347482
  N     -1.432893   -4.773940    1.586092
  H      0.416004    2.029119   -0.940031
  H     -1.098397    1.236615   -1.457743
  H     -0.939285    1.811051    0.202204
  H      1.602400   -1.178207    0.058798
  H     -2.697024   -1.944493    0.724569
  H     -3.359069   -3.933746    1.474294
  H     -1.916675   -5.606227    1.918712

 Total Charge           Charge          ....    0
 Multiplicity           Mult            ....    1
 Number of Electrons    NEL             ....   68
 Basis Dimension        Dim             ....  321

ORBITAL ENERGIES
----------------

  NO   OCC          E(Eh)            E(eV)
   0   2.0000     -20.634136      -561.4834
   1   2.0000     -20.555134      -559.3336
   2   2.0000     -15.625493      -425.1913
   3   2.0000     -15.554069      -423.2477
   4   2.0000     -15.543310      -422.9550
   5   2.0000     -11.434603      -311.1514
   6   2.0000     -11.353538      -308.9455
   7   2.0000     -11.340203      -308.5826
   8   2.0000     -11.240286      -305.8637
   9   2.0000      -1.493488       -40.6399
  10   2.0000      -1.394196       -37.9380
  11   2.0000      -1.298570       -35.3359
  12   2.0000      -1.217158       -33.1206
  13   2.0000      -1.187500       -32.3135
  14   2.0000      -1.020096       -27.7582
  15   2.0000      -0.939815       -25.5737
  16   2.0000      -0.829246       -22.5649
  17   2.0000      -0.799865       -21.7654
  18   2.0000      -0.742589       -20.2069
  19   2.0000      -0.706043       -19.2124
  20   2.0000      -0.692089       -18.8327
  21   2.0000      -0.689050       -18.7500
  22   2.0000      -0.650831       -17.7100
  23   2.0000      -0.632428       -17.2092
  24   2.0000      -0.604011       -16.4360
  25   2.0000      -0.584036       -15.8924
  26   2.0000      -0.568170       -15.4607
  27   2.0000      -0.555129       -15.1058
  28   2.0000      -0.504767       -13.7354
  29   2.0000      -0.495425       -13.4812
  30   2.0000      -0.450927       -12.2703
  31   2.0000      -0.428726       -11.6662
  32   2.0000      -0.425999       -11.5920
  33   2.0000      -0.399926       -10.8825
  34   0.0000       0.114425         3.1137
  35   0.0000       0.127965         3.4821
  36   0.0000       0.140370         3.8197
  37   0.0000       0.159859         4.3500
  38   0.0000       0.172710         4.6997

MULLIKEN ATOMIC CHARGES
-----------------------
   0 C :   -0.393047
   1 C :    0.191315
   2 N :   -0.349371
   3 O :   -0.282355
   4 C :    0.457631
   5 O :   -0.315831
   6 N :   -0.301656
   7 C :    0.031149
   8 N :   -0.335640
   9 H :    0.160316
  10 H :    0.143866
  11 H :    0.143906
  12 H :    0.259351
  13 H :    0.258696
  14 H :    0.106318
  15 H :    0.225353
Sum of atomic charges:    0.0000000

LOEWDIN ATOMIC CHARGES
----------------------
   0 C :   -0.268239
   1 C :   -0.387476
   2 N :   -0.016492
   3 O :    0.256791
   4 C :   -0.524931
   5 O :    0.140570
   6 N :    0.124648
   7 C :   -0.336375
   8 N :   -0.061013
   9 H :    0.140219
  10 H :    0.135241
  11 H :    0.135297
  12 H :    0.172816
  13 H :    0.200830
  14 H :    0.118958
  15 H :    0.169158

  Mayer bond orders larger than 0.1
B(  0-C ,  1-C ) :   0.9170 B(  0-C ,  9-H ) :   0.9424 B(  0-C , 10-H ) :   0.9241
B(  0-C , 11-H ) :   0.9241 B(  1-C ,  2-N ) :   2.0339 B(  1-C ,  3-O ) :   0.9076
B(  2-N , 12-H ) :   0.8440 B(  3-O ,  4-C ) :   1.0089 B(  4-C ,  5-O ) :   1.9081
B(  4-C ,  6-N ) :   1.0777 B(  6-N ,  7-C ) :   0.9933 B(  6-N , 13-H ) :   0.8645
B(  7-C ,  8-N ) :   1.9747 B(  7-C , 14-H ) :   0.9186 B(  8-N , 15-H ) :   0.8530

MP2 TOTAL ENERGY:     -470.491749549 Eh
FINAL SINGLE POINT ENERGY      -470.491749549482

DIPOLE MOMENT
-------------
                                X             Y             Z
Electronic contribution:      1.10200      -3.96144       1.26717
Nuclear contribution   :     -3.34222       4.25137      -1.15927
                        -----------------------------------------
Total Dipole Moment    :     -2.24022       0.28993       0.10791
                        -----------------------------------------
Magnitude (a.u.)       :      2.26148
Magnitude (Debye)      :      5.74823

                             ****ORCA TERMINATED NORMALLY****
TOTAL RUN TIME: 0 days 0 hours 13 minutes 21 seconds 480 msec
