                         Program Version 3.0.3 - RELEASE   -
|  1> ! RI-MP2 RIJK def2-TZVP def2-TZVP/C def2-TZVP/JK TIGHTSCF
|  2> % maxcore 2000
|  3> % mp2 density relaxed end
|  4> *xyz 0 1
|  5>  C        0.0102568726     1.3975122455    -0.2653550893
|  6>  C        1.3408301932     0.8212095981     0.0585442887
|  7>  N        0.1525416861    -0.0246878754     0.0391565264
|  8>  C       -0.3056034374    -0.5479646381     1.3135989276
|  9>  C       -1.2896886066     0.2212987224     2.2667413518
| 10>  C       -2.4237137160    -0.0875324483     1.2387517162
| 11>  C       -1.6045750655    -1.4059155636     1.3588995465
| 12>  C       -1.5971917339    -1.1675762024     2.8953316919
| 13>  H       -0.4418987729     2.0424194851     0.4844830943
| 14>  H       -0.2593453591     1.6345737246    -1.2912820794
| 15>  H        2.0711215662     0.6290109585    -0.7231276986
| 16>  H        1.7681569295     1.0807831863     1.0265200119
| 17>  H        0.5475836102    -1.0143645284     1.8185855025
| 18>  H       -1.1171698115     1.1551929259     2.8052598626
| 19>  H       -3.4399604255    -0.1123449595     1.6425589669
| 20>  H       -2.3949854327     0.4284357288     0.2789407340
| 21>  H       -1.7819770261    -2.3456302740     0.8345653462
| 22>  H       -0.7964248954    -1.6417084480     3.4703504157
| 23>  H       -2.5620092051    -1.2585680074     3.3995301739
| 24> *
| 25>
| 26>                          ****END OF INPUT****

CARTESIAN COORDINATES (ANGSTROEM)
---------------------------------
  C      0.010257    1.397512   -0.265355
  C      1.340830    0.821210    0.058544
  N      0.152542   -0.024688    0.039157
  C     -0.305603   -0.547965    1.313599
  C     -1.289689    0.221299    2.266741
  C     -2.423714   -0.087532    1.238752
  C     -1.604575   -1.405916    1.358900
  C     -1.597192   -1.167576    2.895332
  H     -0.441899    2.042419    0.484483
  H     -0.259345    1.634574   -1.291282
  H      2.071122    0.629011   -0.723128
  H      1.768157    1.080783    1.026520
  H      0.547584   -1.014365    1.818586
  H     -1.117170    1.155193    2.805260
  H     -3.439960   -0.112345    1.642559
  H     -2.394985    0.428436    0.278941
  H     -1.781977   -2.345630    0.834565
  H     -0.796425   -1.641708    3.470350
  H     -2.562009   -1.258568    3.399530

 Total Charge           Charge          ....    0
 Multiplicity           Mult            ....    1
 Number of Electrons    NEL             ....   60
 Basis Dimension        Dim             ....  314

ORBITAL ENERGIES
----------------

  NO   OCC          E(Eh)            E(eV)
   0   2.0000     -15.553896      -423.2430
   1   2.0000     -11.259936      -306.3984
   2   2.0000     -11.252827      -306.2050
   3   2.0000     -11.251174      -306.1600
   4   2.0000     -11.240948      -305.8818
   5   2.0000     -11.235207      -305.7255
   6   2.0000     -11.225963      -305.4740
   7   2.0000     -11.223538      -305.4080
   8   2.0000      -1.273913       -34.6649
   9   2.0000      -1.196724       -32.5645
  10   2.0000      -0.959922       -26.1208
  11   2.0000      -0.903438       -24.5838
  12   2.0000      -0.853545       -23.2261
  13   2.0000      -0.838859       -22.8265
  14   2.0000      -0.823787       -22.4164
  15   2.0000      -0.726688       -19.7742
  16   2.0000      -0.675951       -18.3936
  17   2.0000      -0.663220       -18.0471
  18   2.0000      -0.641459       -17.4550
  19   2.0000      -0.621599       -16.9146
  20   2.0000      -0.536652       -14.6030
  21   2.0000      -0.525026       -14.2867
  22   2.0000      -0.502641       -13.6776
  23   2.0000      -0.480436       -13.0733
  24   2.0000      -0.476190       -12.9578
  25   2.0000      -0.454100       -12.3567
  26   2.0000      -0.438685       -11.9372
  27   2.0000      -0.435787       -11.8584
  28   2.0000      -0.424790       -11.5591
  29   2.0000      -0.357246        -9.7212
  30   0.0000       0.146775         3.9940
  31   0.0000       0.159937         4.3521
  32   0.0000       0.162868         4.4319
  33   0.0000       0.178118         4.8468
  34   0.0000       0.194048         5.2803

MULLIKEN ATOMIC CHARGES
-----------------------
   0 C :   -0.189323
   1 C :   -0.170418
   2 N :   -0.232905
   3 C :   -0.026123
   4 C :   -0.164946
   5 C :   -0.221791
   6 C :   -0.101304
   7 C :   -0.224328
   8 H :    0.130986
   9 H :    0.126811
  10 H :    0.130865
  11 H :    0.120170
  12 H :    0.095082
  13 H :    0.131718
  14 H :    0.108998
  15 H :    0.128986
  16 H :    0.130934
  17 H :    0.111170
  18 H :    0.115416
Sum of atomic charges:   -0.0000000

LOEWDIN ATOMIC CHARGES
----------------------
   0 C :   -0.267541
   1 C :   -0.266296
   2 N :    0.115531
   3 C :   -0.233487
   4 C :   -0.180651
   5 C :   -0.196411
   6 C :   -0.165014
   7 C :   -0.201197
   8 H :    0.124982
   9 H :    0.123247
  10 H :    0.123188
  11 H :    0.122624
  12 H :    0.143022
  13 H :    0.121314
  14 H :    0.126550
  15 H :    0.129454
  16 H :    0.124371
  17 H :    0.126825
  18 H :    0.129488

  Mayer bond orders larger than 0.1
B(  0-C ,  1-C ) :   0.9497 B(  0-C ,  2-N ) :   0.8804 B(  0-C ,  8-H ) :   0.9235
B(  0-C ,  9-H ) :   0.9281 B(  1-C ,  2-N ) :   0.8777 B(  1-C , 10-H ) :   0.9258
B(  1-C , 11-H ) :   0.9223 B(  2-N ,  3-C ) :   0.9265 B(  3-C ,  4-C ) :   0.8854
B(  3-C ,  6-C ) :   0.8781 B(  3-C , 12-H ) :   0.9463 B(  4-C ,  5-C ) :   0.9136
B(  4-C ,  7-C ) :   0.9137 B(  4-C , 13-H ) :   0.8947 B(  5-C ,  6-C ) :   0.9160
B(  5-C , 14-H ) :   0.9314 B(  5-C , 15-H ) :   0.9200 B(  6-C ,  7-C ) :   0.8994
B(  6-C , 16-H ) :   0.8911 B(  7-C , 17-H ) :   0.9317 B(  7-C , 18-H ) :   0.9261

MP2 TOTAL ENERGY:     -327.244539549 Eh
FINAL SINGLE POINT ENERGY      -327.244539548869

DIPOLE MOMENT
-------------
                                X             Y             Z
Electronic contribution:      0.68623      -1.06759      -1.15327
Nuclear contribution   :     -0.61899       1.40996       1.46202
                        -----------------------------------------
Total Dipole Moment    :      0.06724       0.34238       0.30876
                        -----------------------------------------
Magnitude (a.u.)       :      0.46591
Magnitude (Debye)      :      1.18426

                             ****ORCA TERMINATED NORMALLY****
TOTAL RUN TIME: 0 days 0 hours 12 minutes 53 seconds 873 msec
