                         Program Version 3.0.3 - RELEASE   -
|  1> ! RI-MP2 RIJK def2-TZVP def2-TZVP/C def2-TZVP/JK TIGHTSCF
|  2> % maxcore 2000
|  3> % mp2 density relaxed end
|  4> *xyz 0 1
|  5>  N       -0.0549848858     1.3578349725     0.1305647047
|  6>  C        0.0036579897    -0.0231692886     0.0626533510
|  7>  N       -1.0853258736    -0.7708551547     0.0498967257
|  8>  N       -0.5996520605    -2.0623020963     0.0346295223
|  9>  C        0.7448693049    -2.1222542386     0.0418932270
| 10>  N        1.4558247901    -3.3087595379     0.1036090565
| 11>  C        1.2047916410    -0.8053664573     0.0470914403
| 12>  C        2.5415869300    -0.3734215651     0.0148878117
| 13>  C        3.6904012731    -0.0032887108    -0.0292286864
| 14>  H        0.7297425791     1.8200749170    -0.3063545317
| 15>  H       -0.9416215004     1.7319993620    -0.1776274307
| 16>  H       -1.2458647086    -2.8225334143     0.1499906633
| 17>  H        1.1178727675    -4.0350958794    -0.5146540278
| 18>  H        2.4466357444    -3.1553475659    -0.0346984243
| 19>  H        4.6988579991     0.3269860174    -0.0398650014
| 20> *
| 21>
| 22>                          ****END OF INPUT****

CARTESIAN COORDINATES (ANGSTROEM)
---------------------------------
  N     -0.054985    1.357835    0.130565
  C      0.003658   -0.023169    0.062653
  N     -1.085326   -0.770855    0.049897
  N     -0.599652   -2.062302    0.034630
  C      0.744869   -2.122254    0.041893
  N      1.455825   -3.308760    0.103609
  C      1.204792   -0.805366    0.047091
  C      2.541587   -0.373422    0.014888
  C      3.690401   -0.003289   -0.029229
  H      0.729743    1.820075   -0.306355
  H     -0.941622    1.731999   -0.177627
  H     -1.245865   -2.822533    0.149991
  H      1.117873   -4.035096   -0.514654
  H      2.446636   -3.155348   -0.034698
  H      4.698858    0.326986   -0.039865

 Total Charge           Charge          ....    0
 Multiplicity           Mult            ....    1
 Number of Electrons    NEL             ....   64
 Basis Dimension        Dim             ....  315

ORBITAL ENERGIES
----------------

  NO   OCC          E(Eh)            E(eV)
   0   2.0000     -15.623796      -425.1451
   1   2.0000     -15.593635      -424.3244
   2   2.0000     -15.561977      -423.4629
   3   2.0000     -15.559751      -423.4023
   4   2.0000     -11.333754      -308.4071
   5   2.0000     -11.299750      -307.4818
   6   2.0000     -11.240072      -305.8579
   7   2.0000     -11.228962      -305.5556
   8   2.0000     -11.222024      -305.3668
   9   2.0000      -1.368994       -37.2522
  10   2.0000      -1.243459       -33.8362
  11   2.0000      -1.209155       -32.9028
  12   2.0000      -1.076812       -29.3015
  13   2.0000      -1.062806       -28.9204
  14   2.0000      -0.998247       -27.1637
  15   2.0000      -0.848187       -23.0803
  16   2.0000      -0.802566       -21.8389
  17   2.0000      -0.760533       -20.6951
  18   2.0000      -0.725472       -19.7411
  19   2.0000      -0.690864       -18.7994
  20   2.0000      -0.687475       -18.7071
  21   2.0000      -0.634658       -17.2699
  22   2.0000      -0.627018       -17.0620
  23   2.0000      -0.618697       -16.8356
  24   2.0000      -0.591677       -16.1004
  25   2.0000      -0.510700       -13.8968
  26   2.0000      -0.472366       -12.8537
  27   2.0000      -0.459454       -12.5024
  28   2.0000      -0.440044       -11.9742
  29   2.0000      -0.393037       -10.6951
  30   2.0000      -0.320908        -8.7323
  31   2.0000      -0.303971        -8.2715
  32   0.0000       0.118399         3.2218
  33   0.0000       0.144940         3.9440
  34   0.0000       0.151654         4.1267
  35   0.0000       0.157723         4.2919
  36   0.0000       0.164363         4.4725

MULLIKEN ATOMIC CHARGES
-----------------------
   0 N :   -0.516481
   1 C :    0.155641
   2 N :   -0.246454
   3 N :   -0.161653
   4 C :    0.167513
   5 N :   -0.516517
   6 C :   -0.133029
   7 C :   -0.020170
   8 C :   -0.200480
   9 H :    0.256546
  10 H :    0.252254
  11 H :    0.251928
  12 H :    0.254100
  13 H :    0.267896
  14 H :    0.188906
Sum of atomic charges:   -0.0000000

LOEWDIN ATOMIC CHARGES
----------------------
   0 N :   -0.065248
   1 C :   -0.351687
   2 N :    0.014571
   3 N :    0.133144
   4 C :   -0.303164
   5 N :   -0.065289
   6 C :   -0.176785
   7 C :   -0.095723
   8 C :   -0.101952
   9 H :    0.173629
  10 H :    0.172041
  11 H :    0.186096
  12 H :    0.171374
  13 H :    0.182911
  14 H :    0.126082

  Mayer bond orders larger than 0.1
B(  0-N ,  1-C ) :   1.0778 B(  0-N ,  9-H ) :   0.8671 B(  0-N , 10-H ) :   0.8732
B(  1-C ,  2-N ) :   1.6463 B(  1-C ,  6-C ) :   1.1854 B(  2-N ,  3-N ) :   0.9691
B(  2-N ,  4-C ) :   0.1037 B(  3-N ,  4-C ) :   1.2693 B(  3-N , 11-H ) :   0.8712
B(  4-C ,  5-N ) :   1.0777 B(  4-C ,  6-C ) :   1.3193 B(  5-N , 12-H ) :   0.8695
B(  5-N , 13-H ) :   0.8671 B(  6-C ,  7-C ) :   1.1807 B(  6-C ,  8-C ) :  -0.1078
B(  7-C ,  8-C ) :   2.6332 B(  8-C , 14-H ) :   0.8746

MP2 TOTAL ENERGY:     -412.266932549 Eh
FINAL SINGLE POINT ENERGY      -412.266932548769

DIPOLE MOMENT
-------------
                                X             Y             Z
Electronic contribution:     -1.33935      -0.27578       0.32577
Nuclear contribution   :      1.70100      -0.54504      -1.10418
                        -----------------------------------------
Total Dipole Moment    :      0.36165      -0.82082      -0.77840
                        -----------------------------------------
Magnitude (a.u.)       :      1.18762
Magnitude (Debye)      :      3.01870

                             ****ORCA TERMINATED NORMALLY****
TOTAL RUN TIME: 0 days 0 hours 17 minutes 47 seconds 203 msec
