                         Program Version 3.0.3 - RELEASE   -
|  1> ! RI-MP2 RIJK def2-TZVP def2-TZVP/C def2-TZVP/JK TIGHTSCF
|  2> % maxcore 2000
|  3> % mp2 density relaxed end
|  4> *xyz 0 1
|  5>  C       -0.0880241560     1.5437969367    -0.0498885762
|  6>  C       -0.0052113396     0.0293156143    -0.0314626565
|  7>  O       -1.2771988761    -0.5350662118    -0.3339788354
|  8>  C        1.2629306358    -0.6741676459    -0.6340207135
|  9>  N        2.0019249604    -0.1157446700     0.5658747644
| 10>  C        0.7217797360    -0.6915391477     1.1407406824
| 11>  C        0.9299516329    -1.9513354692     0.2200949699
| 12>  O       -0.0565891973    -2.8716915998    -0.0934104230
| 13>  H        0.8702776933     1.9860255757     0.2191717759
| 14>  H       -0.3642658686     1.8981878001    -1.0518723572
| 15>  H       -0.8577288571     1.8857305256     0.6492513172
| 16>  H       -1.6270809172    -0.0852540658    -1.1101108741
| 17>  H        1.6685305339    -0.5958230224    -1.6452244829
| 18>  H        2.7771571061    -0.7436007593     0.7974418961
| 19>  H        0.4913926899    -0.6345252017     2.2063339669
| 20>  H        1.8277013656    -2.5185703980     0.4893891147
| 21>  H       -0.8498746421    -2.3584218807    -0.3043311087
| 22> *
| 23>
| 24>                          ****END OF INPUT****

CARTESIAN COORDINATES (ANGSTROEM)
---------------------------------
  C     -0.088024    1.543797   -0.049889
  C     -0.005211    0.029316   -0.031463
  O     -1.277199   -0.535066   -0.333979
  C      1.262931   -0.674168   -0.634021
  N      2.001925   -0.115745    0.565875
  C      0.721780   -0.691539    1.140741
  C      0.929952   -1.951335    0.220095
  O     -0.056589   -2.871692   -0.093410
  H      0.870278    1.986026    0.219172
  H     -0.364266    1.898188   -1.051872
  H     -0.857729    1.885731    0.649251
  H     -1.627081   -0.085254   -1.110111
  H      1.668531   -0.595823   -1.645224
  H      2.777157   -0.743601    0.797442
  H      0.491393   -0.634525    2.206334
  H      1.827701   -2.518570    0.489389
  H     -0.849875   -2.358422   -0.304331

 Total Charge           Charge          ....    0
 Multiplicity           Mult            ....    1
 Number of Electrons    NEL             ....   62
 Basis Dimension        Dim             ....  302

ORBITAL ENERGIES
----------------

  NO   OCC          E(Eh)            E(eV)
   0   2.0000     -20.580833      -560.0329
   1   2.0000     -20.546158      -559.0894
   2   2.0000     -15.560831      -423.4318
   3   2.0000     -11.307378      -307.6894
   4   2.0000     -11.292734      -307.2909
   5   2.0000     -11.274088      -306.7835
   6   2.0000     -11.273666      -306.7720
   7   2.0000     -11.221216      -305.3448
   8   2.0000      -1.399484       -38.0819
   9   2.0000      -1.359246       -36.9870
  10   2.0000      -1.278292       -34.7841
  11   2.0000      -1.017809       -27.6960
  12   2.0000      -0.969346       -26.3772
  13   2.0000      -0.883622       -24.0446
  14   2.0000      -0.871017       -23.7016
  15   2.0000      -0.760092       -20.6832
  16   2.0000      -0.721201       -19.6249
  17   2.0000      -0.696926       -18.9643
  18   2.0000      -0.652961       -17.7680
  19   2.0000      -0.627193       -17.0668
  20   2.0000      -0.592745       -16.1294
  21   2.0000      -0.580251       -15.7894
  22   2.0000      -0.572084       -15.5672
  23   2.0000      -0.549917       -14.9640
  24   2.0000      -0.532885       -14.5005
  25   2.0000      -0.520310       -14.1584
  26   2.0000      -0.493849       -13.4383
  27   2.0000      -0.462164       -12.5761
  28   2.0000      -0.428307       -11.6548
  29   2.0000      -0.408385       -11.1127
  30   2.0000      -0.395321       -10.7572
  31   0.0000       0.123953         3.3729
  32   0.0000       0.149708         4.0738
  33   0.0000       0.168968         4.5979
  34   0.0000       0.183634         4.9969
  35   0.0000       0.188633         5.1330

MULLIKEN ATOMIC CHARGES
-----------------------
   0 C :   -0.469195
   1 C :    0.217763
   2 O :   -0.516786
   3 C :   -0.101544
   4 N :   -0.333640
   5 C :   -0.085075
   6 C :    0.079860
   7 O :   -0.467396
   8 H :    0.172065
   9 H :    0.119469
  10 H :    0.144788
  11 H :    0.330089
  12 H :    0.135898
  13 H :    0.198999
  14 H :    0.133445
  15 H :    0.100466
  16 H :    0.340794
Sum of atomic charges:    0.0000000

LOEWDIN ATOMIC CHARGES
----------------------
   0 C :   -0.282656
   1 C :   -0.338302
   2 O :    0.005789
   3 C :   -0.189096
   4 N :    0.013965
   5 C :   -0.178657
   6 C :   -0.317275
   7 O :   -0.004156
   8 H :    0.140133
   9 H :    0.123725
  10 H :    0.129909
  11 H :    0.181909
  12 H :    0.121789
  13 H :    0.159954
  14 H :    0.124683
  15 H :    0.135716
  16 H :    0.172571

  Mayer bond orders larger than 0.1
B(  0-C ,  1-C ) :   0.9176 B(  0-C ,  8-H ) :   0.9274 B(  0-C ,  9-H ) :   0.9197
B(  0-C , 10-H ) :   0.9404 B(  1-C ,  2-O ) :   0.8886 B(  1-C ,  3-C ) :   0.8371
B(  1-C ,  5-C ) :   0.8466 B(  2-O , 11-H ) :   0.8313 B(  3-C ,  4-N ) :   0.9362
B(  3-C ,  6-C ) :   0.8814 B(  3-C , 12-H ) :   0.8846 B(  4-N ,  5-C ) :   0.9393
B(  4-N , 13-H ) :   0.8727 B(  5-C ,  6-C ) :   0.8970 B(  5-C , 14-H ) :   0.8853
B(  6-C ,  7-O ) :   1.0464 B(  6-C , 15-H ) :   0.9659 B(  7-O , 16-H ) :   0.8013

MP2 TOTAL ENERGY:     -400.289876784 Eh
FINAL SINGLE POINT ENERGY      -400.289876784127

DIPOLE MOMENT
-------------
                                X             Y             Z
Electronic contribution:     -0.51266      -3.97123       0.03290
Nuclear contribution   :      0.40272       4.61724      -0.43826
                        -----------------------------------------
Total Dipole Moment    :     -0.10994       0.64601      -0.40536
                        -----------------------------------------
Magnitude (a.u.)       :      0.77054
Magnitude (Debye)      :      1.95856

                             ****ORCA TERMINATED NORMALLY****
TOTAL RUN TIME: 0 days 0 hours 11 minutes 42 seconds 682 msec
