                         Program Version 3.0.3 - RELEASE   -
|  1> ! RI-MP2 RIJK def2-TZVP def2-TZVP/C def2-TZVP/JK TIGHTSCF
|  2> % maxcore 2000
|  3> % mp2 density relaxed end
|  4> *xyz 0 1
|  5>  O       -0.0036789292    -0.1067531575     0.1376054389
|  6>  C        0.0359082639     1.0954321562     0.1034728113
|  7>  C        1.2972247172     1.9343160874     0.0786153666
|  8>  C        1.3373046919     2.8508652822    -1.2005979047
|  9>  C        2.0250738675     4.1366122999    -0.7072002847
| 10>  C        1.4050996728     5.5820491156    -0.6621614255
| 11>  C        1.6948214030     5.6153043904     0.8869697351
| 12>  C        1.7920227042     4.1112595959     0.7751153608
| 13>  C        1.3198835637     2.9543205926     1.2260693257
| 14>  H       -0.9015527925     1.7028549055     0.0823358310
| 15>  H        2.1457804422     1.2399711862     0.1099303775
| 16>  H        1.8365639250     2.3592697637    -2.0391730395
| 17>  H        0.3076157904     3.0709330062    -1.5113655260
| 18>  H        3.0831505091     4.1854052453    -0.9909783793
| 19>  H        1.8857145462     6.3518001434    -1.2698659860
| 20>  H        0.3316672613     5.5696667867    -0.8669469625
| 21>  H        2.6550237408     6.0974652353     1.0976756056
| 22>  H        0.9360530825     6.0306762496     1.5535277925
| 23>  H        0.9345487398     2.7327510453     2.2145024632
| 24> *
| 25>
| 26>                          ****END OF INPUT****

CARTESIAN COORDINATES (ANGSTROEM)
---------------------------------
  O     -0.003679   -0.106753    0.137605
  C      0.035908    1.095432    0.103473
  C      1.297225    1.934316    0.078615
  C      1.337305    2.850865   -1.200598
  C      2.025074    4.136612   -0.707200
  C      1.405100    5.582049   -0.662161
  C      1.694821    5.615304    0.886970
  C      1.792023    4.111260    0.775115
  C      1.319884    2.954321    1.226069
  H     -0.901553    1.702855    0.082336
  H      2.145780    1.239971    0.109930
  H      1.836564    2.359270   -2.039173
  H      0.307616    3.070933   -1.511366
  H      3.083151    4.185405   -0.990978
  H      1.885715    6.351800   -1.269866
  H      0.331667    5.569667   -0.866947
  H      2.655024    6.097465    1.097676
  H      0.936053    6.030676    1.553528
  H      0.934549    2.732751    2.214502

 Total Charge           Charge          ....    0
 Multiplicity           Mult            ....    1
 Number of Electrons    NEL             ....   66
 Basis Dimension        Dim             ....  339

ORBITAL ENERGIES
----------------

  NO   OCC          E(Eh)            E(eV)
   0   2.0000     -20.553679      -559.2940
   1   2.0000     -11.326147      -308.2001
   2   2.0000     -11.247292      -306.0544
   3   2.0000     -11.246716      -306.0387
   4   2.0000     -11.243366      -305.9475
   5   2.0000     -11.242170      -305.9150
   6   2.0000     -11.241666      -305.9013
   7   2.0000     -11.237207      -305.7799
   8   2.0000     -11.232705      -305.6574
   9   2.0000      -1.392362       -37.8881
  10   2.0000      -1.182761       -32.1846
  11   2.0000      -1.078300       -29.3420
  12   2.0000      -0.982231       -26.7279
  13   2.0000      -0.940903       -25.6033
  14   2.0000      -0.865251       -23.5447
  15   2.0000      -0.817892       -22.2560
  16   2.0000      -0.779465       -21.2103
  17   2.0000      -0.717570       -19.5261
  18   2.0000      -0.672910       -18.3108
  19   2.0000      -0.662350       -18.0235
  20   2.0000      -0.640200       -17.4207
  21   2.0000      -0.616995       -16.7893
  22   2.0000      -0.609182       -16.5767
  23   2.0000      -0.544748       -14.8234
  24   2.0000      -0.541368       -14.7314
  25   2.0000      -0.528213       -14.3734
  26   2.0000      -0.506208       -13.7746
  27   2.0000      -0.500599       -13.6220
  28   2.0000      -0.474802       -12.9200
  29   2.0000      -0.468813       -12.7571
  30   2.0000      -0.447340       -12.1727
  31   2.0000      -0.413677       -11.2567
  32   2.0000      -0.346989        -9.4421
  33   0.0000       0.117447         3.1959
  34   0.0000       0.136537         3.7154
  35   0.0000       0.143358         3.9010
  36   0.0000       0.156188         4.2501
  37   0.0000       0.164439         4.4746

MULLIKEN ATOMIC CHARGES
-----------------------
   0 O :   -0.256726
   1 C :    0.047811
   2 C :    0.135033
   3 C :   -0.361755
   4 C :    0.016957
   5 C :   -0.245044
   6 C :   -0.181240
   7 C :   -0.035893
   8 C :   -0.307941
   9 H :    0.070819
  10 H :    0.105871
  11 H :    0.138219
  12 H :    0.127687
  13 H :    0.112075
  14 H :    0.121791
  15 H :    0.117087
  16 H :    0.129410
  17 H :    0.126612
  18 H :    0.139225
Sum of atomic charges:    0.0000000

LOEWDIN ATOMIC CHARGES
----------------------
   0 O :    0.134506
   1 C :   -0.281725
   2 C :   -0.211810
   3 C :   -0.188891
   4 C :   -0.176527
   5 C :   -0.196595
   6 C :   -0.193625
   7 C :   -0.142007
   8 C :   -0.119248
   9 H :    0.111172
  10 H :    0.156738
  11 H :    0.135944
  12 H :    0.143168
  13 H :    0.154218
  14 H :    0.124119
  15 H :    0.134737
  16 H :    0.143237
  17 H :    0.131533
  18 H :    0.141055

  Mayer bond orders larger than 0.1
B(  0-O ,  1-C ) :   2.0006 B(  1-C ,  2-C ) :   0.8394 B(  1-C ,  9-H ) :   0.9348
B(  2-C ,  3-C ) :   0.9009 B(  2-C ,  8-C ) :   0.8598 B(  2-C , 10-H ) :   0.8932
B(  3-C ,  4-C ) :   0.8940 B(  3-C , 11-H ) :   0.9267 B(  3-C , 12-H ) :   0.9249
B(  4-C ,  5-C ) :   0.9093 B(  4-C ,  7-C ) :   0.9137 B(  4-C , 13-H ) :   0.9027
B(  5-C ,  6-C ) :   0.9414 B(  5-C , 14-H ) :   0.9264 B(  5-C , 15-H ) :   0.9142
B(  6-C ,  7-C ) :   0.9079 B(  6-C , 16-H ) :   0.9142 B(  6-C , 17-H ) :   0.9159
B(  7-C ,  8-C ) :   1.7589 B(  8-C , 18-H ) :   0.9194

MP2 TOTAL ENERGY:     -385.194938745 Eh
FINAL SINGLE POINT ENERGY      -385.194938745229

DIPOLE MOMENT
-------------
                                X             Y             Z
Electronic contribution:     -1.05216      -6.54173       1.86472
Nuclear contribution   :      1.30096       7.86210      -2.02403
                        -----------------------------------------
Total Dipole Moment    :      0.24880       1.32037      -0.15931
                        -----------------------------------------
Magnitude (a.u.)       :      1.35301
Magnitude (Debye)      :      3.43909

                             ****ORCA TERMINATED NORMALLY****
TOTAL RUN TIME: 0 days 0 hours 17 minutes 29 seconds 174 msec
