                         Program Version 3.0.3 - RELEASE   -
|  1> ! RI-MP2 RIJK def2-TZVP def2-TZVP/C def2-TZVP/JK TIGHTSCF
|  2> % maxcore 2000
|  3> % mp2 density relaxed end
|  4> *xyz 0 1
|  5>  C        0.9070928195     0.7077657179     0.7793404060
|  6>  C       -0.2104195296     0.0130666498     0.0485425674
|  7>  O       -1.3171862583    -0.1184164520     0.5332470237
|  8>  C        0.0307969688    -0.5740167613    -1.3323026388
|  9>  C       -0.3322898613    -2.0362682102    -1.4309380120
| 10>  N       -1.1820994738    -1.0256110328    -2.0346603874
| 11>  C        1.1588921718    -0.0649350776    -2.2083545316
| 12>  N        0.8692356760    -0.0980954607    -3.5320198421
| 13>  O        2.2262905764     0.3057607819    -1.7512092869
| 14>  H        1.7795072166     0.0536265138     0.8538036413
| 15>  H        1.2478643345     1.5778019335     0.2114923960
| 16>  H        0.5511450482     1.0041841526     1.7666982283
| 17>  H        0.2259290016    -2.6600384585    -2.1229332542
| 18>  H       -0.6672176855    -2.5178478597    -0.5166424618
| 19>  H       -1.9654847118    -0.8330168057    -1.4079225838
| 20>  H       -0.0650037403    -0.3328880551    -3.8282138854
| 21>  H        1.5587271372     0.2334167541    -4.1851068187
| 22> *
| 23>
| 24>                          ****END OF INPUT****

CARTESIAN COORDINATES (ANGSTROEM)
---------------------------------
  C      0.907093    0.707766    0.779340
  C     -0.210420    0.013067    0.048543
  O     -1.317186   -0.118416    0.533247
  C      0.030797   -0.574017   -1.332303
  C     -0.332290   -2.036268   -1.430938
  N     -1.182099   -1.025611   -2.034660
  C      1.158892   -0.064935   -2.208355
  N      0.869236   -0.098095   -3.532020
  O      2.226291    0.305761   -1.751209
  H      1.779507    0.053627    0.853804
  H      1.247864    1.577802    0.211492
  H      0.551145    1.004184    1.766698
  H      0.225929   -2.660038   -2.122933
  H     -0.667218   -2.517848   -0.516642
  H     -1.965485   -0.833017   -1.407923
  H     -0.065004   -0.332888   -3.828214
  H      1.558727    0.233417   -4.185107

 Total Charge           Charge          ....    0
 Multiplicity           Mult            ....    1
 Number of Electrons    NEL             ....   68
 Basis Dimension        Dim             ....  327

ORBITAL ENERGIES
----------------

  NO   OCC          E(Eh)            E(eV)
   0   2.0000     -20.557949      -559.4102
   1   2.0000     -20.527488      -558.5813
   2   2.0000     -15.588750      -424.1914
   3   2.0000     -15.586885      -424.1407
   4   2.0000     -11.366598      -309.3008
   5   2.0000     -11.350738      -308.8693
   6   2.0000     -11.297886      -307.4311
   7   2.0000     -11.293883      -307.3222
   8   2.0000     -11.231038      -305.6121
   9   2.0000      -1.408352       -38.3232
  10   2.0000      -1.392614       -37.8950
  11   2.0000      -1.298162       -35.3248
  12   2.0000      -1.216264       -33.0962
  13   2.0000      -1.029402       -28.0114
  14   2.0000      -0.951408       -25.8891
  15   2.0000      -0.900320       -24.4990
  16   2.0000      -0.839104       -22.8332
  17   2.0000      -0.768679       -20.9168
  18   2.0000      -0.721928       -19.6447
  19   2.0000      -0.712896       -19.3989
  20   2.0000      -0.683821       -18.6077
  21   2.0000      -0.635054       -17.2807
  22   2.0000      -0.624768       -17.0008
  23   2.0000      -0.607233       -16.5236
  24   2.0000      -0.602573       -16.3969
  25   2.0000      -0.580621       -15.7995
  26   2.0000      -0.569699       -15.5023
  27   2.0000      -0.524460       -14.2713
  28   2.0000      -0.513354       -13.9691
  29   2.0000      -0.499036       -13.5795
  30   2.0000      -0.447818       -12.1857
  31   2.0000      -0.431075       -11.7301
  32   2.0000      -0.423174       -11.5151
  33   2.0000      -0.414548       -11.2804
  34   0.0000       0.120069         3.2672
  35   0.0000       0.139038         3.7834
  36   0.0000       0.154266         4.1978
  37   0.0000       0.165143         4.4938
  38   0.0000       0.175463         4.7746

MULLIKEN ATOMIC CHARGES
-----------------------
   0 C :   -0.353789
   1 C :    0.188293
   2 O :   -0.326048
   3 C :    0.102527
   4 C :   -0.156905
   5 N :   -0.406754
   6 C :    0.241028
   7 N :   -0.470053
   8 O :   -0.362648
   9 H :    0.151218
  10 H :    0.158435
  11 H :    0.148340
  12 H :    0.142809
  13 H :    0.152396
  14 H :    0.246022
  15 H :    0.289289
  16 H :    0.255839
Sum of atomic charges:    0.0000000

LOEWDIN ATOMIC CHARGES
----------------------
   0 C :   -0.267331
   1 C :   -0.307203
   2 O :    0.138863
   3 C :   -0.236307
   4 C :   -0.213540
   5 N :    0.020802
   6 C :   -0.452359
   7 N :    0.006328
   8 O :    0.084311
   9 H :    0.145285
  10 H :    0.146738
  11 H :    0.132397
  12 H :    0.132958
  13 H :    0.134012
  14 H :    0.180205
  15 H :    0.180443
  16 H :    0.174398

  Mayer bond orders larger than 0.1
B(  0-C ,  1-C ) :   0.9579 B(  0-C ,  9-H ) :   0.9061 B(  0-C , 10-H ) :   0.9039
B(  0-C , 11-H ) :   0.9269 B(  1-C ,  2-O ) :   1.8763 B(  1-C ,  3-C ) :   0.9278
B(  3-C ,  4-C ) :   0.8686 B(  3-C ,  5-N ) :   0.8736 B(  3-C ,  6-C ) :   0.8506
B(  4-C ,  5-N ) :   0.9089 B(  4-C , 12-H ) :   0.9173 B(  4-C , 13-H ) :   0.9142
B(  5-N , 14-H ) :   0.8489 B(  6-C ,  7-N ) :   1.2300 B(  6-C ,  8-O ) :   1.9440
B(  7-N , 15-H ) :   0.8401 B(  7-N , 16-H ) :   0.8611

MP2 TOTAL ENERGY:     -454.443785328 Eh
FINAL SINGLE POINT ENERGY      -454.443785328133

DIPOLE MOMENT
-------------
                                X             Y             Z
Electronic contribution:     -0.78352       0.54180      -1.14569
Nuclear contribution   :      0.65638      -0.92418       0.51166
                        -----------------------------------------
Total Dipole Moment    :     -0.12714      -0.38238      -0.63404
                        -----------------------------------------
Magnitude (a.u.)       :      0.75125
Magnitude (Debye)      :      1.90954

                             ****ORCA TERMINATED NORMALLY****
TOTAL RUN TIME: 0 days 0 hours 18 minutes 32 seconds 342 msec
