                         Program Version 3.0.3 - RELEASE   -
|  1> ! RI-MP2 RIJK def2-TZVP def2-TZVP/C def2-TZVP/JK TIGHTSCF
|  2> % maxcore 2000
|  3> % mp2 density relaxed end
|  4> *xyz 0 1
|  5>  C        0.7201517083    -0.1589151592    -1.5925113445
|  6>  C        0.5120143170    -0.5367986144    -0.1237098464
|  7>  N       -0.8325740028    -1.0902325324     0.0764500580
|  8>  C       -1.8178540357    -0.5767720483     1.0529246164
|  9>  C       -2.5975845153    -1.9040494163     0.7686531972
| 10>  C       -1.1189195538    -2.4101320964     0.6796146460
| 11>  C       -0.7217575719    -2.2740749941     2.1841508190
| 12>  O        0.1760932804    -1.1922454729     2.4658742410
| 13>  C       -1.2337015120    -0.9311301097     2.4576117693
| 14>  H        1.7224702640     0.2551953237    -1.7492891974
| 15>  H        0.6048572479    -1.0335491872    -2.2406319841
| 16>  H       -0.0136908741     0.5883141358    -1.9110370602
| 17>  H        1.2695840965    -1.2626716116     0.1899392397
| 18>  H        0.6581920039     0.3401564641     0.5156369815
| 19>  H       -2.2422168757     0.4147290471     0.8925419824
| 20>  H       -3.2232626965    -2.3056778457     1.5696053136
| 21>  H       -3.1101959818    -1.9036826166    -0.1929217147
| 22>  H       -0.8233701287    -3.3071118524     0.1346778547
| 23>  H       -0.7229059109    -3.1054322744     2.8813456726
| 24>  H       -1.6774802087    -0.6014876791     3.3912305060
| 25> *
| 26>
| 27>                          ****END OF INPUT****

CARTESIAN COORDINATES (ANGSTROEM)
---------------------------------
  C      0.720152   -0.158915   -1.592511
  C      0.512014   -0.536799   -0.123710
  N     -0.832574   -1.090233    0.076450
  C     -1.817854   -0.576772    1.052925
  C     -2.597585   -1.904049    0.768653
  C     -1.118920   -2.410132    0.679615
  C     -0.721758   -2.274075    2.184151
  O      0.176093   -1.192245    2.465874
  C     -1.233702   -0.931130    2.457612
  H      1.722470    0.255195   -1.749289
  H      0.604857   -1.033549   -2.240632
  H     -0.013691    0.588314   -1.911037
  H      1.269584   -1.262672    0.189939
  H      0.658192    0.340156    0.515637
  H     -2.242217    0.414729    0.892542
  H     -3.223263   -2.305678    1.569605
  H     -3.110196   -1.903683   -0.192922
  H     -0.823370   -3.307112    0.134678
  H     -0.722906   -3.105432    2.881346
  H     -1.677480   -0.601488    3.391231

 Total Charge           Charge          ....    0
 Multiplicity           Mult            ....    1
 Number of Electrons    NEL             ....   68
 Basis Dimension        Dim             ....  345

ORBITAL ENERGIES
----------------

  NO   OCC          E(Eh)            E(eV)
   0   2.0000     -20.566033      -559.6302
   1   2.0000     -15.544750      -422.9942
   2   2.0000     -11.281656      -306.9895
   3   2.0000     -11.280816      -306.9666
   4   2.0000     -11.271885      -306.7236
   5   2.0000     -11.271876      -306.7233
   6   2.0000     -11.236024      -305.7477
   7   2.0000     -11.235930      -305.7452
   8   2.0000     -11.199787      -304.7617
   9   2.0000      -1.416262       -38.5384
  10   2.0000      -1.258353       -34.2415
  11   2.0000      -1.064200       -28.9584
  12   2.0000      -0.958143       -26.0724
  13   2.0000      -0.946902       -25.7665
  14   2.0000      -0.910458       -24.7748
  15   2.0000      -0.823565       -22.4104
  16   2.0000      -0.785329       -21.3699
  17   2.0000      -0.758654       -20.6440
  18   2.0000      -0.721751       -19.6398
  19   2.0000      -0.657536       -17.8925
  20   2.0000      -0.638662       -17.3789
  21   2.0000      -0.619494       -16.8573
  22   2.0000      -0.576024       -15.6744
  23   2.0000      -0.558086       -15.1863
  24   2.0000      -0.545799       -14.8519
  25   2.0000      -0.515682       -14.0324
  26   2.0000      -0.508376       -13.8336
  27   2.0000      -0.506302       -13.7772
  28   2.0000      -0.476419       -12.9640
  29   2.0000      -0.460237       -12.5237
  30   2.0000      -0.457975       -12.4621
  31   2.0000      -0.453848       -12.3498
  32   2.0000      -0.418666       -11.3925
  33   2.0000      -0.347080        -9.4445
  34   0.0000       0.141580         3.8526
  35   0.0000       0.147942         4.0257
  36   0.0000       0.166716         4.5366
  37   0.0000       0.179696         4.8898
  38   0.0000       0.188640         5.1332

MULLIKEN ATOMIC CHARGES
-----------------------
   0 C :   -0.348787
   1 C :   -0.155592
   2 N :   -0.156031
   3 C :   -0.018332
   4 C :   -0.232475
   5 C :   -0.018299
   6 C :   -0.037957
   7 O :   -0.329922
   8 C :   -0.037882
   9 H :    0.115411
  10 H :    0.116120
  11 H :    0.116123
  12 H :    0.114649
  13 H :    0.114616
  14 H :    0.135966
  15 H :    0.118241
  16 H :    0.120107
  17 H :    0.135965
  18 H :    0.124042
  19 H :    0.124038
Sum of atomic charges:    0.0000000

LOEWDIN ATOMIC CHARGES
----------------------
   0 C :   -0.325542
   1 C :   -0.316189
   2 N :    0.153961
   3 C :   -0.211945
   4 C :   -0.186688
   5 C :   -0.211939
   6 C :   -0.245381
   7 O :    0.179313
   8 C :   -0.245404
   9 H :    0.117465
  10 H :    0.117917
  11 H :    0.117916
  12 H :    0.131896
  13 H :    0.131902
  14 H :    0.131717
  15 H :    0.128218
  16 H :    0.134309
  17 H :    0.131718
  18 H :    0.133379
  19 H :    0.133378

  Mayer bond orders larger than 0.1
B(  0-C ,  1-C ) :   0.9272 B(  0-C ,  9-H ) :   0.9380 B(  0-C , 10-H ) :   0.9374
B(  0-C , 11-H ) :   0.9374 B(  1-C ,  2-N ) :   0.8573 B(  1-C , 12-H ) :   0.9304
B(  1-C , 13-H ) :   0.9304 B(  2-N ,  3-C ) :   0.9712 B(  2-N ,  5-C ) :   0.9712
B(  3-C ,  4-C ) :   0.9267 B(  3-C ,  8-C ) :   0.8667 B(  3-C , 14-H ) :   0.9033
B(  4-C ,  5-C ) :   0.9267 B(  4-C , 15-H ) :   0.9077 B(  4-C , 16-H ) :   0.9093
B(  5-C ,  6-C ) :   0.8668 B(  5-C , 17-H ) :   0.9032 B(  6-C ,  7-O ) :   0.9335
B(  6-C ,  8-C ) :   0.9618 B(  6-C , 18-H ) :   0.9321 B(  7-O ,  8-C ) :   0.9335
B(  8-C , 19-H ) :   0.9321

MP2 TOTAL ENERGY:     -402.387313866 Eh
FINAL SINGLE POINT ENERGY      -402.387313866445

DIPOLE MOMENT
-------------
                                X             Y             Z
Electronic contribution:     -1.05917      -1.60399       5.89709
Nuclear contribution   :      0.47619       1.34552      -5.71909
                        -----------------------------------------
Total Dipole Moment    :     -0.58298      -0.25847       0.17800
                        -----------------------------------------
Magnitude (a.u.)       :      0.66209
Magnitude (Debye)      :      1.68289

                             ****ORCA TERMINATED NORMALLY****
TOTAL RUN TIME: 0 days 0 hours 32 minutes 30 seconds 223 msec
