                         Program Version 3.0.3 - RELEASE   -
|  1> ! RI-MP2 RIJK def2-TZVP def2-TZVP/C def2-TZVP/JK TIGHTSCF
|  2> % maxcore 2000
|  3> % mp2 density relaxed end
|  4> *xyz 0 1
|  5>  O       -0.0336551697     1.3883544117     0.1011748109
|  6>  C       -0.0107394071    -0.0034530717     0.0149165135
|  7>  C       -1.4098644680    -0.6160096777    -0.1988087463
|  8>  C       -1.1366961602    -2.0526184302    -0.6993468405
|  9>  C       -0.6015110856    -1.2439639445    -1.9080985482
| 10>  N       -1.6238340548    -0.1653543949    -1.6289268250
| 11>  C        0.6664230345    -0.5836756255    -1.3102447481
| 12>  C        1.2574000524     0.4342694444    -2.1646448614
| 13>  N        1.7306100834     1.2256214789    -2.8613569531
| 14>  H       -0.5520540597     1.6989441590    -0.6554926923
| 15>  H        0.4912851408    -0.3725834487     0.9111517230
| 16>  H       -2.1665444453    -0.3596045786     0.5416839064
| 17>  H       -0.4535160516    -2.7013571208    -0.1403464504
| 18>  H       -2.0580771721    -2.5887921804    -0.9383028266
| 19>  H       -0.5318110130    -1.6372278057    -2.9212155866
| 20>  H       -2.5335567699    -0.5023630416    -1.9421834794
| 21>  H        1.4294215759    -1.3316376240    -1.0782522758
| 22> *
| 23>
| 24>                          ****END OF INPUT****

CARTESIAN COORDINATES (ANGSTROEM)
---------------------------------
  O     -0.033655    1.388354    0.101175
  C     -0.010739   -0.003453    0.014917
  C     -1.409864   -0.616010   -0.198809
  C     -1.136696   -2.052618   -0.699347
  C     -0.601511   -1.243964   -1.908099
  N     -1.623834   -0.165354   -1.628927
  C      0.666423   -0.583676   -1.310245
  C      1.257400    0.434269   -2.164645
  N      1.730610    1.225621   -2.861357
  H     -0.552054    1.698944   -0.655493
  H      0.491285   -0.372583    0.911152
  H     -2.166544   -0.359605    0.541684
  H     -0.453516   -2.701357   -0.140346
  H     -2.058077   -2.588792   -0.938303
  H     -0.531811   -1.637228   -2.921216
  H     -2.533557   -0.502363   -1.942183
  H      1.429422   -1.331638   -1.078252

 Total Charge           Charge          ....    0
 Multiplicity           Mult            ....    1
 Number of Electrons    NEL             ....   66
 Basis Dimension        Dim             ....  327

ORBITAL ENERGIES
----------------

  NO   OCC          E(Eh)            E(eV)
   0   2.0000     -20.565344      -559.6115
   1   2.0000     -15.576497      -423.8580
   2   2.0000     -15.563014      -423.4911
   3   2.0000     -11.311161      -307.7923
   4   2.0000     -11.299570      -307.4769
   5   2.0000     -11.286913      -307.1325
   6   2.0000     -11.286231      -307.1140
   7   2.0000     -11.266781      -306.5847
   8   2.0000     -11.258250      -306.3525
   9   2.0000      -1.385174       -37.6925
  10   2.0000      -1.287714       -35.0405
  11   2.0000      -1.210852       -32.9489
  12   2.0000      -1.071158       -29.1477
  13   2.0000      -0.998345       -27.1664
  14   2.0000      -0.965919       -26.2840
  15   2.0000      -0.841306       -22.8931
  16   2.0000      -0.809377       -22.0243
  17   2.0000      -0.745356       -20.2822
  18   2.0000      -0.704651       -19.1745
  19   2.0000      -0.676281       -18.4025
  20   2.0000      -0.634579       -17.2678
  21   2.0000      -0.621815       -16.9205
  22   2.0000      -0.594888       -16.1877
  23   2.0000      -0.577543       -15.7157
  24   2.0000      -0.553284       -15.0556
  25   2.0000      -0.543464       -14.7884
  26   2.0000      -0.524669       -14.2770
  27   2.0000      -0.507338       -13.8054
  28   2.0000      -0.497342       -13.5334
  29   2.0000      -0.460572       -12.5328
  30   2.0000      -0.445577       -12.1248
  31   2.0000      -0.438646       -11.9362
  32   2.0000      -0.406975       -11.0744
  33   0.0000       0.116247         3.1632
  34   0.0000       0.138380         3.7655
  35   0.0000       0.150750         4.1021
  36   0.0000       0.162300         4.4164
  37   0.0000       0.175006         4.7621

MULLIKEN ATOMIC CHARGES
-----------------------
   0 O :   -0.447257
   1 C :    0.050050
   2 C :   -0.033619
   3 C :   -0.263178
   4 C :   -0.028737
   5 N :   -0.374402
   6 C :   -0.019805
   7 C :   -0.224999
   8 N :   -0.035320
   9 H :    0.340104
  10 H :    0.125365
  11 H :    0.140072
  12 H :    0.122838
  13 H :    0.135849
  14 H :    0.152652
  15 H :    0.211729
  16 H :    0.148659
Sum of atomic charges:   -0.0000000

LOEWDIN ATOMIC CHARGES
----------------------
   0 O :    0.018756
   1 C :   -0.286909
   2 C :   -0.237669
   3 C :   -0.205297
   4 C :   -0.212328
   5 N :    0.008559
   6 C :   -0.195601
   7 C :   -0.175176
   8 N :    0.066004
   9 H :    0.188299
  10 H :    0.144799
  11 H :    0.136224
  12 H :    0.130027
  13 H :    0.139231
  14 H :    0.138231
  15 H :    0.169438
  16 H :    0.173414

  Mayer bond orders larger than 0.1
B(  0-O ,  1-C ) :   1.0114 B(  0-O ,  9-H ) :   0.8107 B(  1-C ,  2-C ) :   0.9182
B(  1-C ,  6-C ) :   0.8542 B(  1-C , 10-H ) :   0.9342 B(  2-C ,  3-C ) :   0.9398
B(  2-C ,  5-N ) :   0.8888 B(  2-C , 11-H ) :   0.9198 B(  3-C ,  4-C ) :   0.9237
B(  3-C , 12-H ) :   0.9248 B(  3-C , 13-H ) :   0.9185 B(  4-C ,  5-N ) :   0.9444
B(  4-C ,  6-C ) :   0.8465 B(  4-C , 14-H ) :   0.9096 B(  5-N , 15-H ) :   0.8750
B(  6-C ,  7-C ) :   0.9687 B(  6-C , 16-H ) :   0.8969 B(  7-C ,  8-N ) :   2.8825

MP2 TOTAL ENERGY:     -417.297996341 Eh
FINAL SINGLE POINT ENERGY      -417.297996340782

DIPOLE MOMENT
-------------
                                X             Y             Z
Electronic contribution:      3.49921       4.14386      -2.16639
Nuclear contribution   :     -4.74900      -6.09588       2.80239
                        -----------------------------------------
Total Dipole Moment    :     -1.24979      -1.95202       0.63599
                        -----------------------------------------
Magnitude (a.u.)       :      2.40351
Magnitude (Debye)      :      6.10922

                             ****ORCA TERMINATED NORMALLY****
TOTAL RUN TIME: 0 days 0 hours 16 minutes 43 seconds 200 msec
