                         Program Version 3.0.3 - RELEASE   -
|  1> ! RI-MP2 RIJK def2-TZVP def2-TZVP/C def2-TZVP/JK TIGHTSCF
|  2> % maxcore 2000
|  3> % mp2 density relaxed end
|  4> *xyz 0 1
|  5>  C       -0.5143964948     1.4111195161     0.0370260725
|  6>  C        0.0508873726     0.0010111308    -0.0405749982
|  7>  C        1.3901028943    -0.1713899087    -0.8285233007
|  8>  N        2.0055261815    -0.6804315822     0.3969028017
|  9>  C        3.2562008470    -1.1351415058     0.6146877580
| 10>  O        4.1281517818    -1.1838120539    -0.2316045936
| 11>  C        0.8054155917    -0.5305462252     1.1984422625
| 12>  C        0.7446694312    -0.0492918335     2.6173285326
| 13>  C        0.3295228251    -1.4678158720     2.2649404548
| 14>  H        0.2453947302     2.1232813542     0.3749282343
| 15>  H       -0.8732107514     1.7386021941    -0.9443264945
| 16>  H       -1.3592134314     1.4646402533     0.7319964386
| 17>  H       -0.7162863949    -0.7001883812    -0.3804702588
| 18>  H        1.3796708824    -0.8971490572    -1.6467052353
| 19>  H        1.8408150725     0.7610281085    -1.1847043467
| 20>  H        3.4070157582    -1.4650530531     1.6633134669
| 21>  H        1.6817859599     0.0881291091     3.1467213707
| 22>  H       -0.0281141306     0.6643609354     2.8842424100
| 23>  H       -0.7267677967    -1.7177308740     2.2884376167
| 24>  H        0.9876180513    -2.2776217449     2.5624210386
| 25> *
| 26>
| 27>                          ****END OF INPUT****

CARTESIAN COORDINATES (ANGSTROEM)
---------------------------------
  C     -0.514396    1.411120    0.037026
  C      0.050887    0.001011   -0.040575
  C      1.390103   -0.171390   -0.828523
  N      2.005526   -0.680432    0.396903
  C      3.256201   -1.135142    0.614688
  O      4.128152   -1.183812   -0.231605
  C      0.805416   -0.530546    1.198442
  C      0.744669   -0.049292    2.617329
  C      0.329523   -1.467816    2.264940
  H      0.245395    2.123281    0.374928
  H     -0.873211    1.738602   -0.944326
  H     -1.359213    1.464640    0.731996
  H     -0.716286   -0.700188   -0.380470
  H      1.379671   -0.897149   -1.646705
  H      1.840815    0.761028   -1.184704
  H      3.407016   -1.465053    1.663313
  H      1.681786    0.088129    3.146721
  H     -0.028114    0.664361    2.884242
  H     -0.726768   -1.717731    2.288438
  H      0.987618   -2.277622    2.562421

 Total Charge           Charge          ....    0
 Multiplicity           Mult            ....    1
 Number of Electrons    NEL             ....   68
 Basis Dimension        Dim             ....  345

ORBITAL ENERGIES
----------------

  NO   OCC          E(Eh)            E(eV)
   0   2.0000     -20.513505      -558.2009
   1   2.0000     -15.584040      -424.0633
   2   2.0000     -11.341059      -308.6059
   3   2.0000     -11.290603      -307.2329
   4   2.0000     -11.269663      -306.6631
   5   2.0000     -11.252031      -306.1833
   6   2.0000     -11.241174      -305.8879
   7   2.0000     -11.240545      -305.8708
   8   2.0000     -11.230629      -305.6010
   9   2.0000      -1.374156       -37.3927
  10   2.0000      -1.279528       -34.8177
  11   2.0000      -1.136191       -30.9173
  12   2.0000      -1.065013       -28.9805
  13   2.0000      -0.959159       -26.1000
  14   2.0000      -0.878583       -23.9074
  15   2.0000      -0.845891       -23.0179
  16   2.0000      -0.811996       -22.0955
  17   2.0000      -0.734781       -19.9944
  18   2.0000      -0.707197       -19.2438
  19   2.0000      -0.678017       -18.4498
  20   2.0000      -0.657005       -17.8780
  21   2.0000      -0.626733       -17.0543
  22   2.0000      -0.591559       -16.0971
  23   2.0000      -0.586780       -15.9671
  24   2.0000      -0.565097       -15.3771
  25   2.0000      -0.544113       -14.8061
  26   2.0000      -0.530671       -14.4403
  27   2.0000      -0.521509       -14.1910
  28   2.0000      -0.504140       -13.7183
  29   2.0000      -0.495432       -13.4814
  30   2.0000      -0.467087       -12.7101
  31   2.0000      -0.426724       -11.6118
  32   2.0000      -0.418081       -11.3766
  33   2.0000      -0.351834        -9.5739
  34   0.0000       0.125675         3.4198
  35   0.0000       0.143764         3.9120
  36   0.0000       0.147906         4.0247
  37   0.0000       0.160650         4.3715
  38   0.0000       0.172799         4.7021

MULLIKEN ATOMIC CHARGES
-----------------------
   0 C :   -0.457842
   1 C :    0.041823
   2 C :   -0.175122
   3 N :   -0.021732
   4 C :    0.111726
   5 O :   -0.364826
   6 C :   -0.004210
   7 C :   -0.261614
   8 C :   -0.277462
   9 H :    0.144027
  10 H :    0.143989
  11 H :    0.132119
  12 H :    0.110924
  13 H :    0.125682
  14 H :    0.122997
  15 H :    0.073041
  16 H :    0.144712
  17 H :    0.134836
  18 H :    0.133659
  19 H :    0.143274
Sum of atomic charges:   -0.0000000

LOEWDIN ATOMIC CHARGES
----------------------
   0 C :   -0.292536
   1 C :   -0.202905
   2 C :   -0.179954
   3 N :    0.224882
   4 C :   -0.422831
   5 O :    0.051045
   6 C :   -0.225904
   7 C :   -0.202646
   8 C :   -0.203188
   9 H :    0.129330
  10 H :    0.128257
  11 H :    0.125558
  12 H :    0.150364
  13 H :    0.130746
  14 H :    0.132564
  15 H :    0.110519
  16 H :    0.137299
  17 H :    0.135965
  18 H :    0.136098
  19 H :    0.137337

  Mayer bond orders larger than 0.1
B(  0-C ,  1-C ) :   0.8815 B(  0-C ,  9-H ) :   0.9375 B(  0-C , 10-H ) :   0.9359
B(  0-C , 11-H ) :   0.9375 B(  1-C ,  2-C ) :   0.9212 B(  1-C ,  6-C ) :   0.8828
B(  1-C , 12-H ) :   0.9167 B(  2-C ,  3-N ) :   0.8909 B(  2-C , 13-H ) :   0.9188
B(  2-C , 14-H ) :   0.9128 B(  3-N ,  4-C ) :   1.1201 B(  3-N ,  6-C ) :   0.9213
B(  4-C ,  5-O ) :   1.9035 B(  4-C , 15-H ) :   0.9399 B(  6-C ,  7-C ) :   0.8524
B(  6-C ,  8-C ) :   0.8697 B(  7-C ,  8-C ) :   0.8903 B(  7-C , 16-H ) :   0.9222
B(  7-C , 17-H ) :   0.9178 B(  8-C , 18-H ) :   0.9208 B(  8-C , 19-H ) :   0.9213

MP2 TOTAL ENERGY:     -402.445054271 Eh
FINAL SINGLE POINT ENERGY      -402.445054271090

DIPOLE MOMENT
-------------
                                X             Y             Z
Electronic contribution:      7.08107      -3.69733      -1.56614
Nuclear contribution   :     -8.72817       4.07149       2.14599
                        -----------------------------------------
Total Dipole Moment    :     -1.64710       0.37417       0.57985
                        -----------------------------------------
Magnitude (a.u.)       :      1.78582
Magnitude (Debye)      :      4.53920

                             ****ORCA TERMINATED NORMALLY****
TOTAL RUN TIME: 0 days 0 hours 18 minutes 30 seconds 680 msec
