                         Program Version 3.0.3 - RELEASE   -
|  1> ! RI-MP2 RIJK def2-TZVP def2-TZVP/C def2-TZVP/JK TIGHTSCF
|  2> % maxcore 2000
|  3> % mp2 density relaxed end
|  4> *xyz 0 1
|  5>  C       -0.0235434974     1.4045677769     0.0282968647
|  6>  C        1.4142569406     1.9472578813     0.0140443792
|  7>  C        2.1708512454     1.2539500011    -1.0816630625
|  8>  C        3.3558191262     1.5608082515    -1.7104389745
|  9>  N        3.6051453645     0.5739334717    -2.6322237891
| 10>  C        2.6008198515    -0.3624931056    -2.6034119345
| 11>  C        1.6948108309     0.0344753357    -1.6477562371
| 12>  C        0.3906667808    -0.5682613455    -1.2083716958
| 13>  O       -0.0427133008    -0.0140946208     0.0270365601
| 14>  H       -0.5523857861     1.7148466024     0.9340999123
| 15>  H       -0.5798714368     1.7930063641    -0.8415403646
| 16>  H        1.3980224552     3.0357428657    -0.1194849243
| 17>  H        1.8741058552     1.7530107285     0.9919049142
| 18>  H        4.0384950590     2.3854633160    -1.5798048095
| 19>  H        4.4096611862     0.5362661345    -3.2323264875
| 20>  H        2.6181966776    -1.2165913185    -3.2616936034
| 21>  H       -0.3904932579    -0.4134755204    -1.9744679781
| 22>  H        0.4708412159    -1.6475267786    -1.0407569695
| 23> *
| 24>
| 25>                          ****END OF INPUT****

CARTESIAN COORDINATES (ANGSTROEM)
---------------------------------
  C     -0.023543    1.404568    0.028297
  C      1.414257    1.947258    0.014044
  C      2.170851    1.253950   -1.081663
  C      3.355819    1.560808   -1.710439
  N      3.605145    0.573933   -2.632224
  C      2.600820   -0.362493   -2.603412
  C      1.694811    0.034475   -1.647756
  C      0.390667   -0.568261   -1.208372
  O     -0.042713   -0.014095    0.027037
  H     -0.552386    1.714847    0.934100
  H     -0.579871    1.793006   -0.841540
  H      1.398022    3.035743   -0.119485
  H      1.874106    1.753011    0.991905
  H      4.038495    2.385463   -1.579805
  H      4.409661    0.536266   -3.232326
  H      2.618197   -1.216591   -3.261694
  H     -0.390493   -0.413476   -1.974468
  H      0.470841   -1.647527   -1.040757

 Total Charge           Charge          ....    0
 Multiplicity           Mult            ....    1
 Number of Electrons    NEL             ....   66
 Basis Dimension        Dim             ....  333

ORBITAL ENERGIES
----------------

  NO   OCC          E(Eh)            E(eV)
   0   2.0000     -20.545243      -559.0645
   1   2.0000     -15.601794      -424.5464
   2   2.0000     -11.271627      -306.7166
   3   2.0000     -11.267612      -306.6073
   4   2.0000     -11.248929      -306.0989
   5   2.0000     -11.247200      -306.0519
   6   2.0000     -11.221164      -305.3434
   7   2.0000     -11.211026      -305.0675
   8   2.0000     -11.209053      -305.0138
   9   2.0000      -1.366046       -37.1720
  10   2.0000      -1.287307       -35.0294
  11   2.0000      -1.073743       -29.2180
  12   2.0000      -1.030450       -28.0400
  13   2.0000      -0.965379       -26.2693
  14   2.0000      -0.911715       -24.8090
  15   2.0000      -0.836025       -22.7494
  16   2.0000      -0.778879       -21.1944
  17   2.0000      -0.726498       -19.7690
  18   2.0000      -0.716840       -19.5062
  19   2.0000      -0.654738       -17.8163
  20   2.0000      -0.632576       -17.2133
  21   2.0000      -0.626602       -17.0507
  22   2.0000      -0.582015       -15.8374
  23   2.0000      -0.574755       -15.6399
  24   2.0000      -0.561948       -15.2914
  25   2.0000      -0.554625       -15.0921
  26   2.0000      -0.538590       -14.6558
  27   2.0000      -0.518681       -14.1140
  28   2.0000      -0.478778       -13.0282
  29   2.0000      -0.459604       -12.5065
  30   2.0000      -0.410630       -11.1738
  31   2.0000      -0.330210        -8.9855
  32   2.0000      -0.292821        -7.9681
  33   0.0000       0.134145         3.6503
  34   0.0000       0.153885         4.1874
  35   0.0000       0.156636         4.2623
  36   0.0000       0.167013         4.5446
  37   0.0000       0.181204         4.9308

MULLIKEN ATOMIC CHARGES
-----------------------
   0 C :   -0.046757
   1 C :   -0.190834
   2 C :   -0.028350
   3 C :   -0.136695
   4 N :   -0.238757
   5 C :   -0.112087
   6 C :   -0.056391
   7 C :   -0.073693
   8 O :   -0.313737
   9 H :    0.124622
  10 H :    0.086085
  11 H :    0.114642
  12 H :    0.110963
  13 H :    0.141419
  14 H :    0.242443
  15 H :    0.143532
  16 H :    0.107895
  17 H :    0.125700
Sum of atomic charges:    0.0000000

LOEWDIN ATOMIC CHARGES
----------------------
   0 C :   -0.305788
   1 C :   -0.229882
   2 C :   -0.167475
   3 C :   -0.216783
   4 N :    0.180957
   5 C :   -0.218282
   6 C :   -0.171702
   7 C :   -0.275015
   8 O :    0.152899
   9 H :    0.127375
  10 H :    0.121549
  11 H :    0.143146
  12 H :    0.144225
  13 H :    0.132487
  14 H :    0.189738
  15 H :    0.132572
  16 H :    0.124885
  17 H :    0.135094

  Mayer bond orders larger than 0.1
B(  0-C ,  1-C ) :   0.9653 B(  0-C ,  8-O ) :   0.9197 B(  0-C ,  9-H ) :   0.9321
B(  0-C , 10-H ) :   0.9243 B(  1-C ,  2-C ) :   0.9107 B(  1-C , 11-H ) :   0.9258
B(  1-C , 12-H ) :   0.9017 B(  2-C ,  3-C ) :   1.4730 B(  2-C ,  6-C ) :   1.3033
B(  3-C ,  4-N ) :   1.1448 B(  3-C ,  5-C ) :   0.1023 B(  3-C , 13-H ) :   0.9063
B(  4-N ,  5-C ) :   1.1392 B(  4-N , 14-H ) :   0.8786 B(  5-C ,  6-C ) :   1.4606
B(  5-C , 15-H ) :   0.9092 B(  6-C ,  7-C ) :   0.8917 B(  7-C ,  8-O ) :   0.9673
B(  7-C , 16-H ) :   0.9691 B(  7-C , 17-H ) :   0.9185

MP2 TOTAL ENERGY:     -401.294143870 Eh
FINAL SINGLE POINT ENERGY      -401.294143870094

DIPOLE MOMENT
-------------
                                X             Y             Z
Electronic contribution:      2.21103      -1.71913      -1.26048
Nuclear contribution   :     -1.43794       2.01525       0.46970
                        -----------------------------------------
Total Dipole Moment    :      0.77310       0.29612      -0.79078
                        -----------------------------------------
Magnitude (a.u.)       :      1.14486
Magnitude (Debye)      :      2.90999

                             ****ORCA TERMINATED NORMALLY****
TOTAL RUN TIME: 0 days 0 hours 16 minutes 54 seconds 73 msec
