                         Program Version 3.0.3 - RELEASE   -
|  1> ! RI-MP2 RIJK def2-TZVP def2-TZVP/C def2-TZVP/JK TIGHTSCF
|  2> % maxcore 2000
|  3> % mp2 density relaxed end
|  4> *xyz 0 1
|  5>  C       -0.0775609777     1.4707477332    -0.3289878782
|  6>  C       -0.0105225873     0.0377587024    -0.0787928184
|  7>  C        0.0555359177    -1.1476706329     0.1213232791
|  8>  C        0.1021999820    -2.5862396682     0.3711434950
|  9>  C       -1.2849262304    -3.2146935953     0.3896297349
| 10>  N       -1.8302198398    -3.6829130373    -0.8947252921
| 11>  C       -1.5674192675    -4.6639531494     0.1789904624
| 12>  C       -0.4653879049    -5.6623763489    -0.1170452675
| 13>  C       -2.7578867777    -5.2575344963     0.9085975366
| 14>  H        0.5990873257     2.0246610352     0.3314946147
| 15>  H        0.2005863223     1.7091525682    -1.3617246661
| 16>  H       -1.0892440887     1.8579613182    -0.1631396479
| 17>  H        0.7107197104    -3.0739576865    -0.3970045835
| 18>  H        0.5964761639    -2.7773244043     1.3338615033
| 19>  H       -1.9725647104    -2.6975665909     1.0577860142
| 20>  H       -2.8237399507    -3.4744752633    -0.9577726314
| 21>  H        0.3299673360    -5.2190206934    -0.7179235310
| 22>  H       -0.0290643692    -6.0516861698     0.8098856478
| 23>  H       -0.8677499932    -6.5131591616    -0.6786392825
| 24>  H       -3.2318556239    -6.0403199811     0.3041856172
| 25>  H       -2.4545507841    -5.7145048447     1.8573875098
| 26>  H       -3.5121603323    -4.4953514832     1.1298081738
| 27> *
| 28>
| 29>                          ****END OF INPUT****

CARTESIAN COORDINATES (ANGSTROEM)
---------------------------------
  C     -0.077561    1.470748   -0.328988
  C     -0.010523    0.037759   -0.078793
  C      0.055536   -1.147671    0.121323
  C      0.102200   -2.586240    0.371143
  C     -1.284926   -3.214694    0.389630
  N     -1.830220   -3.682913   -0.894725
  C     -1.567419   -4.663953    0.178990
  C     -0.465388   -5.662376   -0.117045
  C     -2.757887   -5.257534    0.908598
  H      0.599087    2.024661    0.331495
  H      0.200586    1.709153   -1.361725
  H     -1.089244    1.857961   -0.163140
  H      0.710720   -3.073958   -0.397005
  H      0.596476   -2.777324    1.333862
  H     -1.972565   -2.697567    1.057786
  H     -2.823740   -3.474475   -0.957773
  H      0.329967   -5.219021   -0.717924
  H     -0.029064   -6.051686    0.809886
  H     -0.867750   -6.513159   -0.678639
  H     -3.231856   -6.040320    0.304186
  H     -2.454551   -5.714505    1.857388
  H     -3.512160   -4.495351    1.129808

 Total Charge           Charge          ....    0
 Multiplicity           Mult            ....    1
 Number of Electrons    NEL             ....   68
 Basis Dimension        Dim             ....  357

ORBITAL ENERGIES
----------------

  NO   OCC          E(Eh)            E(eV)
   0   2.0000     -15.548324      -423.0914
   1   2.0000     -11.264911      -306.5338
   2   2.0000     -11.258097      -306.3484
   3   2.0000     -11.244663      -305.9828
   4   2.0000     -11.240694      -305.8748
   5   2.0000     -11.224559      -305.4358
   6   2.0000     -11.216173      -305.2076
   7   2.0000     -11.214748      -305.1688
   8   2.0000     -11.210363      -305.0495
   9   2.0000      -1.262224       -34.3469
  10   2.0000      -1.066068       -29.0092
  11   2.0000      -1.019008       -27.7286
  12   2.0000      -1.010087       -27.4859
  13   2.0000      -0.944256       -25.6945
  14   2.0000      -0.926367       -25.2077
  15   2.0000      -0.837831       -22.7985
  16   2.0000      -0.752926       -20.4881
  17   2.0000      -0.681382       -18.5413
  18   2.0000      -0.650394       -17.6981
  19   2.0000      -0.621947       -16.9240
  20   2.0000      -0.605253       -16.4698
  21   2.0000      -0.596537       -16.2326
  22   2.0000      -0.582868       -15.8606
  23   2.0000      -0.579634       -15.7727
  24   2.0000      -0.569187       -15.4884
  25   2.0000      -0.558325       -15.1928
  26   2.0000      -0.542003       -14.7487
  27   2.0000      -0.531100       -14.4520
  28   2.0000      -0.488282       -13.2868
  29   2.0000      -0.451099       -12.2750
  30   2.0000      -0.446509       -12.1501
  31   2.0000      -0.389097       -10.5879
  32   2.0000      -0.359747        -9.7892
  33   2.0000      -0.355372        -9.6702
  34   0.0000       0.127868         3.4795
  35   0.0000       0.145003         3.9457
  36   0.0000       0.161517         4.3951
  37   0.0000       0.178293         4.8516
  38   0.0000       0.184467         5.0196

MULLIKEN ATOMIC CHARGES
-----------------------
   0 C :   -0.479990
   1 C :    0.069902
   2 C :   -0.037579
   3 C :   -0.335930
   4 C :   -0.097224
   5 N :   -0.397078
   6 C :    0.188117
   7 C :   -0.398468
   8 C :   -0.380576
   9 H :    0.159266
  10 H :    0.161294
  11 H :    0.158043
  12 H :    0.142085
  13 H :    0.137031
  14 H :    0.117550
  15 H :    0.212621
  16 H :    0.135454
  17 H :    0.124683
  18 H :    0.130342
  19 H :    0.135810
  20 H :    0.130687
  21 H :    0.123959
Sum of atomic charges:    0.0000000

LOEWDIN ATOMIC CHARGES
----------------------
   0 C :   -0.297628
   1 C :   -0.110328
   2 C :   -0.083665
   3 C :   -0.232725
   4 C :   -0.233391
   5 N :    0.025296
   6 C :   -0.334254
   7 C :   -0.267239
   8 C :   -0.276453
   9 H :    0.139324
  10 H :    0.140079
  11 H :    0.139183
  12 H :    0.159722
  13 H :    0.157841
  14 H :    0.142911
  15 H :    0.164585
  16 H :    0.127965
  17 H :    0.126881
  18 H :    0.129021
  19 H :    0.127486
  20 H :    0.129720
  21 H :    0.125667

  Mayer bond orders larger than 0.1
B(  0-C ,  1-C ) :   0.8516 B(  0-C ,  9-H ) :   0.9501 B(  0-C , 10-H ) :   0.9471
B(  0-C , 11-H ) :   0.9473 B(  1-C ,  2-C ) :   2.6744 B(  1-C ,  3-C ) :  -0.1149
B(  2-C ,  3-C ) :   1.0880 B(  3-C ,  4-C ) :   0.8871 B(  3-C , 12-H ) :   0.9352
B(  3-C , 13-H ) :   0.9299 B(  4-C ,  5-N ) :   0.9564 B(  4-C ,  6-C ) :   0.8864
B(  4-C , 14-H ) :   0.9240 B(  5-N ,  6-C ) :   0.8937 B(  5-N , 15-H ) :   0.8703
B(  6-C ,  7-C ) :   0.9022 B(  6-C ,  8-C ) :   0.9220 B(  7-C , 16-H ) :   0.9395
B(  7-C , 17-H ) :   0.9374 B(  7-C , 18-H ) :   0.9340 B(  8-C , 19-H ) :   0.9382
B(  8-C , 20-H ) :   0.9272 B(  8-C , 21-H ) :   0.9276

MP2 TOTAL ENERGY:     -366.502013489 Eh
FINAL SINGLE POINT ENERGY      -366.502013488907

DIPOLE MOMENT
-------------
                                X             Y             Z
Electronic contribution:      1.34063       3.75513      -1.13003
Nuclear contribution   :     -1.68104      -3.82530       1.65379
                        -----------------------------------------
Total Dipole Moment    :     -0.34041      -0.07017       0.52376
                        -----------------------------------------
Magnitude (a.u.)       :      0.62859
Magnitude (Debye)      :      1.59774

                             ****ORCA TERMINATED NORMALLY****
TOTAL RUN TIME: 0 days 0 hours 18 minutes 27 seconds 974 msec
